LAMMPS data file via write_data, version 29 Aug 2024, timestep = 0, units = metal

3456 atoms
12 atom types

0 102.955853078816 xlo xhi
0 100.30768226388 ylo yhi
0 17.071081306458 zlo zhi

Masses

1 15.999
2 15.999
3 15.999
4 44.955908
5 15.999
6 15.999
7 15.999
8 15.999
9 44.955912
10 44.955912
11 44.955912
12 15.999

Atoms # atomic

1825 9 0 0 1.035397169198001 0 0 0
1827 2 1.6086852043569948 0.9287748357769985 0 0 0 0
1831 11 3.217370408712995 0 1.035397169198001 0 0 0
1833 6 4.826055613069997 0.9287748357769985 0 0 0 0
1837 9 6.434740817425997 0 1.035397169198001 0 0 0
1839 2 8.043426021782999 0.9287748357769985 0 0 0 0
1843 11 9.652111226138999 0 1.035397169198001 0 0 0
1845 6 11.260796430496 0.9287748357769985 0 0 0 0
1849 9 12.869481634851994 0 1.035397169198001 0 0 0
1851 2 14.478166839208995 0.9287748357769985 0 0 0 0
1855 11 16.086852043565003 0 1.035397169198001 0 0 0
1857 6 17.69553724792199 0.9287748357769985 0 0 0 0
1861 9 19.304222452277997 0 1.035397169198001 0 0 0
1863 2 20.912907656635 0.9287748357769985 0 0 0 0
1867 11 22.521592860990992 0 1.035397169198001 0 0 0
1869 6 24.130278065347994 0.9287748357769985 0 0 0 0
1873 9 25.738963269704 0 1.035397169198001 0 0 0
1875 2 27.347648474061003 0.9287748357769985 0 0 0 0
1879 11 28.956333678416996 0 1.035397169198001 0 0 0
1881 6 30.565018882773998 0.9287748357769985 0 0 0 0
1885 9 32.17370408712999 0 1.035397169198001 0 0 0
1887 2 33.78238929148699 0.9287748357769985 0 0 0 0
1891 11 35.391074495843 0 1.035397169198001 0 0 0
1893 6 36.9997597002 0.9287748357769985 0 0 0 0
1897 9 38.608444904555995 0 1.035397169198001 0 0 0
1899 2 40.217130108913 0.9287748357769985 0 0 0 0
1903 11 41.825815313269004 0 1.035397169198001 0 0 0
1905 6 43.43450051762599 0.9287748357769985 0 0 0 0
1909 9 45.043185721982 0 1.035397169198001 0 0 0
1911 2 46.651870926339 0.9287748357769985 0 0 0 0
1915 11 48.260556130694994 0 1.035397169198001 0 0 0
1917 6 49.869241335051996 0.9287748357769985 0 0 0 0
1729 9 51.477926539408 0 1.035397169198001 -1 0 0
1731 2 53.086611743765005 0.9287748357769985 0 -1 0 0
1735 11 54.695296948121005 0 1.035397169198001 -1 0 0
1737 6 56.303982152478 0.9287748357769985 0 -1 0 0
1741 9 57.91266735683401 0 1.035397169198001 -1 0 0
1743 2 59.521352561191 0.9287748357769985 0 -1 0 0
1747 11 61.130037765547 0 1.035397169198001 -1 0 0
1749 6 62.738722969904 0.9287748357769985 0 -1 0 0
1753 9 64.34740817426001 0 1.035397169198001 -1 0 0
1755 2 65.956093378617 0.9287748357769985 0 -1 0 0
1759 11 67.564778582973 0 1.035397169198001 -1 0 0
1761 6 69.17346378733001 0.9287748357769985 0 -1 0 0
1765 9 70.782148991686 0 1.035397169198001 -1 0 0
1767 2 72.390834196043 0.9287748357769985 0 -1 0 0
1771 11 73.99951940039901 0 1.035397169198001 -1 0 0
1773 6 75.608204604756 0.9287748357769985 0 -1 0 0
1777 9 77.216889809112 0 1.035397169198001 -1 0 0
1779 2 78.825575013469 0.9287748357769985 0 -1 0 0
1783 11 80.434260217825 0 1.035397169198001 -1 0 0
1785 6 82.042945422182 0.9287748357769985 0 -1 0 0
1789 9 83.65163062653801 0 1.035397169198001 -1 0 0
1791 2 85.260315830895 0.9287748357769985 0 -1 0 0
1795 11 86.869001035251 0 1.035397169198001 -1 0 0
1797 6 88.477686239608 0.9287748357769985 0 -1 0 0
1801 9 90.086371443964 0 1.035397169198001 -1 0 0
1803 2 91.695056648321 0.9287748357769985 0 -1 0 0
1807 11 93.303741852677 0 1.035397169198001 -1 0 0
1809 6 94.912427057034 0.9287748357769985 0 -1 0 0
1813 9 96.52111226139 0 1.035397169198001 -1 0 0
1815 2 98.129797465747 0.9287748357769985 0 -1 0 0
1819 11 99.738482670103 0 1.035397169198001 -1 0 0
1821 6 101.34716787446001 0.9287748357769985 0 -1 0 0
1828 10 1.608685204356 2.7863245073300007 1.035397169198001 0 0 0
1834 12 4.826055613068995 2.7863245073300007 1.035397169198001 0 0 0
1840 10 8.043426021781997 2.7863245073300007 1.035397169198001 0 0 0
1846 12 11.260796430494999 2.7863245073300007 1.035397169198001 0 0 0
1852 10 14.478166839208 2.7863245073300007 1.035397169198001 0 0 0
1858 12 17.695537247920996 2.7863245073300007 1.035397169198001 0 0 0
1864 10 20.91290765663399 2.7863245073300007 1.035397169198001 0 0 0
1870 12 24.130278065347 2.7863245073300007 1.035397169198001 0 0 0
1876 10 27.347648474059994 2.7863245073300007 1.035397169198001 0 0 0
1882 12 30.565018882773003 2.7863245073300007 1.035397169198001 0 0 0
1888 10 33.782389291486 2.7863245073300007 1.035397169198001 0 0 0
1894 12 36.99975970019899 2.7863245073300007 1.035397169198001 0 0 0
1900 10 40.217130108912 2.7863245073300007 1.035397169198001 0 0 0
1906 12 43.434500517625 2.7863245073300007 1.035397169198001 0 0 0
1912 10 46.65187092633799 2.7863245073300007 1.035397169198001 0 0 0
1918 12 49.869241335051 2.7863245073300007 1.035397169198001 0 0 0
1732 10 53.086611743764 2.7863245073300007 1.035397169198001 -1 0 0
1738 12 56.303982152477005 2.7863245073300007 1.035397169198001 -1 0 0
1744 10 59.52135256119 2.7863245073300007 1.035397169198001 -1 0 0
1750 12 62.738722969903 2.7863245073300007 1.035397169198001 -1 0 0
1756 10 65.956093378616 2.7863245073300007 1.035397169198001 -1 0 0
1762 12 69.173463787329 2.7863245073300007 1.035397169198001 -1 0 0
1768 10 72.39083419604201 2.7863245073300007 1.035397169198001 -1 0 0
1774 12 75.608204604755 2.7863245073300007 1.035397169198001 -1 0 0
1780 10 78.82557501346801 2.7863245073300007 1.035397169198001 -1 0 0
1786 12 82.042945422181 2.7863245073300007 1.035397169198001 -1 0 0
1792 10 85.260315830894 2.7863245073300007 1.035397169198001 -1 0 0
1798 12 88.47768623960701 2.7863245073300007 1.035397169198001 -1 0 0
1804 10 91.69505664832 2.7863245073300007 1.035397169198001 -1 0 0
1810 12 94.912427057033 2.7863245073300007 1.035397169198001 -1 0 0
1816 10 98.12979746574601 2.7863245073300007 1.035397169198001 -1 0 0
1822 12 101.347167874459 2.7863245073300007 1.035397169198001 -1 0 0
1830 4 0 3.715099343106999 0 0 0 0
1836 8 3.217370408712995 3.715099343106999 0 0 0 0
1842 4 6.434740817425997 3.715099343106999 0 0 0 0
1848 8 9.652111226138999 3.715099343106999 0 0 0 0
1854 4 12.869481634851994 3.715099343106999 0 0 0 0
1860 8 16.086852043565003 3.715099343106999 0 0 0 0
1866 4 19.304222452277997 3.715099343106999 0 0 0 0
1872 8 22.521592860990992 3.715099343106999 0 0 0 0
1878 4 25.738963269704 3.715099343106999 0 0 0 0
1884 8 28.956333678416996 3.715099343106999 0 0 0 0
1890 4 32.17370408712999 3.715099343106999 0 0 0 0
1896 8 35.391074495843 3.715099343106999 0 0 0 0
1902 4 38.608444904555995 3.715099343106999 0 0 0 0
1908 8 41.825815313269004 3.715099343106999 0 0 0 0
1914 4 45.043185721982 3.715099343106999 0 0 0 0
1920 8 48.260556130694994 3.715099343106999 0 0 0 0
1734 4 51.477926539408 3.715099343106999 0 -1 0 0
1740 8 54.695296948121005 3.715099343106999 0 -1 0 0
1746 4 57.91266735683401 3.715099343106999 0 -1 0 0
1752 8 61.130037765547 3.715099343106999 0 -1 0 0
1758 4 64.34740817426001 3.715099343106999 0 -1 0 0
1764 8 67.564778582973 3.715099343106999 0 -1 0 0
1770 4 70.782148991686 3.715099343106999 0 -1 0 0
1776 8 73.99951940039901 3.715099343106999 0 -1 0 0
1782 4 77.216889809112 3.715099343106999 0 -1 0 0
1788 8 80.434260217825 3.715099343106999 0 -1 0 0
1794 4 83.65163062653801 3.715099343106999 0 -1 0 0
1800 8 86.869001035251 3.715099343106999 0 -1 0 0
1806 4 90.086371443964 3.715099343106999 0 -1 0 0
1812 8 93.303741852677 3.715099343106999 0 -1 0 0
1818 4 96.52111226139 3.715099343106999 0 -1 0 0
1824 8 99.738482670103 3.715099343106999 0 -1 0 0
2017 9 0 5.572649014660001 1.035397169198001 0 0 0
2019 2 1.6086852043569948 6.501423850437 0 0 0 0
2023 11 3.217370408712995 5.572649014660001 1.035397169198001 0 0 0
2025 6 4.826055613069997 6.501423850437 0 0 0 0
2029 9 6.434740817425997 5.572649014660001 1.035397169198001 0 0 0
2031 2 8.043426021782999 6.501423850437 0 0 0 0
2035 11 9.652111226138999 5.572649014660001 1.035397169198001 0 0 0
2037 6 11.260796430496 6.501423850437 0 0 0 0
2041 9 12.869481634851994 5.572649014660001 1.035397169198001 0 0 0
2043 2 14.478166839208995 6.501423850437 0 0 0 0
2047 11 16.086852043565003 5.572649014660001 1.035397169198001 0 0 0
2049 6 17.69553724792199 6.501423850437 0 0 0 0
2053 9 19.304222452277997 5.572649014660001 1.035397169198001 0 0 0
2055 2 20.912907656635 6.501423850437 0 0 0 0
2059 11 22.521592860990992 5.572649014660001 1.035397169198001 0 0 0
2061 6 24.130278065347994 6.501423850437 0 0 0 0
2065 9 25.738963269704 5.572649014660001 1.035397169198001 0 0 0
2067 2 27.347648474061003 6.501423850437 0 0 0 0
2071 11 28.956333678416996 5.572649014660001 1.035397169198001 0 0 0
2073 6 30.565018882773998 6.501423850437 0 0 0 0
2077 9 32.17370408712999 5.572649014660001 1.035397169198001 0 0 0
2079 2 33.78238929148699 6.501423850437 0 0 0 0
2083 11 35.391074495843 5.572649014660001 1.035397169198001 0 0 0
2085 6 36.9997597002 6.501423850437 0 0 0 0
2089 9 38.608444904555995 5.572649014660001 1.035397169198001 0 0 0
2091 2 40.217130108913 6.501423850437 0 0 0 0
2095 11 41.825815313269004 5.572649014660001 1.035397169198001 0 0 0
2097 6 43.43450051762599 6.501423850437 0 0 0 0
2101 9 45.043185721982 5.572649014660001 1.035397169198001 0 0 0
2103 2 46.651870926339 6.501423850437 0 0 0 0
2107 11 48.260556130694994 5.572649014660001 1.035397169198001 0 0 0
2109 6 49.869241335051996 6.501423850437 0 0 0 0
1921 9 51.477926539408 5.572649014660001 1.035397169198001 -1 0 0
1923 2 53.086611743765005 6.501423850437 0 -1 0 0
1927 11 54.695296948121005 5.572649014660001 1.035397169198001 -1 0 0
1929 6 56.303982152478 6.501423850437 0 -1 0 0
1933 9 57.91266735683401 5.572649014660001 1.035397169198001 -1 0 0
1935 2 59.521352561191 6.501423850437 0 -1 0 0
1939 11 61.130037765547 5.572649014660001 1.035397169198001 -1 0 0
1941 6 62.738722969904 6.501423850437 0 -1 0 0
1945 9 64.34740817426001 5.572649014660001 1.035397169198001 -1 0 0
1947 2 65.956093378617 6.501423850437 0 -1 0 0
1951 11 67.564778582973 5.572649014660001 1.035397169198001 -1 0 0
1953 6 69.17346378733001 6.501423850437 0 -1 0 0
1957 9 70.782148991686 5.572649014660001 1.035397169198001 -1 0 0
1959 2 72.390834196043 6.501423850437 0 -1 0 0
1963 11 73.99951940039901 5.572649014660001 1.035397169198001 -1 0 0
1965 6 75.608204604756 6.501423850437 0 -1 0 0
1969 9 77.216889809112 5.572649014660001 1.035397169198001 -1 0 0
1971 2 78.825575013469 6.501423850437 0 -1 0 0
1975 11 80.434260217825 5.572649014660001 1.035397169198001 -1 0 0
1977 6 82.042945422182 6.501423850437 0 -1 0 0
1981 9 83.65163062653801 5.572649014660001 1.035397169198001 -1 0 0
1983 2 85.260315830895 6.501423850437 0 -1 0 0
1987 11 86.869001035251 5.572649014660001 1.035397169198001 -1 0 0
1989 6 88.477686239608 6.501423850437 0 -1 0 0
1993 9 90.086371443964 5.572649014660001 1.035397169198001 -1 0 0
1995 2 91.695056648321 6.501423850437 0 -1 0 0
1999 11 93.303741852677 5.572649014660001 1.035397169198001 -1 0 0
2001 6 94.912427057034 6.501423850437 0 -1 0 0
2005 9 96.52111226139 5.572649014660001 1.035397169198001 -1 0 0
2007 2 98.129797465747 6.501423850437 0 -1 0 0
2011 11 99.738482670103 5.572649014660001 1.035397169198001 -1 0 0
2013 6 101.34716787446001 6.501423850437 0 -1 0 0
2020 10 1.608685204356 8.358973521990002 1.035397169198001 0 0 0
2022 4 0 9.287748357767 0 0 0 0
2028 8 3.217370408712995 9.287748357767 0 0 0 0
2026 12 4.826055613068995 8.358973521990002 1.035397169198001 0 0 0
2034 4 6.434740817425997 9.287748357767 0 0 0 0
2032 10 8.043426021781997 8.358973521990002 1.035397169198001 0 0 0
2040 8 9.652111226138999 9.287748357767 0 0 0 0
2038 12 11.260796430494999 8.358973521990002 1.035397169198001 0 0 0
2046 4 12.869481634851994 9.287748357767 0 0 0 0
2044 10 14.478166839208 8.358973521990002 1.035397169198001 0 0 0
2052 8 16.086852043565003 9.287748357767 0 0 0 0
2050 12 17.695537247920996 8.358973521990002 1.035397169198001 0 0 0
2058 4 19.304222452277997 9.287748357767 0 0 0 0
2056 10 20.91290765663399 8.358973521990002 1.035397169198001 0 0 0
2064 8 22.521592860990992 9.287748357767 0 0 0 0
2062 12 24.130278065347 8.358973521990002 1.035397169198001 0 0 0
2070 4 25.738963269704 9.287748357767 0 0 0 0
2068 10 27.347648474059994 8.358973521990002 1.035397169198001 0 0 0
2076 8 28.956333678416996 9.287748357767 0 0 0 0
2074 12 30.565018882773003 8.358973521990002 1.035397169198001 0 0 0
2082 4 32.17370408712999 9.287748357767 0 0 0 0
2080 10 33.782389291486 8.358973521990002 1.035397169198001 0 0 0
2088 8 35.391074495843 9.287748357767 0 0 0 0
2086 12 36.99975970019899 8.358973521990002 1.035397169198001 0 0 0
2094 4 38.608444904555995 9.287748357767 0 0 0 0
2092 10 40.217130108912 8.358973521990002 1.035397169198001 0 0 0
2100 8 41.825815313269004 9.287748357767 0 0 0 0
2098 12 43.434500517625 8.358973521990002 1.035397169198001 0 0 0
2106 4 45.043185721982 9.287748357767 0 0 0 0
2104 10 46.65187092633799 8.358973521990002 1.035397169198001 0 0 0
2112 8 48.260556130694994 9.287748357767 0 0 0 0
2110 12 49.869241335051 8.358973521990002 1.035397169198001 0 0 0
1926 4 51.477926539408 9.287748357767 0 -1 0 0
1924 10 53.086611743764 8.358973521990002 1.035397169198001 -1 0 0
1932 8 54.695296948121005 9.287748357767 0 -1 0 0
1930 12 56.303982152477005 8.358973521990002 1.035397169198001 -1 0 0
1938 4 57.91266735683401 9.287748357767 0 -1 0 0
1936 10 59.52135256119 8.358973521990002 1.035397169198001 -1 0 0
1944 8 61.130037765547 9.287748357767 0 -1 0 0
1942 12 62.738722969903 8.358973521990002 1.035397169198001 -1 0 0
1950 4 64.34740817426001 9.287748357767 0 -1 0 0
1948 10 65.956093378616 8.358973521990002 1.035397169198001 -1 0 0
1956 8 67.564778582973 9.287748357767 0 -1 0 0
1954 12 69.173463787329 8.358973521990002 1.035397169198001 -1 0 0
1962 4 70.782148991686 9.287748357767 0 -1 0 0
1960 10 72.39083419604201 8.358973521990002 1.035397169198001 -1 0 0
1968 8 73.99951940039901 9.287748357767 0 -1 0 0
1966 12 75.608204604755 8.358973521990002 1.035397169198001 -1 0 0
1974 4 77.216889809112 9.287748357767 0 -1 0 0
1972 10 78.82557501346801 8.358973521990002 1.035397169198001 -1 0 0
1980 8 80.434260217825 9.287748357767 0 -1 0 0
1978 12 82.042945422181 8.358973521990002 1.035397169198001 -1 0 0
1986 4 83.65163062653801 9.287748357767 0 -1 0 0
1984 10 85.260315830894 8.358973521990002 1.035397169198001 -1 0 0
1992 8 86.869001035251 9.287748357767 0 -1 0 0
1990 12 88.47768623960701 8.358973521990002 1.035397169198001 -1 0 0
1998 4 90.086371443964 9.287748357767 0 -1 0 0
1996 10 91.69505664832 8.358973521990002 1.035397169198001 -1 0 0
2004 8 93.303741852677 9.287748357767 0 -1 0 0
2002 12 94.912427057033 8.358973521990002 1.035397169198001 -1 0 0
2010 4 96.52111226139 9.287748357767 0 -1 0 0
2008 10 98.12979746574601 8.358973521990002 1.035397169198001 -1 0 0
2016 8 99.738482670103 9.287748357767 0 -1 0 0
2014 12 101.347167874459 8.358973521990002 1.035397169198001 -1 0 0
2209 9 0 11.145298029320003 1.035397169198001 0 0 0
2215 11 3.217370408712995 11.145298029320003 1.035397169198001 0 0 0
2221 9 6.434740817425997 11.145298029320003 1.035397169198001 0 0 0
2227 11 9.652111226138999 11.145298029320003 1.035397169198001 0 0 0
2233 9 12.869481634851994 11.145298029320003 1.035397169198001 0 0 0
2239 11 16.086852043565003 11.145298029320003 1.035397169198001 0 0 0
2245 9 19.304222452277997 11.145298029320003 1.035397169198001 0 0 0
2251 11 22.521592860990992 11.145298029320003 1.035397169198001 0 0 0
2257 9 25.738963269704 11.145298029320003 1.035397169198001 0 0 0
2263 11 28.956333678416996 11.145298029320003 1.035397169198001 0 0 0
2269 9 32.17370408712999 11.145298029320003 1.035397169198001 0 0 0
2275 11 35.391074495843 11.145298029320003 1.035397169198001 0 0 0
2281 9 38.608444904555995 11.145298029320003 1.035397169198001 0 0 0
2287 11 41.825815313269004 11.145298029320003 1.035397169198001 0 0 0
2293 9 45.043185721982 11.145298029320003 1.035397169198001 0 0 0
2299 11 48.260556130694994 11.145298029320003 1.035397169198001 0 0 0
2113 9 51.477926539408 11.145298029320003 1.035397169198001 -1 0 0
2119 11 54.695296948121005 11.145298029320003 1.035397169198001 -1 0 0
2125 9 57.91266735683401 11.145298029320003 1.035397169198001 -1 0 0
2131 11 61.130037765547 11.145298029320003 1.035397169198001 -1 0 0
2137 9 64.34740817426001 11.145298029320003 1.035397169198001 -1 0 0
2143 11 67.564778582973 11.145298029320003 1.035397169198001 -1 0 0
2149 9 70.782148991686 11.145298029320003 1.035397169198001 -1 0 0
2155 11 73.99951940039901 11.145298029320003 1.035397169198001 -1 0 0
2161 9 77.216889809112 11.145298029320003 1.035397169198001 -1 0 0
2167 11 80.434260217825 11.145298029320003 1.035397169198001 -1 0 0
2173 9 83.65163062653801 11.145298029320003 1.035397169198001 -1 0 0
2179 11 86.869001035251 11.145298029320003 1.035397169198001 -1 0 0
2185 9 90.086371443964 11.145298029320003 1.035397169198001 -1 0 0
2191 11 93.303741852677 11.145298029320003 1.035397169198001 -1 0 0
2197 9 96.52111226139 11.145298029320003 1.035397169198001 -1 0 0
2203 11 99.738482670103 11.145298029320003 1.035397169198001 -1 0 0
2211 2 1.6086852043569948 12.074072865097001 0 0 0 0
2217 6 4.826055613069997 12.074072865097001 0 0 0 0
2223 2 8.043426021782999 12.074072865097001 0 0 0 0
2229 6 11.260796430496 12.074072865097001 0 0 0 0
2235 2 14.478166839208995 12.074072865097001 0 0 0 0
2241 6 17.69553724792199 12.074072865097001 0 0 0 0
2247 2 20.912907656635 12.074072865097001 0 0 0 0
2253 6 24.130278065347994 12.074072865097001 0 0 0 0
2259 2 27.347648474061003 12.074072865097001 0 0 0 0
2265 6 30.565018882773998 12.074072865097001 0 0 0 0
2271 2 33.78238929148699 12.074072865097001 0 0 0 0
2277 6 36.9997597002 12.074072865097001 0 0 0 0
2283 2 40.217130108913 12.074072865097001 0 0 0 0
2289 6 43.43450051762599 12.074072865097001 0 0 0 0
2295 2 46.651870926339 12.074072865097001 0 0 0 0
2301 6 49.869241335051996 12.074072865097001 0 0 0 0
2115 2 53.086611743765005 12.074072865097001 0 -1 0 0
2121 6 56.303982152478 12.074072865097001 0 -1 0 0
2127 2 59.521352561191 12.074072865097001 0 -1 0 0
2133 6 62.738722969904 12.074072865097001 0 -1 0 0
2139 2 65.956093378617 12.074072865097001 0 -1 0 0
2145 6 69.17346378733001 12.074072865097001 0 -1 0 0
2151 2 72.390834196043 12.074072865097001 0 -1 0 0
2157 6 75.608204604756 12.074072865097001 0 -1 0 0
2163 2 78.825575013469 12.074072865097001 0 -1 0 0
2169 6 82.042945422182 12.074072865097001 0 -1 0 0
2175 2 85.260315830895 12.074072865097001 0 -1 0 0
2181 6 88.477686239608 12.074072865097001 0 -1 0 0
2187 2 91.695056648321 12.074072865097001 0 -1 0 0
2193 6 94.912427057034 12.074072865097001 0 -1 0 0
2199 2 98.129797465747 12.074072865097001 0 -1 0 0
2205 6 101.34716787446001 12.074072865097001 0 -1 0 0
2212 10 1.608685204356 13.931622536649996 1.035397169198001 0 0 0
2218 12 4.826055613068995 13.931622536649996 1.035397169198001 0 0 0
2224 10 8.043426021781997 13.931622536649996 1.035397169198001 0 0 0
2230 12 11.260796430494999 13.931622536649996 1.035397169198001 0 0 0
2236 10 14.478166839208 13.931622536649996 1.035397169198001 0 0 0
2242 12 17.695537247920996 13.931622536649996 1.035397169198001 0 0 0
2248 10 20.91290765663399 13.931622536649996 1.035397169198001 0 0 0
2254 12 24.130278065347 13.931622536649996 1.035397169198001 0 0 0
2260 10 27.347648474059994 13.931622536649996 1.035397169198001 0 0 0
2266 12 30.565018882773003 13.931622536649996 1.035397169198001 0 0 0
2272 10 33.782389291486 13.931622536649996 1.035397169198001 0 0 0
2278 12 36.99975970019899 13.931622536649996 1.035397169198001 0 0 0
2284 10 40.217130108912 13.931622536649996 1.035397169198001 0 0 0
2290 12 43.434500517625 13.931622536649996 1.035397169198001 0 0 0
2296 10 46.65187092633799 13.931622536649996 1.035397169198001 0 0 0
2302 12 49.869241335051 13.931622536649996 1.035397169198001 0 0 0
2116 10 53.086611743764 13.931622536649996 1.035397169198001 -1 0 0
2122 12 56.303982152477005 13.931622536649996 1.035397169198001 -1 0 0
2128 10 59.52135256119 13.931622536649996 1.035397169198001 -1 0 0
2134 12 62.738722969903 13.931622536649996 1.035397169198001 -1 0 0
2140 10 65.956093378616 13.931622536649996 1.035397169198001 -1 0 0
2146 12 69.173463787329 13.931622536649996 1.035397169198001 -1 0 0
2152 10 72.39083419604201 13.931622536649996 1.035397169198001 -1 0 0
2158 12 75.608204604755 13.931622536649996 1.035397169198001 -1 0 0
2164 10 78.82557501346801 13.931622536649996 1.035397169198001 -1 0 0
2170 12 82.042945422181 13.931622536649996 1.035397169198001 -1 0 0
2176 10 85.260315830894 13.931622536649996 1.035397169198001 -1 0 0
2182 12 88.47768623960701 13.931622536649996 1.035397169198001 -1 0 0
2188 10 91.69505664832 13.931622536649996 1.035397169198001 -1 0 0
2194 12 94.912427057033 13.931622536649996 1.035397169198001 -1 0 0
2200 10 98.12979746574601 13.931622536649996 1.035397169198001 -1 0 0
2206 12 101.347167874459 13.931622536649996 1.035397169198001 -1 0 0
2214 4 0 14.860397372427002 0 0 0 0
2220 8 3.217370408712995 14.860397372427002 0 0 0 0
2226 4 6.434740817425997 14.860397372427002 0 0 0 0
2232 8 9.652111226138999 14.860397372427002 0 0 0 0
2238 4 12.869481634851994 14.860397372427002 0 0 0 0
2244 8 16.086852043565003 14.860397372427002 0 0 0 0
2250 4 19.304222452277997 14.860397372427002 0 0 0 0
2256 8 22.521592860990992 14.860397372427002 0 0 0 0
2262 4 25.738963269704 14.860397372427002 0 0 0 0
2268 8 28.956333678416996 14.860397372427002 0 0 0 0
2274 4 32.17370408712999 14.860397372427002 0 0 0 0
2280 8 35.391074495843 14.860397372427002 0 0 0 0
2286 4 38.608444904555995 14.860397372427002 0 0 0 0
2292 8 41.825815313269004 14.860397372427002 0 0 0 0
2298 4 45.043185721982 14.860397372427002 0 0 0 0
2304 8 48.260556130694994 14.860397372427002 0 0 0 0
2118 4 51.477926539408 14.860397372427002 0 -1 0 0
2124 8 54.695296948121005 14.860397372427002 0 -1 0 0
2130 4 57.91266735683401 14.860397372427002 0 -1 0 0
2136 8 61.130037765547 14.860397372427002 0 -1 0 0
2142 4 64.34740817426001 14.860397372427002 0 -1 0 0
2148 8 67.564778582973 14.860397372427002 0 -1 0 0
2154 4 70.782148991686 14.860397372427002 0 -1 0 0
2160 8 73.99951940039901 14.860397372427002 0 -1 0 0
2166 4 77.216889809112 14.860397372427002 0 -1 0 0
2172 8 80.434260217825 14.860397372427002 0 -1 0 0
2178 4 83.65163062653801 14.860397372427002 0 -1 0 0
2184 8 86.869001035251 14.860397372427002 0 -1 0 0
2190 4 90.086371443964 14.860397372427002 0 -1 0 0
2196 8 93.303741852677 14.860397372427002 0 -1 0 0
2202 4 96.52111226139 14.860397372427002 0 -1 0 0
2208 8 99.738482670103 14.860397372427002 0 -1 0 0
2401 9 0 16.717947043980004 1.035397169198001 0 0 0
2403 2 1.6086852043569948 17.646721879756996 0 0 0 0
2407 11 3.217370408712995 16.717947043980004 1.035397169198001 0 0 0
2409 6 4.826055613069997 17.646721879756996 0 0 0 0
2413 9 6.434740817425997 16.717947043980004 1.035397169198001 0 0 0
2415 2 8.043426021782999 17.646721879756996 0 0 0 0
2419 11 9.652111226138999 16.717947043980004 1.035397169198001 0 0 0
2421 6 11.260796430496 17.646721879756996 0 0 0 0
2425 9 12.869481634851994 16.717947043980004 1.035397169198001 0 0 0
2427 2 14.478166839208995 17.646721879756996 0 0 0 0
2431 11 16.086852043565003 16.717947043980004 1.035397169198001 0 0 0
2433 6 17.69553724792199 17.646721879756996 0 0 0 0
2437 9 19.304222452277997 16.717947043980004 1.035397169198001 0 0 0
2439 2 20.912907656635 17.646721879756996 0 0 0 0
2443 11 22.521592860990992 16.717947043980004 1.035397169198001 0 0 0
2445 6 24.130278065347994 17.646721879756996 0 0 0 0
2449 9 25.738963269704 16.717947043980004 1.035397169198001 0 0 0
2451 2 27.347648474061003 17.646721879756996 0 0 0 0
2455 11 28.956333678416996 16.717947043980004 1.035397169198001 0 0 0
2457 6 30.565018882773998 17.646721879756996 0 0 0 0
2461 9 32.17370408712999 16.717947043980004 1.035397169198001 0 0 0
2463 2 33.78238929148699 17.646721879756996 0 0 0 0
2467 11 35.391074495843 16.717947043980004 1.035397169198001 0 0 0
2469 6 36.9997597002 17.646721879756996 0 0 0 0
2473 9 38.608444904555995 16.717947043980004 1.035397169198001 0 0 0
2475 2 40.217130108913 17.646721879756996 0 0 0 0
2479 11 41.825815313269004 16.717947043980004 1.035397169198001 0 0 0
2481 6 43.43450051762599 17.646721879756996 0 0 0 0
2485 9 45.043185721982 16.717947043980004 1.035397169198001 0 0 0
2487 2 46.651870926339 17.646721879756996 0 0 0 0
2491 11 48.260556130694994 16.717947043980004 1.035397169198001 0 0 0
2493 6 49.869241335051996 17.646721879756996 0 0 0 0
2305 9 51.477926539408 16.717947043980004 1.035397169198001 -1 0 0
2307 2 53.086611743765005 17.646721879756996 0 -1 0 0
2311 11 54.695296948121005 16.717947043980004 1.035397169198001 -1 0 0
2313 6 56.303982152478 17.646721879756996 0 -1 0 0
2317 9 57.91266735683401 16.717947043980004 1.035397169198001 -1 0 0
2319 2 59.521352561191 17.646721879756996 0 -1 0 0
2323 11 61.130037765547 16.717947043980004 1.035397169198001 -1 0 0
2325 6 62.738722969904 17.646721879756996 0 -1 0 0
2329 9 64.34740817426001 16.717947043980004 1.035397169198001 -1 0 0
2331 2 65.956093378617 17.646721879756996 0 -1 0 0
2335 11 67.564778582973 16.717947043980004 1.035397169198001 -1 0 0
2337 6 69.17346378733001 17.646721879756996 0 -1 0 0
2341 9 70.782148991686 16.717947043980004 1.035397169198001 -1 0 0
2343 2 72.390834196043 17.646721879756996 0 -1 0 0
2347 11 73.99951940039901 16.717947043980004 1.035397169198001 -1 0 0
2349 6 75.608204604756 17.646721879756996 0 -1 0 0
2353 9 77.216889809112 16.717947043980004 1.035397169198001 -1 0 0
2355 2 78.825575013469 17.646721879756996 0 -1 0 0
2359 11 80.434260217825 16.717947043980004 1.035397169198001 -1 0 0
2361 6 82.042945422182 17.646721879756996 0 -1 0 0
2365 9 83.65163062653801 16.717947043980004 1.035397169198001 -1 0 0
2367 2 85.260315830895 17.646721879756996 0 -1 0 0
2371 11 86.869001035251 16.717947043980004 1.035397169198001 -1 0 0
2373 6 88.477686239608 17.646721879756996 0 -1 0 0
2377 9 90.086371443964 16.717947043980004 1.035397169198001 -1 0 0
2379 2 91.695056648321 17.646721879756996 0 -1 0 0
2383 11 93.303741852677 16.717947043980004 1.035397169198001 -1 0 0
2385 6 94.912427057034 17.646721879756996 0 -1 0 0
2389 9 96.52111226139 16.717947043980004 1.035397169198001 -1 0 0
2391 2 98.129797465747 17.646721879756996 0 -1 0 0
2395 11 99.738482670103 16.717947043980004 1.035397169198001 -1 0 0
2397 6 101.34716787446001 17.646721879756996 0 -1 0 0
2404 10 1.608685204356 19.504271551309998 1.035397169198001 0 0 0
2410 12 4.826055613068995 19.504271551309998 1.035397169198001 0 0 0
2416 10 8.043426021781997 19.504271551309998 1.035397169198001 0 0 0
2422 12 11.260796430494999 19.504271551309998 1.035397169198001 0 0 0
2428 10 14.478166839208 19.504271551309998 1.035397169198001 0 0 0
2434 12 17.695537247920996 19.504271551309998 1.035397169198001 0 0 0
2440 10 20.91290765663399 19.504271551309998 1.035397169198001 0 0 0
2446 12 24.130278065347 19.504271551309998 1.035397169198001 0 0 0
2452 10 27.347648474059994 19.504271551309998 1.035397169198001 0 0 0
2458 12 30.565018882773003 19.504271551309998 1.035397169198001 0 0 0
2464 10 33.782389291486 19.504271551309998 1.035397169198001 0 0 0
2470 12 36.99975970019899 19.504271551309998 1.035397169198001 0 0 0
2476 10 40.217130108912 19.504271551309998 1.035397169198001 0 0 0
2482 12 43.434500517625 19.504271551309998 1.035397169198001 0 0 0
2488 10 46.65187092633799 19.504271551309998 1.035397169198001 0 0 0
2494 12 49.869241335051 19.504271551309998 1.035397169198001 0 0 0
2308 10 53.086611743764 19.504271551309998 1.035397169198001 -1 0 0
2314 12 56.303982152477005 19.504271551309998 1.035397169198001 -1 0 0
2320 10 59.52135256119 19.504271551309998 1.035397169198001 -1 0 0
2326 12 62.738722969903 19.504271551309998 1.035397169198001 -1 0 0
2332 10 65.956093378616 19.504271551309998 1.035397169198001 -1 0 0
2338 12 69.173463787329 19.504271551309998 1.035397169198001 -1 0 0
2344 10 72.39083419604201 19.504271551309998 1.035397169198001 -1 0 0
2350 12 75.608204604755 19.504271551309998 1.035397169198001 -1 0 0
2356 10 78.82557501346801 19.504271551309998 1.035397169198001 -1 0 0
2362 12 82.042945422181 19.504271551309998 1.035397169198001 -1 0 0
2368 10 85.260315830894 19.504271551309998 1.035397169198001 -1 0 0
2374 12 88.47768623960701 19.504271551309998 1.035397169198001 -1 0 0
2380 10 91.69505664832 19.504271551309998 1.035397169198001 -1 0 0
2386 12 94.912427057033 19.504271551309998 1.035397169198001 -1 0 0
2392 10 98.12979746574601 19.504271551309998 1.035397169198001 -1 0 0
2398 12 101.347167874459 19.504271551309998 1.035397169198001 -1 0 0
2406 4 0 20.433046387087003 0 0 0 0
2412 8 3.217370408712995 20.433046387087003 0 0 0 0
2418 4 6.434740817425997 20.433046387087003 0 0 0 0
2424 8 9.652111226138999 20.433046387087003 0 0 0 0
2430 4 12.869481634851994 20.433046387087003 0 0 0 0
2436 8 16.086852043565003 20.433046387087003 0 0 0 0
2442 4 19.304222452277997 20.433046387087003 0 0 0 0
2448 8 22.521592860990992 20.433046387087003 0 0 0 0
2454 4 25.738963269704 20.433046387087003 0 0 0 0
2460 8 28.956333678416996 20.433046387087003 0 0 0 0
2466 4 32.17370408712999 20.433046387087003 0 0 0 0
2472 8 35.391074495843 20.433046387087003 0 0 0 0
2478 4 38.608444904555995 20.433046387087003 0 0 0 0
2484 8 41.825815313269004 20.433046387087003 0 0 0 0
2490 4 45.043185721982 20.433046387087003 0 0 0 0
2496 8 48.260556130694994 20.433046387087003 0 0 0 0
2310 4 51.477926539408 20.433046387087003 0 -1 0 0
2316 8 54.695296948121005 20.433046387087003 0 -1 0 0
2322 4 57.91266735683401 20.433046387087003 0 -1 0 0
2328 8 61.130037765547 20.433046387087003 0 -1 0 0
2334 4 64.34740817426001 20.433046387087003 0 -1 0 0
2340 8 67.564778582973 20.433046387087003 0 -1 0 0
2346 4 70.782148991686 20.433046387087003 0 -1 0 0
2352 8 73.99951940039901 20.433046387087003 0 -1 0 0
2358 4 77.216889809112 20.433046387087003 0 -1 0 0
2364 8 80.434260217825 20.433046387087003 0 -1 0 0
2370 4 83.65163062653801 20.433046387087003 0 -1 0 0
2376 8 86.869001035251 20.433046387087003 0 -1 0 0
2382 4 90.086371443964 20.433046387087003 0 -1 0 0
2388 8 93.303741852677 20.433046387087003 0 -1 0 0