LAMMPS data file via write_data, version 29 Aug 2024, timestep = 16, units = metal

6912 atoms
24 atom types

0 102.955853078816 xlo xhi
0 100.30768226388 ylo yhi
-50 50 zlo zhi

Masses

1 44.955908
2 44.955908
3 44.955908
4 44.955908
5 44.955908
6 44.955908
7 44.955908
8 44.955908
9 15.999
10 15.999
11 15.999
12 15.999
13 15.999
14 15.999
15 15.999
16 15.999
17 15.999
18 15.999
19 15.999
20 15.999
21 15.999
22 15.999
23 15.999
24 15.999

Atoms # atomic

1827 2 1.6248370330207582 0.9194626297069234 0.013076298137707327 0 0 0
1831 15 3.201504679781346 0.009196683878803407 1.038508263645648 0 0 0
1833 10 4.826039533770214 0.9287894270754055 0.005838336247296025 0 0 0
1828 14 1.4050838059009423 3.6485928839061406 0.9501124586645359 0 0 0
1834 16 4.890111101852008 3.170357326088527 0.9934288297786937 0 0 0
1836 12 3.2174309183914933 3.7150930179874257 0.005857316390171396 0 0 0
2017 13 0.15146372834401037 5.266366284655037 1.1750127054692092 0 0 0
2023 15 3.2015046797813462 5.581845698538802 1.0385082636456475 0 0 0
1826 1 1.7360158081768389 0.6180424494402865 2.183375560501624 0 0 0
1832 9 4.825715369380401 0.9289085222444021 2.0899818831288357 0 0 0
1835 11 3.218059414269343 3.7150926756671256 2.090449189931715 0 0 0
1839 2 8.05957785044676 0.9194626297069243 0.013076298137706544 0 0 0
1843 15 9.63624549720735 0.009196683878802719 1.0385082636456489 0 0 0
1845 10 11.260780351196217 0.9287894270754055 0.005838336247296029 0 0 0
1840 14 7.839824623326937 3.6485928839061446 0.9501124586645396 0 0 0
1846 16 11.324851919278005 3.1703573260885265 0.9934288297786917 0 0 0
1842 4 6.381571007088011 3.1788275256364042 -0.49984754769362744 0 0 0
1848 12 9.652171735817497 3.7150930179874257 0.005857316390171396 0 0 0
2029 13 6.586204545770023 5.266366284655052 1.1750127054692039 0 0 0
2035 15 9.636245497207348 5.581845698538805 1.0385082636456477 0 0 0
1838 1 8.170756625602849 0.6180424494403204 2.1833755605016596 0 0 0
1844 9 11.260456186806403 0.9289085222444021 2.0899818831288357 0 0 0
1841 3 6.347584434371755 3.63030049190007 2.4497121589679365 0 0 0
1847 11 9.652800231695348 3.7150926756671256 2.090449189931715 0 0 0
1851 2 14.494318667872763 0.9194626297069218 0.013076298137708772 0 0 0
1855 15 16.07098631463336 0.009196683878804703 1.0385082636456466 0 0 0
1852 14 14.274565440752939 3.6485928839061454 0.9501124586645437 0 0 0
1854 4 12.816311824514015 3.178827525636412 -0.4998475476936279 0 0 0
1860 12 16.086912553243508 3.7150930179874257 0.005857316390171397 0 0 0
2041 13 13.020945363196015 5.2663662846550485 1.1750127054692012 0 0 0
2047 15 16.07098631463336 5.581845698538808 1.0385082636456464 0 0 0
1850 1 14.605497443028838 0.6180424494402792 2.183375560501616 0 0 0
1853 3 12.782325251797754 3.6303004919000643 2.449712158967943 0 0 0
1859 11 16.08754104912135 3.7150926756671256 2.090449189931715 0 0 0
1857 10 17.695521168622204 0.9287894270754055 0.005838336247296028 0 0 0
1863 2 20.92905948529876 0.9194626297069237 0.0130762981377068 0 0 0
1867 15 22.50572713205935 0.009196683878802929 1.0385082636456482 0 0 0
1858 16 17.75959273670401 3.170357326088525 0.9934288297786935 0 0 0
1864 14 20.709306258178938 3.648592883906146 0.9501124586645399 0 0 0
1866 4 19.25105264194002 3.17882752563641 -0.499847547693627 0 0 0
1872 12 22.521653370669497 3.7150930179874257 0.005857316390171392 0 0 0
2053 13 19.455686180622017 5.266366284655047 1.1750127054692021 0 0 0
2059 15 22.505727132059345 5.581845698538803 1.0385082636456493 0 0 0
1856 9 17.695197004232387 0.9289085222444021 2.0899818831288357 0 0 0
1862 1 21.040238260454842 0.6180424494403084 2.1833755605016463 0 0 0
1865 3 19.21706606922376 3.6303004919000657 2.4497121589679387 0 0 0
1871 11 22.52228186654734 3.7150926756671256 2.090449189931715 0 0 0
1869 10 24.130261986048207 0.9287894270754055 0.005838336247296028 0 0 0
1875 2 27.363800302724766 0.9194626297069237 0.0130762981377068 0 0 0
1870 16 24.19433355413002 3.170357326088525 0.9934288297786911 0 0 0
1876 14 27.144047075604945 3.6485928839061463 0.9501124586645423 0 0 0
1878 4 25.68579345936602 3.178827525636409 -0.49984754769362644 0 0 0
2065 13 25.89042699804802 5.266366284655047 1.175012705469202 0 0 0
1868 9 24.12993782165839 0.9289085222444021 2.0899818831288357 0 0 0
1874 1 27.474979077880842 0.618042449440308 2.1833755605016494 0 0 0
1877 3 25.651806886649762 3.6303004919000657 2.449712158967938 0 0 0
1879 15 28.940467949485353 0.009196683878802929 1.0385082636456482 0 0 0
1881 10 30.56500280347421 0.9287894270754055 0.00583833624729603 0 0 0
1887 2 33.79854112015077 0.9194626297069237 0.013076298137706907 0 0 0
1882 16 30.62907437155601 3.170357326088525 0.9934288297787002 0 0 0
1888 14 33.578787893030935 3.648592883906145 0.9501124586645296 0 0 0
1884 12 28.9563941880955 3.7150930179874257 0.005857316390171399 0 0 0
1890 4 32.12053427679201 3.1788275256364034 -0.4998475476936272 0 0 0
2071 15 28.94046794948535 5.581845698538803 1.0385082636456493 0 0 0
2077 13 32.325167815474025 5.2663662846550565 1.1750127054692074 0 0 0
1880 9 30.564678639084395 0.9289085222444021 2.0899818831288357 0 0 0
1886 1 33.909719895306836 0.6180424494403134 2.183375560501654 0 0 0
1883 11 28.957022683973342 3.7150926756671256 2.090449189931715 0 0 0
1889 3 32.086547704075755 3.630300491900066 2.4497121589679374 0 0 0
1891 15 35.375208766911356 0.00919668387880304 1.0385082636456486 0 0 0
1893 10 36.99974362090022 0.9287894270754055 0.005838336247296026 0 0 0
1894 16 37.063815188982005 3.170357326088525 0.9934288297786936 0 0 0
1896 12 35.391135005521484 3.7150930179874257 0.005857316390171393 0 0 0
1902 4 38.55527509421801 3.1788275256363963 -0.4998475476936305 0 0 0
2083 15 35.375208766911356 5.581845698538804 1.0385082636456489 0 0 0
2089 13 38.75990863290002 5.266366284655054 1.1750127054692 0 0 0
1892 9 36.9994194565104 0.9289085222444021 2.0899818831288357 0 0 0
1895 11 35.39176350139934 3.7150926756671256 2.090449189931715 0 0 0
1901 3 38.52128852150175 3.6303004919000688 2.449712158967943 0 0 0
1900 14 40.013528710456946 3.6485928839061432 0.9501124586645314 0 0 0
1899 2 40.23328193757678 0.9194626297069237 0.013076298137706908 0 0 0
1903 15 41.80994958433736 0.00919668387880304 1.0385082636456486 0 0 0
1905 10 43.43448443832621 0.9287894270754055 0.005838336247296027 0 0 0
1906 16 43.49855600640801 3.1703573260885283 0.9934288297786933 0 0 0
1908 12 41.82587582294749 3.7150930179874257 0.005857316390171399 0 0 0
1914 4 44.99001591164401 3.1788275256363945 -0.4998475476936275 0 0 0
2095 15 41.80994958433736 5.581845698538804 1.0385082636456489 0 0 0
2101 13 45.194649450326025 5.266366284655055 1.1750127054692032 0 0 0
1898 1 40.34446071273285 0.618042449440316 2.183375560501662 0 0 0
1904 9 43.43416027393639 0.9289085222444021 2.0899818831288357 0 0 0
1907 11 41.82650431882534 3.7150926756671256 2.090449189931715 0 0 0
1913 3 44.956029338927756 3.630300491900069 2.449712158967933 0 0 0
1911 2 46.66802275500277 0.9194626297069269 0.013076298137703495 0 0 0
1915 15 48.24469040176335 0.009196683878799988 1.0385082636456515 0 0 0
1917 10 49.86922525575221 0.9287894270754055 0.00583833624729602 0 0 0
1912 14 46.44826952788294 3.648592883906144 0.9501124586645359 0 0 0
1918 16 49.93329682383403 3.1703573260885265 0.993428829778694 0 0 0
1920 12 48.26061664037348 3.7150930179874257 0.005857316390171394 0 0 0
2107 15 48.24469040176335 5.581845698538801 1.0385082636456513 0 0 0
1910 1 46.77920153015884 0.6180424494403167 2.1833755605016556 0 0 0
1916 9 49.868901091362396 0.9289085222444021 2.0899818831288357 0 0 0
1919 11 48.26124513625133 3.7150926756671256 2.090449189931715 0 0 0
1734 4 51.42475672907002 3.1788275256363967 -0.49984754769362766 -1 0 0
1733 3 51.39077015635377 3.6303004919000657 2.4497121589679356 -1 0 0
1731 2 53.10276357242878 0.9194626297069234 0.013076298137707467 -1 0 0
1735 15 54.67943121918936 0.009196683878803529 1.0385082636456482 -1 0 0
1737 10 56.303966073178216 0.9287894270754055 0.005838336247296027 -1 0 0
1732 14 52.88301034530895 3.6485928839061454 0.9501124586645352 -1 0 0
1738 16 56.36803764126002 3.170357326088523 0.9934288297786866 -1 0 0
1740 12 54.69535745779949 3.7150930179874257 0.005857316390171393 -1 0 0
1921 13 51.629390267752036 5.266366284655053 1.175012705469201 -1 0 0
1927 15 54.67943121918936 5.581845698538804 1.0385082636456486 -1 0 0
1730 1 53.213942347584855 0.6180424494403152 2.183375560501652 -1 0 0
1736 9 56.3036419087884 0.9289085222444021 2.0899818831288357 -1 0 0
1739 11 54.695985953677344 3.7150926756671256 2.090449189931715 -1 0 0
1743 2 59.537504389854774 0.9194626297069234 0.01307629813770747 -1 0 0
1747 15 61.11417203661536 0.009196683878803536 1.0385082636456482 -1 0 0
1749 10 62.73870689060422 0.9287894270754055 0.0058383362472960235 -1 0 0
1744 14 59.31775116273494 3.648592883906141 0.9501124586645372 -1 0 0
1750 16 62.80277845868602 3.170357326088523 0.9934288297786962 -1 0 0
1746 4 57.859497546496016 3.178827525636383 -0.4998475476936285 -1 0 0
1752 12 61.130098275225485 3.7150930179874257 0.0058573163901713896 -1 0 0
1933 13 58.06413108517804 5.2663662846550565 1.1750127054692063 -1 0 0
1939 15 61.11417203661536 5.581845698538804 1.0385082636456486 -1 0 0
1742 1 59.648683165010844 0.618042449440308 2.1833755605016507 -1 0 0
1748 9 62.738382726214404 0.9289085222444021 2.0899818831288357 -1 0 0
1745 3 57.825510973779764 3.630300491900075 2.449712158967927 -1 0 0
1751 11 61.13072677110334 3.7150926756671256 2.090449189931715 -1 0 0
1755 2 65.97224520728075 0.9194626297069244 0.013076298137706064 -1 0 0
1759 15 67.54891285404133 0.009196683878802313 1.038508263645649 -1 0 0
1756 14 65.75249198016094 3.648592883906147 0.9501124586645326 -1 0 0
1758 4 64.29423836392202 3.178827525636403 -0.49984754769362694 -1 0 0
1764 12 67.5648390926515 3.7150930179874257 0.005857316390171394 -1 0 0
1945 13 64.49887190260402 5.266366284655049 1.1750127054692079 -1 0 0
1951 15 67.54891285404135 5.581845698538805 1.0385082636456475 -1 0 0
1754 1 66.08342398243686 0.6180424494403202 2.1833755605016605 -1 0 0
1757 3 64.26025179120577 3.6303004919000594 2.449712158967934 -1 0 0
1763 11 67.56546758852937 3.7150926756671256 2.090449189931715 -1 0 0
1761 10 69.17344770803024 0.9287894270754055 0.005838336247296024 -1 0 0
1767 2 72.40698602470675 0.9194626297069244 0.013076298137706065 -1 0 0
1771 15 73.98365367146734 0.009196683878802315 1.038508263645649 -1 0 0
1762 16 69.237519276112 3.1703573260885225 0.9934288297786894 -1 0 0
1768 14 72.18723279758694 3.6485928839061486 0.9501124586645339 -1 0 0
1770 4 70.72897918134801 3.1788275256364025 -0.49984754769362844 -1 0 0
1776 12 73.9995799100775 3.7150930179874257 0.005857316390171392 -1 0 0
1957 13 70.93361272003001 5.266366284655061 1.1750127054692017 -1 0 0
1963 15 73.98365367146735 5.581845698538805 1.0385082636456475 -1 0 0
1760 9 69.17312354364044 0.9289085222444021 2.0899818831288357 -1 0 0
1766 1 72.51816479986284 0.6180424494403131 2.183375560501671 -1 0 0
1769 3 70.69499260863174 3.6303004919000568 2.449712158967951 -1 0 0
1775 11 74.00020840595538 3.7150926756671256 2.090449189931715 -1 0 0
1773 10 75.60818852545623 0.9287894270754055 0.00583833624729602 -1 0 0
1779 2 78.84172684213279 0.9194626297069224 0.013076298137708496 -1 0 0
1774 16 75.672260093538 3.1703573260885225 0.9934288297786902 -1 0 0
1780 14 78.62197361501295 3.6485928839061486 0.9501124586645344 -1 0 0
1782 4 77.16371999877401 3.1788275256364025 -0.4998475476936283 -1 0 0
1969 13 77.36835353745602 5.266366284655061 1.1750127054692021 -1 0 0
1772 9 75.60786436106643 0.9289085222444021 2.0899818831288357 -1 0 0
1778 1 78.95290561728883 0.6180424494403128 2.183375560501673 -1 0 0
1781 3 77.12973342605774 3.630300491900057 2.44971215896795 -1 0 0
1783 15 80.41839448889336 0.009196683878804433 1.0385082636456464 -1 0 0
1785 10 82.04292934288223 0.9287894270754055 0.005838336247296029 -1 0 0
1791 2 85.27646765955875 0.9194626297069244 0.013076298137706072 -1 0 0
1786 16 82.107000910964 3.170357326088524 0.9934288297786905 -1 0 0
1792 14 85.05671443243894 3.6485928839061486 0.9501124586645373 -1 0 0
1788 12 80.43432072750349 3.7150930179874257 0.005857316390171395 -1 0 0
1794 4 83.5984608162 3.1788275256363923 -0.4998475476936341 -1 0 0
1975 15 80.41839448889336 5.581845698538806 1.0385082636456469 -1 0 0
1981 13 83.80309435488202 5.266366284655053 1.175012705469204 -1 0 0
1784 9 82.04260517849244 0.9289085222444021 2.0899818831288357 -1 0 0
1790 1 85.38764643471482 0.6180424494403276 2.1833755605016774 -1 0 0
1787 11 80.43494922338137 3.7150926756671256 2.090449189931715 -1 0 0
1793 3 83.56447424348374 3.630300491900068 2.4497121589679365 -1 0 0
1795 15 86.85313530631933 0.009196683878802313 1.038508263645649 -1 0 0
1797 10 88.47767016030824 0.9287894270754055 0.005838336247296029 -1 0 0
1798 16 88.54174172839001 3.1703573260885287 0.9934288297786893 -1 0 0
1800 12 86.8690615449295 3.7150930179874257 0.005857316390171394 -1 0 0
1806 4 90.033201633626 3.178827525636407 -0.4998475476936304 -1 0 0
1987 15 86.85313530631934 5.581845698538805 1.0385082636456475 -1 0 0
1993 13 90.23783517230802 5.266366284655056 1.1750127054692048 -1 0 0
1796 9 88.47734599591844 0.9289085222444021 2.0899818831288357 -1 0 0
1799 11 86.86969004080737 3.7150926756671256 2.090449189931715 -1 0 0
1805 3 89.99921506090975 3.6303004919000625 2.449712158967945 -1 0 0
1804 14 91.49145524986496 3.648592883906146 0.9501124586645419 -1 0 0
1803 2 91.71120847698475 0.9194626297069244 0.013076298137706065 -1 0 0
1807 15 93.28787612374533 0.009196683878802313 1.038508263645649 -1 0 0
1809 10 94.91241097773423 0.9287894270754055 0.005838336247296024 -1 0 0
1810 16 94.976482545816 3.170357326088522 0.9934288297786896 -1 0 0
1812 12 93.3038023623555 3.7150930179874257 0.005857316390171393 -1 0 0
1818 4 96.46794245105201 3.1788275256364003 -0.499847547693629 -1 0 0
1999 15 93.28787612374535 5.581845698538805 1.0385082636456475 -1 0 0
2005 13 96.67257598973403 5.266366284655065 1.1750127054692039 -1 0 0
1802 1 91.82238725214084 0.6180424494402696 2.1833755605016 -1 0 0
1808 9 94.91208681334443 0.9289085222444021 2.0899818831288357 -1 0 0
1811 11 93.30443085823337 3.7150926756671256 2.090449189931715 -1 0 0
1817 3 96.43395587833574 3.6303004919000563 2.449712158967951 -1 0 0
1830 4 102.90268326847803 3.1788275256364202 -0.4998475476936274 -1 0 0
1829 3 102.86869669576177 3.6303004919000683 2.4497121589679414 -1 0 0
1815 2 98.14594929441078 0.9194626297069224 0.013076298137708496 -1 0 0
1819 15 99.72261694117135 0.009196683878804434 1.0385082636456464 -1 0 0
1821 10 101.34715179516024 0.9287894270754055 0.005838336247296032 -1 0 0
1816 14 97.92619606729095 3.648592883906148 0.9501124586645328 -1 0 0
1822 16 101.411223363242 3.170357326088529 0.9934288297786985 -1 0 0
1824 12 99.73854317978149 3.7150930179874257 0.005857316390171394 -1 0 0
2011 15 99.72261694117135 5.581845698538806 1.0385082636456469 -1 0 0
1814 1 98.25712806956685 0.6180424494403136 2.1833755605016707 -1 0 0
1820 9 101.34682763077045 0.9289085222444021 2.0899818831288357 -1 0 0
1823 11 99.73917167565936 3.7150926756671256 2.090449189931715 -1 0 0
2019 2 1.624837033020757 6.492111644366926 0.013076298137707046 0 0 0
2025 10 4.826039533770214 6.501438441735406 0.005838336247296018 0 0 0
2020 14 1.4050838059009372 9.221241898566145 0.9501124586645481 0 0 0
2028 12 3.2174309183914933 9.28774203264743 0.005857316390171397 0 0 0
2026 16 4.890111101852006 8.743006340748526 0.9934288297786921 0 0 0
2209 13 0.15146372834402 10.839015299315044 1.175012705469206 0 0 0
2215 15 3.201504679781347 11.154494713198806 1.038508263645648 0 0 0
2018 1 1.7360158081768342 6.190691464100315 2.183375560501669 0 0 0
2024 9 4.825715369380401 6.501557536904404 2.0899818831288357 0 0 0
2027 11 3.218059414269343 9.28774169032713 2.090449189931715 0 0 0
2210 1 1.7360158081768347 11.763340478760323 2.183375560501677 0 0 0
2031 2 8.059577850446763 6.492111644366926 0.013076298137707203 0 0 0
2037 10 11.260780351196217 6.501438441735406 0.005838336247296017 0 0 0
2034 4 6.381571007088009 8.751476540296402 -0.4998475476936288 0 0 0
2032 14 7.839824623326937 9.221241898566145 0.9501124586645381 0 0 0
2040 12 9.652171735817497 9.28774203264743 0.005857316390171393 0 0 0
2038 16 11.324851919278007 8.743006340748526 0.9934288297786914 0 0 0
2221 13 6.586204545770024 10.839015299315054 1.1750127054692023 0 0 0
2227 15 9.636245497207348 11.154494713198808 1.0385082636456477 0 0 0
2030 1 8.170756625602836 6.190691464100319 2.18337556050168 0 0 0
2036 9 11.260456186806403 6.501557536904404 2.0899818831288357 0 0 0
2033 3 6.347584434371754 9.202949506560067 2.4497121589679383 0 0 0
2039 11 9.652800231695348 9.28774169032713 2.090449189931715 0 0 0
2222 1 8.170756625602834 11.76334047876032 2.183375560501684 0 0 0
2043 2 14.494318667872763 6.492111644366924 0.013076298137709087 0 0 0
2046 4 12.816311824514013 8.751476540296405 -0.4998475476936269 0 0 0
2044 14 14.274565440752935 9.221241898566145 0.9501124586645404 0 0 0
2052 12 16.086912553243508 9.28774203264743 0.005857316390171396 0 0 0
2233 13 13.02094536319602 10.839015299315049 1.1750127054692039 0 0 0
2239 15 16.07098631463336 11.154494713198808 1.0385082636456462 0 0 0
2042 1 14.605497443028835 6.190691464100315 2.183375560501675 0 0 0
2045 3 12.782325251797756 9.20294950656007 2.4497121589679343 0 0 0
2051 11 16.08754104912135 9.28774169032713 2.090449189931715 0 0 0
2234 1 14.605497443028838 11.76334047876032 2.1833755605016822 0 0 0
2049 10 17.695521168622204 6.501438441735406 0.005838336247296019 0 0 0
2055 2 20.92905948529876 6.4921116443669264 0.013076298137705498 0 0 0
2050 16 17.759592736704008 8.743006340748524 0.993428829778693 0 0 0
2058 4 19.251052641940014 8.751476540296403 -0.4998475476936293 0 0 0
2056 14 20.709306258178934 9.221241898566147 0.9501124586645386 0 0 0
2064 12 22.521653370669497 9.28774203264743 0.005857316390171391 0 0 0
2245 13 19.455686180622024 10.839015299315053 1.1750127054692054 0 0 0
2251 15 22.50572713205935 11.154494713198805 1.0385082636456506 0 0 0
2048 9 17.695197004232387 6.501557536904404 2.0899818831288357 0 0 0
2054 1 21.040238260454835 6.190691464100319 2.183375560501678 0 0 0
2057 3 19.217066069223762 9.202949506560072 2.4497121589679307 0 0 0
2063 11 22.52228186654734 9.28774169032713 2.090449189931715 0 0 0
2246 1 21.040238260454835 11.763340478760323 2.183375560501686 0 0 0
2061 10 24.130261986048207 6.501438441735406 0.005838336247296017 0 0 0
2067 2 27.363800302724766 6.4921116443669264 0.013076298137705503 0 0 0
2062 16 24.19433355413001 8.743006340748524 0.993428829778693 0 0 0
2070 4 25.685793459366018 8.751476540296403 -0.4998475476936293 0 0 0
2068 14 27.144047075604938 9.221241898566147 0.9501124586645386 0 0 0
2257 13 25.890426998048028 10.839015299315053 1.1750127054692054 0 0 0
2060 9 24.12993782165839 6.501557536904404 2.0899818831288357 0 0 0
2066 1 27.47497907788084 6.190691464100319 2.183375560501678 0 0 0
2069 3 25.651806886649766 9.202949506560072 2.4497121589679307 0 0 0
2258 1 27.47497907788084 11.763340478760323 2.183375560501686 0 0 0
2073 10 30.56500280347421 6.501438441735406 0.005838336247296022 0 0 0
2079 2 33.798541120150766 6.492111644366926 0.013076298137706464 0 0 0
2076 12 28.9563941880955 9.28774203264743 0.005857316390171396 0 0 0
2074 16 30.62907437155601 8.74300634074853 0.993428829778692 0 0 0
2082 4 32.12053427679201 8.75147654029641 -0.49984754769362955 0 0 0
2080 14 33.57878789303094 9.22124189856615 0.9501124586645379 0 0 0
2263 15 28.940467949485353 11.154494713198805 1.0385082636456506 0 0 0
2269 13 32.32516781547402 10.839015299315054 1.175012705469208 0 0 0
2072 9 30.564678639084395 6.501557536904404 2.0899818831288357 0 0 0
2078 1 33.90971989530683 6.190691464100319 2.183375560501678 0 0 0
2075 11 28.957022683973342 9.28774169032713 2.090449189931715 0 0 0
2081 3 32.086547704075755 9.202949506560063 2.44971215896794 0 0 0
2270 1 33.90971989530682 11.76334047876032 2.1833755605016774 0 0 0
2085 10 36.99974362090022 6.501438441735406 0.0058383362472960165 0 0 0
2088 12 35.391135005521484 9.28774203264743 0.005857316390171392 0 0 0
2086 16 37.06381518898201 8.743006340748526 0.9934288297786947 0 0 0
2094 4 38.555275094218004 8.751476540296391 -0.49984754769362927 0 0 0
2275 15 35.37520876691136 11.154494713198806 1.038508263645651 0 0 0
2281 13 38.75990863290003 10.839015299315061 1.1750127054692034 0 0 0
2084 9 36.9994194565104 6.501557536904404 2.0899818831288357 0 0 0
2087 11 35.39176350139934 9.28774169032713 2.090449189931715 0 0 0
2093 3 38.521288521501745 9.20294950656007 2.449712158967934 0 0 0
2092 14 40.01352871045694 9.221241898566147 0.9501124586645314 0 0 0
2091 2 40.23328193757677 6.492111644366926 0.013076298137706463 0 0 0
2097 10 43.43448443832621 6.501438441735406 0.0058383362472960235 0 0 0
2100 12 41.82587582294749 9.28774203264743 0.005857316390171398 0 0 0
2098 16 43.498556006408 8.743006340748527 0.9934288297786965 0 0 0
2106 4 44.99001591164401 8.751476540296395 -0.49984754769363343 0 0 0
2287 15 41.80994958433737 11.154494713198806 1.038508263645651 0 0 0
2293 13 45.19464945032603 10.839015299315058 1.175012705469205 0 0 0
2090 1 40.34446071273284 6.190691464100324 2.1833755605016902 0 0 0
2096 9 43.43416027393639 6.501557536904404 2.0899818831288357 0 0 0
2099 11 41.82650431882534 9.28774169032713 2.090449189931715 0 0 0
2105 3 44.95602933892776 9.202949506560072 2.449712158967935 0 0 0
2282 1 40.34446071273283 11.763340478760329 2.1833755605016916 0 0 0
2103 2 46.668022755002774 6.492111644366927 0.013076298137703482 0 0 0
2109 10 49.86922525575221 6.501438441735406 0.005838336247296016 0 0 0
2104 14 46.448269527882935 9.221241898566142 0.9501124586645311 0 0 0
2112 12 48.26061664037348 9.28774203264743 0.005857316390171393 0 0 0
2110 16 49.93329682383401 8.743006340748524 0.9934288297786886 0 0 0
2299 15 48.24469040176336 11.154494713198803 1.038508263645653 0 0 0
2102 1 46.779201530158836 6.190691464100323 2.183375560501686 0 0 0
2108 9 49.868901091362396 6.501557536904404 2.0899818831288357 0 0 0
2111 11 48.26124513625133 9.28774169032713 2.090449189931715 0 0 0
1926 4 51.42475672907002 8.75147654029639 -0.49984754769363243 -1 0 0
1925 3 51.39077015635376 9.20294950656007 2.449712158967937 -1 0 0
2294 1 46.77920153015884 11.763340478760323 2.1833755605016902 0 0 0
1923 2 53.10276357242878 6.492111644366924 0.013076298137707087 -1 0 0
1929 10 56.303966073178216 6.501438441735406 0.005838336247296015 -1 0 0
1924 14 52.88301034530895 9.221241898566147 0.9501124586645338 -1 0 0
1932 12 54.69535745779949 9.28774203264743 0.005857316390171395 -1 0 0
1930 16 56.36803764126001 8.743006340748526 0.99342882977869 -1 0 0
2113 13 51.62939026775204 10.839015299315063 1.1750127054692008 -1 0 0
2119 15 54.67943121918936 11.15449471319881 1.0385082636456493 -1 0 0
1922 1 53.21394234758485 6.1906914641003254 2.1833755605016885 -1 0 0
1928 9 56.3036419087884 6.501557536904404 2.0899818831288357 -1 0 0
1931 11 54.695985953677344 9.28774169032713 2.090449189931715 -1 0 0
2114 1 53.21394234758484 11.76334047876033 2.1833755605016987 -1 0 0
1935 2 59.537504389854774 6.492111644366924 0.013076298137707085 -1 0 0
1941 10 62.73870689060422 6.501438441735406 0.005838336247296011 -1 0 0
1938 4 57.859497546496016 8.751476540296386 -0.49984754769363055 -1 0 0
1936 14 59.317751162734936 9.221241898566143 0.9501124586645285 -1 0 0
1944 12 61.130098275225485 9.28774203264743 0.00585731639017139 -1 0 0
1942 16 62.80277845868601 8.743006340748524 0.9934288297787014 -1 0 0
2125 13 58.06413108517804 10.83901529931506 1.1750127054692063 -1 0 0
2131 15 61.11417203661536 11.15449471319881 1.0385082636456493 -1 0 0
1934 1 59.64868316501084 6.190691464100332 2.1833755605017005 -1 0 0
1940 9 62.738382726214404 6.501557536904404 2.0899818831288357 -1 0 0
1937 3 57.82551097377977 9.20294950656008 2.4497121589679267 -1 0 0
1943 11 61.13072677110334 9.28774169032713 2.090449189931715 -1 0 0
2126 1 59.648683165010844 11.763340478760336 2.1833755605017053 -1 0 0
1947 2 65.97224520728078 6.492111644366924 0.013076298137707908 -1 0 0
1950 4 64.294238363922 8.751476540296391 -0.49984754769362977 -1 0 0
1948 14 65.75249198016093 9.221241898566143 0.9501124586645273 -1 0 0
1956 12 67.5648390926515 9.28774203264743 0.005857316390171391 -1 0 0
2137 13 64.49887190260404 10.839015299315056 1.1750127054692172 -1 0 0
2143 15 67.54891285404133 11.154494713198806 1.03850826364565 -1 0 0
1946 1 66.08342398243681 6.190691464100333 2.183375560501682 -1 0 0
1949 3 64.26025179120575 9.202949506560078 2.449712158967912 -1 0 0
1955 11 67.56546758852937 9.28774169032713 2.090449189931715 -1 0 0
2138 1 66.08342398243683 11.763340478760327 2.1833755605016973 -1 0 0
1953 10 69.17344770803024 6.501438441735406 0.00583833624729602 -1 0 0
1959 2 72.40698602470678 6.492111644366924 0.013076298137707908 -1 0 0
1954 16 69.237519276112 8.743006340748524 0.9934288297786982 -1 0 0
1962 4 70.72897918134802 8.75147654029641 -0.49984754769363554 -1 0 0
1960 14 72.18723279758694 9.221241898566147 0.9501124586645336 -1 0 0
1968 12 73.9995799100775 9.28774203264743 0.005857316390171384 -1 0 0
2149 13 70.93361272003003 10.839015299315058 1.175012705469208 -1 0 0
2155 15 73.98365367146734 11.154494713198806 1.03850826364565 -1 0 0
1952 9 69.17312354364044 6.501557536904404 2.0899818831288357 -1 0 0
1958 1 72.51816479986282 6.190691464100317 2.183375560501677 -1 0 0
1961 3 70.69499260863176 9.202949506560063 2.4497121589679436 -1 0 0
1967 11 74.00020840595538 9.28774169032713 2.090449189931715 -1 0 0
2150 1 72.51816479986283 11.763340478760318 2.183375560501679 -1 0 0
1965 10 75.60818852545623 6.501438441735406 0.005838336247296012 -1 0 0
1971 2 78.84172684213279 6.492111644366925 0.01307629813770828 -1 0 0
1966 16 75.672260093538 8.743006340748524 0.9934288297786987 -1 0 0
1974 4 77.16371999877403 8.75147654029641 -0.4998475476936355 -1 0 0
1972 14 78.62197361501295 9.221241898566147 0.9501124586645339 -1 0 0
2161 13 77.36835353745603 10.839015299315058 1.1750127054692083 -1 0 0
1964 9 75.60786436106643 6.501557536904404 2.0899818831288357 -1 0 0
1970 1 78.95290561728882 6.190691464100317 2.1833755605016774 -1 0 0
1973 3 77.12973342605777 9.202949506560063 2.4497121589679423 -1 0 0
2162 1 78.95290561728883 11.763340478760316 2.1833755605016787 -1 0 0
1977 10 82.04292934288223 6.501438441735406 0.00583833624729602 -1 0 0
1983 2 85.27646765955878 6.492111644366924 0.013076298137707913 -1 0 0
1980 12 80.43432072750349 9.28774203264743 0.005857316390171393 -1 0 0
1978 16 82.10700091096399 8.743006340748522 0.9934288297786932 -1 0 0
1986 4 83.5984608162 8.751476540296391 -0.4998475476936354 -1 0 0
1984 14 85.05671443243894 9.221241898566147 0.9501124586645291 -1 0 0
2167 15 80.41839448889336 11.154494713198806 1.0385082636456513 -1 0 0
2173 13 83.80309435488203 10.83901529931506 1.17501270546921 -1 0 0
1976 9 82.04260517849244 6.501557536904404 2.0899818831288357 -1 0 0
1982 1 85.38764643471482 6.190691464100328 2.183375560501692 -1 0 0
1979 11 80.43494922338137 9.28774169032713 2.090449189931715 -1 0 0
1985 3 83.56447424348376 9.202949506560078 2.4497121589679307 -1 0 0
2174 1 85.38764643471484 11.76334047876033 2.1833755605017 -1 0 0
1989 10 88.47767016030824 6.501438441735406 0.005838336247296017 -1 0 0
1992 12 86.8690615449295 9.28774203264743 0.005857316390171388 -1 0 0
1990 16 88.54174172839001 8.743006340748531 0.9934288297787057 -1 0 0
1998 4 90.033201633626 8.751476540296416 -0.4998475476936333 -1 0 0
2179 15 86.85313530631933 11.154494713198806 1.03850826364565 -1 0 0
2185 13 90.23783517230802 10.83901529931506 1.1750127054692063 -1 0 0
1988 9 88.47734599591844 6.501557536904404 2.0899818831288357 -1 0 0
1991 11 86.86969004080737 9.28774169032713 2.090449189931715 -1 0 0
1997 3 89.99921506090975 9.202949506560056 2.4497121589679556 -1 0 0
1996 14 91.49145524986496 9.22124189856615 0.950112458664517 -1 0 0
1995 2 91.71120847698478 6.492111644366924 0.013076298137707913 -1 0 0
2001 10 94.91241097773423 6.501438441735406 0.005838336247296018 -1 0 0
2004 12 93.3038023623555 9.28774203264743 0.005857316390171392 -1 0 0
2002 16 94.97648254581601 8.74300634074853 0.9934288297786861 -1 0 0
2010 4 96.46794245105201 8.751476540296405 -0.49984754769363254 -1 0 0
2191 15 93.28787612374533 11.154494713198806 1.03850826364565 -1 0 0
2197 13 96.67257598973403 10.839015299315054 1.1750127054692012 -1 0 0
1994 1 91.82238725214083 6.190691464100315 2.1833755605016765 -1 0 0
2000 9 94.91208681334443 6.501557536904404 2.0899818831288357 -1 0 0
2003 11 93.30443085823337 9.28774169032713 2.090449189931715 -1 0 0
2009 3 96.43395587833577 9.202949506560063 2.4497121589679423 -1 0 0
2186 1 91.82238725214083 11.763340478760322 2.183375560501673 -1 0 0
2022 4 102.90268326847803 8.751476540296414 -0.4998475476936261 -1 0 0
2021 3 102.86869669576177 9.202949506560069 2.449712158967932 -1 0 0
2007 2 98.14594929441078 6.492111644366925 0.013076298137708282 -1 0 0
2013 10 101.34715179516024 6.501438441735406 0.00583833624729602 -1 0 0
2008 14 97.92619606729096 9.22124189856615 0.9501124586645406 -1 0 0
2016 12 99.73854317978149 9.28774203264743 0.005857316390171393 -1 0 0
2014 16 101.41122336324203 8.743006340748533 0.9934288297786874 -1 0 0
2203 15 99.72261694117135 11.154494713198806 1.0385082636456513 -1 0 0
2006 1 98.25712806956682 6.190691464100316 2.1833755605016774 -1 0 0
2012 9 101.34682763077045 6.501557536904404 2.0899818831288357 -1 0 0
2015 11 99.73917167565936 9.28774169032713 2.090449189931715 -1 0 0
2198 1 98.25712806956683 11.763340478760329 2.1833755605016876 -1 0 0
2211 2 1.6248370330207573 12.064760659026929 0.01307629813770672 0 0 0
2217 10 4.826039533770214 12.074087456395407 0.005838336247296023 0 0 0
2212 14 1.4050838059009216 14.793890913226145 0.9501124586645621 0 0 0
2218 16 4.890111101852005 14.315655355408522 0.9934288297786934 0 0 0
2220 12 3.2174309183914933 14.86039104730743 0.0058573163901714026 0 0 0
2401 13 0.15146372834401248 16.411664313975038 1.1750127054692105 0 0 0