LAMMPS data file via write_data, version 29 Aug 2024, timestep = 15, units = metal

10368 atoms
36 atom types

0 102.955853078816 xlo xhi
0 100.30768226388 ylo yhi
-50 50 zlo zhi

Masses

1 44.955908
2 44.955908
3 44.955908
4 44.955908
5 44.955908
6 44.955908
7 44.955908
8 44.955908
9 44.955908
10 44.955908
11 44.955908
12 44.955908
13 15.999
14 15.999
15 15.999
16 15.999
17 15.999
18 15.999
19 15.999
20 15.999
21 15.999
22 15.999
23 15.999
24 15.999
25 15.999
26 15.999
27 15.999
28 15.999
29 15.999
30 15.999
31 15.999
32 15.999
33 15.999
34 15.999
35 15.999
36 15.999

Atoms # atomic

1827 2 1.624419188043121 0.9197025279664502 0.01251896559321459 0 0 0
1831 19 3.2018932354132223 0.008969356199003383 1.037366453998341 0 0 0
1833 14 4.8260414607072155 0.9287880292470133 0.005215294063944921 0 0 0
1828 18 1.401410603525691 3.6473584443091482 0.9506614218886458 0 0 0
1834 20 4.891395724806235 3.1706809010055683 0.996137847802078 0 0 0
1836 16 3.217424831326509 3.7150934853186515 0.005230896608968738 0 0 0
2017 17 0.15617307223583338 5.264079209815639 1.171001964873483 0 0 0
2023 19 3.2018932354132232 5.5816183708590055 1.037366453998341 0 0 0
1826 1 1.7337593380660243 0.6209741015033959 2.1871469485119985 0 0 0
1832 13 4.825747617518153 0.9288990342999698 2.088274925183759 0 0 0
1835 15 3.21799026870408 3.715086662672104 2.088671801313936 0 0 0
1839 2 8.059160005469124 0.9197025279664501 0.012518965593214576 0 0 0
1843 19 9.636634052839227 0.008969356199003374 1.0373664539983407 0 0 0
1845 14 11.260782278133222 0.9287880292470133 0.005215294063944919 0 0 0
1840 18 7.836151420951691 3.6473584443091536 0.9506614218886662 0 0 0
1846 20 11.326136542232236 3.170680901005567 0.9961378478020766 0 0 0
1842 4 6.3791348154686 3.177304043322597 -0.5019450695627569 0 0 0
1848 16 9.652165648752511 3.7150934853186515 0.005230896608968736 0 0 0
2029 17 6.590913889661805 5.264079209815622 1.1710019648734833 0 0 0
2035 19 9.636634052839225 5.5816183708590055 1.0373664539983414 0 0 0
1838 1 8.16850015549202 0.620974101503396 2.1871469485119923 0 0 0
1844 13 11.260488434944156 0.9288990342999698 2.088274925183759 0 0 0
1841 3 6.350118752774117 3.631035197121603 2.4489116057207316 0 0 0
1847 15 9.652731086130084 3.715086662672104 2.088671801313936 0 0 0
1851 2 14.493900822895124 0.9197025279664488 0.012518965593216157 0 0 0
1855 19 16.07137487026523 0.008969356199004788 1.0373664539983387 0 0 0
1852 18 14.27089223837769 3.6473584443091545 0.9506614218886661 0 0 0
1854 4 12.8138756328946 3.177304043322596 -0.5019450695627571 0 0 0
1860 16 16.086906466178522 3.7150934853186515 0.0052308966089687405 0 0 0
2041 17 13.025654707087805 5.264079209815623 1.1710019648734837 0 0 0
2047 19 16.071374870265227 5.5816183708590055 1.0373664539983407 0 0 0
1850 1 14.603240972918016 0.6209741015033856 2.1871469485119825 0 0 0
1853 3 12.784859570200117 3.6310351971216024 2.4489116057207316 0 0 0
1859 15 16.08747190355609 3.715086662672104 2.088671801313936 0 0 0
1857 14 17.695523095559206 0.9287880292470133 0.005215294063944922 0 0 0
1863 2 20.928641640321125 0.9197025279664521 0.012518965593212349 0 0 0
1867 19 22.50611568769122 0.008969356199001376 1.0373664539983432 0 0 0
1858 20 17.760877359658238 3.170680901005569 0.9961378478020815 0 0 0
1864 18 20.705633055803695 3.647358444309153 0.9506614218886613 0 0 0
1866 4 19.248616450320597 3.177304043322595 -0.5019450695627569 0 0 0
1872 16 22.521647283604512 3.7150934853186515 0.005230896608968734 0 0 0
2053 17 19.46039552451381 5.264079209815624 1.1710019648734848 0 0 0
2059 19 22.50611568769122 5.581618370859003 1.037366453998343 0 0 0
1856 13 17.695229252370147 0.9288990342999698 2.088274925183759 0 0 0
1862 1 21.03798179034402 0.6209741015033889 2.1871469485119808 0 0 0
1865 3 19.219600387626123 3.6310351971216033 2.4489116057207307 0 0 0
1871 15 22.52221272098208 3.715086662672104 2.088671801313936 0 0 0
1869 14 24.13026391298521 0.9287880292470133 0.005215294063944918 0 0 0
1875 2 27.36338245774713 0.9197025279664521 0.012518965593212349 0 0 0
1870 20 24.195618177084235 3.1706809010055697 0.9961378478020803 0 0 0
1876 18 27.14037387322969 3.6473584443091527 0.9506614218886634 0 0 0
1878 4 25.683357267746597 3.177304043322594 -0.5019450695627565 0 0 0
2065 17 25.895136341939814 5.264079209815623 1.1710019648734844 0 0 0
1868 13 24.12997006979615 0.9288990342999698 2.088274925183759 0 0 0
1874 1 27.472722607770024 0.6209741015033867 2.1871469485119817 0 0 0
1877 3 25.654341205052123 3.631035197121606 2.4489116057207285 0 0 0
1879 19 28.940856505117225 0.008969356199001376 1.0373664539983432 0 0 0
1881 14 30.565004730411214 0.9287880292470133 0.005215294063944921 0 0 0
1887 2 33.79812327517312 0.9197025279664447 0.012518965593220637 0 0 0
1882 20 30.63035899451023 3.1706809010055643 0.9961378478020751 0 0 0
1888 18 33.57511469065568 3.6473584443091562 0.9506614218886653 0 0 0
1884 16 28.956388101030516 3.7150934853186515 0.005230896608968741 0 0 0
1890 4 32.1180980851726 3.177304043322597 -0.5019450695627568 0 0 0
2071 19 28.940856505117225 5.581618370859003 1.037366453998343 0 0 0
2077 17 32.32987715936579 5.264079209815626 1.1710019648734857 0 0 0
1880 13 30.564710887222155 0.9288990342999698 2.088274925183759 0 0 0
1886 1 33.90746342519601 0.6209741015033866 2.187146948511987 0 0 0
1883 15 28.956953538408083 3.715086662672104 2.088671801313936 0 0 0
1889 3 32.08908202247811 3.631035197121601 2.448911605720732 0 0 0
1891 19 35.375597322543236 0.008969356199008797 1.0373664539983347 0 0 0
1893 14 36.99974554783723 0.9287880292470133 0.005215294063944921 0 0 0
1894 20 37.06509981193623 3.1706809010055657 0.9961378478020777 0 0 0
1896 16 35.3911289184565 3.7150934853186515 0.005230896608968732 0 0 0
1902 4 38.552838902598594 3.1773040433225845 -0.5019450695627573 0 0 0
2083 19 35.375597322543236 5.581618370859009 1.0373664539983338 0 0 0
2089 17 38.76461797679182 5.2640792098156295 1.1710019648734864 0 0 0
1892 13 36.999451704648145 0.9288990342999698 2.088274925183759 0 0 0
1895 15 35.39169435583408 3.715086662672104 2.088671801313936 0 0 0
1901 3 38.52382283990411 3.6310351971216077 2.448911605720725 0 0 0
1900 18 40.009855508081685 3.6473584443091522 0.9506614218886598 0 0 0
1899 2 40.23286409259912 0.9197025279664447 0.012518965593220641 0 0 0
1903 19 41.81033813996924 0.008969356199008799 1.0373664539983347 0 0 0
1905 14 43.43448636526322 0.9287880292470133 0.005215294063944928 0 0 0
1906 20 43.49984062936224 3.1706809010055648 0.9961378478020781 0 0 0
1908 16 41.825869735882506 3.7150934853186515 0.005230896608968739 0 0 0
1914 4 44.9875797200246 3.1773040433225894 -0.5019450695627568 0 0 0
2095 19 41.81033813996924 5.581618370859009 1.0373664539983338 0 0 0
2101 17 45.199358794217815 5.264079209815626 1.1710019648734837 0 0 0
1898 1 40.34220424262202 0.6209741015033868 2.1871469485119803 0 0 0
1904 13 43.434192522074135 0.9288990342999698 2.0882749251837596 0 0 0
1907 15 41.82643517326009 3.715086662672104 2.088671801313936 0 0 0
1913 3 44.958563657330124 3.6310351971216046 2.4489116057207285 0 0 0
1911 2 46.66760491002512 0.9197025279664507 0.012518965593213818 0 0 0
1915 19 48.245078957395215 0.008969356199002687 1.037366453998342 0 0 0
1917 14 49.86922718268922 0.9287880292470133 0.0052152940639449185 0 0 0
1912 18 46.444596325507696 3.647358444309154 0.9506614218886608 0 0 0
1918 20 49.934581446788236 3.170680901005567 0.9961378478020763 0 0 0
1920 16 48.260610553308496 3.7150934853186515 0.0052308966089687345 0 0 0
2107 19 48.24507895739522 5.581618370859004 1.0373664539983416 0 0 0
1910 1 46.77694506004802 0.6209741015033888 2.1871469485119768 0 0 0
1916 13 49.86893333950014 0.9288990342999698 2.088274925183759 0 0 0
1919 15 48.26117599068608 3.715086662672104 2.088671801313936 0 0 0
1734 4 51.4223205374506 3.177304043322594 -0.5019450695627584 -1 0 0
1733 3 51.393304474756114 3.6310351971216037 2.448911605720732 -1 0 0
1731 2 53.10234572745113 0.9197025279664502 0.012518965593214445 -1 0 0
1735 19 54.67981977482123 0.008969356199003265 1.0373664539983405 -1 0 0
1737 14 56.303968000115226 0.9287880292470133 0.005215294063944919 -1 0 0
1732 18 52.87933714293369 3.647358444309155 0.950661421888666 -1 0 0
1738 20 56.36932226421424 3.1706809010055648 0.9961378478020778 -1 0 0
1740 16 54.69535137073451 3.7150934853186515 0.005230896608968736 -1 0 0
1921 17 51.634099611643805 5.264079209815623 1.171001964873483 -1 0 0
1927 19 54.67981977482123 5.581618370859007 1.0373664539983378 -1 0 0
1730 1 53.211685877474025 0.6209741015033905 2.1871469485119825 -1 0 0
1736 13 56.30367415692614 0.9288990342999698 2.088274925183759 -1 0 0
1739 15 54.69591680811209 3.715086662672104 2.088671801313936 -1 0 0
1743 2 59.53708654487713 0.9197025279664502 0.012518965593214443 -1 0 0
1747 19 61.11456059224723 0.008969356199003268 1.0373664539983405 -1 0 0
1749 14 62.73870881754123 0.9287880292470133 0.00521529406394492 -1 0 0
1744 18 59.31407796035969 3.64735844430915 0.9506614218886513 -1 0 0
1750 20 62.80406308164024 3.1706809010055643 0.9961378478020799 -1 0 0
1746 4 57.8570613548766 3.1773040433225708 -0.5019450695627606 -1 0 0
1752 16 61.1300921881605 3.7150934853186515 0.0052308966089687345 -1 0 0
1933 17 58.06884042906983 5.2640792098156375 1.1710019648734864 -1 0 0
1939 19 61.11456059224723 5.581618370859007 1.0373664539983378 -1 0 0
1742 1 59.64642669490003 0.620974101503391 2.1871469485119888 -1 0 0
1748 13 62.738414974352146 0.9288990342999698 2.088274925183759 -1 0 0
1745 3 57.828045292182125 3.631035197121609 2.4489116057207236 -1 0 0
1751 15 61.130657625538085 3.715086662672104 2.088671801313936 -1 0 0
1755 2 65.97182736230312 0.9197025279664502 0.01251896559321444 -1 0 0
1759 19 67.54930140967322 0.008969356199003258 1.0373664539983407 -1 0 0
1756 18 65.7488187777857 3.64735844430915 0.950661421888652 -1 0 0
1758 4 64.2918021723026 3.17730404332257 -0.5019450695627632 -1 0 0
1764 16 67.56483300558652 3.7150934853186515 0.005230896608968745 -1 0 0
1945 17 64.50358124649584 5.264079209815632 1.1710019648734804 -1 0 0
1951 19 67.54930140967322 5.581618370859005 1.037366453998341 -1 0 0
1754 1 66.08116751232603 0.6209741015033946 2.1871469485120008 -1 0 0
1757 3 64.26278610960813 3.631035197121609 2.4489116057207263 -1 0 0
1763 15 67.5653984429641 3.715086662672104 2.088671801313936 -1 0 0
1761 14 69.17344963496723 0.9287880292470133 0.005215294063944927 -1 0 0
1767 2 72.40656817972912 0.9197025279664502 0.01251896559321444 -1 0 0
1771 19 73.98404222709922 0.008969356199003261 1.0373664539983407 -1 0 0
1762 20 69.23880389906624 3.1706809010055688 0.9961378478020676 -1 0 0
1768 18 72.1835595952117 3.6473584443091505 0.9506614218886704 -1 0 0
1770 4 70.72654298972861 3.177304043322579 -0.5019450695627591 -1 0 0
1776 16 73.99957382301253 3.7150934853186515 0.00523089660896874 -1 0 0
1957 17 70.93832206392183 5.264079209815628 1.1710019648734769 -1 0 0
1963 19 73.98404222709922 5.581618370859005 1.037366453998341 -1 0 0
1760 13 69.17315579177817 0.9288990342999698 2.088274925183759 -1 0 0
1766 1 72.51590832975202 0.6209741015033856 2.1871469485119874 -1 0 0
1769 3 70.69752692703412 3.6310351971216117 2.44891160572073 -1 0 0
1775 15 74.0001392603901 3.715086662672104 2.088671801313936 -1 0 0
1773 14 75.60819045239322 0.9287880292470133 0.005215294063944917 -1 0 0
1779 2 78.84130899715512 0.9197025279664504 0.012518965593214325 -1 0 0
1774 20 75.67354471649224 3.170680901005569 0.9961378478020677 -1 0 0
1780 18 78.61830041263771 3.6473584443091496 0.9506614218886709 -1 0 0
1782 4 77.16128380715462 3.1773040433225805 -0.5019450695627586 -1 0 0
1969 17 77.37306288134783 5.264079209815626 1.1710019648734769 -1 0 0
1772 13 75.60789660920416 0.9288990342999698 2.088274925183759 -1 0 0
1778 1 78.95064914717803 0.6209741015033858 2.1871469485119874 -1 0 0
1781 3 77.13226774446012 3.631035197121612 2.4489116057207285 -1 0 0
1783 19 80.41878304452523 0.00896935619900316 1.037366453998341 -1 0 0
1785 14 82.04293126981922 0.9287880292470133 0.005215294063944919 -1 0 0
1791 2 85.27604981458111 0.9197025279664502 0.01251896559321443 -1 0 0
1786 20 82.10828553391823 3.1706809010055625 0.9961378478020853 -1 0 0
1792 18 85.05304123006368 3.6473584443091496 0.9506614218886456 -1 0 0
1788 16 80.43431464043852 3.7150934853186515 0.005230896608968739 -1 0 0
1794 4 83.5960246245806 3.1773040433225654 -0.5019450695627635 -1 0 0
1975 19 80.41878304452523 5.5816183708590055 1.037366453998341 -1 0 0
1981 17 83.80780369877384 5.264079209815633 1.1710019648734835 -1 0 0
1784 13 82.04263742663017 0.9288990342999698 2.088274925183759 -1 0 0
1790 1 85.38538996460403 0.6209741015033933 2.1871469485120034 -1 0 0
1787 15 80.43488007781609 3.715086662672104 2.088671801313936 -1 0 0
1793 3 83.56700856188613 3.6310351971216104 2.448911605720722 -1 0 0
1795 19 86.85352386195122 0.008969356199003254 1.0373664539983407 -1 0 0
1797 14 88.47767208724522 0.9287880292470133 0.0052152940639449185 -1 0 0
1798 20 88.54302635134425 3.1706809010055674 0.9961378478020773 -1 0 0
1800 16 86.86905545786452 3.7150934853186515 0.005230896608968739 -1 0 0
1806 4 90.03076544200661 3.1773040433225925 -0.5019450695627584 -1 0 0
1987 19 86.85352386195122 5.581618370859005 1.037366453998341 -1 0 0
1993 17 90.24254451619983 5.264079209815625 1.1710019648734813 -1 0 0
1796 13 88.47737824405617 0.9288990342999698 2.088274925183759 -1 0 0
1799 15 86.8696208952421 3.715086662672104 2.088671801313936 -1 0 0
1805 3 90.00174937931213 3.6310351971216064 2.4489116057207307 -1 0 0
1804 18 91.4877820474897 3.6473584443091536 0.950661421888665 -1 0 0
1803 2 91.71079063200712 0.9197025279664502 0.012518965593214438 -1 0 0
1807 19 93.28826467937722 0.008969356199003254 1.0373664539983407 -1 0 0
1809 14 94.91241290467121 0.9287880292470133 0.005215294063944921 -1 0 0
1810 20 94.97776716877024 3.1706809010055688 0.9961378478020676 -1 0 0
1812 16 93.30379627529052 3.7150934853186515 0.005230896608968744 -1 0 0
1818 4 96.46550625943262 3.177304043322579 -0.5019450695627591 -1 0 0
1999 19 93.28826467937722 5.581618370859005 1.037366453998341 -1 0 0
2005 17 96.67728533362583 5.264079209815628 1.1710019648734769 -1 0 0
1802 1 91.82013078203002 0.6209741015033882 2.187146948511978 -1 0 0
1808 13 94.91211906148216 0.9288990342999698 2.088274925183759 -1 0 0
1811 15 93.3043617126681 3.715086662672104 2.088671801313936 -1 0 0
1817 3 96.43649019673812 3.6310351971216117 2.44891160572073 -1 0 0
1830 4 102.90024707685859 3.177304043322565 -0.5019450695627631 -1 0 0
1829 3 102.87123101416412 3.631035197121609 2.4489116057207276 -1 0 0
1815 2 98.14553144943312 0.9197025279664504 0.012518965593214325 -1 0 0
1819 19 99.72300549680322 0.00896935619900316 1.037366453998341 -1 0 0
1821 14 101.34715372209723 0.9287880292470133 0.00521529406394492 -1 0 0
1816 18 97.9225228649157 3.6473584443091505 0.9506614218886704 -1 0 0
1822 20 101.41250798619623 3.170680901005565 0.9961378478020793 -1 0 0
1824 16 99.73853709271651 3.7150934853186515 0.005230896608968739 -1 0 0
2011 19 99.72300549680322 5.581618370859005 1.037366453998341 -1 0 0
1814 1 98.25487159945602 0.6209741015033811 2.1871469485119848 -1 0 0
1820 13 101.34685987890818 0.9288990342999698 2.088274925183759 -1 0 0
1823 15 99.73910253009409 3.715086662672104 2.088671801313936 -1 0 0
2019 2 1.6244191880431205 6.492351542626451 0.01251896559321438 0 0 0
2025 14 4.8260414607072155 6.501437043907015 0.005215294063944917 0 0 0
2020 18 1.4014106035256915 9.220007458969155 0.9506614218886549 0 0 0
2028 16 3.217424831326509 9.287742499978654 0.005230896608968738 0 0 0
2026 20 4.891395724806234 8.743329915665571 0.9961378478020788 0 0 0
2209 17 0.15617307223583266 10.836728224475646 1.1710019648734837 0 0 0
2215 19 3.201893235413223 11.154267385519006 1.0373664539983405 0 0 0
2018 1 1.7337593380660137 6.193623116163422 2.187146948512045 0 0 0
2024 13 4.825747617518153 6.501548048959972 2.088274925183759 0 0 0
2027 15 3.21799026870408 9.287735677332105 2.088671801313936 0 0 0
2210 1 1.7337593380660128 11.766272130823426 2.187146948512045 0 0 0
2031 2 8.059160005469122 6.4923515426264515 0.012518965593214077 0 0 0
2037 14 11.260782278133222 6.501437043907015 0.005215294063944917 0 0 0
2034 4 6.379134815468595 8.749953057982593 -0.501945069562758 0 0 0
2032 18 7.836151420951689 9.220007458969157 0.9506614218886605 0 0 0
2040 16 9.652165648752511 9.287742499978654 0.005230896608968736 0 0 0
2038 20 11.326136542232234 8.74332991566557 0.9961378478020781 0 0 0
2221 17 6.590913889661814 10.83672822447563 1.1710019648734862 0 0 0
2227 19 9.636634052839227 11.154267385519004 1.0373664539983407 0 0 0
2030 1 8.168500155492014 6.193623116163404 2.1871469485120136 0 0 0
2036 13 11.260488434944156 6.501548048959972 2.088274925183759 0 0 0
2033 3 6.350118752774119 9.203684211781608 2.4489116057207267 0 0 0
2039 15 9.652731086130084 9.287735677332105 2.088671801313936 0 0 0
2222 1 8.168500155492014 11.766272130823413 2.187146948512023 0 0 0
2043 2 14.493900822895121 6.492351542626452 0.012518965593214111 0 0 0
2046 4 12.813875632894595 8.74995305798259 -0.5019450695627587 0 0 0
2044 18 14.270892238377689 9.220007458969155 0.9506614218886607 0 0 0
2052 16 16.086906466178522 9.287742499978654 0.005230896608968742 0 0 0
2233 17 13.025654707087812 10.83672822447563 1.1710019648734848 0 0 0
2239 19 16.071374870265227 11.154267385519008 1.03736645399834 0 0 0
2042 1 14.60324097291801 6.1936231161634066 2.1871469485120154 0 0 0
2045 3 12.784859570200117 9.203684211781608 2.448911605720727 0 0 0
2051 15 16.08747190355609 9.287735677332105 2.088671801313936 0 0 0
2234 1 14.60324097291801 11.766272130823415 2.187146948512024 0 0 0
2049 14 17.695523095559206 6.501437043907015 0.005215294063944919 0 0 0
2055 2 20.928641640321125 6.492351542626454 0.012518965593212531 0 0 0
2050 20 17.76087735965823 8.743329915665571 0.9961378478020789 0 0 0
2058 4 19.248616450320597 8.749953057982598 -0.5019450695627584 0 0 0
2056 18 20.705633055803688 9.220007458969155 0.9506614218886621 0 0 0
2064 16 22.521647283604512 9.287742499978654 0.005230896608968734 0 0 0
2245 17 19.46039552451381 10.836728224475628 1.1710019648734857 0 0 0
2251 19 22.50611568769122 11.154267385519002 1.0373664539983434 0 0 0
2048 13 17.695229252370147 6.501548048959972 2.088274925183759 0 0 0
2054 1 21.03798179034402 6.193623116163404 2.187146948512013 0 0 0
2057 3 19.21960038762612 9.203684211781608 2.44891160572073 0 0 0
2063 15 22.52221272098208 9.287735677332105 2.088671801313936 0 0 0
2246 1 21.03798179034402 11.766272130823408 2.187146948512017 0 0 0
2061 14 24.13026391298521 6.501437043907015 0.005215294063944915 0 0 0
2067 2 27.36338245774713 6.492351542626454 0.012518965593212535 0 0 0
2062 20 24.195618177084235 8.743329915665573 0.9961378478020785 0 0 0
2070 4 25.683357267746597 8.749953057982598 -0.501945069562758 0 0 0
2068 18 27.14037387322969 9.220007458969155 0.9506614218886623 0 0 0
2257 17 25.895136341939814 10.83672822447563 1.1710019648734846 0 0 0
2060 13 24.12997006979615 6.501548048959972 2.088274925183759 0 0 0
2066 1 27.47272260777002 6.193623116163405 2.1871469485120154 0 0 0
2069 3 25.65434120505212 9.203684211781606 2.4489116057207307 0 0 0
2258 1 27.47272260777002 11.766272130823408 2.1871469485120167 0 0 0
2073 14 30.565004730411214 6.501437043907015 0.005215294063944917 0 0 0
2079 2 33.79812327517312 6.492351542626446 0.012518965593221295 0 0 0
2076 16 28.956388101030516 9.287742499978654 0.005230896608968742 0 0 0
2074 20 30.63035899451023 8.743329915665571 0.9961378478020796 0 0 0
2082 4 32.11809808517259 8.74995305798259 -0.5019450695627587 0 0 0
2080 18 33.57511469065568 9.220007458969153 0.9506614218886564 0 0 0
2263 19 28.940856505117225 11.154267385519002 1.0373664539983434 0 0 0
2269 17 32.32987715936581 10.83672822447563 1.1710019648734866 0 0 0
2072 13 30.564710887222155 6.501548048959972 2.088274925183759 0 0 0
2078 1 33.907463425196006 6.193623116163406 2.187146948512014 0 0 0
2075 15 28.956953538408083 9.287735677332105 2.088671801313936 0 0 0
2081 3 32.08908202247812 9.203684211781606 2.448911605720726 0 0 0
2270 1 33.907463425196006 11.766272130823417 2.187146948512025 0 0 0
2085 14 36.99974554783723 6.501437043907015 0.005215294063944916 0 0 0
2088 16 35.3911289184565 9.287742499978654 0.005230896608968734 0 0 0
2086 20 37.065099811936236 8.743329915665567 0.9961378478020733 0 0 0
2094 4 38.5528389025986 8.749953057982594 -0.5019450695627571 0 0 0
2275 19 35.375597322543236 11.154267385519015 1.0373664539983356 0 0 0
2281 17 38.76461797679181 10.836728224475626 1.1710019648734828 0 0 0
2084 13 36.999451704648145 6.501548048959972 2.088274925183759 0 0 0
2087 15 35.39169435583408 9.287735677332105 2.088671801313936 0 0 0
2093 3 38.52382283990411 9.203684211781608 2.4489116057207267 0 0 0
2092 18 40.00985550808169 9.220007458969157 0.9506614218886675 0 0 0
2091 2 40.23286409259912 6.492351542626446 0.0125189655932213 0 0 0
2097 14 43.43448636526322 6.501437043907015 0.00521529406394492 0 0 0
2100 16 41.825869735882506 9.287742499978654 0.00523089660896874 0 0 0
2098 20 43.49984062936223 8.743329915665567 0.99613784780208 0 0 0
2106 4 44.98757972002459 8.749953057982593 -0.50194506956276 0 0 0
2287 19 41.81033813996924 11.154267385519015 1.0373664539983356 0 0 0
2293 17 45.199358794217815 10.836728224475632 1.1710019648734857 0 0 0
2090 1 40.34220424262201 6.193623116163409 2.1871469485120234 0 0 0
2096 13 43.434192522074135 6.501548048959972 2.088274925183759 0 0 0
2099 15 41.82643517326009 9.287735677332105 2.088671801313936 0 0 0
2105 3 44.958563657330124 9.203684211781608 2.448911605720729 0 0 0
2282 1 40.34220424262201 11.766272130823412 2.187146948512023 0 0 0
2103 2 46.667604910025126 6.492351542626452 0.012518965593213896 0 0 0
2109 14 49.86922718268922 6.501437043907015 0.005215294063944914 0 0 0
2104 18 46.44459632550769 9.220007458969157 0.9506614218886594 0 0 0
2112 16 48.260610553308496 9.287742499978654 0.005230896608968734 0 0 0
2110 20 49.934581446788236 8.74332991566557 0.9961378478020743 0 0 0
2299 19 48.245078957395215 11.154267385519004 1.037366453998344 0 0 0
2102 1 46.776945060048014 6.193623116163412 2.187146948512023 0 0 0
2108 13 49.86893333950014 6.501548048959972 2.088274925183759 0 0 0
2111 15 48.26117599068608 9.287735677332105 2.088671801313936 0 0 0
1926 4 51.4223205374506 8.749953057982585 -0.5019450695627604 -1 0 0
1925 3 51.393304474756114 9.203684211781612 2.4489116057207285 -1 0 0
2294 1 46.77694506004802 11.76627213082341 2.187146948512021 0 0 0
1923 2 53.10234572745112 6.492351542626449 0.012518965593217959 -1 0 0
1929 14 56.303968000115226 6.501437043907015 0.005215294063944917 -1 0 0
1924 18 52.87933714293369 9.220007458969155 0.9506614218886622 -1 0 0
1932 16 54.69535137073451 9.287742499978654 0.005230896608968736 -1 0 0
1930 20 56.36932226421423 8.743329915665567 0.9961378478020737 -1 0 0
2113 17 51.63409961164382 10.836728224475634 1.1710019648734817 -1 0 0
2119 19 54.67981977482123 11.154267385519008 1.037366453998337 -1 0 0
1922 1 53.21168587747401 6.1936231161634066 2.1871469485120163 -1 0 0
1928 13 56.30367415692614 6.501548048959972 2.088274925183759 -1 0 0
1931 15 54.69591680811209 9.287735677332105 2.088671801313936 -1 0 0
2114 1 53.21168587747402 11.766272130823413 2.187146948512027 -1 0 0
1935 2 59.53708654487712 6.492351542626449 0.012518965593217957 -1 0 0
1941 14 62.73870881754123 6.501437043907015 0.005215294063944921 -1 0 0
1938 4 57.8570613548766 8.74995305798257 -0.5019450695627614 -1 0 0
1936 18 59.31407796035969 9.22000745896915 0.950661421888653 -1 0 0
1944 16 61.1300921881605 9.287742499978654 0.005230896608968736 -1 0 0
1942 20 62.80406308164024 8.743329915665567 0.9961378478020796 -1 0 0
2125 17 58.06884042906984 10.83672822447564 1.1710019648734873 -1 0 0
2131 19 61.11456059224723 11.154267385519008 1.037366453998337 -1 0 0
1934 1 59.64642669490002 6.193623116163418 2.1871469485120376 -1 0 0
1940 13 62.738414974352146 6.501548048959972 2.088274925183759 -1 0 0
1937 3 57.82804529218212 9.203684211781614 2.4489116057207223 -1 0 0
1943 15 61.130657625538085 9.287735677332105 2.088671801313936 -1 0 0
2126 1 59.64642669490002 11.76627213082342 2.187146948512042 -1 0 0
1947 2 65.97182736230312 6.4923515426264515 0.012518965593214226 -1 0 0
1950 4 64.2918021723026 8.74995305798259 -0.5019450695627602 -1 0 0
1948 18 65.7488187777857 9.220007458969155 0.9506614218886569 -1 0 0
1956 16 67.56483300558652 9.287742499978654 0.005230896608968744 -1 0 0
2137 17 64.50358124649583 10.83672822447563 1.171001964873479 -1 0 0
2143 19 67.54930140967322 11.154267385519015 1.037366453998333 -1 0 0
1946 1 66.08116751232602 6.193623116163425 2.1871469485120434 -1 0 0
1949 3 64.26278610960811 9.203684211781606 2.44891160572073 -1 0 0
1955 15 67.5653984429641 9.287735677332105 2.088671801313936 -1 0 0
2138 1 66.08116751232602 11.766272130823417 2.18714694851203 -1 0 0
1953 14 69.17344963496723 6.501437043907015 0.005215294063944919 -1 0 0
1959 2 72.40656817972912 6.4923515426264515 0.01251896559321422 -1 0 0
1954 20 69.23880389906624 8.743329915665571 0.9961378478020664 -1 0 0
1962 4 70.72654298972861 8.749953057982585 -0.5019450695627603 -1 0 0
1960 18 72.1835595952117 9.220007458969153 0.9506614218886695 -1 0 0
1968 16 73.99957382301253 9.287742499978654 0.005230896608968738 -1 0 0
2149 17 70.93832206392183 10.83672822447563 1.1710019648734777 -1 0 0
2155 19 73.98404222709922 11.154267385519015 1.037366453998333 -1 0 0
1952 13 69.17315579177817 6.501548048959972 2.088274925183759 -1 0 0
1958 1 72.51590832975202 6.19362311616341 2.1871469485120327 -1 0 0
1961 3 70.69752692703412 9.203684211781615 2.4489116057207276 -1 0 0
1967 15 74.0001392603901 9.287735677332105 2.088671801313936 -1 0 0
2150 1 72.51590832975202 11.766272130823412 2.187146948512034 -1 0 0
1965 14 75.60819045239322 6.501437043907015 0.005215294063944912 -1 0 0
1971 2 78.84130899715512 6.492351542626452 0.012518965593214323 -1 0 0
1966 20 75.67354471649224 8.743329915665571 0.9961378478020665 -1 0 0
1974 4 77.16128380715462 8.749953057982585 -0.5019450695627602 -1 0 0
1972 18 78.61830041263771 9.220007458969153 0.9506614218886696 -1 0 0
2161 17 77.37306288134783 10.83672822447563 1.1710019648734777 -1 0 0
1964 13 75.60789660920416 6.501548048959972 2.088274925183759 -1 0 0
1970 1 78.95064914717803 6.193623116163409 2.187146948512032 -1 0 0
1973 3 77.13226774446012 9.203684211781615 2.4489116057207276 -1 0 0
2162 1 78.95064914717803 11.766272130823412 2.187146948512034 -1 0 0
1977 14 82.04293126981922 6.501437043907015 0.005215294063944913 -1 0 0
1983 2 85.27604981458111 6.4923515426264515 0.012518965593214222 -1 0 0
1980 16 80.43431464043852 9.287742499978654 0.005230896608968738 -1 0 0
1978 20 82.10828553391825 8.743329915665562 0.9961378478020725 -1 0 0
1986 4 83.59602462458061 8.74995305798257 -0.5019450695627632 -1 0 0
1984 18 85.0530412300637 9.220007458969155 0.9506614218886562 -1 0 0
2167 19 80.41878304452523 11.154267385519006 1.037366453998341 -1 0 0
2173 17 83.80780369877384 10.836728224475634 1.1710019648734804 -1 0 0
1976 13 82.04263742663017 6.501548048959972 2.088274925183759 -1 0 0
1982 1 85.38538996460402 6.193623116163426 2.187146948512045 -1 0 0
1979 15 80.43488007781609 9.287735677332105 2.088671801313936 -1 0 0
1985 3 83.56700856188613 9.20368421178161 2.4489116057207254 -1 0 0
2174 1 85.38538996460402 11.766272130823426 2.187146948512045 -1 0 0
1989 14 88.47767208724522 6.501437043907015 0.005215294063944913 -1 0 0
1992 16 86.86905545786452 9.287742499978654 0.005230896608968739 -1 0 0
1990 20 88.54302635134425 8.74332991566557 0.996137847802076 -1 0 0
1998 4 90.03076544200663 8.749953057982603 -0.5019450695627583 -1 0 0
2179 19 86.85352386195122 11.154267385519015 1.037366453998333 -1 0 0
2185 17 90.24254451619981 10.836728224475625 1.171001964873482 -1 0 0
1988 13 88.47737824405617 6.501548048959972 2.088274925183759 -1 0 0
1991 15 86.8696208952421 9.287735677332105 2.088671801313936 -1 0 0
1997 3 90.00174937931213 9.203684211781606 2.4489116057207316 -1 0 0
1996 18 91.4877820474897 9.22000745896916 0.9506614218886673 -1 0 0
1995 2 91.71079063200712 6.4923515426264515 0.012518965593214224 -1 0 0
2001 14 94.91241290467121 6.501437043907015 0.0052152940639449185 -1 0 0
2004 16 93.30379627529052 9.287742499978654 0.005230896608968743 -1 0 0
2002 20 94.97776716877024 8.743329915665571 0.9961378478020666 -1 0 0
2010 4 96.46550625943262 8.749953057982584 -0.5019450695627599 -1 0 0
2191 19 93.28826467937722 11.154267385519015 1.037366453998333 -1 0 0
2197 17 96.67728533362583 10.83672822447563 1.1710019648734773 -1 0 0
1994 1 91.82013078203003 6.193623116163406 2.18714694851202 -1 0 0
2000 13 94.91211906148216 6.501548048959972 2.088274925183759 -1 0 0
2003 15 93.3043617126681 9.287735677332105 2.088671801313936 -1 0 0
2009 3 96.43649019673812 9.203684211781614 2.448911605720728 -1 0 0
2186 1 91.82013078203003 11.766272130823406 2.1871469485120163 -1 0 0
2022 4 102.9002470768586 8.749953057982566 -0.5019450695627624 -1 0 0
2021 3 102.87123101416412 9.203684211781612 2.448911605720723 -1 0 0
2007 2 98.14553144943312 6.492351542626452 0.012518965593214625 -1 0 0
2013 14 101.34715372209723 6.501437043907015 0.005215294063944917 -1 0 0
2008 18 97.9225228649157 9.220007458969153 0.9506614218886694 -1 0 0
2016 16 99.73853709271651 9.287742499978654 0.005230896608968739 -1 0 0
2014 20 101.41250798619625 8.743329915665567 0.9961378478020698 -1 0 0
2203 19 99.72300549680322 11.154267385519006 1.037366453998341 -1 0 0
2006 1 98.25487159945602 6.19362311616341 2.1871469485120327 -1 0 0
2012 13 101.34685987890818 6.501548048959972 2.088274925183759 -1 0 0
2015 15 99.73910253009409 9.287735677332105 2.088671801313936 -1 0 0
2198 1 98.25487159945602 11.766272130823412 2.187146948512033 -1 0 0
2211 2 1.6244191880431218 12.065000557286455 0.012518965593214897 0 0 0
2217 14 4.8260414607072155 12.074086058567017 0.005215294063944919 0 0 0
2212 18 1.401410603525685 14.792656473629151 0.9506614218886444 0 0 0
2218 20 4.891395724806231 14.315978930325567 0.9961378478020798 0 0 0