LAMMPS data file via write_data, version 29 Aug 2024, timestep = 0, units = metal

2400 atoms
8 atom types

0 103.792405572888 xlo xhi
0 101.59528687105 ylo yhi
0 17.10979291 zlo zhi

Masses

1 118.71
2 118.71
3 118.71
4 118.71
5 32.06
6 32.06
7 32.06
8 32.06

Atoms # atomic

1203 5 0 2.8584694995004156e-05 0.299316465035 0 0 0
1207 7 4.324683565537001 2.8584694995004156e-05 0.299316465035 0 0 0
1211 5 8.649367131074001 2.8584694995004156e-05 0.299316465035 0 0 0
1215 7 12.974050696611002 2.8584694995004156e-05 0.299316465035 0 0 0
1219 5 17.298734262148002 2.8584694995004156e-05 0.299316465035 0 0 0
1223 7 21.623417827685003 2.8584694995004156e-05 0.299316465035 0 0 0
1227 5 25.948101393222004 2.8584694995004156e-05 0.299316465035 0 0 0
1231 7 30.272784958759004 2.8584694995004156e-05 0.299316465035 0 0 0
1235 5 34.597468524296005 2.8584694995004156e-05 0.299316465035 0 0 0
1239 7 38.922152089833006 2.8584694995004156e-05 0.299316465035 0 0 0
1243 5 43.246835655370006 2.8584694995004156e-05 0.299316465035 0 0 0
1247 7 47.57151922090701 2.8584694995004156e-05 0.299316465035 0 0 0
1155 5 51.896202786444 2.8584694995004156e-05 0.299316465035 -1 0 0
1159 7 56.220886351981 2.8584694995004156e-05 0.299316465035 -1 0 0
1163 5 60.545569917518 2.8584694995004156e-05 0.299316465035 -1 0 0
1167 7 64.870253483055 2.8584694995004156e-05 0.299316465035 -1 0 0
1171 5 69.19493704859201 2.8584694995004156e-05 0.299316465035 -1 0 0
1175 7 73.519620614129 2.8584694995004156e-05 0.299316465035 -1 0 0
1179 5 77.844304179666 2.8584694995004156e-05 0.299316465035 -1 0 0
1183 7 82.168987745203 2.8584694995004156e-05 0.299316465035 -1 0 0
1187 5 86.49367131074001 2.8584694995004156e-05 0.299316465035 -1 0 0
1191 7 90.818354876277 2.8584694995004156e-05 0.299316465035 -1 0 0
1195 5 95.143038441814 2.8584694995004156e-05 0.299316465035 -1 0 0
1199 7 99.467722007351 2.8584694995004156e-05 0.299316465035 -1 0 0
1298 2 2.526219904243 2.031912627448996 0 0 0 0
1302 4 6.85090346978 2.031912627448996 0 0 0 0
1306 2 11.175587035317001 2.031912627448996 0 0 0 0
1310 4 15.500270600853995 2.031912627448996 0 0 0 0
1314 2 19.824954166390995 2.031912627448996 0 0 0 0
1318 4 24.149637731927996 2.031912627448996 0 0 0 0
1322 2 28.474321297464996 2.031912627448996 0 0 0 0
1326 4 32.799004863002 2.031912627448996 0 0 0 0
1330 2 37.123688428539 2.031912627448996 0 0 0 0
1334 4 41.448371994076 2.031912627448996 0 0 0 0
1338 2 45.773055559613 2.031912627448996 0 0 0 0
1342 4 50.09773912515 2.031912627448996 0 0 0 0
1250 2 54.422422690687 2.031912627448996 0 -1 0 0
1254 4 58.747106256224 2.031912627448996 0 -1 0 0
1258 2 63.071789821761 2.031912627448996 0 -1 0 0
1262 4 67.396473387298 2.031912627448996 0 -1 0 0
1266 2 71.721156952835 2.031912627448996 0 -1 0 0
1270 4 76.045840518372 2.031912627448996 0 -1 0 0
1274 2 80.370524083909 2.031912627448996 0 -1 0 0
1278 4 84.695207649446 2.031912627448996 0 -1 0 0
1282 2 89.019891214983 2.031912627448996 0 -1 0 0
1286 4 93.34457478051999 2.031912627448996 0 -1 0 0
1290 2 97.669258346057 2.031912627448996 0 -1 0 0
1294 4 101.99394191159399 2.031912627448996 0 -1 0 0
1299 5 0 4.063840059536993 0.299316465035 0 0 0
1303 7 4.324683565537001 4.063840059536993 0.299316465035 0 0 0
1307 5 8.649367131074001 4.063840059536993 0.299316465035 0 0 0
1311 7 12.974050696611002 4.063840059536993 0.299316465035 0 0 0
1315 5 17.298734262148002 4.063840059536993 0.299316465035 0 0 0
1319 7 21.623417827685003 4.063840059536993 0.299316465035 0 0 0
1323 5 25.948101393222004 4.063840059536993 0.299316465035 0 0 0
1327 7 30.272784958759004 4.063840059536993 0.299316465035 0 0 0
1331 5 34.597468524296005 4.063840059536993 0.299316465035 0 0 0
1335 7 38.922152089833006 4.063840059536993 0.299316465035 0 0 0
1339 5 43.246835655370006 4.063840059536993 0.299316465035 0 0 0
1343 7 47.57151922090701 4.063840059536993 0.299316465035 0 0 0
1251 5 51.896202786444 4.063840059536993 0.299316465035 -1 0 0
1255 7 56.220886351981 4.063840059536993 0.299316465035 -1 0 0
1259 5 60.545569917518 4.063840059536993 0.299316465035 -1 0 0
1263 7 64.870253483055 4.063840059536993 0.299316465035 -1 0 0
1267 5 69.19493704859201 4.063840059536993 0.299316465035 -1 0 0
1271 7 73.519620614129 4.063840059536993 0.299316465035 -1 0 0
1275 5 77.844304179666 4.063840059536993 0.299316465035 -1 0 0
1279 7 82.168987745203 4.063840059536993 0.299316465035 -1 0 0
1283 5 86.49367131074001 4.063840059536993 0.299316465035 -1 0 0
1287 7 90.818354876277 4.063840059536993 0.299316465035 -1 0 0
1291 5 95.143038441814 4.063840059536993 0.299316465035 -1 0 0
1295 7 99.467722007351 4.063840059536993 0.299316465035 -1 0 0
1394 2 2.526219904243 6.095724102290994 0 0 0 0
1398 4 6.85090346978 6.095724102290994 0 0 0 0
1402 2 11.175587035317001 6.095724102290994 0 0 0 0
1406 4 15.500270600853995 6.095724102290994 0 0 0 0
1410 2 19.824954166390995 6.095724102290994 0 0 0 0
1414 4 24.149637731927996 6.095724102290994 0 0 0 0
1418 2 28.474321297464996 6.095724102290994 0 0 0 0
1422 4 32.799004863002 6.095724102290994 0 0 0 0
1426 2 37.123688428539 6.095724102290994 0 0 0 0
1430 4 41.448371994076 6.095724102290994 0 0 0 0
1434 2 45.773055559613 6.095724102290994 0 0 0 0
1438 4 50.09773912515 6.095724102290994 0 0 0 0
1346 2 54.422422690687 6.095724102290994 0 -1 0 0
1350 4 58.747106256224 6.095724102290994 0 -1 0 0
1354 2 63.071789821761 6.095724102290994 0 -1 0 0
1358 4 67.396473387298 6.095724102290994 0 -1 0 0
1362 2 71.721156952835 6.095724102290994 0 -1 0 0
1366 4 76.045840518372 6.095724102290994 0 -1 0 0
1370 2 80.370524083909 6.095724102290994 0 -1 0 0
1374 4 84.695207649446 6.095724102290994 0 -1 0 0
1378 2 89.019891214983 6.095724102290994 0 -1 0 0
1382 4 93.34457478051999 6.095724102290994 0 -1 0 0
1386 2 97.669258346057 6.095724102290994 0 -1 0 0
1390 4 101.99394191159399 6.095724102290994 0 -1 0 0
1395 5 0 8.127651534378998 0.299316465035 0 0 0
1399 7 4.324683565537001 8.127651534378998 0.299316465035 0 0 0
1403 5 8.649367131074001 8.127651534378998 0.299316465035 0 0 0
1407 7 12.974050696611002 8.127651534378998 0.299316465035 0 0 0
1411 5 17.298734262148002 8.127651534378998 0.299316465035 0 0 0
1415 7 21.623417827685003 8.127651534378998 0.299316465035 0 0 0
1419 5 25.948101393222004 8.127651534378998 0.299316465035 0 0 0
1423 7 30.272784958759004 8.127651534378998 0.299316465035 0 0 0
1427 5 34.597468524296005 8.127651534378998 0.299316465035 0 0 0
1431 7 38.922152089833006 8.127651534378998 0.299316465035 0 0 0
1435 5 43.246835655370006 8.127651534378998 0.299316465035 0 0 0
1439 7 47.57151922090701 8.127651534378998 0.299316465035 0 0 0
1347 5 51.896202786444 8.127651534378998 0.299316465035 -1 0 0
1351 7 56.220886351981 8.127651534378998 0.299316465035 -1 0 0
1355 5 60.545569917518 8.127651534378998 0.299316465035 -1 0 0
1359 7 64.870253483055 8.127651534378998 0.299316465035 -1 0 0
1363 5 69.19493704859201 8.127651534378998 0.299316465035 -1 0 0
1367 7 73.519620614129 8.127651534378998 0.299316465035 -1 0 0
1371 5 77.844304179666 8.127651534378998 0.299316465035 -1 0 0
1375 7 82.168987745203 8.127651534378998 0.299316465035 -1 0 0
1379 5 86.49367131074001 8.127651534378998 0.299316465035 -1 0 0
1383 7 90.818354876277 8.127651534378998 0.299316465035 -1 0 0
1387 5 95.143038441814 8.127651534378998 0.299316465035 -1 0 0
1391 7 99.467722007351 8.127651534378998 0.299316465035 -1 0 0
1490 2 2.526219904243 10.159535577133 0 0 0 0
1494 4 6.85090346978 10.159535577133 0 0 0 0
1498 2 11.175587035317001 10.159535577133 0 0 0 0
1502 4 15.500270600853995 10.159535577133 0 0 0 0
1506 2 19.824954166390995 10.159535577133 0 0 0 0
1510 4 24.149637731927996 10.159535577133 0 0 0 0
1514 2 28.474321297464996 10.159535577133 0 0 0 0
1518 4 32.799004863002 10.159535577133 0 0 0 0
1522 2 37.123688428539 10.159535577133 0 0 0 0
1526 4 41.448371994076 10.159535577133 0 0 0 0
1530 2 45.773055559613 10.159535577133 0 0 0 0
1534 4 50.09773912515 10.159535577133 0 0 0 0
1442 2 54.422422690687 10.159535577133 0 -1 0 0
1446 4 58.747106256224 10.159535577133 0 -1 0 0
1450 2 63.071789821761 10.159535577133 0 -1 0 0
1454 4 67.396473387298 10.159535577133 0 -1 0 0
1458 2 71.721156952835 10.159535577133 0 -1 0 0
1462 4 76.045840518372 10.159535577133 0 -1 0 0
1466 2 80.370524083909 10.159535577133 0 -1 0 0
1470 4 84.695207649446 10.159535577133 0 -1 0 0
1474 2 89.019891214983 10.159535577133 0 -1 0 0
1478 4 93.34457478051999 10.159535577133 0 -1 0 0
1482 2 97.669258346057 10.159535577133 0 -1 0 0
1486 4 101.99394191159399 10.159535577133 0 -1 0 0
1491 5 0 12.191463009220996 0.299316465035 0 0 0
1495 7 4.324683565537001 12.191463009220996 0.299316465035 0 0 0
1499 5 8.649367131074001 12.191463009220996 0.299316465035 0 0 0
1503 7 12.974050696611002 12.191463009220996 0.299316465035 0 0 0
1507 5 17.298734262148002 12.191463009220996 0.299316465035 0 0 0
1511 7 21.623417827685003 12.191463009220996 0.299316465035 0 0 0
1515 5 25.948101393222004 12.191463009220996 0.299316465035 0 0 0
1519 7 30.272784958759004 12.191463009220996 0.299316465035 0 0 0
1523 5 34.597468524296005 12.191463009220996 0.299316465035 0 0 0
1527 7 38.922152089833006 12.191463009220996 0.299316465035 0 0 0
1531 5 43.246835655370006 12.191463009220996 0.299316465035 0 0 0
1535 7 47.57151922090701 12.191463009220996 0.299316465035 0 0 0
1443 5 51.896202786444 12.191463009220996 0.299316465035 -1 0 0
1447 7 56.220886351981 12.191463009220996 0.299316465035 -1 0 0
1451 5 60.545569917518 12.191463009220996 0.299316465035 -1 0 0
1455 7 64.870253483055 12.191463009220996 0.299316465035 -1 0 0
1459 5 69.19493704859201 12.191463009220996 0.299316465035 -1 0 0
1463 7 73.519620614129 12.191463009220996 0.299316465035 -1 0 0
1467 5 77.844304179666 12.191463009220996 0.299316465035 -1 0 0
1471 7 82.168987745203 12.191463009220996 0.299316465035 -1 0 0
1475 5 86.49367131074001 12.191463009220996 0.299316465035 -1 0 0
1479 7 90.818354876277 12.191463009220996 0.299316465035 -1 0 0
1483 5 95.143038441814 12.191463009220996 0.299316465035 -1 0 0
1487 7 99.467722007351 12.191463009220996 0.299316465035 -1 0 0
1586 2 2.526219904243 14.223347051974997 0 0 0 0
1590 4 6.85090346978 14.223347051974997 0 0 0 0
1594 2 11.175587035317001 14.223347051974997 0 0 0 0
1598 4 15.500270600853995 14.223347051974997 0 0 0 0
1602 2 19.824954166390995 14.223347051974997 0 0 0 0
1606 4 24.149637731927996 14.223347051974997 0 0 0 0
1610 2 28.474321297464996 14.223347051974997 0 0 0 0
1614 4 32.799004863002 14.223347051974997 0 0 0 0
1618 2 37.123688428539 14.223347051974997 0 0 0 0
1622 4 41.448371994076 14.223347051974997 0 0 0 0
1626 2 45.773055559613 14.223347051974997 0 0 0 0
1630 4 50.09773912515 14.223347051974997 0 0 0 0
1538 2 54.422422690687 14.223347051974997 0 -1 0 0
1542 4 58.747106256224 14.223347051974997 0 -1 0 0
1546 2 63.071789821761 14.223347051974997 0 -1 0 0
1550 4 67.396473387298 14.223347051974997 0 -1 0 0
1554 2 71.721156952835 14.223347051974997 0 -1 0 0
1558 4 76.045840518372 14.223347051974997 0 -1 0 0
1562 2 80.370524083909 14.223347051974997 0 -1 0 0
1566 4 84.695207649446 14.223347051974997 0 -1 0 0
1570 2 89.019891214983 14.223347051974997 0 -1 0 0
1574 4 93.34457478051999 14.223347051974997 0 -1 0 0
1578 2 97.669258346057 14.223347051974997 0 -1 0 0
1582 4 101.99394191159399 14.223347051974997 0 -1 0 0
1587 5 0 16.255274484062994 0.299316465035 0 0 0
1591 7 4.324683565537001 16.255274484062994 0.299316465035 0 0 0
1595 5 8.649367131074001 16.255274484062994 0.299316465035 0 0 0
1599 7 12.974050696611002 16.255274484062994 0.299316465035 0 0 0
1603 5 17.298734262148002 16.255274484062994 0.299316465035 0 0 0
1607 7 21.623417827685003 16.255274484062994 0.299316465035 0 0 0
1611 5 25.948101393222004 16.255274484062994 0.299316465035 0 0 0
1615 7 30.272784958759004 16.255274484062994 0.299316465035 0 0 0
1619 5 34.597468524296005 16.255274484062994 0.299316465035 0 0 0
1623 7 38.922152089833006 16.255274484062994 0.299316465035 0 0 0
1627 5 43.246835655370006 16.255274484062994 0.299316465035 0 0 0
1631 7 47.57151922090701 16.255274484062994 0.299316465035 0 0 0
1539 5 51.896202786444 16.255274484062994 0.299316465035 -1 0 0
1543 7 56.220886351981 16.255274484062994 0.299316465035 -1 0 0
1547 5 60.545569917518 16.255274484062994 0.299316465035 -1 0 0
1551 7 64.870253483055 16.255274484062994 0.299316465035 -1 0 0
1555 5 69.19493704859201 16.255274484062994 0.299316465035 -1 0 0
1559 7 73.519620614129 16.255274484062994 0.299316465035 -1 0 0
1563 5 77.844304179666 16.255274484062994 0.299316465035 -1 0 0
1567 7 82.168987745203 16.255274484062994 0.299316465035 -1 0 0
1571 5 86.49367131074001 16.255274484062994 0.299316465035 -1 0 0
1575 7 90.818354876277 16.255274484062994 0.299316465035 -1 0 0
1579 5 95.143038441814 16.255274484062994 0.299316465035 -1 0 0
1583 7 99.467722007351 16.255274484062994 0.299316465035 -1 0 0
1682 2 2.526219904243 18.287158526816995 0 0 0 0
1686 4 6.85090346978 18.287158526816995 0 0 0 0
1690 2 11.175587035317001 18.287158526816995 0 0 0 0
1694 4 15.500270600853995 18.287158526816995 0 0 0 0
1698 2 19.824954166390995 18.287158526816995 0 0 0 0
1702 4 24.149637731927996 18.287158526816995 0 0 0 0
1706 2 28.474321297464996 18.287158526816995 0 0 0 0
1710 4 32.799004863002 18.287158526816995 0 0 0 0
1714 2 37.123688428539 18.287158526816995 0 0 0 0
1718 4 41.448371994076 18.287158526816995 0 0 0 0
1722 2 45.773055559613 18.287158526816995 0 0 0 0
1726 4 50.09773912515 18.287158526816995 0 0 0 0
1634 2 54.422422690687 18.287158526816995 0 -1 0 0
1638 4 58.747106256224 18.287158526816995 0 -1 0 0
1642 2 63.071789821761 18.287158526816995 0 -1 0 0
1646 4 67.396473387298 18.287158526816995 0 -1 0 0
1650 2 71.721156952835 18.287158526816995 0 -1 0 0
1654 4 76.045840518372 18.287158526816995 0 -1 0 0
1658 2 80.370524083909 18.287158526816995 0 -1 0 0
1662 4 84.695207649446 18.287158526816995 0 -1 0 0
1666 2 89.019891214983 18.287158526816995 0 -1 0 0
1670 4 93.34457478051999 18.287158526816995 0 -1 0 0
1674 2 97.669258346057 18.287158526816995 0 -1 0 0
1678 4 101.99394191159399 18.287158526816995 0 -1 0 0
1683 5 0 20.319085958904992 0.299316465035 0 0 0
1687 7 4.324683565537001 20.319085958904992 0.299316465035 0 0 0
1691 5 8.649367131074001 20.319085958904992 0.299316465035 0 0 0
1695 7 12.974050696611002 20.319085958904992 0.299316465035 0 0 0
1699 5 17.298734262148002 20.319085958904992 0.299316465035 0 0 0
1703 7 21.623417827685003 20.319085958904992 0.299316465035 0 0 0
1707 5 25.948101393222004 20.319085958904992 0.299316465035 0 0 0
1711 7 30.272784958759004 20.319085958904992 0.299316465035 0 0 0
1715 5 34.597468524296005 20.319085958904992 0.299316465035 0 0 0
1719 7 38.922152089833006 20.319085958904992 0.299316465035 0 0 0
1723 5 43.246835655370006 20.319085958904992 0.299316465035 0 0 0
1727 7 47.57151922090701 20.319085958904992 0.299316465035 0 0 0
1635 5 51.896202786444 20.319085958904992 0.299316465035 -1 0 0
1639 7 56.220886351981 20.319085958904992 0.299316465035 -1 0 0
1643 5 60.545569917518 20.319085958904992 0.299316465035 -1 0 0
1647 7 64.870253483055 20.319085958904992 0.299316465035 -1 0 0
1651 5 69.19493704859201 20.319085958904992 0.299316465035 -1 0 0
1655 7 73.519620614129 20.319085958904992 0.299316465035 -1 0 0
1659 5 77.844304179666 20.319085958904992 0.299316465035 -1 0 0
1663 7 82.168987745203 20.319085958904992 0.299316465035 -1 0 0
1667 5 86.49367131074001 20.319085958904992 0.299316465035 -1 0 0
1671 7 90.818354876277 20.319085958904992 0.299316465035 -1 0 0
1675 5 95.143038441814 20.319085958904992 0.299316465035 -1 0 0
1679 7 99.467722007351 20.319085958904992 0.299316465035 -1 0 0
1778 2 2.526219904243 22.350970001658993 0 0 0 0
1782 4 6.85090346978 22.350970001658993 0 0 0 0
1786 2 11.175587035317001 22.350970001658993 0 0 0 0
1790 4 15.500270600853995 22.350970001658993 0 0 0 0
1794 2 19.824954166390995 22.350970001658993 0 0 0 0
1798 4 24.149637731927996 22.350970001658993 0 0 0 0
1802 2 28.474321297464996 22.350970001658993 0 0 0 0
1806 4 32.799004863002 22.350970001658993 0 0 0 0
1810 2 37.123688428539 22.350970001658993 0 0 0 0
1814 4 41.448371994076 22.350970001658993 0 0 0 0
1818 2 45.773055559613 22.350970001658993 0 0 0 0
1822 4 50.09773912515 22.350970001658993 0 0 0 0
1730 2 54.422422690687 22.350970001658993 0 -1 0 0
1734 4 58.747106256224 22.350970001658993 0 -1 0 0
1738 2 63.071789821761 22.350970001658993 0 -1 0 0
1742 4 67.396473387298 22.350970001658993 0 -1 0 0
1746 2 71.721156952835 22.350970001658993 0 -1 0 0
1750 4 76.045840518372 22.350970001658993 0 -1 0 0
1754 2 80.370524083909 22.350970001658993 0 -1 0 0
1758 4 84.695207649446 22.350970001658993 0 -1 0 0
1762 2 89.019891214983 22.350970001658993 0 -1 0 0
1766 4 93.34457478051999 22.350970001658993 0 -1 0 0
1770 2 97.669258346057 22.350970001658993 0 -1 0 0
1774 4 101.99394191159399 22.350970001658993 0 -1 0 0
1779 5 0 24.38289743374699 0.299316465035 0 0 0
1783 7 4.324683565537001 24.38289743374699 0.299316465035 0 0 0
1787 5 8.649367131074001 24.38289743374699 0.299316465035 0 0 0
1791 7 12.974050696611002 24.38289743374699 0.299316465035 0 0 0
1795 5 17.298734262148002 24.38289743374699 0.299316465035 0 0 0
1799 7 21.623417827685003 24.38289743374699 0.299316465035 0 0 0
1803 5 25.948101393222004 24.38289743374699 0.299316465035 0 0 0
1807 7 30.272784958759004 24.38289743374699 0.299316465035 0 0 0
1811 5 34.597468524296005 24.38289743374699 0.299316465035 0 0 0
1815 7 38.922152089833006 24.38289743374699 0.299316465035 0 0 0
1819 5 43.246835655370006 24.38289743374699 0.299316465035 0 0 0
1823 7 47.57151922090701 24.38289743374699 0.299316465035 0 0 0
1731 5 51.896202786444 24.38289743374699 0.299316465035 -1 0 0
1735 7 56.220886351981 24.38289743374699 0.299316465035 -1 0 0
1739 5 60.545569917518 24.38289743374699 0.299316465035 -1 0 0
1743 7 64.870253483055 24.38289743374699 0.299316465035 -1 0 0
1747 5 69.19493704859201 24.38289743374699 0.299316465035 -1 0 0
1751 7 73.519620614129 24.38289743374699 0.299316465035 -1 0 0
1755 5 77.844304179666 24.38289743374699 0.299316465035 -1 0 0
1759 7 82.168987745203 24.38289743374699 0.299316465035 -1 0 0
1763 5 86.49367131074001 24.38289743374699 0.299316465035 -1 0 0
1767 7 90.818354876277 24.38289743374699 0.299316465035 -1 0 0
1771 5 95.143038441814 24.38289743374699 0.299316465035 -1 0 0
1775 7 99.467722007351 24.38289743374699 0.299316465035 -1 0 0
1874 2 2.526219904243 26.41478147650099 0 0 0 0
1878 4 6.85090346978 26.41478147650099 0 0 0 0
1882 2 11.175587035317001 26.41478147650099 0 0 0 0
1886 4 15.500270600853995 26.41478147650099 0 0 0 0
1890 2 19.824954166390995 26.41478147650099 0 0 0 0
1894 4 24.149637731927996 26.41478147650099 0 0 0 0
1898 2 28.474321297464996 26.41478147650099 0 0 0 0
1902 4 32.799004863002 26.41478147650099 0 0 0 0
1906 2 37.123688428539 26.41478147650099 0 0 0 0
1910 4 41.448371994076 26.41478147650099 0 0 0 0
1914 2 45.773055559613 26.41478147650099 0 0 0 0
1918 4 50.09773912515 26.41478147650099 0 0 0 0
1826 2 54.422422690687 26.41478147650099 0 -1 0 0
1830 4 58.747106256224 26.41478147650099 0 -1 0 0
1834 2 63.071789821761 26.41478147650099 0 -1 0 0
1838 4 67.396473387298 26.41478147650099 0 -1 0 0
1842 2 71.721156952835 26.41478147650099 0 -1 0 0
1846 4 76.045840518372 26.41478147650099 0 -1 0 0
1850 2 80.370524083909 26.41478147650099 0 -1 0 0
1854 4 84.695207649446 26.41478147650099 0 -1 0 0
1858 2 89.019891214983 26.41478147650099 0 -1 0 0
1862 4 93.34457478051999 26.41478147650099 0 -1 0 0
1866 2 97.669258346057 26.41478147650099 0 -1 0 0
1870 4 101.99394191159399 26.41478147650099 0 -1 0 0
1875 5 0 28.446708908589002 0.299316465035 0 0 0
1879 7 4.324683565537001 28.446708908589002 0.299316465035 0 0 0
1883 5 8.649367131074001 28.446708908589002 0.299316465035 0 0 0
1887 7 12.974050696611002 28.446708908589002 0.299316465035 0 0 0
1891 5 17.298734262148002 28.446708908589002 0.299316465035 0 0 0
1895 7 21.623417827685003 28.446708908589002 0.299316465035 0 0 0
1899 5 25.948101393222004 28.446708908589002 0.299316465035 0 0 0
1903 7 30.272784958759004 28.446708908589002 0.299316465035 0 0 0
1907 5 34.597468524296005 28.446708908589002 0.299316465035 0 0 0
1911 7 38.922152089833006 28.446708908589002 0.299316465035 0 0 0
1915 5 43.246835655370006 28.446708908589002 0.299316465035 0 0 0
1919 7 47.57151922090701 28.446708908589002 0.299316465035 0 0 0
1827 5 51.896202786444 28.446708908589002 0.299316465035 -1 0 0
1831 7 56.220886351981 28.446708908589002 0.299316465035 -1 0 0
1835 5 60.545569917518 28.446708908589002 0.299316465035 -1 0 0
1839 7 64.870253483055 28.446708908589002 0.299316465035 -1 0 0
1843 5 69.19493704859201 28.446708908589002 0.299316465035 -1 0 0
1847 7 73.519620614129 28.446708908589002 0.299316465035 -1 0 0
1851 5 77.844304179666 28.446708908589002 0.299316465035 -1 0 0
1855 7 82.168987745203 28.446708908589002 0.299316465035 -1 0 0
1859 5 86.49367131074001 28.446708908589002 0.299316465035 -1 0 0
1863 7 90.818354876277 28.446708908589002 0.299316465035 -1 0 0
1867 5 95.143038441814 28.446708908589002 0.299316465035 -1 0 0
1871 7 99.467722007351 28.446708908589002 0.299316465035 -1 0 0
1970 2 2.526219904243 30.47859295134299 0 0 0 0
1974 4 6.85090346978 30.47859295134299 0 0 0 0
1978 2 11.175587035317001 30.47859295134299 0 0 0 0
1982 4 15.500270600853995 30.47859295134299 0 0 0 0
1986 2 19.824954166390995 30.47859295134299 0 0 0 0
1990 4 24.149637731927996 30.47859295134299 0 0 0 0
1994 2 28.474321297464996 30.47859295134299 0 0 0 0
1998 4 32.799004863002 30.47859295134299 0 0 0 0
2002 2 37.123688428539 30.47859295134299 0 0 0 0
2006 4 41.448371994076 30.47859295134299 0 0 0 0
2010 2 45.773055559613 30.47859295134299 0 0 0 0
2014 4 50.09773912515 30.47859295134299 0 0 0 0
1922 2 54.422422690687 30.47859295134299 0 -1 0 0
1926 4 58.747106256224 30.47859295134299 0 -1 0 0
1930 2 63.071789821761 30.47859295134299 0 -1 0 0
1934 4 67.396473387298 30.47859295134299 0 -1 0 0
1938 2 71.721156952835 30.47859295134299 0 -1 0 0
1942 4 76.045840518372 30.47859295134299 0 -1 0 0
1946 2 80.370524083909 30.47859295134299 0 -1 0 0
1950 4 84.695207649446 30.47859295134299 0 -1 0 0
1954 2 89.019891214983 30.47859295134299 0 -1 0 0
1958 4 93.34457478051999 30.47859295134299 0 -1 0 0
1962 2 97.669258346057 30.47859295134299 0 -1 0 0
1966 4 101.99394191159399 30.47859295134299 0 -1 0 0
1971 5 0 32.510520383431 0.299316465035 0 0 0
1975 7 4.324683565537001 32.510520383431 0.299316465035 0 0 0
1979 5 8.649367131074001 32.510520383431 0.299316465035 0 0 0
1983 7 12.974050696611002 32.510520383431 0.299316465035 0 0 0
1987 5 17.298734262148002 32.510520383431 0.299316465035 0 0 0
1991 7 21.623417827685003 32.510520383431 0.299316465035 0 0 0
1995 5 25.948101393222004 32.510520383431 0.299316465035 0 0 0
1999 7 30.272784958759004 32.510520383431 0.299316465035 0 0 0
2003 5 34.597468524296005 32.510520383431 0.299316465035 0 0 0
2007 7 38.922152089833006 32.510520383431 0.299316465035 0 0 0
2011 5 43.246835655370006 32.510520383431 0.299316465035 0 0 0
2015 7 47.57151922090701 32.510520383431 0.299316465035 0 0 0
1923 5 51.896202786444 32.510520383431 0.299316465035 -1 0 0
1927 7 56.220886351981 32.510520383431 0.299316465035 -1 0 0
1931 5 60.545569917518 32.510520383431 0.299316465035 -1 0 0
1935 7 64.870253483055 32.510520383431 0.299316465035 -1 0 0
1939 5 69.19493704859201 32.510520383431 0.299316465035 -1 0 0
1943 7 73.519620614129 32.510520383431 0.299316465035 -1 0 0
1947 5 77.844304179666 32.510520383431 0.299316465035 -1 0 0
1951 7 82.168987745203 32.510520383431 0.299316465035 -1 0 0
1955 5 86.49367131074001 32.510520383431 0.299316465035 -1 0 0
1959 7 90.818354876277 32.510520383431 0.299316465035 -1 0 0
1963 5 95.143038441814 32.510520383431 0.299316465035 -1 0 0
1967 7 99.467722007351 32.510520383431 0.299316465035 -1 0 0
2066 2 2.526219904243 34.542404426185 0 0 0 0
2070 4 6.85090346978 34.542404426185 0 0 0 0
2074 2 11.175587035317001 34.542404426185 0 0 0 0
2078 4 15.500270600853995 34.542404426185 0 0 0 0
2082 2 19.824954166390995 34.542404426185 0 0 0 0
2086 4 24.149637731927996 34.542404426185 0 0 0 0
2090 2 28.474321297464996 34.542404426185 0 0 0 0
2094 4 32.799004863002 34.542404426185 0 0 0 0
2098 2 37.123688428539 34.542404426185 0 0 0 0
2102 4 41.448371994076 34.542404426185 0 0 0 0
2106 2 45.773055559613 34.542404426185 0 0 0 0
2110 4 50.09773912515 34.542404426185 0 0 0 0
2018 2 54.422422690687 34.542404426185 0 -1 0 0
2022 4 58.747106256224 34.542404426185 0 -1 0 0
2026 2 63.071789821761 34.542404426185 0 -1 0 0
2030 4 67.396473387298 34.542404426185 0 -1 0 0
2034 2 71.721156952835 34.542404426185 0 -1 0 0
2038 4 76.045840518372 34.542404426185 0 -1 0 0
2042 2 80.370524083909 34.542404426185 0 -1 0 0
2046 4 84.695207649446 34.542404426185 0 -1 0 0
2050 2 89.019891214983 34.542404426185 0 -1 0 0
2054 4 93.34457478051999 34.542404426185 0 -1 0 0
2058 2 97.669258346057 34.542404426185 0 -1 0 0
2062 4 101.99394191159399 34.542404426185 0 -1 0 0
2067 5 0 36.574331858273 0.299316465035 0 0 0
2071 7 4.324683565537001 36.574331858273 0.299316465035 0 0 0
2075 5 8.649367131074001 36.574331858273 0.299316465035 0 0 0
2079 7 12.974050696611002 36.574331858273 0.299316465035 0 0 0
2083 5 17.298734262148002 36.574331858273 0.299316465035 0 0 0
2087 7 21.623417827685003 36.574331858273 0.299316465035 0 0 0
2091 5 25.948101393222004 36.574331858273 0.299316465035 0 0 0
2095 7 30.272784958759004 36.574331858273 0.299316465035 0 0 0
2099 5 34.597468524296005 36.574331858273 0.299316465035 0 0 0
2103 7 38.922152089833006 36.574331858273 0.299316465035 0 0 0
2107 5 43.246835655370006 36.574331858273 0.299316465035 0 0 0
2111 7 47.57151922090701 36.574331858273 0.299316465035 0 0 0
2019 5 51.896202786444 36.574331858273 0.299316465035 -1 0 0
2023 7 56.220886351981 36.574331858273 0.299316465035 -1 0 0
2027 5 60.545569917518 36.574331858273 0.299316465035 -1 0 0
2031 7 64.870253483055 36.574331858273 0.299316465035 -1 0 0
2035 5 69.19493704859201 36.574331858273 0.299316465035 -1 0 0
2039 7 73.519620614129 36.574331858273 0.299316465035 -1 0 0
2043 5 77.844304179666 36.574331858273 0.299316465035 -1 0 0
2047 7 82.168987745203 36.574331858273 0.299316465035 -1 0 0
2051 5 86.49367131074001 36.574331858273 0.299316465035 -1 0 0
2055 7 90.818354876277 36.574331858273 0.299316465035 -1 0 0
2059 5 95.143038441814 36.574331858273 0.299316465035 -1 0 0
2063 7 99.467722007351 36.574331858273 0.299316465035 -1 0 0
2162 2 2.526219904243 38.606215901027 0 0 0 0
2166 4 6.85090346978 38.606215901027 0 0 0 0
2170 2 11.175587035317001 38.606215901027 0 0 0 0
2174 4 15.500270600853995 38.606215901027 0 0 0 0
2178 2 19.824954166390995 38.606215901027 0 0 0 0
2182 4 24.149637731927996 38.606215901027 0 0 0 0
2186 2 28.474321297464996 38.606215901027 0 0 0 0
2190 4 32.799004863002 38.606215901027 0 0 0 0
2194 2 37.123688428539 38.606215901027 0 0 0 0
2198 4 41.448371994076 38.606215901027 0 0 0 0
2202 2 45.773055559613 38.606215901027 0 0 0 0
2206 4 50.09773912515 38.606215901027 0 0 0 0
2114 2 54.422422690687 38.606215901027 0 -1 0 0
2118 4 58.747106256224 38.606215901027 0 -1 0 0
2122 2 63.071789821761 38.606215901027 0 -1 0 0
2126 4 67.396473387298 38.606215901027 0 -1 0 0
2130 2 71.721156952835 38.606215901027 0 -1 0 0
2134 4 76.045840518372 38.606215901027 0 -1 0 0
2138 2 80.370524083909 38.606215901027 0 -1 0 0
2142 4 84.695207649446 38.606215901027 0 -1 0 0
2146 2 89.019891214983 38.606215901027 0 -1 0 0
2150 4 93.34457478051999 38.606215901027 0 -1 0 0
2154 2 97.669258346057 38.606215901027 0 -1 0 0
2158 4 101.99394191159399 38.606215901027 0 -1 0 0
2163 5 0 40.638143333114996 0.299316465035 0 0 0
2167 7 4.324683565537001 40.638143333114996 0.299316465035 0 0 0
2171 5 8.649367131074001 40.638143333114996 0.299316465035 0 0 0
2175 7 12.974050696611002 40.638143333114996 0.299316465035 0 0 0
2179 5 17.298734262148002 40.638143333114996 0.299316465035 0 0 0
2183 7 21.623417827685003 40.638143333114996 0.299316465035 0 0 0
2187 5 25.948101393222004 40.638143333114996 0.299316465035 0 0 0
2191 7 30.272784958759004 40.638143333114996 0.299316465035 0 0 0
2195 5 34.597468524296005 40.638143333114996 0.299316465035 0 0 0
2199 7 38.922152089833006 40.638143333114996 0.299316465035 0 0 0
2203 5 43.246835655370006 40.638143333114996 0.299316465035 0 0 0
2207 7 47.57151922090701 40.638143333114996 0.299316465035 0 0 0
2115 5 51.896202786444 40.638143333114996 0.299316465035 -1 0 0
2119 7 56.220886351981 40.638143333114996 0.299316465035 -1 0 0
2123 5 60.545569917518 40.638143333114996 0.299316465035 -1 0 0
2127 7 64.870253483055 40.638143333114996 0.299316465035 -1 0 0
2131 5 69.19493704859201 40.638143333114996 0.299316465035 -1 0 0
2135 7 73.519620614129 40.638143333114996 0.299316465035 -1 0 0
2139 5 77.844304179666 40.638143333114996 0.299316465035 -1 0 0
2143 7 82.168987745203 40.638143333114996 0.299316465035 -1 0 0
2147 5 86.49367131074001 40.638143333114996 0.299316465035 -1 0 0
2151 7 90.818354876277 40.638143333114996 0.299316465035 -1 0 0
2155 5 95.143038441814 40.638143333114996 0.299316465035 -1 0 0
2159 7 99.467722007351 40.638143333114996 0.299316465035 -1 0 0
2258 2 2.526219904243 42.670027375869 0 0 0 0
2262 4 6.85090346978 42.670027375869 0 0 0 0
2266 2 11.175587035317001 42.670027375869 0 0 0 0
2270 4 15.500270600853995 42.670027375869 0 0 0 0
2274 2 19.824954166390995 42.670027375869 0 0 0 0
2278 4 24.149637731927996 42.670027375869 0 0 0 0
2282 2 28.474321297464996 42.670027375869 0 0 0 0
2286 4 32.799004863002 42.670027375869 0 0 0 0
2290 2 37.123688428539 42.670027375869 0 0 0 0
2294 4 41.448371994076 42.670027375869 0 0 0 0
2298 2 45.773055559613 42.670027375869 0 0 0 0
2302 4 50.09773912515 42.670027375869 0 0 0 0
2210 2 54.422422690687 42.670027375869 0 -1 0 0
2214 4 58.747106256224 42.670027375869 0 -1 0 0
2218 2 63.071789821761 42.670027375869 0 -1 0 0
2222 4 67.396473387298 42.670027375869 0 -1 0 0
2226 2 71.721156952835 42.670027375869 0 -1 0 0
2230 4 76.045840518372 42.670027375869 0 -1 0 0