LAMMPS data file via write_data, version 29 Aug 2024, timestep = 58, units = metal

7200 atoms
24 atom types

0 103.792405572888 xlo xhi
0 101.59528687105 ylo yhi
-50 50 zlo zhi

Masses

1 118.71
2 118.71
3 118.71
4 118.71
5 118.71
6 118.71
7 118.71
8 118.71
9 118.71
10 118.71
11 118.71
12 118.71
13 32.06
14 32.06
15 32.06
16 32.06
17 32.06
18 32.06
19 32.06
20 32.06
21 32.06
22 32.06
23 32.06
24 32.06

Atoms # atomic

1207 15 3.289245590902674 9.858899074481906e-05 1.6652183208144067 0 0 0
1298 2 3.696427142288269 2.031819263610706 1.3989685287426414 0 0 0
1303 15 3.289245590902665 4.063910063832752 1.6652183208144025 0 0 0
1201 1 1.547865546320985 0.00016908445777824338 1.3904112459875106 0 0 0
1300 14 1.1199982916690685 2.031712419210213 1.676312983917063 0 0 0
1297 1 1.5478655463209507 4.063980559299705 1.3904112459875102 0 0 0
1304 16 5.444681857206066 2.031712419210199 1.6763129839170776 0 0 0
1205 3 5.872549111858012 0.0001690844578094857 1.3904112459875142 0 0 0
1301 3 5.872549111858018 4.063980559299711 1.3904112459875084 0 0 0
1211 13 7.613929156439683 9.858899074492702e-05 1.6652183208144031 0 0 0
1302 4 8.021110707825263 2.031819263610705 1.398968528742633 0 0 0
1307 13 7.613929156439667 4.063910063832754 1.6652183208144011 0 0 0
1209 1 10.197232677395013 0.0001690844578075704 1.39041124598751 0 0 0
1308 14 9.769365422743073 2.0317124192102023 1.6763129839170634 0 0 0
1305 1 10.19723267739502 4.063980559299707 1.3904112459875033 0 0 0
1306 2 12.345794273362268 2.0318192636107013 1.398968528742648 0 0 0
1215 15 11.938612721976652 9.858899074466575e-05 1.6652183208144122 0 0 0
1310 4 16.67047783889926 2.0318192636107035 1.3989685287426388 0 0 0
1311 15 11.938612721976648 4.063910063832756 1.6652183208144076 0 0 0
1213 3 14.521916242932031 0.0001690844578083436 1.3904112459875215 0 0 0
1312 16 14.094048988280058 2.0317124192102014 1.6763129839170856 0 0 0
1309 3 14.521916242932033 4.063980559299709 1.3904112459875175 0 0 0
1219 13 16.26329628751368 9.85889907456114e-05 1.665218320814402 0 0 0
1315 13 16.263296287513686 4.063910063832756 1.6652183208144007 0 0 0
1223 15 20.58797985305069 9.858899074424371e-05 1.665218320814405 0 0 0
1314 2 20.995161404436256 2.0318192636107018 1.3989685287426512 0 0 0
1319 15 20.587979853050676 4.063910063832752 1.6652183208144082 0 0 0
1217 1 18.846599808469016 0.00016908445779398464 1.3904112459875102 0 0 0
1316 14 18.418732553817108 2.0317124192102085 1.6763129839170618 0 0 0
1313 1 18.846599808469023 4.063980559299708 1.390411245987503 0 0 0
1320 16 22.74341611935407 2.031712419210204 1.676312983917085 0 0 0
1221 3 23.171283374005977 0.00016908445780553592 1.3904112459875215 0 0 0
1317 3 23.171283374006034 4.063980559299707 1.3904112459875162 0 0 0
1227 13 24.91266341858766 9.858899074534831e-05 1.6652183208144025 0 0 0
1318 4 25.319844969973254 2.0318192636107053 1.3989685287426321 0 0 0
1323 13 24.912663418587666 4.063910063832755 1.6652183208143998 0 0 0
1225 1 27.495966939543028 0.00016908445779746105 1.3904112459875078 0 0 0
1324 14 27.068099684891088 2.0317124192102027 1.6763129839170563 0 0 0
1321 1 27.495966939543013 4.06398055929971 1.390411245987502 0 0 0
1322 2 29.644528535510247 2.031819263610707 1.3989685287426539 0 0 0
1231 15 29.237346984124656 9.85889907460627e-05 1.6652183208144156 0 0 0
1326 4 33.96921210104721 2.0318192636107124 1.3989685287426374 0 0 0
1327 15 29.237346984124674 4.063910063832755 1.665218320814407 0 0 0
1229 3 31.820650505080025 0.00016908445777967087 1.390411245987518 0 0 0
1328 16 31.39278325042809 2.031712419210224 1.6763129839170823 0 0 0
1325 3 31.820650505080017 4.0639805592996945 1.3904112459875169 0 0 0
1235 13 33.56203054966176 9.858899074755138e-05 1.665218320814388 0 0 0
1331 13 33.56203054966167 4.063910063832751 1.665218320814405 0 0 0
1239 15 37.88671411519865 9.858899074677748e-05 1.665218320814416 0 0 0
1330 2 38.29389566658429 2.0318192636107066 1.3989685287426514 0 0 0
1335 15 37.88671411519864 4.063910063832754 1.6652183208144071 0 0 0
1233 1 36.14533407061692 0.00016908445775761028 1.3904112459875235 0 0 0
1332 14 35.71746681596507 2.0317124192102143 1.6763129839170665 0 0 0
1329 1 36.14533407061707 4.063980559299712 1.3904112459875064 0 0 0
1336 16 40.04215038150204 2.0317124192102014 1.67631298391709 0 0 0
1237 3 40.47001763615404 0.00016908445781254884 1.3904112459875135 0 0 0
1333 3 40.47001763615402 4.0639805592997025 1.3904112459875075 0 0 0
1243 13 42.21139768073573 9.858899074565602e-05 1.6652183208143914 0 0 0
1334 4 42.61857923212123 2.0318192636107058 1.39896852874263 0 0 0
1339 13 42.21139768073567 4.063910063832754 1.6652183208143978 0 0 0
1241 1 44.794701201691 0.00016908445780554297 1.3904112459875149 0 0 0
1340 14 44.36683394703908 2.031712419210205 1.6763129839170716 0 0 0
1337 1 44.79470120169103 4.063980559299722 1.3904112459875102 0 0 0
1338 2 46.943262797658285 2.031819263610698 1.3989685287426405 0 0 0
1247 15 46.53608124627263 9.858899074421224e-05 1.6652183208144167 0 0 0
1342 4 51.267946363195264 2.0318192636106978 1.398968528742638 0 0 0
1343 15 46.536081246272715 4.063910063832755 1.6652183208144042 0 0 0
1245 3 49.11938476722808 0.00016908445780957306 1.3904112459875027 0 0 0
1344 16 48.69151751257605 2.0317124192102027 1.6763129839170736 0 0 0
1341 3 49.11938476722798 4.063980559299709 1.3904112459875149 0 0 0
1155 13 50.860764811809716 9.858899074637304e-05 1.6652183208143998 -1 0 0
1251 13 50.860764811809624 4.063910063832755 1.6652183208144051 -1 0 0
1159 15 55.18544837734665 9.858899075099543e-05 1.6652183208144118 -1 0 0
1250 2 55.59262992873225 2.0318192636106986 1.3989685287426405 -1 0 0
1255 15 55.185448377346624 4.063910063832753 1.6652183208144093 -1 0 0
1153 1 53.44406833276495 0.0001690844578134456 1.3904112459875229 -1 0 0
1252 14 53.01620107811308 2.0317124192101916 1.6763129839170725 -1 0 0
1249 1 53.44406833276506 4.0639805592997265 1.3904112459875093 -1 0 0
1256 16 57.340884643650114 2.0317124192102134 1.6763129839170576 -1 0 0
1157 3 57.76875189830205 0.00016908445778158365 1.39041124598751 -1 0 0
1253 3 57.76875189830206 4.063980559299712 1.3904112459874989 -1 0 0
1163 13 59.510131942883646 9.858899074158091e-05 1.6652183208144054 -1 0 0
1254 4 59.91731349426922 2.0318192636107097 1.398968528742645 -1 0 0
1259 13 59.51013194288359 4.063910063832751 1.6652183208144065 -1 0 0
1161 1 62.09343546383902 0.00016908445783891677 1.3904112459875066 -1 0 0
1260 14 61.66556820918705 2.0317124192102036 1.6763129839170772 -1 0 0
1257 1 62.093435463839086 4.0639805592996945 1.3904112459875013 -1 0 0
1258 2 64.24199705980627 2.031819263610686 1.3989685287426459 -1 0 0
1167 15 63.83481550842062 9.858899075061703e-05 1.6652183208144056 -1 0 0
1262 4 68.56668062534325 2.0318192636107146 1.3989685287426328 -1 0 0
1263 15 63.83481550842065 4.063910063832756 1.665218320814398 -1 0 0
1165 3 66.41811902937602 0.00016908445781138462 1.3904112459875144 -1 0 0
1264 16 65.99025177472404 2.0317124192101934 1.6763129839170832 -1 0 0
1261 3 66.41811902937604 4.063980559299719 1.3904112459874987 -1 0 0
1171 13 68.15949907395758 9.858899074767707e-05 1.6652183208144182 -1 0 0
1267 13 68.15949907395763 4.063910063832752 1.6652183208144105 -1 0 0
1175 15 72.48418263949446 9.858899074242141e-05 1.6652183208144298 -1 0 0
1266 2 72.89136419088038 2.031819263610708 1.3989685287426272 -1 0 0
1271 15 72.48418263949463 4.063910063832757 1.665218320814418 -1 0 0
1169 1 70.74280259491312 0.00016908445774732318 1.3904112459874962 -1 0 0
1268 14 70.31493534026097 2.0317124192102223 1.6763129839170692 -1 0 0
1265 1 70.74280259491307 4.06398055929972 1.3904112459874929 -1 0 0
1272 16 74.63961890579813 2.0317124192102107 1.6763129839170716 -1 0 0
1173 3 75.06748616045019 0.00016908445780964288 1.390411245987486 -1 0 0
1269 3 75.06748616045006 4.0639805592997105 1.3904112459875035 -1 0 0
1179 13 76.80886620503163 9.858899074514006e-05 1.6652183208143934 -1 0 0
1270 4 77.21604775641723 2.0318192636107124 1.3989685287426428 -1 0 0
1275 13 76.80886620503186 4.0639100638327506 1.6652183208143836 -1 0 0
1177 1 79.39216972598696 0.00016908445779576447 1.3904112459875124 -1 0 0
1276 14 78.96430247133515 2.0317124192102147 1.6763129839170543 -1 0 0
1273 1 79.39216972598685 4.063980559299712 1.3904112459875317 -1 0 0
1274 2 81.54073132195423 2.031819263610698 1.398968528742663 -1 0 0
1183 15 81.1335497705687 9.858899074482488e-05 1.6652183208144082 -1 0 0
1278 4 85.86541488749135 2.0318192636107053 1.398968528742621 -1 0 0
1279 15 81.13354977056856 4.0639100638327585 1.6652183208144231 -1 0 0
1181 3 83.71685329152399 0.00016908445784564346 1.3904112459875178 -1 0 0
1280 16 83.28898603687202 2.0317124192102116 1.6763129839171094 -1 0 0
1277 3 83.71685329152419 4.063980559299668 1.3904112459874982 -1 0 0
1187 13 85.45823333610569 9.85889907491974e-05 1.6652183208144031 -1 0 0
1283 13 85.4582333361058 4.063910063832748 1.6652183208143794 -1 0 0
1191 15 89.78291690164274 9.858899074724906e-05 1.6652183208144178 -1 0 0
1282 2 90.19009845302836 2.0318192636107044 1.3989685287426412 -1 0 0
1287 15 89.7829169016427 4.06391006383275 1.6652183208144051 -1 0 0
1185 1 88.04153685706106 0.00016908445775884194 1.3904112459875162 -1 0 0
1284 14 87.61366960240902 2.0317124192102134 1.6763129839170567 -1 0 0
1281 1 88.04153685706088 4.063980559299728 1.3904112459875226 -1 0 0
1288 16 91.93835316794612 2.031712419210207 1.6763129839170718 -1 0 0
1189 3 92.366220422598 0.00016908445780458486 1.3904112459875038 -1 0 0
1285 3 92.36622042259798 4.063980559299696 1.3904112459875073 -1 0 0
1195 13 94.10760046717968 9.858899074498956e-05 1.665218320814395 -1 0 0
1286 4 94.51478201856521 2.0318192636107013 1.398968528742638 -1 0 0
1291 13 94.10760046717981 4.063910063832751 1.6652183208143858 -1 0 0
1193 1 96.69090398813499 0.00016908445778613334 1.3904112459875204 -1 0 0
1292 14 96.26303673348298 2.0317124192102023 1.6763129839170792 -1 0 0
1289 1 96.6909039881349 4.063980559299709 1.3904112459875293 -1 0 0
1203 13 102.75696759825365 9.858899074480675e-05 1.6652183208144042 -1 0 0
1299 13 102.75696759825372 4.063910063832755 1.6652183208143971 -1 0 0
1290 2 98.83946558410238 2.0318192636107044 1.3989685287426448 -1 0 0
1199 15 98.43228403271664 9.858899074497934e-05 1.665218320814427 -1 0 0
1294 4 103.16414914963919 2.031819263610709 1.3989685287426479 -1 0 0
1295 15 98.43228403271672 4.063910063832764 1.665218320814419 -1 0 0
1197 3 101.01558755367206 0.00016908445779457906 1.390411245987515 -1 0 0
1296 16 100.58772029902018 2.031712419210206 1.6763129839170805 -1 0 0
1293 3 101.01558755367203 4.0639805592997105 1.3904112459875202 -1 0 0
1394 2 3.696427142288275 6.095630738452689 1.3989685287426394 0 0 0
1399 15 3.2892455909026626 8.127721538674772 1.6652183208144222 0 0 0
1490 2 3.6964271422882793 10.159442213294673 1.3989685287426459 0 0 0
1396 14 1.1199982916690754 6.095523894052189 1.6763129839170645 0 0 0
1393 1 1.5478655463210798 8.127792034141788 1.3904112459875069 0 0 0
1492 14 1.1199982916690694 10.1593353688941 1.6763129839170616 0 0 0
1400 16 5.444681857206068 6.095523894052184 1.6763129839170743 0 0 0
1496 16 5.4446818572060645 10.159335368894098 1.6763129839170756 0 0 0
1397 3 5.872549111858024 8.127792034141804 1.3904112459875178 0 0 0
1398 4 8.021110707825276 6.095630738452688 1.3989685287426314 0 0 0
1403 13 7.613929156439659 8.127721538674772 1.6652183208144187 0 0 0
1494 4 8.021110707825263 10.159442213294666 1.398968528742642 0 0 0
1404 14 9.769365422743057 6.0955238940521825 1.6763129839170592 0 0 0
1401 1 10.197232677395034 8.127792034141812 1.3904112459875129 0 0 0
1500 14 9.76936542274306 10.159335368894087 1.6763129839170636 0 0 0
1402 2 12.345794273362285 6.095630738452691 1.3989685287426452 0 0 0
1498 2 12.345794273362253 10.159442213294659 1.3989685287426512 0 0 0
1406 4 16.670477838899238 6.095630738452687 1.3989685287426392 0 0 0
1407 15 11.938612721976659 8.127721538674773 1.6652183208144231 0 0 0
1502 4 16.670477838899235 10.159442213294668 1.3989685287426479 0 0 0
1408 16 14.09404898828007 6.095523894052185 1.6763129839170814 0 0 0
1405 3 14.521916242932022 8.1277920341418 1.3904112459875244 0 0 0
1504 16 14.09404898828007 10.159335368894089 1.6763129839170752 0 0 0
1411 13 16.263296287513707 8.127721538674773 1.6652183208144105 0 0 0
1410 2 20.99516140443626 6.095630738452691 1.3989685287426512 0 0 0
1415 15 20.58797985305065 8.127721538674772 1.665218320814424 0 0 0
1506 2 20.99516140443627 10.159442213294666 1.3989685287426517 0 0 0
1412 14 18.418732553817133 6.0955238940521905 1.6763129839170612 0 0 0
1409 1 18.846599808468998 8.1277920341418 1.3904112459875142 0 0 0
1508 14 18.418732553817076 10.159335368894098 1.6763129839170652 0 0 0
1416 16 22.743416119354105 6.095523894052192 1.6763129839170803 0 0 0
1512 16 22.74341611935406 10.159335368894089 1.6763129839170774 0 0 0
1413 3 23.171283374006038 8.127792034141804 1.3904112459875217 0 0 0
1414 4 25.319844969973225 6.095630738452691 1.3989685287426374 0 0 0
1419 13 24.912663418587677 8.127721538674772 1.6652183208144151 0 0 0
1510 4 25.31984496997325 10.159442213294666 1.3989685287426392 0 0 0
1420 14 27.06809968489108 6.095523894052186 1.67631298391706 0 0 0
1417 1 27.495966939543013 8.1277920341418 1.3904112459875113 0 0 0
1516 14 27.068099684891063 10.159335368894098 1.6763129839170623 0 0 0
1418 2 29.644528535510265 6.095630738452692 1.3989685287426452 0 0 0
1514 2 29.64452853551027 10.159442213294666 1.398968528742652 0 0 0
1422 4 33.96921210104726 6.095630738452689 1.3989685287426346 0 0 0
1423 15 29.237346984124684 8.127721538674773 1.6652183208144202 0 0 0
1518 4 33.96921210104727 10.159442213294675 1.3989685287426372 0 0 0
1424 16 31.392783250428078 6.095523894052189 1.6763129839170812 0 0 0
1421 3 31.82065050508001 8.1277920341418 1.3904112459875186 0 0 0
1520 16 31.39278325042804 10.159335368894098 1.6763129839170878 0 0 0
1427 13 33.56203054966173 8.12772153867477 1.6652183208144047 0 0 0
1426 2 38.2938956665843 6.095630738452693 1.398968528742644 0 0 0
1431 15 37.886714115198686 8.127721538674773 1.6652183208144247 0 0 0
1522 2 38.2938956665843 10.159442213294648 1.3989685287426463 0 0 0
1428 14 35.71746681596506 6.095523894052184 1.6763129839170716 0 0 0
1425 1 36.14533407061699 8.127792034141816 1.3904112459875193 0 0 0
1524 14 35.717466815965054 10.159335368894084 1.6763129839170705 0 0 0
1432 16 40.04215038150208 6.095523894052195 1.67631298391708 0 0 0
1528 16 40.04215038150203 10.15933536889407 1.6763129839170758 0 0 0
1429 3 40.470017636154004 8.127792034141814 1.3904112459875215 0 0 0
1430 4 42.618579232121256 6.0956307384526855 1.3989685287426405 0 0 0
1435 13 42.21139768073568 8.127721538674775 1.665218320814413 0 0 0
1526 4 42.61857923212126 10.159442213294662 1.3989685287426403 0 0 0
1436 14 44.36683394703902 6.095523894052183 1.6763129839170852 0 0 0
1433 1 44.79470120169104 8.127792034141807 1.3904112459875178 0 0 0
1532 14 44.36683394703905 10.159335368894093 1.6763129839170798 0 0 0
1434 2 46.94326279765832 6.095630738452688 1.3989685287426332 0 0 0
1530 2 46.94326279765828 10.159442213294659 1.3989685287426394 0 0 0
1438 4 51.26794636319527 6.095630738452689 1.3989685287426399 0 0 0
1439 15 46.536081246272715 8.127721538674773 1.6652183208144178 0 0 0
1534 4 51.26794636319525 10.159442213294662 1.3989685287426519 0 0 0
1440 16 48.691517512576056 6.0955238940521825 1.67631298391707 0 0 0
1437 3 49.11938476722798 8.127792034141818 1.3904112459875217 0 0 0
1536 16 48.69151751257608 10.159335368894082 1.676312983917062 0 0 0
1347 13 50.86076481180957 8.127721538674775 1.6652183208144289 -1 0 0
1346 2 55.59262992873228 6.095630738452691 1.3989685287426412 -1 0 0
1351 15 55.18544837734662 8.127721538674768 1.6652183208144185 -1 0 0
1442 2 55.59262992873226 10.159442213294687 1.3989685287426463 -1 0 0
1348 14 53.01620107811307 6.095523894052194 1.6763129839170798 -1 0 0
1345 1 53.44406833276509 8.12779203414177 1.3904112459875124 -1 0 0
1444 14 53.016201078113056 10.159335368894093 1.6763129839170734 -1 0 0
1352 16 57.3408846436501 6.095523894052188 1.676312983917067 -1 0 0
1448 16 57.34088464365009 10.159335368894109 1.6763129839170632 -1 0 0
1349 3 57.76875189830205 8.127792034141786 1.3904112459875049 -1 0 0
1350 4 59.91731349426924 6.095630738452696 1.398968528742632 -1 0 0
1355 13 59.51013194288373 8.127721538674772 1.6652183208144065 -1 0 0
1446 4 59.917313494269195 10.159442213294659 1.3989685287426452 -1 0 0
1356 14 61.665568209187015 6.095523894052195 1.6763129839170725 -1 0 0
1353 1 62.09343546383894 8.127792034141807 1.3904112459875204 -1 0 0
1452 14 61.66556820918706 10.159335368894084 1.6763129839170632 -1 0 0
1354 2 64.24199705980634 6.095630738452707 1.398968528742632 -1 0 0
1450 2 64.24199705980624 10.159442213294676 1.3989685287426357 -1 0 0
1358 4 68.56668062534331 6.095630738452675 1.3989685287426288 -1 0 0
1359 15 63.83481550842062 8.12772153867477 1.6652183208144116 -1 0 0
1454 4 68.56668062534327 10.159442213294662 1.398968528742651 -1 0 0
1360 16 65.99025177472404 6.095523894052198 1.6763129839170798 -1 0 0
1357 3 66.418119029376 8.127792034141773 1.3904112459875155 -1 0 0
1456 16 65.99025177472414 10.1593353688941 1.6763129839170656 -1 0 0
1363 13 68.15949907395772 8.127721538674773 1.6652183208144085 -1 0 0
1362 2 72.89136419088037 6.095630738452686 1.3989685287426363 -1 0 0
1367 15 72.48418263949465 8.127721538674775 1.6652183208144276 -1 0 0
1458 2 72.89136419088024 10.159442213294662 1.3989685287426599 -1 0 0
1364 14 70.31493534026103 6.0955238940521745 1.6763129839170687 -1 0 0
1361 1 70.74280259491296 8.127792034141827 1.3904112459875202 -1 0 0
1460 14 70.31493534026114 10.159335368894082 1.6763129839170707 -1 0 0
1368 16 74.6396189057979 6.095523894052171 1.6763129839170958 -1 0 0
1464 16 74.63961890579807 10.159335368894103 1.6763129839170827 -1 0 0
1365 3 75.06748616045004 8.127792034141807 1.3904112459875138 -1 0 0
1366 4 77.21604775641745 6.0956307384526855 1.3989685287426101 -1 0 0
1371 13 76.8088662050316 8.12772153867477 1.665218320814426 -1 0 0
1462 4 77.21604775641725 10.159442213294666 1.3989685287426394 -1 0 0
1372 14 78.96430247133507 6.0955238940521745 1.676312983917063 -1 0 0
1369 1 79.39216972598715 8.127792034141823 1.3904112459874993 -1 0 0
1468 14 78.96430247133496 10.159335368894087 1.6763129839170765 -1 0 0
1370 2 81.54073132195434 6.095630738452701 1.3989685287426454 -1 0 0
1466 2 81.54073132195437 10.159442213294648 1.398968528742636 -1 0 0
1374 4 85.86541488749134 6.0956307384527 1.3989685287426166 -1 0 0
1375 15 81.13354977056873 8.127721538674775 1.6652183208144302 -1 0 0
1470 4 85.86541488749131 10.159442213294648 1.3989685287426308 -1 0 0
1376 16 83.28898603687196 6.095523894052204 1.6763129839170887 -1 0 0
1373 3 83.716853291524 8.127792034141796 1.3904112459875215 -1 0 0
1472 16 83.28898603687199 10.159335368894071 1.676312983917066 -1 0 0
1379 13 85.45823333610568 8.127721538674777 1.6652183208144216 -1 0 0
1378 2 90.19009845302827 6.095630738452686 1.3989685287426488 -1 0 0
1383 15 89.78291690164265 8.127721538674773 1.6652183208144293 -1 0 0
1474 2 90.19009845302828 10.15944221329466 1.398968528742649 -1 0 0
1380 14 87.61366960240913 6.095523894052186 1.6763129839170647 -1 0 0
1377 1 88.04153685706099 8.127792034141766 1.390411245987517 -1 0 0
1476 14 87.61366960240902 10.159335368894084 1.67631298391706 -1 0 0
1384 16 91.93835316794608 6.095523894052202 1.6763129839170685 -1 0 0
1480 16 91.93835316794605 10.159335368894084 1.6763129839170738 -1 0 0
1381 3 92.36622042259805 8.127792034141807 1.3904112459875202 -1 0 0
1382 4 94.5147820185653 6.095630738452699 1.398968528742637 -1 0 0
1387 13 94.10760046717942 8.127721538674772 1.665218320814442 -1 0 0
1478 4 94.51478201856527 10.159442213294653 1.3989685287426343 -1 0 0
1388 14 96.26303673348318 6.095523894052185 1.6763129839170674 -1 0 0
1385 1 96.69090398813519 8.127792034141816 1.3904112459874962 -1 0 0
1484 14 96.26303673348312 10.159335368894093 1.6763129839170585 -1 0 0
1395 13 102.75696759825367 8.127721538674773 1.6652183208144191 -1 0 0
1386 2 98.83946558410223 6.095630738452674 1.3989685287426636 -1 0 0
1482 2 98.83946558410224 10.159442213294664 1.398968528742671 -1 0 0
1390 4 103.16414914963929 6.095630738452689 1.3989685287426374 -1 0 0
1391 15 98.43228403271654 8.127721538674773 1.665218320814438 -1 0 0
1486 4 103.16414914963916 10.15944221329467 1.3989685287426499 -1 0 0
1392 16 100.58772029902015 6.095523894052171 1.6763129839170818 -1 0 0
1389 3 101.01558755367216 8.127792034141837 1.3904112459875004 -1 0 0
1488 16 100.58772029902016 10.159335368894098 1.6763129839170834 -1 0 0
1495 15 3.2892455909026705 12.191533013516787 1.665218320814402 0 0 0
1586 2 3.6964271422883104 14.223253688136621 1.3989685287426217 0 0 0
1591 15 3.2892455909026634 16.25534448835874 1.6652183208144142 0 0 0
1489 1 1.5478655463209452 12.191603508983793 1.3904112459875104 0 0 0
1588 14 1.1199982916690627 14.223146843736082 1.6763129839170658 0 0 0
1585 1 1.5478655463209756 16.255414983826018 1.3904112459875126 0 0 0
1592 16 5.444681857206098 14.22314684373609 1.676312983917072 0 0 0
1493 3 5.8725491118580155 12.191603508983782 1.390411245987508 0 0 0
1589 3 5.8725491118580155 16.255414983826007 1.3904112459875124 0 0 0
1499 13 7.613929156439661 12.191533013516784 1.6652183208143994 0 0 0
1590 4 8.02111070782528 14.223253688136618 1.3989685287426172 0 0 0
1595 13 7.613929156439661 16.25534448835875 1.6652183208144076 0 0 0
1497 1 10.197232677395027 12.191603508983802 1.3904112459875042 0 0 0
1596 14 9.769365422743082 14.223146843736084 1.6763129839170647 0 0 0
1593 1 10.197232677395023 16.255414983825986 1.3904112459875029 0 0 0
1594 2 12.3457942733623 14.22325368813662 1.3989685287426303 0 0 0
1503 15 11.938612721976666 12.191533013516787 1.665218320814402 0 0 0
1598 4 16.670477838899266 14.22325368813662 1.3989685287426228 0 0 0
1599 15 11.938612721976659 16.255344488358755 1.6652183208144102 0 0 0
1501 3 14.521916242932015 12.191603508983796 1.390411245987517 0 0 0
1600 16 14.094048988280093 14.22314684373609 1.6763129839170865 0 0 0
1597 3 14.521916242932017 16.25541498382596 1.3904112459875155 0 0 0
1507 13 16.263296287513683 12.191533013516787 1.6652183208143951 0 0 0
1603 13 16.2632962875137 16.25534448835874 1.6652183208144022 0 0 0
1511 15 20.58797985305065 12.191533013516787 1.6652183208144036 0 0 0
1602 2 20.99516140443629 14.22325368813662 1.3989685287426323 0 0 0
1607 15 20.587979853050694 16.25534448835875 1.6652183208144096 0 0 0
1505 1 18.846599808469016 12.191603508983773 1.3904112459875007 0 0 0
1604 14 18.418732553817126 14.223146843736089 1.676312983917059 0 0 0
1601 1 18.846599808469 16.255414983826004 1.390411245987508 0 0 0
1608 16 22.743416119354112 14.223146843736089 1.6763129839170816 0 0 0
1509 3 23.17128337400603 12.191603508983802 1.3904112459875093 0 0 0
1605 3 23.171283374005995 16.25541498382595 1.3904112459875155 0 0 0
1515 13 24.912663418587663 12.191533013516784 1.665218320814397 0 0 0
1606 4 25.31984496997324 14.223253688136621 1.3989685287426215 0 0 0
1611 13 24.912663418587695 16.25534448835875 1.6652183208144025 0 0 0
1513 1 27.49596693954303 12.191603508983787 1.3904112459875024 0 0 0
1612 14 27.068099684891102 14.223146843736103 1.6763129839170725 0 0 0
1609 1 27.495966939543013 16.255414983825943 1.3904112459875073 0 0 0
1610 2 29.644528535510293 14.223253688136635 1.3989685287426357 0 0 0
1519 15 29.237346984124695 12.191533013516782 1.6652183208144018 0 0 0
1614 4 33.9692121010473 14.223253688136623 1.3989685287426135 0 0 0
1615 15 29.237346984124677 16.255344488358745 1.6652183208144162 0 0 0
1517 3 31.820650505080028 12.191603508983771 1.3904112459875129 0 0 0
1616 16 31.39278325042805 14.223146843736103 1.6763129839170876 0 0 0
1613 3 31.820650505079993 16.25541498382598 1.3904112459875158 0 0 0
1523 13 33.56203054966171 12.191533013516787 1.6652183208143905 0 0 0
1619 13 33.5620305496617 16.255344488358745 1.6652183208144002 0 0 0
1527 15 37.88671411519868 12.191533013516787 1.6652183208144016 0 0 0
1618 2 38.2938956665843 14.223253688136603 1.3989685287426348 0 0 0
1623 15 37.88671411519867 16.25534448835874 1.6652183208144073 0 0 0
1521 1 36.14533407061698 12.19160350898379 1.39041124598751 0 0 0
1620 14 35.71746681596506 14.223146843736092 1.6763129839170736 0 0 0
1617 1 36.145334070617004 16.255414983826 1.3904112459875093 0 0 0
1624 16 40.04215038150206 14.223146843736052 1.6763129839171003 0 0 0
1525 3 40.470017636154004 12.191603508983858 1.390411245987516 0 0 0
1621 3 40.47001763615399 16.255414983826014 1.3904112459875153 0 0 0
1531 13 42.21139768073566 12.19153301351679 1.6652183208143916 0 0 0
1622 4 42.61857923212129 14.223253688136605 1.398968528742606 0 0 0
1627 13 42.21139768073569 16.255344488358745 1.6652183208143974 0 0 0
1529 1 44.794701201691005 12.191603508983787 1.3904112459875049 0 0 0
1628 14 44.36683394703912 14.223146843736082 1.6763129839170565 0 0 0
1625 1 44.794701201691055 16.255414983826 1.3904112459875033 0 0 0
1626 2 46.943262797658285 14.223253688136616 1.3989685287426283 0 0 0
1535 15 46.536081246272715 12.19153301351679 1.6652183208143947 0 0 0
1630 4 51.26794636319531 14.22325368813662 1.398968528742626 0 0 0
1631 15 46.536081246272744 16.25534448835874 1.665218320814404 0 0 0
1533 3 49.11938476722798 12.19160350898381 1.390411245987511 0 0 0
1632 16 48.69151751257606 14.22314684373608 1.6763129839170836 0 0 0
1629 3 49.11938476722795 16.255414983825972 1.3904112459875213 0 0 0
1443 13 50.860764811809624 12.191533013516784 1.6652183208144073 -1 0 0
1539 13 50.86076481180964 16.255344488358745 1.6652183208144125 -1 0 0
1447 15 55.18544837734663 12.191533013516777 1.665218320814405 -1 0 0
1538 2 55.59262992873226 14.223253688136634 1.3989685287426255 -1 0 0
1543 15 55.18544837734665 16.25534448835875 1.6652183208144047 -1 0 0
1441 1 53.444068332765056 12.19160350898378 1.3904112459875022 -1 0 0
1540 14 53.01620107811309 14.223146843736092 1.676312983917075 -1 0 0
1537 1 53.44406833276505 16.255414983826 1.390411245987504 -1 0 0
1544 16 57.34088464365009 14.223146843736108 1.6763129839170836 -1 0 0
1445 3 57.76875189830203 12.191603508983786 1.390411245987501 -1 0 0
1541 3 57.76875189830203 16.255414983825936 1.3904112459875015 -1 0 0
1451 13 59.51013194288362 12.191533013516787 1.6652183208143962 -1 0 0
1542 4 59.917313494269294 14.223253688136625 1.398968528742628 -1 0 0
1547 13 59.51013194288369 16.255344488358748 1.6652183208143978 -1 0 0
1449 1 62.093435463839015 12.191603508983786 1.3904112459875018 -1 0 0
1548 14 61.66556820918702 14.22314684373609 1.6763129839170894 -1 0 0
1545 1 62.09343546383895 16.255414983825958 1.390411245987511 -1 0 0
1546 2 64.2419970598063 14.223253688136626 1.398968528742612 -1 0 0
1455 15 63.83481550842073 12.191533013516784 1.6652183208143858 -1 0 0
1550 4 68.56668062534335 14.223253688136623 1.3989685287426246 -1 0 0
1551 15 63.834815508420604 16.255344488358748 1.6652183208144038 -1 0 0
1453 3 66.41811902937594 12.191603508983784 1.390411245987507 -1 0 0
1552 16 65.99025177472406 14.223146843736096 1.6763129839170772 -1 0 0
1549 3 66.41811902937607 16.255414983825965 1.390411245987505 -1 0 0
1459 13 68.15949907395763 12.191533013516782 1.665218320814408 -1 0 0
1555 13 68.15949907395763 16.25534448835875 1.6652183208144065 -1 0 0
1463 15 72.48418263949479 12.191533013516782 1.6652183208143994 -1 0 0
1554 2 72.89136419088021 14.22325368813662 1.3989685287426354 -1 0 0
1559 15 72.4841826394947 16.255344488358755 1.6652183208144045 -1 0 0
1457 1 70.7428025949131 12.191603508983818 1.3904112459874982 -1 0 0
1556 14 70.31493534026116 14.22314684373608 1.6763129839170814 -1 0 0
1553 1 70.74280259491299 16.25541498382596 1.390411245987504 -1 0 0
1560 16 74.639618905798 14.223146843736094 1.6763129839170796 -1 0 0
1461 3 75.06748616044992 12.191603508983775 1.390411245987525 -1 0 0
1557 3 75.06748616044996 16.25541498382601 1.3904112459875255 -1 0 0
1467 13 76.8088662050316 12.191533013516786 1.665218320814402 -1 0 0
1558 4 77.21604775641732 14.223253688136623 1.3989685287426068 -1 0 0
1563 13 76.80886620503159 16.255344488358734 1.665218320814415 -1 0 0
1465 1 79.39216972598707 12.191603508983794 1.3904112459874944 -1 0 0
1564 14 78.9643024713352 14.223146843736084 1.6763129839170452 -1 0 0
1561 1 79.39216972598706 16.255414983826025 1.390411245987503 -1 0 0
1562 2 81.54073132195427 14.2232536881366 1.3989685287426443 -1 0 0
1471 15 81.13354977056885 12.191533013516784 1.665218320814387 -1 0 0
1566 4 85.8654148874913 14.223253688136593 1.3989685287426157 -1 0 0
1567 15 81.13354977056875 16.25534448835874 1.6652183208143971 -1 0 0
1469 3 83.71685329152388 12.191603508983894 1.3904112459875386 -1 0 0
1568 16 83.2889860368721 14.223146843736032 1.6763129839170956 -1 0 0
1565 3 83.71685329152388 16.255414983826 1.3904112459875142 -1 0 0
1475 13 85.45823333610575 12.19153301351679 1.6652183208143971 -1 0 0
1571 13 85.45823333610561 16.255344488358748 1.6652183208143958 -1 0 0
1479 15 89.78291690164279 12.191533013516784 1.665218320814393 -1 0 0
1570 2 90.19009845302834 14.223253688136618 1.3989685287426303 -1 0 0
1575 15 89.78291690164271 16.255344488358745 1.6652183208144187 -1 0 0
1473 1 88.04153685706092 12.191603508983844 1.3904112459875204 -1 0 0
1572 14 87.61366960240906 14.223146843736064 1.6763129839170672 -1 0 0
1569 1 88.04153685706113 16.255414983826007 1.3904112459875029 -1 0 0
1576 16 91.9383531679461 14.223146843736082 1.676312983917086 -1 0 0
1477 3 92.36622042259796 12.191603508983826 1.3904112459875169 -1 0 0
1573 3 92.36622042259802 16.255414983825972 1.3904112459875042 -1 0 0
1483 13 94.10760046717964 12.191533013516787 1.6652183208144027 -1 0 0
1574 4 94.5147820185653 14.223253688136614 1.3989685287426141 -1 0 0
1579 13 94.10760046717968 16.25534448835874 1.665218320814397 -1 0 0
1481 1 96.69090398813508 12.19160350898378 1.3904112459875042 -1 0 0
1580 14 96.2630367334831 14.22314684373609 1.6763129839170627 -1 0 0
1577 1 96.690903988135 16.255414983826 1.3904112459875158 -1 0 0