LAMMPS data file via write_data, version 29 Aug 2024, timestep = 62, units = metal

4800 atoms
16 atom types

0 103.792405572888 xlo xhi
0 101.59528687105 ylo yhi
-50 50 zlo zhi

Masses

1 118.71
2 118.71
3 118.71
4 118.71
5 118.71
6 118.71
7 118.71
8 118.71
9 32.06
10 32.06
11 32.06
12 32.06
13 32.06
14 32.06
15 32.06
16 32.06

Atoms # atomic

1207 11 3.037069945888791 6.622324527043801e-05 1.5553443418913748 0 0 0
1298 2 3.809872284120092 2.032234593269953 1.3581365633370837 0 0 0
1303 11 3.037069945888792 4.063877698087275 1.5553443418913835 0 0 0
1300 10 1.2257522813848594 2.0318164361728086 1.599011884272418 0 0 0
1297 1 1.3043570783530707 4.063241195598191 1.4196758622988839 0 0 0
1301 3 5.629040643890131 4.063241195598273 1.4196758622988879 0 0 0
1304 12 5.5504358469209665 2.0318164361728157 1.5990118842725078 0 0 0
1211 9 7.361753511425805 6.622324527114472e-05 1.555344341891369 0 0 0
1302 4 8.134555849658287 2.0322345932699677 1.35813656333696 0 0 0
1307 9 7.3617535114258 4.063877698087272 1.5553443418914081 0 0 0
1308 10 9.875119412458039 2.031816436172802 1.5990118842725283 0 0 0
1305 1 9.953724209427072 4.063241195598226 1.4196758622988916 0 0 0
1306 2 12.459239415195121 2.032234593269959 1.3581365633369855 0 0 0
1215 11 11.68643707696281 6.62232452738246e-05 1.5553443418913842 0 0 0
1310 4 16.783922980732132 2.0322345932699757 1.358136563336967 0 0 0
1311 11 11.686437076962836 4.063877698087271 1.55534434189139 0 0 0
1312 12 14.199802977995057 2.031816436172816 1.5990118842725354 0 0 0
1309 3 14.278407774964093 4.063241195598248 1.419675862298916 0 0 0
1219 9 16.01112064249985 6.622324527039997e-05 1.5553443418913626 0 0 0
1315 9 16.01112064249981 4.063877698087273 1.5553443418914077 0 0 0
1223 11 20.33580420803684 6.622324527542503e-05 1.5553443418913528 0 0 0
1314 2 21.108606546269204 2.0322345932699784 1.3581365633369795 0 0 0
1319 11 20.335804208036794 4.063877698087265 1.555344341891409 0 0 0
1316 10 18.524486543532014 2.0318164361728126 1.5990118842725145 0 0 0
1313 1 18.603091340501106 4.0632411955982315 1.419675862298894 0 0 0
1317 3 22.927774906038067 4.063241195598255 1.4196758622988905 0 0 0
1320 12 22.84917010906921 2.031816436172817 1.5990118842725132 0 0 0
1227 9 24.66048777357384 6.622324525776194e-05 1.5553443418913824 0 0 0
1318 4 25.43329011180595 2.032234593269966 1.3581365633369857 0 0 0
1323 9 24.660487773573845 4.0638776980872695 1.5553443418913753 0 0 0
1324 10 27.173853674605894 2.031816436172821 1.5990118842725505 0 0 0
1321 1 27.252458471575103 4.063241195598257 1.4196758622989185 0 0 0
1322 2 29.757973677343365 2.0322345932699726 1.3581365633369549 0 0 0
1231 11 28.98517133911085 6.62232452709659e-05 1.5553443418913468 0 0 0
1326 4 34.082657242880025 2.0322345932699677 1.3581365633369773 0 0 0
1327 11 28.9851713391108 4.06387769808727 1.5553443418914283 0 0 0
1328 12 31.498537240143154 2.0318164361728015 1.5990118842725247 0 0 0
1325 3 31.577142037112083 4.063241195598283 1.4196758622988808 0 0 0
1235 9 33.3098549046478 6.62232452667963e-05 1.5553443418913984 0 0 0
1331 9 33.309854904647864 4.063877698087271 1.5553443418913766 0 0 0
1239 11 37.63453847018485 6.622324524763143e-05 1.555344341891334 0 0 0
1330 2 38.407340808417146 2.032234593270007 1.358136563336959 0 0 0
1335 11 37.63453847018477 4.063877698087276 1.555344341891422 0 0 0
1332 10 35.82322080568009 2.031816436172838 1.5990118842725043 0 0 0
1329 1 35.901825602649126 4.063241195598254 1.4196758622988868 0 0 0
1333 3 40.2265091681861 4.063241195598261 1.419675862298879 0 0 0
1336 12 40.147904371217194 2.03181643617282 1.59901188427249 0 0 0
1243 9 41.959222035721815 6.622324526691823e-05 1.5553443418913777 0 0 0
1334 4 42.73202437395394 2.0322345932699695 1.3581365633370073 0 0 0
1339 9 41.959222035721794 4.063877698087268 1.555344341891392 0 0 0
1340 10 44.472587936754195 2.0318164361728144 1.5990118842725092 0 0 0
1337 1 44.551192733723035 4.063241195598305 1.4196758622988908 0 0 0
1338 2 47.05670793949099 2.032234593269945 1.3581365633370026 0 0 0
1247 11 46.283905601258795 6.62232452687796e-05 1.5553443418913762 0 0 0
1342 4 51.381391505028155 2.0322345932700103 1.3581365633369717 0 0 0
1343 11 46.283905601258866 4.063877698087299 1.5553443418913728 0 0 0
1344 12 48.797271502291004 2.0318164361728286 1.5990118842725412 0 0 0
1341 3 48.87587629926012 4.063241195598184 1.4196758622989314 0 0 0
1155 9 50.60858916679583 6.622324525800812e-05 1.5553443418913446 -1 0 0
1251 9 50.6085891667958 4.0638776980872855 1.5553443418914283 -1 0 0
1159 11 54.93327273233281 6.622324528560611e-05 1.5553443418913842 -1 0 0
1250 2 55.7060750705654 2.0322345932699557 1.3581365633369507 -1 0 0
1255 11 54.93327273233282 4.063877698087278 1.5553443418913913 -1 0 0
1252 10 53.12195506782783 2.031816436172815 1.5990118842725711 -1 0 0
1249 1 53.20055986479705 4.063241195598238 1.4196758622988832 -1 0 0
1253 3 57.525243430334136 4.063241195598244 1.4196758622989267 -1 0 0
1256 12 57.4466386333647 2.03181643617282 1.5990118842726018 -1 0 0
1163 9 59.2579562978698 6.622324528232702e-05 1.5553443418913704 -1 0 0
1254 4 60.03075863610253 2.0322345932699855 1.3581365633368676 -1 0 0
1259 9 59.25795629786978 4.063877698087272 1.555344341891433 -1 0 0
1260 10 61.77132219890152 2.0318164361728304 1.599011884272561 -1 0 0
1257 1 61.849926995871115 4.063241195598153 1.419675862298874 -1 0 0
1258 2 64.35544220163978 2.0322345932699992 1.358136563336918 -1 0 0
1167 11 63.58263986340681 6.622324526887501e-05 1.5553443418913604 -1 0 0
1262 4 68.68012576717524 2.032234593270023 1.358136563337098 -1 0 0
1263 11 63.58263986340678 4.063877698087271 1.5553443418914297 -1 0 0
1264 12 66.09600576443987 2.0318164361727997 1.5990118842724017 -1 0 0
1261 3 66.17461056140814 4.063241195598142 1.4196758622989039 -1 0 0
1171 9 67.9073234289439 6.622324524636382e-05 1.5553443418913409 -1 0 0
1267 9 67.90732342894376 4.063877698087264 1.5553443418914235 -1 0 0
1175 11 72.23200699448097 6.62232452624924e-05 1.555344341891305 -1 0 0
1266 2 73.00480933271314 2.032234593269975 1.3581365633369635 -1 0 0
1271 11 72.23200699448088 4.063877698087286 1.5553443418914386 -1 0 0
1268 10 70.42068932997613 2.0318164361728477 1.5990118842724987 -1 0 0
1265 1 70.49929412694514 4.063241195598346 1.4196758622989214 -1 0 0
1269 3 74.82397769248203 4.06324119559819 1.4196758622988754 -1 0 0
1272 12 74.74537289551297 2.0318164361727824 1.5990118842725112 -1 0 0
1179 9 76.55669056001767 6.622324528278248e-05 1.555344341891471 -1 0 0
1270 4 77.32949289825036 2.032234593269903 1.358136563336997 -1 0 0
1275 9 76.5566905600179 4.0638776980872615 1.5553443418913153 -1 0 0
1276 10 79.07005646105013 2.031816436172805 1.5990118842725114 -1 0 0
1273 1 79.14866125801895 4.063241195598369 1.419675862298936 -1 0 0
1274 2 81.65417646378684 2.0322345932699672 1.358136563336939 -1 0 0
1183 11 80.88137412555483 6.622324528035802e-05 1.5553443418913875 -1 0 0
1278 4 85.97886002932479 2.0322345932700503 1.358136563336996 -1 0 0
1279 11 80.88137412555486 4.063877698087261 1.5553443418913995 -1 0 0
1280 12 83.39474002658662 2.031816436172836 1.5990118842725223 -1 0 0
1277 3 83.4733448235561 4.063241195598286 1.4196758622989616 -1 0 0
1187 9 85.20605769109197 6.622324529821258e-05 1.5553443418913164 -1 0 0
1283 9 85.20605769109179 4.063877698087246 1.555344341891464 -1 0 0
1191 11 89.53074125662897 6.622324532108245e-05 1.5553443418912594 -1 0 0
1282 2 90.30354359486063 2.032234593269956 1.358136563337003 -1 0 0
1287 11 89.530741256629 4.063877698087268 1.5553443418912962 -1 0 0
1284 10 87.71942359212444 2.031816436172837 1.5990118842725112 -1 0 0
1281 1 87.79802838909283 4.063241195598177 1.4196758622989336 -1 0 0
1285 3 92.12271195463002 4.0632411955983745 1.4196758622989913 -1 0 0
1288 12 92.04410715766082 2.0318164361728006 1.5990118842725836 -1 0 0
1195 9 93.85542482216572 6.622324529538831e-05 1.555344341891482 -1 0 0
1286 4 94.62822716039851 2.0322345932699646 1.358136563336915 -1 0 0
1291 9 93.85542482216589 4.0638776980872935 1.5553443418914403 -1 0 0
1292 10 96.36879072319752 2.0318164361727846 1.5990118842725902 -1 0 0
1289 1 96.44739552016698 4.063241195598341 1.4196758622988968 -1 0 0
1203 9 102.50479195323983 6.622324527474312e-05 1.5553443418913333 -1 0 0
1299 9 102.50479195323973 4.063877698087263 1.5553443418914772 -1 0 0
1290 2 98.95291072593581 2.032234593269976 1.358136563336828 -1 0 0
1199 11 98.18010838770282 6.622324528352292e-05 1.5553443418913655 -1 0 0
1294 4 103.27759429147275 2.0322345932700108 1.3581365633369546 -1 0 0
1295 11 98.18010838770287 4.063877698087285 1.55534434189138 -1 0 0
1296 12 100.69347428873469 2.03181643617284 1.59901188427255 -1 0 0
1293 3 100.77207908570418 4.063241195598185 1.4196758622989256 -1 0 0
1394 2 3.8098722841210897 6.096046068112043 1.3581365633369515 0 0 0
1399 11 3.037069945888783 8.127689172929284 1.5553443418914379 0 0 0
1490 2 3.8098722841211963 10.159857542953995 1.3581365633369424 0 0 0
1396 10 1.225752281384122 6.095627911014846 1.5990118842724623 0 0 0
1393 1 1.3043570783530545 8.12705267044038 1.419675862298916 0 0 0
1492 10 1.225752281383992 10.159439385856771 1.5990118842724883 0 0 0
1397 3 5.62904064389011 8.127052670440403 1.4196758622988965 0 0 0
1400 12 5.5504358469210615 6.0956279110148515 1.5990118842724899 0 0 0
1496 12 5.55043584692098 10.159439385856768 1.5990118842725136 0 0 0
1398 4 8.134555849658117 6.096046068112029 1.3581365633369347 0 0 0
1403 9 7.361753511425809 8.127689172929276 1.5553443418914148 0 0 0
1494 4 8.134555849658229 10.15985754295401 1.3581365633369302 0 0 0
1404 10 9.875119412457988 6.095627911014867 1.5990118842724963 0 0 0
1401 1 9.953724209427108 8.127052670440412 1.419675862298918 0 0 0
1500 10 9.875119412458037 10.159439385856771 1.5990118842725078 0 0 0
1402 2 12.45923941519521 6.096046068112037 1.3581365633369347 0 0 0
1498 2 12.459239415195155 10.159857542954013 1.3581365633369555 0 0 0
1406 4 16.78392298073227 6.096046068112023 1.3581365633369147 0 0 0
1407 11 11.68643707696281 8.12768917292928 1.5553443418914357 0 0 0
1502 4 16.783922980732235 10.159857542954013 1.3581365633369273 0 0 0
1408 12 14.199802977994928 6.095627911014856 1.5990118842725218 0 0 0
1405 3 14.278407774964112 8.127052670440428 1.4196758622989272 0 0 0
1504 12 14.199802977994972 10.159439385856768 1.5990118842725132 0 0 0
1411 9 16.011120642499822 8.127689172929275 1.555344341891428 0 0 0
1410 2 21.108606546269268 6.096046068112031 1.3581365633369122 0 0 0
1415 11 20.33580420803682 8.127689172929276 1.555344341891389 0 0 0
1506 2 21.108606546269076 10.159857542954024 1.3581365633369569 0 0 0
1412 10 18.52448654353197 6.09562791101485 1.5990118842724919 0 0 0
1409 1 18.603091340501088 8.127052670440467 1.4196758622988745 0 0 0
1508 10 18.524486543532134 10.159439385856775 1.5990118842724763 0 0 0
1413 3 22.92777490603815 8.127052670440472 1.4196758622989458 0 0 0
1416 12 22.84917010906898 6.095627911014873 1.5990118842725143 0 0 0
1512 12 22.8491701090692 10.159439385856755 1.5990118842724739 0 0 0
1414 4 25.43329011180623 6.096046068112044 1.3581365633369342 0 0 0
1419 9 24.660487773573774 8.127689172929282 1.555344341891471 0 0 0
1510 4 25.433290111805977 10.159857542954002 1.3581365633369755 0 0 0
1420 10 27.17385367460595 6.095627911014839 1.5990118842725187 0 0 0
1417 1 27.25245847157507 8.12705267044044 1.419675862298871 0 0 0
1516 10 27.173853674606153 10.159439385856782 1.5990118842724719 0 0 0
1418 2 29.757973677343283 6.096046068112006 1.3581365633369158 0 0 0
1514 2 29.757973677343028 10.159857542954025 1.3581365633369655 0 0 0
1422 4 34.082657242880224 6.096046068112034 1.358136563336896 0 0 0
1423 11 28.98517133911087 8.127689172929285 1.5553443418913717 0 0 0
1518 4 34.08265724288015 10.159857542953995 1.358136563336953 0 0 0
1424 12 31.498537240142916 6.095627911014867 1.5990118842725078 0 0 0
1421 3 31.577142037112107 8.127052670440392 1.4196758622989447 0 0 0
1520 12 31.498537240143058 10.159439385856741 1.5990118842725078 0 0 0
1427 9 33.3098549046478 8.127689172929292 1.5553443418914485 0 0 0
1426 2 38.40734080841719 6.096046068111991 1.3581365633369342 0 0 0
1431 11 37.63453847018487 8.127689172929278 1.5553443418914161 0 0 0
1522 2 38.40734080841712 10.159857542954054 1.3581365633369644 0 0 0
1428 10 35.8232208056801 6.095627911014849 1.5990118842724645 0 0 0
1425 1 35.901825602649104 8.127052670440374 1.4196758622989119 0 0 0
1524 10 35.82322080568014 10.159439385856775 1.599011884272505 0 0 0
1429 3 40.22650916818611 8.12705267044039 1.4196758622989085 0 0 0
1432 12 40.14790437121726 6.09562791101484 1.599011884272434 0 0 0
1528 12 40.14790437121709 10.15943938585676 1.5990118842724854 0 0 0
1430 4 42.73202437395392 6.096046068112047 1.358136563336969 0 0 0
1435 9 41.959222035721815 8.127689172929278 1.5553443418913997 0 0 0
1526 4 42.732024373954125 10.159857542953985 1.3581365633369238 0 0 0
1436 10 44.47258793675414 6.095627911014854 1.5990118842724619 0 0 0
1433 1 44.551192733723 8.127052670440433 1.419675862298921 0 0 0
1532 10 44.47258793675394 10.159439385856771 1.5990118842724903 0 0 0
1434 2 47.05670793949099 6.096046068112024 1.3581365633369589 0 0 0
1530 2 47.05670793949125 10.159857542954057 1.3581365633369469 0 0 0
1438 4 51.38139150502823 6.096046068111987 1.3581365633369107 0 0 0
1439 11 46.283905601258844 8.127689172929266 1.555344341891391 0 0 0
1534 4 51.381391505027906 10.159857542954057 1.35813656333703 0 0 0
1440 12 48.797271502291025 6.09562791101485 1.599011884272512 0 0 0
1437 3 48.87587629925998 8.127052670440504 1.4196758622989425 0 0 0
1536 12 48.79727150229126 10.159439385856793 1.599011884272477 0 0 0
1347 9 50.60858916679588 8.127689172929271 1.5553443418913862 -1 0 0
1346 2 55.706075070565845 6.096046068112042 1.3581365633368885 -1 0 0
1351 11 54.93327273233285 8.127689172929275 1.5553443418914206 -1 0 0
1442 2 55.70607507056503 10.159857542954011 1.3581365633369147 -1 0 0
1348 10 53.121955067827514 6.095627911014851 1.5990118842725844 -1 0 0
1345 1 53.20055986479701 8.127052670440458 1.419675862298957 -1 0 0
1444 10 53.121955067828054 10.159439385856784 1.5990118842725243 -1 0 0
1349 3 57.525243430334 8.12705267044041 1.4196758622989272 -1 0 0
1352 12 57.44663863336497 6.095627911014848 1.599011884272549 -1 0 0
1448 12 57.446638633364465 10.159439385856766 1.5990118842725767 -1 0 0
1350 4 60.03075863610215 6.096046068111985 1.3581365633369236 -1 0 0
1355 9 59.25795629786986 8.127689172929292 1.5553443418913964 -1 0 0
1446 4 60.03075863610291 10.159857542954045 1.358136563336911 -1 0 0
1356 10 61.77132219890196 6.095627911014843 1.599011884272497 -1 0 0
1353 1 61.84992699587102 8.127052670440404 1.419675862298978 -1 0 0
1452 10 61.77132219890222 10.15943938585679 1.5990118842725356 -1 0 0
1354 2 64.35544220163925 6.096046068112019 1.3581365633369447 -1 0 0
1450 2 64.35544220163881 10.15985754295404 1.3581365633369262 -1 0 0
1358 4 68.68012576717638 6.096046068112006 1.3581365633368625 -1 0 0
1359 11 63.58263986340689 8.127689172929264 1.555344341891426 -1 0 0
1454 4 68.68012576717686 10.159857542954033 1.3581365633369207 -1 0 0
1360 12 66.09600576443889 6.095627911014875 1.5990118842725367 -1 0 0
1357 3 66.1746105614081 8.127052670440472 1.4196758622989256 -1 0 0
1456 12 66.09600576443862 10.159439385856784 1.5990118842725416 -1 0 0
1363 9 67.90732342894381 8.1276891729293 1.555344341891425 -1 0 0
1362 2 73.00480933271352 6.0960460681120265 1.3581365633368891 -1 0 0
1367 11 72.23200699448083 8.127689172929284 1.555344341891429 -1 0 0
1458 2 73.00480933271274 10.15985754295397 1.3581365633369964 -1 0 0
1364 10 70.4206893299757 6.095627911014817 1.599011884272502 -1 0 0
1361 1 70.49929412694499 8.127052670440483 1.4196758622989247 -1 0 0
1460 10 70.42068932997628 10.159439385856762 1.5990118842724408 -1 0 0
1365 3 74.8239776924821 8.127052670440385 1.4196758622989236 -1 0 0
1368 12 74.74537289551328 6.0956279110148825 1.5990118842724428 -1 0 0
1464 12 74.74537289551326 10.159439385856764 1.5990118842724645 -1 0 0
1366 4 77.32949289825011 6.096046068112054 1.3581365633368976 -1 0 0
1371 9 76.55669056001777 8.127689172929275 1.5553443418914072 -1 0 0
1462 4 77.32949289825 10.15985754295406 1.3581365633369769 -1 0 0
1372 10 79.07005646104975 6.095627911014846 1.599011884272504 -1 0 0
1369 1 79.14866125801906 8.127052670440204 1.4196758622989298 -1 0 0
1468 10 79.0700564610498 10.159439385856775 1.5990118842725065 -1 0 0
1370 2 81.65417646378754 6.0960460681120425 1.3581365633369318 -1 0 0
1466 2 81.65417646378731 10.159857542954002 1.3581365633369256 -1 0 0
1374 4 85.9788600293234 6.096046068112011 1.358136563337021 -1 0 0
1375 11 80.88137412555483 8.127689172929273 1.555344341891455 -1 0 0
1470 4 85.97886002932457 10.159857542954022 1.3581365633368607 -1 0 0
1376 12 83.39474002658774 6.095627911014841 1.5990118842723808 -1 0 0
1373 3 83.47334482355602 8.127052670440268 1.4196758622988843 -1 0 0
1472 12 83.39474002658672 10.159439385856796 1.5990118842725627 -1 0 0
1379 9 85.20605769109189 8.127689172929259 1.55534434189135 -1 0 0
1378 2 90.30354359486171 6.096046068112127 1.358136563336877 -1 0 0
1383 11 89.53074125662867 8.127689172929253 1.555344341891497 -1 0 0
1474 2 90.30354359486184 10.159857542954006 1.358136563336803 -1 0 0
1380 10 87.71942359212366 6.095627911014899 1.5990118842725445 -1 0 0
1377 1 87.79802838909315 8.127052670440388 1.4196758622989458 -1 0 0
1476 10 87.71942359212345 10.159439385856746 1.5990118842725873 -1 0 0
1381 3 92.12271195463016 8.127052670440449 1.419675862298916 -1 0 0
1384 12 92.04410715766069 6.095627911014861 1.5990118842725665 -1 0 0
1480 12 92.04410715766042 10.159439385856778 1.5990118842725758 -1 0 0
1382 4 94.62822716039847 6.09604606811197 1.3581365633369136 -1 0 0
1387 9 93.85542482216584 8.127689172929271 1.5553443418914514 -1 0 0
1478 4 94.62822716039877 10.159857542954034 1.3581365633368898 -1 0 0
1388 10 96.36879072319782 6.095627911014844 1.5990118842725305 -1 0 0
1385 1 96.44739552016698 8.127052670440552 1.4196758622989019 -1 0 0
1484 10 96.3687907231983 10.159439385856766 1.599011884272431 -1 0 0
1395 9 102.50479195323983 8.127689172929278 1.5553443418914101 -1 0 0
1386 2 98.95291072593557 6.096046068111988 1.3581365633369002 -1 0 0
1482 2 98.95291072593491 10.159857542954065 1.358136563336972 -1 0 0
1390 4 103.27759429147252 6.096046068112003 1.3581365633368652 -1 0 0
1391 11 98.18010838770293 8.12768917292927 1.5553443418913357 -1 0 0
1486 4 103.27759429147196 10.159857542954052 1.358136563336982 -1 0 0
1392 12 100.69347428873472 6.095627911014804 1.599011884272579 -1 0 0
1389 3 100.77207908570401 8.127052670440403 1.4196758622989727 -1 0 0
1488 12 100.69347428873522 10.159439385856835 1.5990118842724879 -1 0 0
1495 11 3.0370699458888217 12.191500647771317 1.5553443418913813 0 0 0
1586 2 3.8098722841210266 14.223669017795872 1.3581365633368943 0 0 0
1591 11 3.0370699458888066 16.255312122613304 1.5553443418914772 0 0 0
1489 1 1.304357078353101 12.190864145282363 1.4196758622988472 0 0 0
1588 10 1.225752281384191 14.223250860698673 1.5990118842724064 0 0 0
1493 3 5.629040643890101 12.19086414528234 1.4196758622989083 0 0 0
1585 1 1.3043570783530276 16.25467562012514 1.4196758622989676 0 0 0
1589 3 5.629040643890089 16.254675620125102 1.4196758622989527 0 0 0
1592 12 5.550435846921035 14.223250860698672 1.599011884272446 0 0 0
1499 9 7.361753511425829 12.19150064777132 1.5553443418914148 0 0 0
1590 4 8.134555849658224 14.223669017795851 1.3581365633368754 0 0 0
1595 9 7.361753511425828 16.255312122613308 1.5553443418914783 0 0 0
1497 1 9.953724209427094 12.190864145282342 1.419675862298929 0 0 0
1596 10 9.875119412458066 14.223250860698665 1.5990118842724452 0 0 0
1593 1 9.953724209427088 16.254675620125067 1.4196758622989476 0 0 0
1594 2 12.459239415195169 14.223669017795848 1.3581365633368878 0 0 0
1503 11 11.686437076962827 12.19150064777132 1.5553443418914377 0 0 0
1598 4 16.783922980732235 14.22366901779584 1.3581365633368827 0 0 0
1599 11 11.686437076962829 16.255312122613308 1.5553443418914772 0 0 0
1501 3 14.278407774964077 12.190864145282326 1.419675862298898 0 0 0
1600 12 14.199802977995025 14.223250860698668 1.5990118842724454 0 0 0
1597 3 14.278407774964073 16.2546756201251 1.4196758622989614 0 0 0
1507 9 16.01112064249982 12.191500647771331 1.5553443418913981 0 0 0
1603 9 16.011120642499808 16.255312122613294 1.5553443418914648 0 0 0
1511 11 20.33580420803682 12.191500647771326 1.5553443418914423 0 0 0
1602 2 21.108606546268877 14.223669017795833 1.3581365633369025 0 0 0
1607 11 20.33580420803684 16.255312122613315 1.555344341891478 0 0 0
1505 1 18.6030913405011 12.190864145282257 1.419675862298935 0 0 0
1604 10 18.524486543532294 14.223250860698652 1.599011884272416 0 0 0
1509 3 22.92777490603808 12.190864145282275 1.4196758622988757 0 0 0
1601 1 18.603091340501088 16.254675620125134 1.419675862298953 0 0 0
1605 3 22.927774906038092 16.254675620125045 1.4196758622989263 0 0 0
1608 12 22.849170109068734 14.22325086069866 1.5990118842724779 0 0 0
1515 9 24.66048777357383 12.19150064777131 1.55534434189138 0 0 0
1606 4 25.4332901118066 14.223669017795858 1.3581365633368077 0 0 0
1611 9 24.66048777357382 16.255312122613322 1.5553443418914588 0 0 0
1513 1 27.252458471575103 12.19086414528235 1.4196758622989325 0 0 0
1612 10 27.17385367460622 14.223250860698679 1.5990118842724272 0 0 0
1609 1 27.252458471575142 16.254675620124985 1.4196758622989551 0 0 0
1610 2 29.75797367734301 14.223669017795865 1.3581365633369422 0 0 0
1519 11 28.985171339110803 12.191500647771305 1.5553443418914423 0 0 0
1614 4 34.082657242879904 14.223669017795864 1.3581365633368727 0 0 0
1615 11 28.985171339110767 16.2553121226133 1.5553443418915167 0 0 0
1517 3 31.577142037112036 12.190864145282308 1.4196758622988979 0 0 0
1616 12 31.498537240143264 14.223250860698673 1.599011884272426 0 0 0
1613 3 31.577142037112143 16.254675620125063 1.419675862298937 0 0 0
1523 9 33.309854904647885 12.191500647771303 1.5553443418913724 0 0 0
1619 9 33.30985490464777 16.25531212261332 1.5553443418914699 0 0 0
1527 11 37.63453847018476 12.19150064777133 1.5553443418914836 0 0 0
1618 2 38.40734080841751 14.22366901779579 1.358136563336858 0 0 0
1623 11 37.634538470184836 16.255312122613326 1.5553443418914739 0 0 0
1521 1 35.90182560264915 12.190864145282399 1.4196758622989378 0 0 0
1620 10 35.82322080567984 14.223250860698638 1.599011884272465 0 0 0
1525 3 40.22650916818607 12.190864145282342 1.4196758622988825 0 0 0
1617 1 35.90182560264913 16.254675620125 1.4196758622989398 0 0 0
1621 3 40.22650916818606 16.254675620125028 1.4196758622989576 0 0 0
1624 12 40.14790437121723 14.223250860698663 1.5990118842724115 0 0 0
1531 9 41.959222035721815 12.191500647771322 1.5553443418913881 0 0 0
1622 4 42.73202437395399 14.223669017795846 1.3581365633369293 0 0 0
1627 9 41.95922203572185 16.255312122613322 1.5553443418914588 0 0 0
1529 1 44.55119273372311 12.190864145282346 1.4196758622988985 0 0 0
1628 10 44.47258793675427 14.223250860698657 1.599011884272408 0 0 0
1625 1 44.55119273372301 16.25467562012503 1.4196758622989534 0 0 0
1626 2 47.05670793949083 14.223669017795832 1.358136563336898 0 0 0
1535 11 46.283905601258795 12.191500647771313 1.5553443418914303 0 0 0
1630 4 51.38139150502819 14.223669017795837 1.35813656333687 0 0 0
1631 11 46.28390560125885 16.25531212261332 1.5553443418914563 0 0 0
1533 3 48.87587629926011 12.19086414528224 1.419675862298912 0 0 0
1632 12 48.79727150229108 14.223250860698663 1.5990118842724241 0 0 0
1629 3 48.87587629926006 16.254675620125123 1.4196758622989862 0 0 0
1443 9 50.60858916679578 12.191500647771301 1.5553443418914392 -1 0 0
1539 9 50.60858916679583 16.25531212261331 1.5553443418914883 -1 0 0
1447 11 54.93327273233283 12.191500647771317 1.5553443418913988 -1 0 0
1538 2 55.70607507056542 14.223669017795876 1.3581365633368836 -1 0 0
1543 11 54.93327273233278 16.25531212261331 1.5553443418914918 -1 0 0
1441 1 53.20055986479705 12.190864145282335 1.4196758622989027 -1 0 0
1540 10 53.12195506782792 14.223250860698673 1.599011884272461 -1 0 0
1445 3 57.52524343033415 12.190864145282399 1.4196758622989063 -1 0 0
1537 1 53.200559864797135 16.254675620125116 1.419675862298923 -1 0 0
1541 3 57.525243430334136 16.25467562012513 1.4196758622989574 -1 0 0
1544 12 57.44663863336519 14.223250860698668 1.5990118842724645 -1 0 0
1451 9 59.2579562978698 12.191500647771287 1.5553443418914423 -1 0 0
1542 4 60.03075863610196 14.223669017795848 1.3581365633368414 -1 0 0
1547 9 59.25795629786981 16.2553121226133 1.5553443418914683 -1 0 0
1449 1 61.849926995871144 12.190864145282436 1.419675862298903 -1 0 0
1548 10 61.77132219890166 14.223250860698673 1.5990118842724734 -1 0 0
1545 1 61.849926995871215 16.254675620125123 1.4196758622988976 -1 0 0
1546 2 64.35544220163976 14.223669017795862 1.3581365633368518 -1 0 0
1455 11 63.582639863406804 12.191500647771303 1.5553443418914386 -1 0 0
1550 4 68.68012576717535 14.223669017795839 1.358136563336971 -1 0 0
1551 11 63.58263986340672 16.25531212261331 1.5553443418915234 -1 0 0
1453 3 66.17461056140824 12.19086414528241 1.4196758622989463 -1 0 0
1552 12 66.09600576443968 14.223250860698645 1.5990118842723595 -1 0 0
1549 3 66.17461056140813 16.254675620125063 1.419675862298929 -1 0 0
1459 9 67.90732342894374 12.191500647771319 1.5553443418915038 -1 0 0
1555 9 67.90732342894376 16.255312122613308 1.5553443418914554 -1 0 0
1463 11 72.23200699448094 12.191500647771313 1.555344341891323 -1 0 0
1554 2 73.00480933271339 14.223669017795881 1.3581365633368363 -1 0 0
1559 11 72.2320069944808 16.255312122613308 1.5553443418915185 -1 0 0
1457 1 70.49929412694499 12.190864145282246 1.4196758622988483 -1 0 0
1556 10 70.42068932997591 14.223250860698691 1.5990118842724195 -1 0 0
1461 3 74.82397769248213 12.19086414528245 1.4196758622989656 -1 0 0
1553 1 70.49929412694519 16.254675620125113 1.419675862298919 -1 0 0
1557 3 74.82397769248209 16.254675620125052 1.4196758622989254 -1 0 0
1560 12 74.74537289551296 14.223250860698652 1.599011884272441 -1 0 0
1467 9 76.5566905600177 12.19150064777132 1.5553443418914954 -1 0 0
1558 4 77.32949289825031 14.223669017795755 1.3581365633368316 -1 0 0
1563 9 76.5566905600179 16.255312122613326 1.5553443418914172 -1 0 0
1465 1 79.14866125801905 12.190864145282442 1.4196758622988574 -1 0 0
1564 10 79.0700564610501 14.223250860698657 1.5990118842723942 -1 0 0
1561 1 79.14866125801909 16.25467562012495 1.4196758622989616 -1 0 0
1562 2 81.6541764637872 14.223669017795878 1.3581365633368951 -1 0 0
1471 11 80.88137412555481 12.191500647771285 1.5553443418914015 -1 0 0
1566 4 85.97886002932364 14.223669017795801 1.3581365633369387 -1 0 0
1567 11 80.8813741255548 16.255312122613343 1.5553443418915007 -1 0 0
1469 3 83.47334482355622 12.190864145282534 1.4196758622989263 -1 0 0
1568 12 83.39474002658757 14.223250860698645 1.5990118842723768 -1 0 0
1565 3 83.47334482355608 16.254675620125038 1.4196758622989765 -1 0 0
1475 9 85.20605769109179 12.191500647771322 1.5553443418914696 -1 0 0
1571 9 85.20605769109179 16.25531212261331 1.5553443418914765 -1 0 0
1479 11 89.53074125662877 12.191500647771328 1.5553443418914032 -1 0 0
1570 2 90.3035435948617 14.223669017795762 1.3581365633368234 -1 0 0
1575 11 89.53074125662887 16.255312122613326 1.5553443418914692 -1 0 0
1473 1 87.79802838909315 12.190864145282475 1.4196758622988435 -1 0 0
1572 10 87.71942359212363 14.223250860698624 1.599011884272477 -1 0 0
1477 3 92.1227119546302 12.190864145282422 1.4196758622989458 -1 0 0
1569 1 87.79802838909303 16.254675620125163 1.419675862298973 -1 0 0
1573 3 92.12271195462996 16.254675620124942 1.4196758622990133 -1 0 0
1576 12 92.04410715766103 14.223250860698615 1.5990118842724554 -1 0 0
1483 9 93.8554248221657 12.191500647771338 1.5553443418915254 -1 0 0
1574 4 94.62822716039814 14.223669017795823 1.358136563336899 -1 0 0
1579 9 93.85542482216593 16.255312122613308 1.5553443418914512 -1 0 0
1481 1 96.44739552016703 12.19086414528217 1.4196758622987977 -1 0 0
1580 10 96.3687907231979 14.223250860698665 1.59901188427244 -1 0 0
1577 1 96.44739552016695 16.254675620125017 1.4196758622990273 -1 0 0
1491 9 102.50479195323967 12.191500647771326 1.555344341891553 -1 0 0
1587 9 102.50479195323986 16.25531212261331 1.5553443418914226 -1 0 0
1578 2 98.95291072593548 14.223669017795872 1.3581365633368303 -1 0 0
1487 11 98.18010838770287 12.191500647771308 1.555344341891329 -1 0 0
1582 4 103.27759429147241 14.223669017795789 1.358136563336862 -1 0 0
1583 11 98.18010838770289 16.255312122613304 1.555344341891486 -1 0 0
1485 3 100.77207908570419 12.190864145282356 1.4196758622989956 -1 0 0
1584 12 100.69347428873482 14.223250860698627 1.5990118842724639 -1 0 0
1581 3 100.77207908570401 16.25467562012516 1.4196758622989312 -1 0 0
1682 2 3.809872284120747 18.287480492637457 1.3581365633369762 0 0 0
1687 11 3.0370699458888275 20.319123597455334 1.5553443418913924 0 0 0
1778 2 3.8098722841211776 22.351291967479558 1.358136563337007 0 0 0
1684 10 1.2257522813843984 18.28706233554033 1.5990118842724077 0 0 0
1681 1 1.304357078353058 20.318487094967434 1.4196758622988945 0 0 0
1780 10 1.2257522813840112 22.350873810382378 1.599011884272538 0 0 0
1685 3 5.6290406438900735 20.31848709496748 1.419675862298902 0 0 0
1688 12 5.550435846921187 18.287062335540305 1.5990118842724426 0 0 0
1784 12 5.5504358469210615 22.350873810382346 1.5990118842725394 0 0 0
1686 4 8.134555849658 18.28748049263747 1.3581365633369218 0 0 0
1691 9 7.3617535114258255 20.319123597455338 1.555344341891396 0 0 0
1782 4 8.134555849658128 22.351291967479483 1.358136563336979 0 0 0
1692 10 9.875119412457948 18.287062335540313 1.5990118842724732 0 0 0
1689 1 9.953724209427081 20.318487094967523 1.4196758622989085 0 0 0
1788 10 9.875119412457952 22.35087381038233 1.5990118842725556 0 0 0
1690 2 12.459239415195302 18.287480492637457 1.358136563336915 0 0 0
1786 2 12.459239415195254 22.351291967479483 1.3581365633369922 0 0 0
1694 4 16.78392298073212 18.287480492637467 1.3581365633369014 0 0 0
1695 11 11.686437076962823 20.319123597455345 1.555344341891415 0 0 0