LAMMPS data file via write_data, version 29 Aug 2024, timestep = 5, units = metal

6240 atoms
8 atom types

0 99.715890220882 xlo xhi
0 99.64291501461 ylo yhi
-50 50 zlo zhi

Masses

1 69.723
2 69.723
3 69.723
4 69.723
5 78.971
6 78.971
7 78.971
8 78.971

Atoms # atomic

1572 5 3.8351819470574386 1.0997347558585742 -0.07211094410212035 0 0 0
1562 1 1.9175057170791583 2.2015675986005063 1.0946934068268903 0 0 0
1570 1 5.752732264036174 2.2015675986005196 1.0946934068268945 0 0 0
1769 1 3.835118982093072 5.52299809908792 1.0946934068295635 0 0 0
1771 5 1.9175686661451474 4.421165256346989 -0.07211094410271927 0 0 0
1779 5 5.752795213102163 4.421165256346983 -0.07211094410272753 0 0 0
1580 5 7.6704084940144455 1.099734755858572 -0.07211094410212388 0 0 0
1588 5 11.505635040971443 1.0997347558585704 -0.07211094410212107 0 0 0
1578 1 9.587958810993177 2.201567598600522 1.0946934068268968 0 0 0
1777 1 7.670345529050072 5.522998099087919 1.0946934068295664 0 0 0
1785 1 11.505572076007072 5.52299809908792 1.0946934068295626 0 0 0
1787 5 9.588021760059162 4.421165256346979 -0.07211094410272974 0 0 0
1596 5 15.340861587928442 1.0997347558585682 -0.07211094410211843 0 0 0
1586 1 13.423185357950175 2.20156759860052 1.094693406826896 0 0 0
1594 1 17.25841190490718 2.201567598600511 1.0946934068268943 0 0 0
1793 1 15.340798622964067 5.522998099087925 1.0946934068295684 0 0 0
1795 5 13.423248307016157 4.421165256346979 -0.07211094410272861 0 0 0
1803 5 17.258474853973162 4.421165256346982 -0.07211094410272448 0 0 0
1604 5 19.17608813488545 1.099734755858599 -0.0721109441021277 0 0 0
1612 5 23.011314681842446 1.0997347558585688 -0.07211094410212264 0 0 0
1602 1 21.093638451864166 2.2015675986005117 1.0946934068268952 0 0 0
1801 1 19.176025169921072 5.522998099087919 1.0946934068295617 0 0 0
1809 1 23.011251716878075 5.522998099087917 1.0946934068295648 0 0 0
1811 5 21.09370140093016 4.421165256346983 -0.07211094410272585 0 0 0
1620 5 26.846541228799442 1.0997347558585695 -0.07211094410211373 0 0 0
1610 1 24.92886499882116 2.201567598600524 1.094693406826899 0 0 0
1618 1 28.764091545778168 2.201567598600515 1.0946934068268894 0 0 0
1817 1 26.846478263835067 5.522998099087922 1.094693406829564 0 0 0
1819 5 24.928927947887164 4.421165256346983 -0.0721109441027289 0 0 0
1827 5 28.764154494844163 4.421165256346982 -0.07211094410273207 0 0 0
1628 5 30.681767775756445 1.0997347558585693 -0.0721109441021188 0 0 0
1636 5 34.51699432271345 1.0997347558585635 -0.07211094410211866 0 0 0
1626 1 32.599318092735174 2.2015675986005245 1.0946934068269005 0 0 0
1825 1 30.681704810792063 5.522998099087925 1.0946934068295628 0 0 0
1833 1 34.516931357749066 5.52299809908792 1.0946934068295668 0 0 0
1835 5 32.59938104180116 4.42116525634698 -0.07211094410272982 0 0 0
1644 5 38.35222086967045 1.099734755858596 -0.07211094410212744 0 0 0
1634 1 36.43454463969218 2.2015675986005165 1.0946934068269014 0 0 0
1642 1 40.26977118664916 2.2015675986005023 1.094693406826885 0 0 0
1841 1 38.35215790470606 5.522998099087922 1.0946934068295657 0 0 0
1843 5 36.43460758875817 4.4211652563469785 -0.07211094410272238 0 0 0
1851 5 40.269834135715165 4.421165256346985 -0.07211094410272956 0 0 0
1652 5 42.18744741662744 1.0997347558585715 -0.07211094410212282 0 0 0
1660 5 46.02267396358444 1.0997347558585724 -0.07211094410211571 0 0 0
1650 1 44.10499773360617 2.2015675986005245 1.0946934068268983 0 0 0
1849 1 42.18738445166307 5.522998099087915 1.0946934068295566 0 0 0
1857 1 46.02261099862008 5.522998099087925 1.0946934068295675 0 0 0
1859 5 44.10506068267218 4.42116525634698 -0.07211094410272739 0 0 0
1460 5 49.85790051054144 1.0997347558585593 -0.07211094410211596 -1 0 0
1658 1 47.94022428056317 2.2015675986005236 1.0946934068268899 0 0 0
1458 1 51.77545082752019 2.2015675986005276 1.0946934068268894 -1 0 0
1865 1 49.85783754557708 5.522998099087919 1.094693406829559 0 0 0
1867 5 47.940287229629156 4.421165256346981 -0.07211094410273261 0 0 0
1667 5 51.77551377658615 4.421165256346985 -0.07211094410272667 -1 0 0
1468 5 53.693127057498444 1.0997347558585688 -0.0721109441021247 -1 0 0
1476 5 57.52835360445544 1.0997347558585717 -0.07211094410211684 -1 0 0
1466 1 55.61067737447716 2.2015675986005228 1.0946934068269054 -1 0 0
1665 1 53.69306409253409 5.52299809908792 1.094693406829564 -1 0 0
1673 1 57.528290639491075 5.522998099087922 1.0946934068295688 -1 0 0
1675 5 55.610740323543155 4.421165256346983 -0.0721109441027272 -1 0 0
1484 5 61.36358015141244 1.0997347558585684 -0.07211094410212203 -1 0 0
1474 1 59.44590392143417 2.201567598600516 1.0946934068268939 -1 0 0
1482 1 63.28113046839118 2.2015675986005205 1.0946934068268819 -1 0 0
1681 1 61.36351718644807 5.522998099087925 1.094693406829557 -1 0 0
1683 5 59.445966870500165 4.4211652563469785 -0.07211094410272643 -1 0 0
1691 5 63.281193417457146 4.421165256346983 -0.07211094410272538 -1 0 0
1492 5 65.19880669836944 1.099734755858574 -0.07211094410211474 -1 0 0
1500 5 69.03403324532646 1.099734755858582 -0.07211094410213922 -1 0 0
1490 1 67.1163570153482 2.201567598600509 1.0946934068268932 -1 0 0
1689 1 65.19874373340507 5.522998099087921 1.0946934068295646 -1 0 0
1697 1 69.03397028036207 5.522998099087919 1.0946934068295688 -1 0 0
1699 5 67.11641996441416 4.421165256346987 -0.07211094410272348 -1 0 0
1508 5 72.86925979228342 1.0997347558585937 -0.07211094410212358 -1 0 0
1498 1 70.95158356230517 2.2015675986005108 1.094693406826902 -1 0 0
1506 1 74.78681010926218 2.201567598600502 1.094693406826889 -1 0 0
1705 1 72.86919682731907 5.52299809908791 1.0946934068295568 -1 0 0
1707 5 70.95164651137118 4.421165256346974 -0.07211094410273128 -1 0 0
1715 5 74.78687305832817 4.4211652563469634 -0.07211094410272921 -1 0 0
1516 5 76.70448633924045 1.0997347558585617 -0.07211094410211856 -1 0 0
1524 5 80.53971288619745 1.0997347558585946 -0.07211094410212994 -1 0 0
1514 1 78.62203665621921 2.2015675986005094 1.0946934068268988 -1 0 0
1713 1 76.70442337427609 5.522998099087924 1.0946934068295633 -1 0 0
1721 1 80.53964992123308 5.522998099087911 1.094693406829551 -1 0 0
1723 5 78.62209960528514 4.421165256346975 -0.07211094410273516 -1 0 0
1532 5 84.37493943315442 1.0997347558586037 -0.07211094410212708 -1 0 0
1522 1 82.45726320317617 2.201567598600518 1.0946934068268894 -1 0 0
1530 1 86.29248975013316 2.201567598600504 1.094693406826902 -1 0 0
1729 1 84.37487646819008 5.522998099087922 1.0946934068295775 -1 0 0
1731 5 82.45732615224215 4.421165256346983 -0.07211094410271723 -1 0 0
1739 5 86.29255269919918 4.4211652563469785 -0.07211094410271983 -1 0 0
1540 5 88.21016598011146 1.09973475585859 -0.07211094410212757 -1 0 0
1548 5 92.04539252706846 1.099734755858599 -0.07211094410212608 -1 0 0
1538 1 90.12771629709016 2.201567598600492 1.0946934068268999 -1 0 0
1737 1 88.21010301514708 5.522998099087917 1.0946934068295693 -1 0 0
1745 1 92.04532956210406 5.522998099087925 1.0946934068295702 -1 0 0
1747 5 90.1277792461562 4.421165256346972 -0.07211094410273683 -1 0 0
1564 5 99.71584562098244 1.0997347558585957 -0.07211094410212397 -1 0 0
1556 5 95.88061907402545 1.0997347558585726 -0.07211094410211384 -1 0 0
1546 1 93.96294284404716 2.201567598600515 1.0946934068269008 -1 0 0
1554 1 97.79816939100418 2.201567598600511 1.0946934068268956 -1 0 0
1753 1 95.88055610906109 5.522998099087907 1.0946934068295457 -1 0 0
1755 5 93.96300579311318 4.421165256346973 -0.07211094410272857 -1 0 0
1761 1 99.71578265601808 5.522998099087924 1.0946934068295582 -1 0 0
1763 5 97.79823234007017 4.421165256346978 -0.07211094410273543 -1 0 0
1770 1 1.9175057170791643 8.844428599574508 1.094693406826893 0 0 0
1778 1 5.752732264036173 8.844428599574512 1.094693406826899 0 0 0
1780 5 3.835181947057443 7.742595756832589 -0.07211094410212936 0 0 0
1979 5 1.9175686661451479 11.064026257320984 -0.07211094410271876 0 0 0
1987 5 5.752795213102163 11.064026257320977 -0.0721109441027303 0 0 0
1786 1 9.587958810993173 8.844428599574512 1.0946934068268954 0 0 0
1788 5 7.670408494014445 7.742595756832588 -0.07211094410213079 0 0 0
1796 5 11.505635040971445 7.74259575683259 -0.07211094410212976 0 0 0
1995 5 9.588021760059164 11.06402625732098 -0.07211094410273129 0 0 0
1794 1 13.423185357950171 8.844428599574515 1.0946934068268974 0 0 0
1802 1 17.258411904907177 8.844428599574512 1.0946934068268934 0 0 0
1804 5 15.340861587928442 7.742595756832589 -0.07211094410212915 0 0 0
2003 5 13.423248307016156 11.06402625732097 -0.07211094410273292 0 0 0
2011 5 17.25847485397316 11.064026257320977 -0.07211094410272686 0 0 0
1810 1 21.093638451864173 8.844428599574512 1.0946934068268976 0 0 0
1812 5 19.17608813488545 7.742595756832587 -0.07211094410212936 0 0 0
1820 5 23.011314681842446 7.742595756832592 -0.07211094410213079 0 0 0
2019 5 21.09370140093017 11.064026257320984 -0.07211094410272874 0 0 0
1818 1 24.92886499882116 8.844428599574512 1.0946934068269003 0 0 0
1826 1 28.764091545778168 8.844428599574508 1.0946934068268943 0 0 0
1828 5 26.84654122879945 7.742595756832591 -0.07211094410212762 0 0 0
2027 5 24.928927947887168 11.06402625732098 -0.07211094410273103 0 0 0
2035 5 28.76415449484417 11.064026257320979 -0.07211094410273458 0 0 0
1834 1 32.59931809273517 8.844428599574512 1.0946934068269008 0 0 0
1836 5 30.681767775756445 7.742595756832586 -0.07211094410213321 0 0 0
1844 5 34.51699432271345 7.742595756832588 -0.07211094410212801 0 0 0
2043 5 32.59938104180116 11.064026257320974 -0.07211094410273693 0 0 0
1842 1 36.43454463969218 8.844428599574519 1.0946934068269008 0 0 0
1850 1 40.269771186649166 8.844428599574506 1.0946934068268916 0 0 0
1852 5 38.35222086967045 7.742595756832587 -0.07211094410213166 0 0 0
2051 5 36.43460758875817 11.06402625732098 -0.07211094410272179 0 0 0
2059 5 40.269834135715165 11.064026257320982 -0.07211094410273225 0 0 0
1858 1 44.10499773360617 8.844428599574517 1.0946934068268972 0 0 0
1860 5 42.18744741662744 7.742595756832592 -0.0721109441021298 0 0 0
1868 5 46.02267396358444 7.742595756832588 -0.07211094410212711 0 0 0
2067 5 44.10506068267218 11.064026257320977 -0.07211094410272882 0 0 0
1866 1 47.94022428056318 8.844428599574506 1.0946934068268916 0 0 0
1666 1 51.77545082752018 8.844428599574513 1.094693406826893 -1 0 0
1668 5 49.85790051054144 7.742595756832589 -0.07211094410213253 -1 0 0
2075 5 47.94028722962916 11.064026257320977 -0.07211094410273411 0 0 0
1875 5 51.77551377658615 11.064026257320977 -0.0721109441027265 -1 0 0
1674 1 55.61067737447717 8.844428599574515 1.0946934068269076 -1 0 0
1676 5 53.69312705749843 7.742595756832593 -0.07211094410212725 -1 0 0
1684 5 57.52835360445544 7.742595756832591 -0.07211094410212898 -1 0 0
1883 5 55.61074032354316 11.064026257320982 -0.07211094410273138 -1 0 0
1682 1 59.44590392143417 8.844428599574508 1.0946934068268948 -1 0 0
1690 1 63.28113046839119 8.84442859957451 1.0946934068268834 -1 0 0
1692 5 61.36358015141245 7.742595756832586 -0.07211094410213129 -1 0 0
1891 5 59.445966870500165 11.064026257320975 -0.07211094410272983 -1 0 0
1899 5 63.281193417457146 11.064026257320977 -0.0721109441027301 -1 0 0
1698 1 67.1163570153482 8.844428599574512 1.0946934068269025 -1 0 0
1700 5 65.19880669836944 7.742595756832588 -0.07211094410212535 -1 0 0
1708 5 69.03403324532646 7.742595756832586 -0.07211094410213172 -1 0 0
1907 5 67.11641996441416 11.064026257320986 -0.07211094410272803 -1 0 0
1706 1 70.95158356230515 8.844428599574522 1.094693406826903 -1 0 0
1714 1 74.78681010926218 8.844428599574506 1.094693406826884 -1 0 0
1716 5 72.86925979228343 7.742595756832601 -0.07211094410212869 -1 0 0
1915 5 70.95164651137118 11.064026257320975 -0.07211094410273154 -1 0 0
1923 5 74.78687305832817 11.06402625732097 -0.07211094410273383 -1 0 0
1722 1 78.62203665621921 8.844428599574512 1.0946934068269027 -1 0 0
1724 5 76.70448633924045 7.742595756832588 -0.07211094410212844 -1 0 0
1732 5 80.53971288619745 7.742595756832581 -0.07211094410213438 -1 0 0
1931 5 78.62209960528514 11.06402625732098 -0.07211094410273672 -1 0 0
1730 1 82.45726320317617 8.844428599574524 1.0946934068268956 -1 0 0
1738 1 86.29248975013314 8.84442859957451 1.0946934068269034 -1 0 0
1740 5 84.37493943315442 7.742595756832592 -0.07211094410212425 -1 0 0
1939 5 82.45732615224215 11.064026257320984 -0.07211094410271994 -1 0 0
1947 5 86.29255269919918 11.064026257320986 -0.07211094410272206 -1 0 0
1746 1 90.12771629709015 8.844428599574501 1.0946934068268916 -1 0 0
1748 5 88.21016598011146 7.742595756832589 -0.07211094410212923 -1 0 0
1756 5 92.04539252706846 7.742595756832591 -0.07211094410213223 -1 0 0
1955 5 90.1277792461562 11.064026257320982 -0.07211094410273809 -1 0 0
1772 5 99.71584562098244 7.7425957568325865 -0.0721109441021292 -1 0 0
1754 1 93.96294284404716 8.844428599574517 1.094693406826896 -1 0 0
1762 1 97.79816939100418 8.844428599574515 1.0946934068269019 -1 0 0
1764 5 95.88061907402545 7.742595756832594 -0.07211094410212461 -1 0 0
1963 5 93.96300579311318 11.064026257320974 -0.07211094410272936 -1 0 0
1971 5 97.79823234007017 11.06402625732097 -0.07211094410273622 -1 0 0
1977 1 3.835118982093074 12.165859100061917 1.0946934068295617 0 0 0
1988 5 3.8351819470574413 14.385456757806589 -0.07211094410212768 0 0 0
1978 1 1.917505717079166 15.48728960054851 1.0946934068268919 0 0 0
1986 1 5.752732264036175 15.487289600548511 1.0946934068268959 0 0 0
1985 1 7.670345529050071 12.165859100061919 1.094693406829561 0 0 0
1993 1 11.505572076007073 12.165859100061919 1.0946934068295597 0 0 0
1996 5 7.670408494014445 14.38545675780659 -0.07211094410212907 0 0 0
2004 5 11.505635040971443 14.385456757806589 -0.07211094410212764 0 0 0
1994 1 9.587958810993173 15.487289600548507 1.094693406826897 0 0 0
2001 1 15.340798622964064 12.165859100061923 1.0946934068295637 0 0 0
2012 5 15.340861587928444 14.385456757806585 -0.07211094410213074 0 0 0
2002 1 13.423185357950171 15.487289600548518 1.0946934068268945 0 0 0
2010 1 17.258411904907177 15.487289600548516 1.0946934068268928 0 0 0
2009 1 19.176025169921072 12.165859100061919 1.094693406829561 0 0 0
2017 1 23.011251716878068 12.165859100061919 1.094693406829565 0 0 0
2020 5 19.17608813488545 14.385456757806585 -0.0721109441021311 0 0 0
2028 5 23.011314681842446 14.385456757806589 -0.07211094410213287 0 0 0
2018 1 21.093638451864173 15.487289600548513 1.0946934068268999 0 0 0
2025 1 26.846478263835063 12.165859100061917 1.0946934068295584 0 0 0
2036 5 26.846541228799445 14.385456757806589 -0.07211094410212769 0 0 0
2026 1 24.92886499882116 15.487289600548515 1.0946934068268988 0 0 0
2034 1 28.764091545778168 15.487289600548507 1.0946934068268883 0 0 0
2033 1 30.68170481079206 12.16585910006192 1.0946934068295637 0 0 0
2041 1 34.51693135774906 12.165859100061915 1.0946934068295564 0 0 0
2044 5 30.681767775756445 14.385456757806583 -0.0721109441021326 0 0 0
2052 5 34.51699432271345 14.385456757806594 -0.07211094410212454 0 0 0
2042 1 32.59931809273517 15.487289600548515 1.094693406826899 0 0 0
2049 1 38.35215790470607 12.165859100061923 1.09469340682957 0 0 0
2060 5 38.35222086967045 14.385456757806583 -0.07211094410213278 0 0 0
2050 1 36.43454463969218 15.487289600548518 1.094693406826904 0 0 0
2058 1 40.269771186649166 15.487289600548507 1.09469340682689 0 0 0
2057 1 42.18738445166307 12.165859100061912 1.0946934068295566 0 0 0
2065 1 46.02261099862008 12.165859100061917 1.0946934068295637 0 0 0
2068 5 42.18744741662744 14.38545675780659 -0.07211094410212975 0 0 0
2076 5 46.02267396358443 14.385456757806585 -0.07211094410212794 0 0 0
2066 1 44.10499773360617 15.487289600548518 1.0946934068268996 0 0 0
2073 1 49.85783754557708 12.165859100061912 1.0946934068295535 0 0 0
1876 5 49.85790051054145 14.38545675780659 -0.07211094410213059 -1 0 0
2074 1 47.94022428056317 15.487289600548507 1.0946934068268899 0 0 0
1874 1 51.77545082752019 15.487289600548511 1.0946934068268903 -1 0 0
1873 1 53.69306409253409 12.16585910006192 1.0946934068295635 -1 0 0
1881 1 57.528290639491075 12.165859100061917 1.0946934068295684 -1 0 0
1884 5 53.693127057498444 14.385456757806585 -0.07211094410213036 -1 0 0
1892 5 57.52835360445544 14.38545675780659 -0.07211094410212526 -1 0 0
1882 1 55.61067737447717 15.487289600548511 1.0946934068269076 -1 0 0
1889 1 61.36351718644807 12.16585910006192 1.0946934068295566 -1 0 0
1900 5 61.36358015141244 14.385456757806585 -0.07211094410212951 -1 0 0
1890 1 59.44590392143418 15.487289600548507 1.094693406826892 -1 0 0
1898 1 63.28113046839118 15.487289600548515 1.0946934068268817 -1 0 0
1897 1 65.19874373340507 12.165859100061923 1.0946934068295622 -1 0 0
1905 1 69.03397028036207 12.16585910006192 1.0946934068295748 -1 0 0
1908 5 65.19880669836944 14.385456757806589 -0.07211094410212184 -1 0 0
1916 5 69.03403324532646 14.38545675780657 -0.07211094410214124 -1 0 0
1906 1 67.11635701534819 15.487289600548506 1.0946934068268972 -1 0 0
1913 1 72.86919682731907 12.16585910006191 1.0946934068295517 -1 0 0
1924 5 72.86925979228343 14.3854567578066 -0.07211094410212697 -1 0 0
1914 1 70.95158356230515 15.487289600548523 1.0946934068269039 -1 0 0
1922 1 74.78681010926216 15.487289600548504 1.0946934068268825 -1 0 0
1921 1 76.70442337427609 12.165859100061923 1.0946934068295624 -1 0 0
1929 1 80.53964992123308 12.165859100061908 1.0946934068295486 -1 0 0
1932 5 76.70448633924045 14.38545675780659 -0.07211094410212553 -1 0 0
1940 5 80.53971288619745 14.38545675780658 -0.07211094410213552 -1 0 0
1930 1 78.62203665621921 15.487289600548507 1.0946934068268988 -1 0 0
1937 1 84.37487646819008 12.165859100061926 1.0946934068295728 -1 0 0
1948 5 84.37493943315442 14.38545675780659 -0.0721109441021236 -1 0 0
1938 1 82.45726320317617 15.487289600548527 1.0946934068268959 -1 0 0
1946 1 86.29248975013314 15.487289600548513 1.0946934068269027 -1 0 0
1945 1 88.21010301514708 12.165859100061915 1.0946934068295702 -1 0 0
1953 1 92.04532956210404 12.165859100061928 1.0946934068295675 -1 0 0
1956 5 88.21016598011146 14.385456757806582 -0.07211094410213031 -1 0 0
1964 5 92.04539252706846 14.385456757806589 -0.07211094410213142 -1 0 0
1954 1 90.12771629709015 15.487289600548504 1.0946934068268912 -1 0 0
1980 5 99.71584562098244 14.385456757806587 -0.07211094410212819 -1 0 0
1961 1 95.88055610906108 12.16585910006191 1.0946934068295435 -1 0 0
1969 1 99.71578265601808 12.165859100061924 1.0946934068295506 -1 0 0
1972 5 95.88061907402545 14.38545675780659 -0.07211094410212499 -1 0 0
1962 1 93.96294284404716 15.48728960054852 1.0946934068268945 -1 0 0
1970 1 97.79816939100418 15.487289600548515 1.094693406826901 -1 0 0
2185 1 3.835118982093072 18.808720101035906 1.0946934068295666 0 0 0
2187 5 1.9175686661451512 17.70688725829498 -0.07211094410272414 0 0 0
2195 5 5.752795213102164 17.706887258294973 -0.0721109441027286 0 0 0
2196 5 3.835181947057439 21.028317758780588 -0.07211094410212623 0 0 0
2186 1 1.9175057170791658 22.130150601522498 1.094693406826892 0 0 0
2194 1 5.752732264036173 22.13015060152251 1.0946934068268948 0 0 0
2193 1 7.670345529050075 18.808720101035913 1.094693406829563 0 0 0
2201 1 11.505572076007068 18.80872010103591 1.094693406829568 0 0 0
2203 5 9.588021760059158 17.706887258294973 -0.07211094410273224 0 0 0
2204 5 7.670408494014447 21.028317758780588 -0.07211094410212614 0 0 0
2212 5 11.505635040971443 21.028317758780588 -0.07211094410212762 0 0 0
2202 1 9.587958810993177 22.130150601522505 1.0946934068268936 0 0 0
2209 1 15.34079862296406 18.808720101035917 1.0946934068295655 0 0 0
2211 5 13.423248307016156 17.706887258294977 -0.07211094410273168 0 0 0
2219 5 17.258474853973166 17.70688725829498 -0.07211094410272878 0 0 0
2220 5 15.34086158792844 21.028317758780585 -0.07211094410212639 0 0 0
2210 1 13.423185357950173 22.130150601522505 1.0946934068268952 0 0 0
2218 1 17.258411904907177 22.130150601522505 1.0946934068268988 0 0 0
2217 1 19.176025169921076 18.80872010103591 1.0946934068295617 0 0 0
2225 1 23.011251716878068 18.80872010103591 1.09469340682957 0 0 0
2227 5 21.09370140093017 17.706887258294977 -0.07211094410273183 0 0 0
2228 5 19.17608813488545 21.028317758780585 -0.07211094410212908 0 0 0
2236 5 23.011314681842446 21.02831775878058 -0.0721109441021301 0 0 0
2226 1 21.093638451864173 22.130150601522505 1.0946934068268943 0 0 0
2233 1 26.84647826383507 18.808720101035917 1.0946934068295624 0 0 0
2235 5 24.92892794788716 17.70688725829498 -0.07211094410272875 0 0 0
2243 5 28.764154494844167 17.70688725829498 -0.07211094410273042 0 0 0
2244 5 26.846541228799442 21.02831775878058 -0.07211094410212818 0 0 0
2234 1 24.92886499882116 22.13015060152251 1.0946934068268992 0 0 0
2242 1 28.764091545778168 22.13015060152251 1.0946934068268879 0 0 0
2241 1 30.68170481079207 18.80872010103592 1.0946934068295586 0 0 0
2249 1 34.516931357749066 18.808720101035917 1.0946934068295666 0 0 0
2251 5 32.599381041801166 17.70688725829498 -0.07211094410273028 0 0 0
2252 5 30.681767775756445 21.02831775878058 -0.0721109441021317 0 0 0
2260 5 34.516994322713444 21.028317758780588 -0.07211094410212263 0 0 0
2250 1 32.599318092735174 22.13015060152251 1.0946934068268988 0 0 0
2257 1 38.352157904706054 18.808720101035906 1.0946934068295664 0 0 0
2259 5 36.43460758875816 17.706887258294973 -0.07211094410272502 0 0 0
2267 5 40.26983413571517 17.706887258294984 -0.0721109441027325 0 0 0
2268 5 38.35222086967045 21.028317758780588 -0.07211094410213142 0 0 0
2258 1 36.43454463969218 22.130150601522516 1.0946934068269045 0 0 0
2266 1 40.26977118664916 22.1301506015225 1.0946934068268874 0 0 0
2265 1 42.18738445166307 18.80872010103591 1.094693406829553 0 0 0
2273 1 46.022610998620074 18.808720101035917 1.0946934068295642 0 0 0
2275 5 44.105060682672175 17.706887258294977 -0.07211094410273033 0 0 0
2276 5 42.18744741662744 21.028317758780585 -0.07211094410212847 0 0 0
2284 5 46.02267396358444 21.028317758780588 -0.07211094410212443 0 0 0
2274 1 44.10499773360617 22.130150601522512 1.0946934068269005 0 0 0
2281 1 49.85783754557708 18.808720101035913 1.0946934068295566 0 0 0
2283 5 47.94028722962916 17.706887258294977 -0.07211094410273611 0 0 0
2083 5 51.77551377658615 17.706887258294977 -0.07211094410272742 -1 0 0
2084 5 49.85790051054144 21.028317758780595 -0.07211094410213294 -1 0 0
2282 1 47.94022428056317 22.13015060152251 1.0946934068268932 0 0 0
2082 1 51.77545082752018 22.13015060152251 1.0946934068268912 -1 0 0
2081 1 53.69306409253408 18.80872010103592 1.0946934068295593 -1 0 0
2089 1 57.52829063949107 18.808720101035913 1.0946934068295677 -1 0 0
2091 5 55.61074032354316 17.706887258294977 -0.07211094410273097 -1 0 0
2092 5 53.69312705749845 21.02831775878058 -0.07211094410212913 -1 0 0
2100 5 57.52835360445544 21.02831775878059 -0.072110944102124 -1 0 0
2090 1 55.61067737447717 22.13015060152251 1.0946934068269099 -1 0 0
2097 1 61.363517186448064 18.80872010103592 1.0946934068295548 -1 0 0
2099 5 59.445966870500165 17.706887258294973 -0.07211094410273153 -1 0 0
2107 5 63.281193417457146 17.706887258294973 -0.07211094410272702 -1 0 0
2108 5 61.36358015141245 21.028317758780574 -0.07211094410213384 -1 0 0
2098 1 59.44590392143417 22.130150601522505 1.094693406826896 -1 0 0
2106 1 63.28113046839118 22.130150601522505 1.0946934068268865 -1 0 0
2105 1 65.19874373340507 18.808720101035917 1.094693406829567 -1 0 0
2113 1 69.03397028036207 18.808720101035924 1.0946934068295708 -1 0 0
2115 5 67.11641996441416 17.706887258294984 -0.07211094410272996 -1 0 0
2116 5 65.19880669836945 21.028317758780588 -0.07211094410212066 -1 0 0
2124 5 69.03403324532647 21.02831775878058 -0.07211094410212936 -1 0 0
2114 1 67.11635701534819 22.130150601522505 1.0946934068269016 -1 0 0
2121 1 72.86919682731904 18.808720101035917 1.0946934068295713 -1 0 0
2123 5 70.95164651137118 17.706887258294973 -0.07211094410273228 -1 0 0
2131 5 74.78687305832817 17.70688725829497 -0.07211094410272988 -1 0 0
2132 5 72.86925979228343 21.028317758780588 -0.0721109441021329 -1 0 0
2122 1 70.95158356230515 22.13015060152252 1.094693406826907 -1 0 0
2130 1 74.78681010926218 22.1301506015225 1.0946934068268848 -1 0 0
2129 1 76.70442337427608 18.808720101035906 1.094693406829546 -1 0 0
2137 1 80.53964992123308 18.808720101035906 1.0946934068295437 -1 0 0
2139 5 78.62209960528516 17.706887258294977 -0.0721109441027356 -1 0 0
2140 5 76.70448633924045 21.0283177587806 -0.07211094410212429 -1 0 0
2148 5 80.53971288619745 21.028317758780577 -0.07211094410213359 -1 0 0
2138 1 78.62203665621921 22.130150601522505 1.0946934068269014 -1 0 0
2145 1 84.37487646819008 18.80872010103592 1.0946934068295802 -1 0 0
2147 5 82.45732615224216 17.706887258294973 -0.07211094410272345 -1 0 0
2155 5 86.29255269919918 17.706887258294973 -0.07211094410272362 -1 0 0
2156 5 84.37493943315442 21.02831775878059 -0.07211094410212202 -1 0 0
2146 1 82.45726320317617 22.13015060152252 1.0946934068268972 -1 0 0
2154 1 86.29248975013314 22.1301506015225 1.0946934068269034 -1 0 0
2153 1 88.21010301514708 18.80872010103592 1.0946934068295664 -1 0 0
2161 1 92.04532956210406 18.80872010103593 1.0946934068295677 -1 0 0
2163 5 90.1277792461562 17.706887258294977 -0.07211094410273788 -1 0 0
2164 5 88.21016598011146 21.028317758780585 -0.07211094410212768 -1 0 0
2172 5 92.04539252706846 21.028317758780585 -0.0721109441021293 -1 0 0
2162 1 90.12771629709016 22.1301506015225 1.0946934068268999 -1 0 0
2188 5 99.71584562098244 21.028317758780585 -0.072110944102129 -1 0 0
2169 1 95.88055610906108 18.8087201010359 1.0946934068295424 -1 0 0
2171 5 93.96300579311317 17.706887258294966 -0.07211094410273092 -1 0 0
2177 1 99.71578265601808 18.808720101035917 1.0946934068295568 -1 0 0
2179 5 97.79823234007017 17.70688725829497 -0.07211094410273335 -1 0 0
2180 5 95.88061907402546 21.028317758780588 -0.0721109441021209 -1 0 0
2170 1 93.96294284404716 22.130150601522516 1.0946934068268972 -1 0 0
2178 1 97.79816939100418 22.130150601522516 1.0946934068268972 -1 0 0
2395 5 1.9175686661451479 24.34974825926898 -0.07211094410271787 0 0 0
2403 5 5.752795213102167 24.34974825926898 -0.07211094410272759 0 0 0
2393 1 3.835118982093069 25.451581102009918 1.0946934068295642 0 0 0
2404 5 3.8351819470574386 27.671178759754593 -0.07211094410212651 0 0 0
2394 1 1.9175057170791654 28.773011602496513 1.0946934068268916 0 0 0
2402 1 5.752732264036175 28.77301160249652 1.094693406826892 0 0 0
2411 5 9.588021760059164 24.34974825926898 -0.07211094410272818 0 0 0
2401 1 7.670345529050075 25.451581102009918 1.094693406829562 0 0 0
2409 1 11.50557207600707 25.451581102009918 1.0946934068295595 0 0 0
2412 5 7.670408494014446 27.671178759754593 -0.07211094410212986 0 0 0
2420 5 11.505635040971443 27.671178759754593 -0.07211094410212972 0 0 0
2410 1 9.587958810993175 28.773011602496513 1.094693406826895 0 0 0
2419 5 13.423248307016156 24.349748259268978 -0.07211094410273075 0 0 0
2427 5 17.258474853973162 24.349748259268978 -0.07211094410272383 0 0 0
2417 1 15.340798622964066 25.451581102009918 1.0946934068295584 0 0 0
2428 5 15.34086158792844 27.671178759754596 -0.07211094410212424 0 0 0
2418 1 13.423185357950173 28.773011602496517 1.0946934068268925 0 0 0
2426 1 17.25841190490718 28.77301160249652 1.0946934068268899 0 0 0
2435 5 21.09370140093016 24.349748259268974 -0.07211094410272784 0 0 0
2425 1 19.176025169921076 25.451581102009914 1.0946934068295588 0 0 0
2433 1 23.011251716878068 25.451581102009907 1.0946934068295657 0 0 0
2436 5 19.17608813488544 27.6711787597546 -0.0721109441021272 0 0 0
2444 5 23.011314681842432 27.671178759754596 -0.07211094410212816 0 0 0
2434 1 21.093638451864177 28.77301160249651 1.094693406826895 0 0 0
2443 5 24.92892794788716 24.349748259268985 -0.07211094410272839 0 0 0
2451 5 28.764154494844156 24.34974825926897 -0.07211094410273063 0 0 0
2441 1 26.846478263835078 25.451581102009914 1.0946934068295637 0 0 0
2452 5 26.846541228799442 27.6711787597546 -0.0721109441021206 0 0 0
2442 1 24.928864998821165 28.773011602496513 1.0946934068268934 0 0 0
2450 1 28.76409154577818 28.773011602496513 1.0946934068268899 0 0 0
2459 5 32.59938104180116 24.34974825926897 -0.07211094410273046 0 0 0
2449 1 30.681704810792073 25.451581102009918 1.0946934068295657 0 0 0
2457 1 34.516931357749066 25.451581102009918 1.0946934068295646 0 0 0
2460 5 30.681767775756445 27.67117875975459 -0.0721109441021291 0 0 0
2468 5 34.51699432271345 27.671178759754593 -0.07211094410212232 0 0 0
2458 1 32.59931809273517 28.773011602496513 1.0946934068269019 0 0 0
2467 5 36.43460758875817 24.349748259268978 -0.0721109441027242 0 0 0
2475 5 40.269834135715165 24.349748259268985 -0.07211094410273024 0 0 0
2465 1 38.35215790470606 25.451581102009914 1.094693406829565 0 0 0
2476 5 38.35222086967045 27.671178759754586 -0.07211094410213027 0 0 0
2466 1 36.43454463969218 28.773011602496524 1.094693406826899 0 0 0
2474 1 40.269771186649166 28.773011602496503 1.0946934068268865 0 0 0
2483 5 44.105060682672175 24.349748259268974 -0.07211094410272544 0 0 0
2473 1 42.18738445166307 25.45158110200991 1.0946934068295548 0 0 0
2481 1 46.02261099862008 25.45158110200991 1.0946934068295675 0 0 0
2484 5 42.18744741662744 27.671178759754596 -0.07211094410212604 0 0 0
2492 5 46.02267396358444 27.671178759754586 -0.07211094410212916 0 0 0
2482 1 44.104997733606176 28.773011602496517 1.094693406826894 0 0 0
2491 5 47.94028722962916 24.349748259268978 -0.07211094410273071 0 0 0
2291 5 51.77551377658616 24.349748259268974 -0.07211094410272867 -1 0 0
2489 1 49.85783754557708 25.451581102009914 1.094693406829555 0 0 0
2292 5 49.857900510541434 27.671178759754604 -0.07211094410212535 -1 0 0
2490 1 47.940224280563164 28.773011602496517 1.0946934068268954 0 0 0
2290 1 51.775450827520174 28.773011602496513 1.094693406826883 -1 0 0
2299 5 55.610740323543155 24.349748259268974 -0.07211094410272528 -1 0 0
2289 1 53.69306409253408 25.45158110200991 1.0946934068295642 -1 0 0
2297 1 57.52829063949107 25.45158110200992 1.0946934068295668 -1 0 0
2300 5 53.69312705749844 27.671178759754593 -0.07211094410212424 -1 0 0
2308 5 57.52835360445545 27.6711787597546 -0.07211094410212432 -1 0 0
2298 1 55.61067737447717 28.77301160249652 1.0946934068269016 -1 0 0