LAMMPS data file via write_data, version 29 Aug 2024, timestep = 0, units = metal

3120 atoms
4 atom types

0 99.715890220882 xlo xhi
0 99.64291501461 ylo yhi
0 20.807299721384 zlo zhi

Masses

1 69.723
2 69.723
3 78.95999999999999
4 78.971

Atoms # atomic

1564 3 5.847848099449493e-05 1.1069971359900066 0 0 0 0
1572 3 3.8352850254379973 1.1069971359900066 0 0 0 0
1580 3 7.670511572394993 1.1069971359900066 0 0 0 0
1588 3 11.505738119351996 1.1069971359900066 0 0 0 0
1596 3 15.340964666308992 1.1069971359900066 0 0 0 0
1604 3 19.176191213265994 1.1069971359900066 0 0 0 0
1612 3 23.011417760222997 1.1069971359900066 0 0 0 0
1620 3 26.84664430718 1.1069971359900066 0 0 0 0
1628 3 30.68187085413699 1.1069971359900066 0 0 0 0
1636 3 34.51709740109399 1.1069971359900066 0 0 0 0
1644 3 38.352323948050994 1.1069971359900066 0 0 0 0
1652 3 42.187550495008 1.1069971359900066 0 0 0 0
1660 3 46.022777041965 1.1069971359900066 0 0 0 0
1460 3 49.858003588921996 1.1069971359900066 0 -1 0 0
1468 3 53.693230135879 1.1069971359900066 0 -1 0 0
1476 3 57.528456682835994 1.1069971359900066 0 -1 0 0
1484 3 61.363683229793 1.1069971359900066 0 -1 0 0
1492 3 65.19890977675 1.1069971359900066 0 -1 0 0
1500 3 69.034136323707 1.1069971359900066 0 -1 0 0
1508 3 72.86936287066399 1.1069971359900066 0 -1 0 0
1516 3 76.704589417621 1.1069971359900066 0 -1 0 0
1524 3 80.539815964578 1.1069971359900066 0 -1 0 0
1532 3 84.375042511535 1.1069971359900066 0 -1 0 0
1540 3 88.210269058492 1.1069971359900066 0 -1 0 0
1548 3 92.04549560544899 1.1069971359900066 0 -1 0 0
1556 3 95.88072215240601 1.1069971359900066 0 -1 0 0
1562 1 1.9174924897319983 2.2142532714580057 1.1714585946550002 0 0 0
1570 1 5.752719036688994 2.2142532714580057 1.1714585946550002 0 0 0
1578 1 9.587945583645997 2.2142532714580057 1.1714585946550002 0 0 0
1586 1 13.423172130602993 2.2142532714580057 1.1714585946550002 0 0 0
1594 1 17.258398677559995 2.2142532714580057 1.1714585946550002 0 0 0
1602 1 21.093625224516998 2.2142532714580057 1.1714585946550002 0 0 0
1610 1 24.928851771474 2.2142532714580057 1.1714585946550002 0 0 0
1618 1 28.76407831843099 2.2142532714580057 1.1714585946550002 0 0 0
1626 1 32.59930486538799 2.2142532714580057 1.1714585946550002 0 0 0
1634 1 36.434531412344995 2.2142532714580057 1.1714585946550002 0 0 0
1642 1 40.269757959302 2.2142532714580057 1.1714585946550002 0 0 0
1650 1 44.104984506259 2.2142532714580057 1.1714585946550002 0 0 0
1658 1 47.94021105321599 2.2142532714580057 1.1714585946550002 0 0 0
1458 1 51.775437600173 2.2142532714580057 1.1714585946550002 -1 0 0
1466 1 55.610664147129995 2.2142532714580057 1.1714585946550002 -1 0 0
1474 1 59.445890694087 2.2142532714580057 1.1714585946550002 -1 0 0
1482 1 63.281117241044 2.2142532714580057 1.1714585946550002 -1 0 0
1490 1 67.11634378800099 2.2142532714580057 1.1714585946550002 -1 0 0
1498 1 70.951570334958 2.2142532714580057 1.1714585946550002 -1 0 0
1506 1 74.786796881915 2.2142532714580057 1.1714585946550002 -1 0 0
1514 1 78.622023428872 2.2142532714580057 1.1714585946550002 -1 0 0
1522 1 82.457249975829 2.2142532714580057 1.1714585946550002 -1 0 0
1530 1 86.29247652278599 2.2142532714580057 1.1714585946550002 -1 0 0
1538 1 90.127703069743 2.2142532714580057 1.1714585946550002 -1 0 0
1546 1 93.9629296167 2.2142532714580057 1.1714585946550002 -1 0 0
1554 1 97.798156163657 2.2142532714580057 1.1714585946550002 -1 0 0
1769 1 3.8351057684769927 5.535683771945003 1.1714585946550002 0 0 0
1771 3 1.917671757225996 4.428427636477004 0 0 0 0
1777 1 7.6703323154339955 5.535683771945003 1.1714585946550002 0 0 0
1779 3 5.752898304182999 4.428427636477004 0 0 0 0
1785 1 11.505558862390998 5.535683771945003 1.1714585946550002 0 0 0
1787 3 9.588124851139995 4.428427636477004 0 0 0 0
1793 1 15.340785409348001 5.535683771945003 1.1714585946550002 0 0 0
1795 3 13.423351398096997 4.428427636477004 0 0 0 0
1801 1 19.17601195630499 5.535683771945003 1.1714585946550002 0 0 0
1803 3 17.258577945054 4.428427636477004 0 0 0 0
1809 1 23.011238503261993 5.535683771945003 1.1714585946550002 0 0 0
1811 3 21.09380449201099 4.428427636477004 0 0 0 0
1817 1 26.846465050218995 5.535683771945003 1.1714585946550002 0 0 0
1819 3 24.92903103896799 4.428427636477004 0 0 0 0
1825 1 30.681691597176 5.535683771945003 1.1714585946550002 0 0 0
1827 3 28.764257585924994 4.428427636477004 0 0 0 0
1833 1 34.516918144133 5.535683771945003 1.1714585946550002 0 0 0
1835 3 32.599484132882 4.428427636477004 0 0 0 0
1841 1 38.35214469108999 5.535683771945003 1.1714585946550002 0 0 0
1843 3 36.434710679839 4.428427636477004 0 0 0 0
1849 1 42.18737123804699 5.535683771945003 1.1714585946550002 0 0 0
1851 3 40.26993722679599 4.428427636477004 0 0 0 0
1857 1 46.022597785003995 5.535683771945003 1.1714585946550002 0 0 0
1859 3 44.10516377375299 4.428427636477004 0 0 0 0
1865 1 49.857824331961 5.535683771945003 1.1714585946550002 0 0 0
1867 3 47.940390320709994 4.428427636477004 0 0 0 0
1665 1 53.693050878918 5.535683771945003 1.1714585946550002 -1 0 0
1667 3 51.775616867667 4.428427636477004 0 -1 0 0
1673 1 57.528277425875 5.535683771945003 1.1714585946550002 -1 0 0
1675 3 55.610843414624 4.428427636477004 0 -1 0 0
1681 1 61.363503972832 5.535683771945003 1.1714585946550002 -1 0 0
1683 3 59.446069961580996 4.428427636477004 0 -1 0 0
1689 1 65.198730519789 5.535683771945003 1.1714585946550002 -1 0 0
1691 3 63.281296508538 4.428427636477004 0 -1 0 0
1697 1 69.033957066746 5.535683771945003 1.1714585946550002 -1 0 0
1699 3 67.116523055495 4.428427636477004 0 -1 0 0
1705 1 72.869183613703 5.535683771945003 1.1714585946550002 -1 0 0
1707 3 70.951749602452 4.428427636477004 0 -1 0 0
1713 1 76.70441016065999 5.535683771945003 1.1714585946550002 -1 0 0
1715 3 74.786976149409 4.428427636477004 0 -1 0 0
1721 1 80.539636707617 5.535683771945003 1.1714585946550002 -1 0 0
1723 3 78.622202696366 4.428427636477004 0 -1 0 0
1729 1 84.374863254574 5.535683771945003 1.1714585946550002 -1 0 0
1731 3 82.45742924332299 4.428427636477004 0 -1 0 0
1737 1 88.210089801531 5.535683771945003 1.1714585946550002 -1 0 0
1739 3 86.29265579028001 4.428427636477004 0 -1 0 0
1745 1 92.045316348488 5.535683771945003 1.1714585946550002 -1 0 0
1747 3 90.127882337237 4.428427636477004 0 -1 0 0
1753 1 95.88054289544499 5.535683771945003 1.1714585946550002 -1 0 0
1755 3 93.963108884194 4.428427636477004 0 -1 0 0
1761 1 99.715769442402 5.535683771945003 1.1714585946550002 -1 0 0
1763 3 97.798335431151 4.428427636477004 0 -1 0 0
1770 1 1.9174924897319983 8.857114272432007 1.1714585946550002 0 0 0
1772 3 5.847848099449493e-05 7.749858136964001 0 0 0 0
1778 1 5.752719036688994 8.857114272432007 1.1714585946550002 0 0 0
1780 3 3.8352850254379973 7.749858136964001 0 0 0 0
1786 1 9.587945583645997 8.857114272432007 1.1714585946550002 0 0 0
1788 3 7.670511572394993 7.749858136964001 0 0 0 0
1794 1 13.423172130602993 8.857114272432007 1.1714585946550002 0 0 0
1796 3 11.505738119351996 7.749858136964001 0 0 0 0
1802 1 17.258398677559995 8.857114272432007 1.1714585946550002 0 0 0
1804 3 15.340964666308992 7.749858136964001 0 0 0 0
1810 1 21.093625224516998 8.857114272432007 1.1714585946550002 0 0 0
1812 3 19.176191213265994 7.749858136964001 0 0 0 0
1818 1 24.928851771474 8.857114272432007 1.1714585946550002 0 0 0
1820 3 23.011417760222997 7.749858136964001 0 0 0 0
1826 1 28.76407831843099 8.857114272432007 1.1714585946550002 0 0 0
1828 3 26.84664430718 7.749858136964001 0 0 0 0
1834 1 32.59930486538799 8.857114272432007 1.1714585946550002 0 0 0
1836 3 30.68187085413699 7.749858136964001 0 0 0 0
1842 1 36.434531412344995 8.857114272432007 1.1714585946550002 0 0 0
1844 3 34.51709740109399 7.749858136964001 0 0 0 0
1850 1 40.269757959302 8.857114272432007 1.1714585946550002 0 0 0
1852 3 38.352323948050994 7.749858136964001 0 0 0 0
1858 1 44.104984506259 8.857114272432007 1.1714585946550002 0 0 0
1860 3 42.187550495008 7.749858136964001 0 0 0 0
1866 1 47.94021105321599 8.857114272432007 1.1714585946550002 0 0 0
1868 3 46.022777041965 7.749858136964001 0 0 0 0
1666 1 51.775437600173 8.857114272432007 1.1714585946550002 -1 0 0
1668 3 49.858003588921996 7.749858136964001 0 -1 0 0
1674 1 55.610664147129995 8.857114272432007 1.1714585946550002 -1 0 0
1676 3 53.693230135879 7.749858136964001 0 -1 0 0
1682 1 59.445890694087 8.857114272432007 1.1714585946550002 -1 0 0
1684 3 57.528456682835994 7.749858136964001 0 -1 0 0
1690 1 63.281117241044 8.857114272432007 1.1714585946550002 -1 0 0
1692 3 61.363683229793 7.749858136964001 0 -1 0 0
1698 1 67.11634378800099 8.857114272432007 1.1714585946550002 -1 0 0
1700 3 65.19890977675 7.749858136964001 0 -1 0 0
1706 1 70.951570334958 8.857114272432007 1.1714585946550002 -1 0 0
1708 3 69.034136323707 7.749858136964001 0 -1 0 0
1714 1 74.786796881915 8.857114272432007 1.1714585946550002 -1 0 0
1716 3 72.86936287066399 7.749858136964001 0 -1 0 0
1722 1 78.622023428872 8.857114272432007 1.1714585946550002 -1 0 0
1724 3 76.704589417621 7.749858136964001 0 -1 0 0
1730 1 82.457249975829 8.857114272432007 1.1714585946550002 -1 0 0
1732 3 80.539815964578 7.749858136964001 0 -1 0 0
1738 1 86.29247652278599 8.857114272432007 1.1714585946550002 -1 0 0
1740 3 84.375042511535 7.749858136964001 0 -1 0 0
1746 1 90.127703069743 8.857114272432007 1.1714585946550002 -1 0 0
1748 3 88.210269058492 7.749858136964001 0 -1 0 0
1754 1 93.9629296167 8.857114272432007 1.1714585946550002 -1 0 0
1756 3 92.04549560544899 7.749858136964001 0 -1 0 0
1762 1 97.798156163657 8.857114272432007 1.1714585946550002 -1 0 0
1764 3 95.88072215240601 7.749858136964001 0 -1 0 0
1979 3 1.917671757225996 11.071288637451005 0 0 0 0
1987 3 5.752898304182999 11.071288637451005 0 0 0 0
1995 3 9.588124851139995 11.071288637451005 0 0 0 0
2003 3 13.423351398096997 11.071288637451005 0 0 0 0
2011 3 17.258577945054 11.071288637451005 0 0 0 0
2019 3 21.09380449201099 11.071288637451005 0 0 0 0
2027 3 24.92903103896799 11.071288637451005 0 0 0 0
2035 3 28.764257585924994 11.071288637451005 0 0 0 0
2043 3 32.599484132882 11.071288637451005 0 0 0 0
2051 3 36.434710679839 11.071288637451005 0 0 0 0
2059 3 40.26993722679599 11.071288637451005 0 0 0 0
2067 3 44.10516377375299 11.071288637451005 0 0 0 0
2075 3 47.940390320709994 11.071288637451005 0 0 0 0
1875 3 51.775616867667 11.071288637451005 0 -1 0 0
1883 3 55.610843414624 11.071288637451005 0 -1 0 0
1891 3 59.446069961580996 11.071288637451005 0 -1 0 0
1899 3 63.281296508538 11.071288637451005 0 -1 0 0
1907 3 67.116523055495 11.071288637451005 0 -1 0 0
1915 3 70.951749602452 11.071288637451005 0 -1 0 0
1923 3 74.786976149409 11.071288637451005 0 -1 0 0
1931 3 78.622202696366 11.071288637451005 0 -1 0 0
1939 3 82.45742924332299 11.071288637451005 0 -1 0 0
1947 3 86.29265579028001 11.071288637451005 0 -1 0 0
1955 3 90.127882337237 11.071288637451005 0 -1 0 0
1963 3 93.963108884194 11.071288637451005 0 -1 0 0
1971 3 97.798335431151 11.071288637451005 0 -1 0 0
1977 1 3.8351057684769927 12.178544772919004 1.1714585946550002 0 0 0
1985 1 7.6703323154339955 12.178544772919004 1.1714585946550002 0 0 0
1993 1 11.505558862390998 12.178544772919004 1.1714585946550002 0 0 0
2001 1 15.340785409348001 12.178544772919004 1.1714585946550002 0 0 0
2009 1 19.17601195630499 12.178544772919004 1.1714585946550002 0 0 0
2017 1 23.011238503261993 12.178544772919004 1.1714585946550002 0 0 0
2025 1 26.846465050218995 12.178544772919004 1.1714585946550002 0 0 0
2033 1 30.681691597176 12.178544772919004 1.1714585946550002 0 0 0
2041 1 34.516918144133 12.178544772919004 1.1714585946550002 0 0 0
2049 1 38.35214469108999 12.178544772919004 1.1714585946550002 0 0 0
2057 1 42.18737123804699 12.178544772919004 1.1714585946550002 0 0 0
2065 1 46.022597785003995 12.178544772919004 1.1714585946550002 0 0 0
2073 1 49.857824331961 12.178544772919004 1.1714585946550002 0 0 0
1873 1 53.693050878918 12.178544772919004 1.1714585946550002 -1 0 0
1881 1 57.528277425875 12.178544772919004 1.1714585946550002 -1 0 0
1889 1 61.363503972832 12.178544772919004 1.1714585946550002 -1 0 0
1897 1 65.198730519789 12.178544772919004 1.1714585946550002 -1 0 0
1905 1 69.033957066746 12.178544772919004 1.1714585946550002 -1 0 0
1913 1 72.869183613703 12.178544772919004 1.1714585946550002 -1 0 0
1921 1 76.70441016065999 12.178544772919004 1.1714585946550002 -1 0 0
1929 1 80.539636707617 12.178544772919004 1.1714585946550002 -1 0 0
1937 1 84.374863254574 12.178544772919004 1.1714585946550002 -1 0 0
1945 1 88.210089801531 12.178544772919004 1.1714585946550002 -1 0 0
1953 1 92.045316348488 12.178544772919004 1.1714585946550002 -1 0 0
1961 1 95.88054289544499 12.178544772919004 1.1714585946550002 -1 0 0
1969 1 99.715769442402 12.178544772919004 1.1714585946550002 -1 0 0
1980 3 5.847848099449493e-05 14.392719137938002 0 0 0 0
1988 3 3.8352850254379973 14.392719137938002 0 0 0 0
1996 3 7.670511572394993 14.392719137938002 0 0 0 0
2004 3 11.505738119351996 14.392719137938002 0 0 0 0
2012 3 15.340964666308992 14.392719137938002 0 0 0 0
2020 3 19.176191213265994 14.392719137938002 0 0 0 0
2028 3 23.011417760222997 14.392719137938002 0 0 0 0
2036 3 26.84664430718 14.392719137938002 0 0 0 0
2044 3 30.68187085413699 14.392719137938002 0 0 0 0
2052 3 34.51709740109399 14.392719137938002 0 0 0 0
2060 3 38.352323948050994 14.392719137938002 0 0 0 0
2068 3 42.187550495008 14.392719137938002 0 0 0 0
2076 3 46.022777041965 14.392719137938002 0 0 0 0
1876 3 49.858003588921996 14.392719137938002 0 -1 0 0
1884 3 53.693230135879 14.392719137938002 0 -1 0 0
1892 3 57.528456682835994 14.392719137938002 0 -1 0 0
1900 3 61.363683229793 14.392719137938002 0 -1 0 0
1908 3 65.19890977675 14.392719137938002 0 -1 0 0
1916 3 69.034136323707 14.392719137938002 0 -1 0 0
1924 3 72.86936287066399 14.392719137938002 0 -1 0 0
1932 3 76.704589417621 14.392719137938002 0 -1 0 0
1940 3 80.539815964578 14.392719137938002 0 -1 0 0
1948 3 84.375042511535 14.392719137938002 0 -1 0 0
1956 3 88.210269058492 14.392719137938002 0 -1 0 0
1964 3 92.04549560544899 14.392719137938002 0 -1 0 0
1972 3 95.88072215240601 14.392719137938002 0 -1 0 0
1978 1 1.9174924897319983 15.499975273406008 1.1714585946550002 0 0 0
1986 1 5.752719036688994 15.499975273406008 1.1714585946550002 0 0 0
1994 1 9.587945583645997 15.499975273406008 1.1714585946550002 0 0 0
2002 1 13.423172130602993 15.499975273406008 1.1714585946550002 0 0 0
2010 1 17.258398677559995 15.499975273406008 1.1714585946550002 0 0 0
2018 1 21.093625224516998 15.499975273406008 1.1714585946550002 0 0 0
2026 1 24.928851771474 15.499975273406008 1.1714585946550002 0 0 0
2034 1 28.76407831843099 15.499975273406008 1.1714585946550002 0 0 0
2042 1 32.59930486538799 15.499975273406008 1.1714585946550002 0 0 0
2050 1 36.434531412344995 15.499975273406008 1.1714585946550002 0 0 0
2058 1 40.269757959302 15.499975273406008 1.1714585946550002 0 0 0
2066 1 44.104984506259 15.499975273406008 1.1714585946550002 0 0 0
2074 1 47.94021105321599 15.499975273406008 1.1714585946550002 0 0 0
1874 1 51.775437600173 15.499975273406008 1.1714585946550002 -1 0 0
1882 1 55.610664147129995 15.499975273406008 1.1714585946550002 -1 0 0
1890 1 59.445890694087 15.499975273406008 1.1714585946550002 -1 0 0
1898 1 63.281117241044 15.499975273406008 1.1714585946550002 -1 0 0
1906 1 67.11634378800099 15.499975273406008 1.1714585946550002 -1 0 0
1914 1 70.951570334958 15.499975273406008 1.1714585946550002 -1 0 0
1922 1 74.786796881915 15.499975273406008 1.1714585946550002 -1 0 0
1930 1 78.622023428872 15.499975273406008 1.1714585946550002 -1 0 0
1938 1 82.457249975829 15.499975273406008 1.1714585946550002 -1 0 0
1946 1 86.29247652278599 15.499975273406008 1.1714585946550002 -1 0 0
1954 1 90.127703069743 15.499975273406008 1.1714585946550002 -1 0 0
1962 1 93.9629296167 15.499975273406008 1.1714585946550002 -1 0 0
1970 1 97.798156163657 15.499975273406008 1.1714585946550002 -1 0 0
2185 1 3.8351057684769927 18.821405773893005 1.1714585946550002 0 0 0
2187 3 1.917671757225996 17.714149638425 0 0 0 0
2193 1 7.6703323154339955 18.821405773893005 1.1714585946550002 0 0 0
2195 3 5.752898304182999 17.714149638425 0 0 0 0
2201 1 11.505558862390998 18.821405773893005 1.1714585946550002 0 0 0
2203 3 9.588124851139995 17.714149638425 0 0 0 0
2209 1 15.340785409348001 18.821405773893005 1.1714585946550002 0 0 0
2211 3 13.423351398096997 17.714149638425 0 0 0 0
2217 1 19.17601195630499 18.821405773893005 1.1714585946550002 0 0 0
2219 3 17.258577945054 17.714149638425 0 0 0 0
2225 1 23.011238503261993 18.821405773893005 1.1714585946550002 0 0 0
2227 3 21.09380449201099 17.714149638425 0 0 0 0
2233 1 26.846465050218995 18.821405773893005 1.1714585946550002 0 0 0
2235 3 24.92903103896799 17.714149638425 0 0 0 0
2241 1 30.681691597176 18.821405773893005 1.1714585946550002 0 0 0
2243 3 28.764257585924994 17.714149638425 0 0 0 0
2249 1 34.516918144133 18.821405773893005 1.1714585946550002 0 0 0
2251 3 32.599484132882 17.714149638425 0 0 0 0
2257 1 38.35214469108999 18.821405773893005 1.1714585946550002 0 0 0
2259 3 36.434710679839 17.714149638425 0 0 0 0
2265 1 42.18737123804699 18.821405773893005 1.1714585946550002 0 0 0
2267 3 40.26993722679599 17.714149638425 0 0 0 0
2273 1 46.022597785003995 18.821405773893005 1.1714585946550002 0 0 0
2275 3 44.10516377375299 17.714149638425 0 0 0 0
2281 1 49.857824331961 18.821405773893005 1.1714585946550002 0 0 0
2283 3 47.940390320709994 17.714149638425 0 0 0 0
2081 1 53.693050878918 18.821405773893005 1.1714585946550002 -1 0 0
2083 3 51.775616867667 17.714149638425 0 -1 0 0
2089 1 57.528277425875 18.821405773893005 1.1714585946550002 -1 0 0
2091 3 55.610843414624 17.714149638425 0 -1 0 0
2097 1 61.363503972832 18.821405773893005 1.1714585946550002 -1 0 0
2099 3 59.446069961580996 17.714149638425 0 -1 0 0
2105 1 65.198730519789 18.821405773893005 1.1714585946550002 -1 0 0
2107 3 63.281296508538 17.714149638425 0 -1 0 0
2113 1 69.033957066746 18.821405773893005 1.1714585946550002 -1 0 0
2115 3 67.116523055495 17.714149638425 0 -1 0 0
2121 1 72.869183613703 18.821405773893005 1.1714585946550002 -1 0 0
2123 3 70.951749602452 17.714149638425 0 -1 0 0
2129 1 76.70441016065999 18.821405773893005 1.1714585946550002 -1 0 0
2131 3 74.786976149409 17.714149638425 0 -1 0 0
2137 1 80.539636707617 18.821405773893005 1.1714585946550002 -1 0 0
2139 3 78.622202696366 17.714149638425 0 -1 0 0
2145 1 84.374863254574 18.821405773893005 1.1714585946550002 -1 0 0
2147 3 82.45742924332299 17.714149638425 0 -1 0 0
2153 1 88.210089801531 18.821405773893005 1.1714585946550002 -1 0 0
2155 3 86.29265579028001 17.714149638425 0 -1 0 0
2161 1 92.045316348488 18.821405773893005 1.1714585946550002 -1 0 0
2163 3 90.127882337237 17.714149638425 0 -1 0 0
2169 1 95.88054289544499 18.821405773893005 1.1714585946550002 -1 0 0
2171 3 93.963108884194 17.714149638425 0 -1 0 0
2177 1 99.715769442402 18.821405773893005 1.1714585946550002 -1 0 0
2179 3 97.798335431151 17.714149638425 0 -1 0 0
2188 3 5.847848099449493e-05 21.03558013891201 0 0 0 0
2196 3 3.8352850254379973 21.03558013891201 0 0 0 0
2204 3 7.670511572394993 21.03558013891201 0 0 0 0
2212 3 11.505738119351996 21.03558013891201 0 0 0 0
2220 3 15.340964666308992 21.03558013891201 0 0 0 0
2228 3 19.176191213265994 21.03558013891201 0 0 0 0
2236 3 23.011417760222997 21.03558013891201 0 0 0 0
2244 3 26.84664430718 21.03558013891201 0 0 0 0
2252 3 30.68187085413699 21.03558013891201 0 0 0 0
2260 3 34.51709740109399 21.03558013891201 0 0 0 0
2268 3 38.352323948050994 21.03558013891201 0 0 0 0
2276 3 42.187550495008 21.03558013891201 0 0 0 0
2284 3 46.022777041965 21.03558013891201 0 0 0 0
2084 3 49.858003588921996 21.03558013891201 0 -1 0 0
2092 3 53.693230135879 21.03558013891201 0 -1 0 0
2100 3 57.528456682835994 21.03558013891201 0 -1 0 0
2108 3 61.363683229793 21.03558013891201 0 -1 0 0
2116 3 65.19890977675 21.03558013891201 0 -1 0 0
2124 3 69.034136323707 21.03558013891201 0 -1 0 0
2132 3 72.86936287066399 21.03558013891201 0 -1 0 0
2140 3 76.704589417621 21.03558013891201 0 -1 0 0
2148 3 80.539815964578 21.03558013891201 0 -1 0 0
2156 3 84.375042511535 21.03558013891201 0 -1 0 0
2164 3 88.210269058492 21.03558013891201 0 -1 0 0
2172 3 92.04549560544899 21.03558013891201 0 -1 0 0
2180 3 95.88072215240601 21.03558013891201 0 -1 0 0
2186 1 1.9174924897319983 22.142836274380002 1.1714585946550002 0 0 0
2194 1 5.752719036688994 22.142836274380002 1.1714585946550002 0 0 0
2202 1 9.587945583645997 22.142836274380002 1.1714585946550002 0 0 0
2210 1 13.423172130602993 22.142836274380002 1.1714585946550002 0 0 0
2218 1 17.258398677559995 22.142836274380002 1.1714585946550002 0 0 0
2226 1 21.093625224516998 22.142836274380002 1.1714585946550002 0 0 0
2234 1 24.928851771474 22.142836274380002 1.1714585946550002 0 0 0
2242 1 28.76407831843099 22.142836274380002 1.1714585946550002 0 0 0
2250 1 32.59930486538799 22.142836274380002 1.1714585946550002 0 0 0
2258 1 36.434531412344995 22.142836274380002 1.1714585946550002 0 0 0
2266 1 40.269757959302 22.142836274380002 1.1714585946550002 0 0 0
2274 1 44.104984506259 22.142836274380002 1.1714585946550002 0 0 0
2282 1 47.94021105321599 22.142836274380002 1.1714585946550002 0 0 0
2082 1 51.775437600173 22.142836274380002 1.1714585946550002 -1 0 0
2090 1 55.610664147129995 22.142836274380002 1.1714585946550002 -1 0 0
2098 1 59.445890694087 22.142836274380002 1.1714585946550002 -1 0 0
2106 1 63.281117241044 22.142836274380002 1.1714585946550002 -1 0 0
2114 1 67.11634378800099 22.142836274380002 1.1714585946550002 -1 0 0
2122 1 70.951570334958 22.142836274380002 1.1714585946550002 -1 0 0
2130 1 74.786796881915 22.142836274380002 1.1714585946550002 -1 0 0
2138 1 78.622023428872 22.142836274380002 1.1714585946550002 -1 0 0
2146 1 82.457249975829 22.142836274380002 1.1714585946550002 -1 0 0
2154 1 86.29247652278599 22.142836274380002 1.1714585946550002 -1 0 0
2162 1 90.127703069743 22.142836274380002 1.1714585946550002 -1 0 0
2170 1 93.9629296167 22.142836274380002 1.1714585946550002 -1 0 0
2178 1 97.798156163657 22.142836274380002 1.1714585946550002 -1 0 0
2395 3 1.917671757225996 24.357010639399007 0 0 0 0
2403 3 5.752898304182999 24.357010639399007 0 0 0 0
2411 3 9.588124851139995 24.357010639399007 0 0 0 0
2419 3 13.423351398096997 24.357010639399007 0 0 0 0
2427 3 17.258577945054 24.357010639399007 0 0 0 0
2435 3 21.09380449201099 24.357010639399007 0 0 0 0
2443 3 24.92903103896799 24.357010639399007 0 0 0 0
2451 3 28.764257585924994 24.357010639399007 0 0 0 0
2459 3 32.599484132882 24.357010639399007 0 0 0 0
2467 3 36.434710679839 24.357010639399007 0 0 0 0
2475 3 40.26993722679599 24.357010639399007 0 0 0 0
2483 3 44.10516377375299 24.357010639399007 0 0 0 0
2491 3 47.940390320709994 24.357010639399007 0 0 0 0
2291 3 51.775616867667 24.357010639399007 0 -1 0 0
2299 3 55.610843414624 24.357010639399007 0 -1 0 0
2307 3 59.446069961580996 24.357010639399007 0 -1 0 0
2315 3 63.281296508538 24.357010639399007 0 -1 0 0
2323 3 67.116523055495 24.357010639399007 0 -1 0 0
2331 3 70.951749602452 24.357010639399007 0 -1 0 0
2339 3 74.786976149409 24.357010639399007 0 -1 0 0
2347 3 78.622202696366 24.357010639399007 0 -1 0 0
2355 3 82.45742924332299 24.357010639399007 0 -1 0 0
2363 3 86.29265579028001 24.357010639399007 0 -1 0 0
2371 3 90.127882337237 24.357010639399007 0 -1 0 0
2379 3 93.963108884194 24.357010639399007 0 -1 0 0
2387 3 97.798335431151 24.357010639399007 0 -1 0 0
2393 1 3.8351057684769927 25.464266774867 1.1714585946550002 0 0 0
2401 1 7.6703323154339955 25.464266774867 1.1714585946550002 0 0 0
2409 1 11.505558862390998 25.464266774867 1.1714585946550002 0 0 0
2417 1 15.340785409348001 25.464266774867 1.1714585946550002 0 0 0
2425 1 19.17601195630499 25.464266774867 1.1714585946550002 0 0 0
2433 1 23.011238503261993 25.464266774867 1.1714585946550002 0 0 0
2441 1 26.846465050218995 25.464266774867 1.1714585946550002 0 0 0
2449 1 30.681691597176 25.464266774867 1.1714585946550002 0 0 0
2457 1 34.516918144133 25.464266774867 1.1714585946550002 0 0 0
2465 1 38.35214469108999 25.464266774867 1.1714585946550002 0 0 0
2473 1 42.18737123804699 25.464266774867 1.1714585946550002 0 0 0
2481 1 46.022597785003995 25.464266774867 1.1714585946550002 0 0 0
2489 1 49.857824331961 25.464266774867 1.1714585946550002 0 0 0
2289 1 53.693050878918 25.464266774867 1.1714585946550002 -1 0 0
2297 1 57.528277425875 25.464266774867 1.1714585946550002 -1 0 0
2305 1 61.363503972832 25.464266774867 1.1714585946550002 -1 0 0
2313 1 65.198730519789 25.464266774867 1.1714585946550002 -1 0 0
2321 1 69.033957066746 25.464266774867 1.1714585946550002 -1 0 0
2329 1 72.869183613703 25.464266774867 1.1714585946550002 -1 0 0
2337 1 76.70441016065999 25.464266774867 1.1714585946550002 -1 0 0
2345 1 80.539636707617 25.464266774867 1.1714585946550002 -1 0 0
2353 1 84.374863254574 25.464266774867 1.1714585946550002 -1 0 0
2361 1 88.210089801531 25.464266774867 1.1714585946550002 -1 0 0
2369 1 92.045316348488 25.464266774867 1.1714585946550002 -1 0 0
2377 1 95.88054289544499 25.464266774867 1.1714585946550002 -1 0 0
2385 1 99.715769442402 25.464266774867 1.1714585946550002 -1 0 0
2396 3 5.847848099449493e-05 27.678441139886004 0 0 0 0
2404 3 3.8352850254379973 27.678441139886004 0 0 0 0
2412 3 7.670511572394993 27.678441139886004 0 0 0 0
2420 3 11.505738119351996 27.678441139886004 0 0 0 0
2428 3 15.340964666308992 27.678441139886004 0 0 0 0
2436 3 19.176191213265994 27.678441139886004 0 0 0 0
2444 3 23.011417760222997 27.678441139886004 0 0 0 0
2452 3 26.84664430718 27.678441139886004 0 0 0 0
2460 3 30.68187085413699 27.678441139886004 0 0 0 0
2468 3 34.51709740109399 27.678441139886004 0 0 0 0
2476 3 38.352323948050994 27.678441139886004 0 0 0 0
2484 3 42.187550495008 27.678441139886004 0 0 0 0
2492 3 46.022777041965 27.678441139886004 0 0 0 0
2292 3 49.858003588921996 27.678441139886004 0 -1 0 0
2300 3 53.693230135879 27.678441139886004 0 -1 0 0
2308 3 57.528456682835994 27.678441139886004 0 -1 0 0
2316 3 61.363683229793 27.678441139886004 0 -1 0 0
2324 3 65.19890977675 27.678441139886004 0 -1 0 0
2332 3 69.034136323707 27.678441139886004 0 -1 0 0
2340 3 72.86936287066399 27.678441139886004 0 -1 0 0
2348 3 76.704589417621 27.678441139886004 0 -1 0 0
2356 3 80.539815964578 27.678441139886004 0 -1 0 0
2364 3 84.375042511535 27.678441139886004 0 -1 0 0
2372 3 88.210269058492 27.678441139886004 0 -1 0 0
2380 3 92.04549560544899 27.678441139886004 0 -1 0 0
2388 3 95.88072215240601 27.678441139886004 0 -1 0 0
2394 1 1.9174924897319983 28.785697275353996 1.1714585946550002 0 0 0
2402 1 5.752719036688994 28.785697275353996 1.1714585946550002 0 0 0
2410 1 9.587945583645997 28.785697275353996 1.1714585946550002 0 0 0
2418 1 13.423172130602993 28.785697275353996 1.1714585946550002 0 0 0
2426 1 17.258398677559995 28.785697275353996 1.1714585946550002 0 0 0
2434 1 21.093625224516998 28.785697275353996 1.1714585946550002 0 0 0
2442 1 24.928851771474 28.785697275353996 1.1714585946550002 0 0 0
2450 1 28.76407831843099 28.785697275353996 1.1714585946550002 0 0 0
2458 1 32.59930486538799 28.785697275353996 1.1714585946550002 0 0 0
2466 1 36.434531412344995 28.785697275353996 1.1714585946550002 0 0 0
2474 1 40.269757959302 28.785697275353996 1.1714585946550002 0 0 0
2482 1 44.104984506259 28.785697275353996 1.1714585946550002 0 0 0
2490 1 47.94021105321599 28.785697275353996 1.1714585946550002 0 0 0
2290 1 51.775437600173 28.785697275353996 1.1714585946550002 -1 0 0
2298 1 55.610664147129995 28.785697275353996 1.1714585946550002 -1 0 0
2306 1 59.445890694087 28.785697275353996 1.1714585946550002 -1 0 0
2314 1 63.281117241044 28.785697275353996 1.1714585946550002 -1 0 0
2322 1 67.11634378800099 28.785697275353996 1.1714585946550002 -1 0 0
2330 1 70.951570334958 28.785697275353996 1.1714585946550002 -1 0 0
2338 1 74.786796881915 28.785697275353996 1.1714585946550002 -1 0 0
2346 1 78.622023428872 28.785697275353996 1.1714585946550002 -1 0 0
2354 1 82.457249975829 28.785697275353996 1.1714585946550002 -1 0 0
2362 1 86.29247652278599 28.785697275353996 1.1714585946550002 -1 0 0
2370 1 90.127703069743 28.785697275353996 1.1714585946550002 -1 0 0
2378 1 93.9629296167 28.785697275353996 1.1714585946550002 -1 0 0
2386 1 97.798156163657 28.785697275353996 1.1714585946550002 -1 0 0
2601 1 3.8351057684769927 32.10712777584101 1.1714585946550002 0 0 0
2603 3 1.917671757225996 30.999871640373 0 0 0 0
2609 1 7.6703323154339955 32.10712777584101 1.1714585946550002 0 0 0
2611 3 5.752898304182999 30.999871640373 0 0 0 0
2617 1 11.505558862390998 32.10712777584101 1.1714585946550002 0 0 0
2619 3 9.588124851139995 30.999871640373 0 0 0 0
2625 1 15.340785409348001 32.10712777584101 1.1714585946550002 0 0 0
2627 3 13.423351398096997 30.999871640373 0 0 0 0
2633 1 19.17601195630499 32.10712777584101 1.1714585946550002 0 0 0
2635 3 17.258577945054 30.999871640373 0 0 0 0
2641 1 23.011238503261993 32.10712777584101 1.1714585946550002 0 0 0
2643 3 21.09380449201099 30.999871640373 0 0 0 0
2649 1 26.846465050218995 32.10712777584101 1.1714585946550002 0 0 0
2651 3 24.92903103896799 30.999871640373 0 0 0 0
2657 1 30.681691597176 32.10712777584101 1.1714585946550002 0 0 0
2659 3 28.764257585924994 30.999871640373 0 0 0 0
2665 1 34.516918144133 32.10712777584101 1.1714585946550002 0 0 0
2667 3 32.599484132882 30.999871640373 0 0 0 0
2673 1 38.35214469108999 32.10712777584101 1.1714585946550002 0 0 0
2675 3 36.434710679839 30.999871640373 0 0 0 0
2681 1 42.18737123804699 32.10712777584101 1.1714585946550002 0 0 0
2683 3 40.26993722679599 30.999871640373 0 0 0 0
2689 1 46.022597785003995 32.10712777584101 1.1714585946550002 0 0 0
2691 3 44.10516377375299 30.999871640373 0 0 0 0
2697 1 49.857824331961 32.10712777584101 1.1714585946550002 0 0 0
2699 3 47.940390320709994 30.999871640373 0 0 0 0
2497 1 53.693050878918 32.10712777584101 1.1714585946550002 -1 0 0
2499 3 51.775616867667 30.999871640373 0 -1 0 0
2505 1 57.528277425875 32.10712777584101 1.1714585946550002 -1 0 0
2507 3 55.610843414624 30.999871640373 0 -1 0 0
2513 1 61.363503972832 32.10712777584101 1.1714585946550002 -1 0 0