LAMMPS data file via write_data, version 29 Aug 2024, timestep = 7, units = metal

9360 atoms
12 atom types

0 99.715890220882 xlo xhi
0 99.64291501461 ylo yhi
-50 50 zlo zhi

Masses

1 69.723
2 69.723
3 69.723
4 69.723
5 69.723
6 69.723
7 78.971
8 78.971
9 78.971
10 78.971
11 78.971
12 78.971

Atoms # atomic

1572 7 3.835108913812814 1.0815662793017347 -0.10929964860134547 0 0 0
1562 1 1.9175596380956608 2.1866824887080876 1.0572192062349415 0 0 0
1570 1 5.752786185052625 2.186682488708074 1.0572192062349512 0 0 0
1769 1 3.835172910863766 5.508112989197066 1.057219206244245 0 0 0
1771 7 1.9174956360986124 4.40299677978207 -0.10929964860372068 0 0 0
1779 7 5.752722183055597 4.4029967797820975 -0.1092996486037122 0 0 0
1580 7 7.670335460769837 1.0815662793016916 -0.1092996486013425 0 0 0
1588 7 11.50556200772681 1.081566279301737 -0.10929964860133078 0 0 0
1578 1 9.58801273200966 2.1866824887080596 1.0572192062349328 0 0 0
1777 1 7.6703994578207375 5.508112989197089 1.0572192062442538 0 0 0
1785 1 11.50562600477774 5.508112989197074 1.0572192062442345 0 0 0
1787 7 9.587948730012622 4.4029967797821 -0.10929964860372189 0 0 0
1596 7 15.340788554683849 1.0815662793017613 -0.10929964860134868 0 0 0
1586 1 13.423239278966633 2.1866824887080707 1.057219206234942 0 0 0
1594 1 17.258465825923615 2.186682488708062 1.0572192062349435 0 0 0
1793 1 15.340852551734741 5.508112989197065 1.0572192062442467 0 0 0
1795 7 13.423175276969612 4.4029967797820975 -0.10929964860371409 0 0 0
1803 7 17.258401823926608 4.40299677978208 -0.10929964860371669 0 0 0
1604 7 19.176015101640832 1.0815662793017524 -0.10929964860136615 0 0 0
1612 7 23.011241648597856 1.0815662793017162 -0.10929964860131763 0 0 0
1602 1 21.09369237288064 2.186682488708072 1.057219206234938 0 0 0
1801 1 19.17607909869176 5.50811298919708 1.0572192062442423 0 0 0
1809 1 23.011305645648743 5.508112989197082 1.0572192062442645 0 0 0
1811 7 21.09362837088359 4.402996779782087 -0.10929964860371491 0 0 0
1620 7 26.84646819555481 1.0815662793017442 -0.10929964860135157 0 0 0
1610 1 24.928918919837617 2.186682488708036 1.0572192062349306 0 0 0
1618 1 28.764145466794666 2.1866824887080734 1.0572192062349317 0 0 0
1817 1 26.846532192605707 5.508112989197078 1.0572192062442407 0 0 0
1819 7 24.928854917840642 4.402996779782114 -0.10929964860371577 0 0 0
1827 7 28.76408146479763 4.402996779782081 -0.10929964860372597 0 0 0
1628 7 30.681694742511787 1.08156627930174 -0.10929964860135355 0 0 0
1636 7 34.516921289468826 1.081566279301719 -0.10929964860131666 0 0 0
1626 1 32.59937201375167 2.1866824887080645 1.0572192062349532 0 0 0
1825 1 30.68175873956275 5.508112989197058 1.0572192062442405 0 0 0
1833 1 34.516985286519684 5.508112989197098 1.0572192062442625 0 0 0
1835 7 32.59930801175461 4.402996779782101 -0.10929964860370961 0 0 0
1644 7 38.352147836425814 1.0815662793017062 -0.10929964860134443 0 0 0
1634 1 36.43459856070863 2.186682488708068 1.0572192062349206 0 0 0
1642 1 40.269825107665675 2.1866824887080587 1.0572192062349408 0 0 0
1841 1 38.35221183347671 5.50811298919706 1.0572192062442232 0 0 0
1843 7 36.43453455871169 4.402996779782078 -0.10929964860371817 0 0 0
1851 7 40.269761105668586 4.4029967797820895 -0.10929964860372773 0 0 0
1652 7 42.18737438338278 1.081566279301713 -0.10929964860134422 0 0 0
1660 7 46.02260093033981 1.0815662793017728 -0.10929964860130012 0 0 0
1650 1 44.10505165462272 2.186682488708041 1.0572192062349433 0 0 0
1849 1 42.18743838043374 5.508112989197111 1.0572192062442864 0 0 0
1857 1 46.02266492739069 5.508112989197069 1.057219206244224 0 0 0
1859 7 44.10498765262567 4.402996779782109 -0.1092996486037261 0 0 0
1460 7 49.85782747729687 1.081566279301672 -0.10929964860130034 -1 0 0
1658 1 47.940278201579595 2.1866824887080574 1.0572192062349155 0 0 0
1458 1 51.77550474853661 2.186682488708061 1.0572192062349408 -1 0 0
1865 1 49.85789147434773 5.508112989197054 1.057219206244237 0 0 0
1867 7 47.94021419958265 4.402996779782103 -0.10929964860371379 0 0 0
1667 7 51.775440746539566 4.402996779782072 -0.10929964860374465 -1 0 0
1468 7 53.69305402425383 1.0815662793017509 -0.10929964860136006 -1 0 0
1476 7 57.52828057121085 1.081566279301743 -0.10929964860135191 -1 0 0
1466 1 55.610731295493636 2.1866824887080902 1.0572192062349328 -1 0 0
1665 1 53.69311802130481 5.5081129891970955 1.0572192062442711 -1 0 0
1673 1 57.52834456826173 5.508112989197046 1.0572192062442292 -1 0 0
1675 7 55.61066729349661 4.4029967797820735 -0.10929964860368212 -1 0 0
1484 7 61.36350711816783 1.0815662793017229 -0.10929964860134014 -1 0 0
1474 1 59.445957842450646 2.186682488708063 1.0572192062349406 -1 0 0
1482 1 63.28118438940764 2.1866824887080667 1.0572192062349377 -1 0 0
1681 1 61.36357111521875 5.508112989197068 1.0572192062442594 -1 0 0
1683 7 59.445893840453614 4.4029967797820975 -0.10929964860371816 -1 0 0
1691 7 63.28112038741056 4.402996779782064 -0.10929964860374382 -1 0 0
1492 7 65.1987336651248 1.0815662793017409 -0.10929964860134726 -1 0 0
1500 7 69.03396021208181 1.0815662793017289 -0.10929964860135027 -1 0 0
1490 1 67.11641093636466 2.1866824887080716 1.0572192062349195 -1 0 0
1689 1 65.19879766217583 5.5081129891970875 1.057219206244253 -1 0 0
1697 1 69.03402420913274 5.508112989197094 1.0572192062442713 -1 0 0
1699 7 67.11634693436756 4.402996779782104 -0.10929964860369967 -1 0 0
1508 7 72.86918675903888 1.081566279301755 -0.10929964860130985 -1 0 0
1498 1 70.95163748332166 2.186682488708094 1.0572192062349395 -1 0 0
1506 1 74.78686403027855 2.1866824887080614 1.0572192062349757 -1 0 0
1705 1 72.86925075608976 5.508112989197051 1.057219206244216 -1 0 0
1707 7 70.95157348132464 4.402996779782075 -0.10929964860370929 -1 0 0
1715 7 74.78680002828156 4.402996779782093 -0.1092996486037308 -1 0 0
1516 7 76.70441330599587 1.0815662793017298 -0.10929964860139686 -1 0 0
1524 7 80.53963985295282 1.0815662793017278 -0.10929964860136249 -1 0 0
1514 1 78.62209057723565 2.1866824887080583 1.0572192062349628 -1 0 0
1713 1 76.70447730304681 5.508112989197085 1.0572192062442465 -1 0 0
1721 1 80.53970385000376 5.508112989197069 1.057219206244244 -1 0 0
1723 7 78.6220265752386 4.4029967797821055 -0.10929964860371157 -1 0 0
1532 7 84.37486639990982 1.0815662793017438 -0.10929964860132114 -1 0 0
1522 1 82.45731712419267 2.1866824887080583 1.0572192062349386 -1 0 0
1530 1 86.29254367114964 2.1866824887080267 1.0572192062349186 -1 0 0
1729 1 84.37493039696083 5.508112989197103 1.057219206244272 -1 0 0
1731 7 82.45725312219554 4.4029967797820735 -0.1092996486037445 -1 0 0
1739 7 86.29247966915258 4.4029967797821055 -0.10929964860371454 -1 0 0
1540 7 88.21009294686684 1.0815662793017737 -0.1092996486013311 -1 0 0
1548 7 92.04531949382388 1.0815662793016991 -0.10929964860135748 -1 0 0
1538 1 90.12777021810659 2.186682488708063 1.0572192062349524 -1 0 0
1737 1 88.21015694391777 5.508112989197094 1.0572192062442367 -1 0 0
1745 1 92.04538349087474 5.508112989197077 1.0572192062442112 -1 0 0
1747 7 90.12770621610964 4.402996779782103 -0.1092996486037063 -1 0 0
1564 7 99.71577258773785 1.081566279301701 -0.10929964860137645 -1 0 0
1556 7 95.88054604078079 1.0815662793017418 -0.10929964860134996 -1 0 0
1546 1 93.96299676506365 2.1866824887080645 1.0572192062349317 -1 0 0
1554 1 97.79822331202062 2.1866824887081044 1.0572192062349615 -1 0 0
1753 1 95.88061003783177 5.508112989197075 1.0572192062442665 -1 0 0
1755 7 93.96293276306658 4.40299677978208 -0.10929964860372178 -1 0 0
1761 1 99.71583658478869 5.508112989197046 1.0572192062442385 -1 0 0
1763 7 97.79815931002366 4.402996779782092 -0.10929964860369099 -1 0 0
1770 1 1.9175596380956554 8.829543489682079 1.0572192062349512 0 0 0
1778 1 5.752786185052634 8.829543489682097 1.05721920623495 0 0 0
1780 7 3.835108913812818 7.724427280275789 -0.10929964860137499 0 0 0
1979 7 1.9174956360986246 11.045857780756066 -0.10929964860373538 0 0 0
1987 7 5.752722183055604 11.045857780756064 -0.10929964860371504 0 0 0
1786 1 9.588012732009663 8.829543489682075 1.0572192062349497 0 0 0
1788 7 7.6703354607698255 7.724427280275761 -0.10929964860138539 0 0 0
1796 7 11.505562007726805 7.7244272802757745 -0.1092996486013686 0 0 0
1995 7 9.587948730012611 11.045857780756078 -0.10929964860372161 0 0 0
1794 1 13.423239278966646 8.829543489682088 1.0572192062349508 0 0 0
1802 1 17.258465825923622 8.829543489682077 1.0572192062349366 0 0 0
1804 7 15.340788554683842 7.724427280275792 -0.10929964860137029 0 0 0
2003 7 13.423175276969612 11.045857780756075 -0.1092996486037138 0 0 0
2011 7 17.258401823926615 11.045857780756066 -0.10929964860371567 0 0 0
1810 1 21.093692372880632 8.829543489682084 1.057219206234949 0 0 0
1812 7 19.17601510164083 7.724427280275773 -0.10929964860137377 0 0 0
1820 7 23.011241648597856 7.72442728027578 -0.10929964860137235 0 0 0
2019 7 21.093628370883597 11.045857780756082 -0.10929964860370323 0 0 0
1818 1 24.928918919837624 8.829543489682067 1.0572192062349328 0 0 0
1826 1 28.764145466794666 8.829543489682088 1.0572192062349457 0 0 0
1828 7 26.84646819555481 7.7244272802757665 -0.10929964860137649 0 0 0
2027 7 24.92885491784063 11.045857780756082 -0.10929964860370857 0 0 0
2035 7 28.764081464797624 11.045857780756071 -0.10929964860371875 0 0 0
1834 1 32.599372013751655 8.829543489682077 1.0572192062349495 0 0 0
1836 7 30.681694742511816 7.72442728027579 -0.10929964860136934 0 0 0
1844 7 34.516921289468826 7.724427280275791 -0.1092996486013573 0 0 0
2043 7 32.59930801175466 11.045857780756073 -0.10929964860371327 0 0 0
1842 1 36.43459856070862 8.829543489682063 1.0572192062349448 0 0 0
1850 1 40.26982510766564 8.829543489682072 1.0572192062349393 0 0 0
1852 7 38.35214783642585 7.724427280275782 -0.10929964860137653 0 0 0
2051 7 36.434534558711654 11.045857780756084 -0.10929964860372515 0 0 0
2059 7 40.26976110566855 11.04585778075607 -0.10929964860372074 0 0 0
1858 1 44.10505165462271 8.829543489682067 1.0572192062349486 0 0 0
1860 7 42.1873743833828 7.724427280275759 -0.10929964860139191 0 0 0
1868 7 46.02260093033981 7.724427280275798 -0.10929964860133604 0 0 0
2067 7 44.10498765262561 11.045857780756062 -0.10929964860374283 0 0 0
1866 1 47.94027820157958 8.829543489682091 1.0572192062349517 0 0 0
1666 1 51.775504748536605 8.829543489682067 1.0572192062349441 -1 0 0
1668 7 49.8578274772969 7.724427280275776 -0.10929964860138185 -1 0 0
2075 7 47.94021419958259 11.045857780756108 -0.10929964860368074 0 0 0
1875 7 51.77544074653957 11.045857780756052 -0.10929964860375209 -1 0 0
1674 1 55.61073129549362 8.829543489682088 1.0572192062349302 -1 0 0
1676 7 53.69305402425383 7.724427280275777 -0.10929964860137223 -1 0 0
1684 7 57.52828057121086 7.724427280275801 -0.10929964860137575 -1 0 0
1883 7 55.6106672934966 11.045857780756078 -0.10929964860369798 -1 0 0
1682 1 59.445957842450625 8.829543489682072 1.057219206234944 -1 0 0
1690 1 63.281184389407606 8.82954348968207 1.0572192062349495 -1 0 0
1692 7 61.36350711816785 7.7244272802757985 -0.10929964860136948 -1 0 0
1891 7 59.445893840453614 11.045857780756078 -0.10929964860371844 -1 0 0
1899 7 63.28112038741057 11.045857780756062 -0.10929964860374031 -1 0 0
1698 1 67.1164109363646 8.829543489682074 1.057219206234945 -1 0 0
1700 7 65.19873366512486 7.72442728027578 -0.10929964860137022 -1 0 0
1708 7 69.03396021208185 7.72442728027576 -0.10929964860139266 -1 0 0
1907 7 67.11634693436757 11.045857780756089 -0.1092996486037063 -1 0 0
1706 1 70.95163748332163 8.829543489682086 1.0572192062349763 -1 0 0
1714 1 74.78686403027868 8.829543489682093 1.0572192062349455 -1 0 0
1716 7 72.86918675903884 7.724427280275768 -0.10929964860138515 -1 0 0
1915 7 70.95157348132466 11.045857780756087 -0.10929964860371744 -1 0 0
1923 7 74.78680002828159 11.045857780756066 -0.10929964860371635 -1 0 0
1722 1 78.62209057723567 8.82954348968206 1.0572192062349406 -1 0 0
1724 7 76.7044133059958 7.724427280275779 -0.10929964860136067 -1 0 0
1732 7 80.53963985295283 7.724427280275795 -0.10929964860137592 -1 0 0
1931 7 78.62202657523865 11.045857780756096 -0.10929964860371259 -1 0 0
1730 1 82.45731712419267 8.829543489682074 1.0572192062349526 -1 0 0
1738 1 86.29254367114964 8.829543489682058 1.0572192062349253 -1 0 0
1740 7 84.37486639990982 7.72442728027579 -0.10929964860136065 -1 0 0
1939 7 82.45725312219555 11.045857780756048 -0.10929964860374085 -1 0 0
1947 7 86.29247966915258 11.045857780756096 -0.10929964860371597 -1 0 0
1746 1 90.12777021810653 8.829543489682088 1.0572192062349748 -1 0 0
1748 7 88.21009294686687 7.724427280275776 -0.10929964860135051 -1 0 0
1756 7 92.04531949382394 7.724427280275756 -0.1092996486013745 -1 0 0
1955 7 90.12770621610963 11.045857780756082 -0.10929964860372127 -1 0 0
1772 7 99.71577258773783 7.724427280275778 -0.10929964860140183 -1 0 0
1754 1 93.96299676506362 8.829543489682035 1.0572192062348926 -1 0 0
1762 1 97.79822331202067 8.829543489682118 1.0572192062349786 -1 0 0
1764 7 95.88054604078079 7.724427280275789 -0.10929964860138687 -1 0 0
1963 7 93.96293276306655 11.045857780756082 -0.10929964860371791 -1 0 0
1971 7 97.79815931002365 11.045857780756085 -0.109299648603689 -1 0 0
1977 1 3.835172910863757 12.150973990171089 1.0572192062442463 0 0 0
1988 7 3.8351089138128174 14.367288281249786 -0.10929964860136453 0 0 0
1978 1 1.9175596380956623 15.472404490656068 1.057219206234949 0 0 0
1986 1 5.752786185052637 15.472404490656055 1.0572192062349524 0 0 0
1985 1 7.670399457820745 12.150973990171089 1.0572192062442574 0 0 0
1993 1 11.50562600477774 12.150973990171092 1.0572192062442383 0 0 0
1996 7 7.670335460769824 14.367288281249778 -0.10929964860138305 0 0 0
2004 7 11.505562007726837 14.367288281249774 -0.10929964860136927 0 0 0
1994 1 9.588012732009643 15.472404490656082 1.057219206234953 0 0 0
2001 1 15.340852551734734 12.150973990171094 1.0572192062442403 0 0 0
2012 7 15.340788554683837 14.367288281249774 -0.10929964860136897 0 0 0
2002 1 13.423239278966628 15.47240449065606 1.0572192062349495 0 0 0
2010 1 17.258465825923633 15.47240449065607 1.0572192062349497 0 0 0
2009 1 19.176079098691762 12.150973990171103 1.0572192062442245 0 0 0
2017 1 23.011305645648736 12.150973990171078 1.0572192062442525 0 0 0
2020 7 19.176015101640825 14.367288281249753 -0.10929964860137163 0 0 0
2028 7 23.011241648597853 14.36728828124979 -0.1092996486013732 0 0 0
2018 1 21.093692372880632 15.472404490656078 1.0572192062349566 0 0 0
2025 1 26.846532192605725 12.150973990171087 1.05721920624423 0 0 0
2036 7 26.84646819555481 14.367288281249769 -0.10929964860137423 0 0 0
2026 1 24.928918919837628 15.472404490656062 1.057219206234933 0 0 0
2034 1 28.764145466794663 15.472404490656068 1.057219206234962 0 0 0
2033 1 30.681758739562717 12.150973990171094 1.0572192062442607 0 0 0
2041 1 34.516985286519684 12.15097399017108 1.057219206244229 0 0 0
2044 7 30.681694742511805 14.367288281249776 -0.10929964860137827 0 0 0
2052 7 34.516921289468854 14.367288281249808 -0.1092996486013492 0 0 0
2042 1 32.59937201375165 15.472404490656073 1.0572192062349504 0 0 0
2049 1 38.35221183347676 12.150973990171059 1.057219206244224 0 0 0
2060 7 38.35214783642582 14.367288281249781 -0.10929964860137875 0 0 0
2050 1 36.434598560708615 15.472404490656032 1.057219206234936 0 0 0
2058 1 40.26982510766562 15.472404490656118 1.0572192062349643 0 0 0
2057 1 42.18743838043376 12.15097399017113 1.0572192062442825 0 0 0
2065 1 46.0226649273908 12.150973990171073 1.05721920624422 0 0 0
2068 7 42.18737438338291 14.367288281249774 -0.10929964860135805 0 0 0
2076 7 46.022600930339856 14.367288281249785 -0.10929964860136913 0 0 0
2066 1 44.10505165462258 15.472404490656047 1.0572192062349268 0 0 0
2073 1 49.857891474347724 12.150973990171076 1.0572192062442405 0 0 0
1876 7 49.85782747729687 14.36728828124978 -0.1092996486013755 -1 0 0
2074 1 47.9402782015796 15.472404490656068 1.0572192062349552 0 0 0
1874 1 51.77550474853661 15.472404490656036 1.057219206234962 -1 0 0
1873 1 53.69311802130482 12.150973990171108 1.057219206244257 -1 0 0
1881 1 57.52834456826174 12.150973990171062 1.0572192062442454 -1 0 0
1884 7 53.69305402425383 14.367288281249765 -0.1092996486013703 -1 0 0
1892 7 57.52828057121087 14.367288281249795 -0.10929964860137949 -1 0 0
1882 1 55.61073129549362 15.472404490656096 1.0572192062349397 -1 0 0
1889 1 61.363571115218754 12.150973990171083 1.0572192062442514 -1 0 0
1900 7 61.36350711816785 14.367288281249794 -0.1092996486013592 -1 0 0
1890 1 59.445957842450625 15.47240449065606 1.0572192062349284 -1 0 0
1898 1 63.28118438940761 15.47240449065605 1.0572192062349455 -1 0 0
1897 1 65.19879766217582 12.150973990171101 1.057219206244247 -1 0 0
1905 1 69.03402420913275 12.150973990171103 1.0572192062442836 -1 0 0
1908 7 65.19873366512485 14.367288281249778 -0.1092996486013656 -1 0 0
1916 7 69.03396021208185 14.36728828124976 -0.10929964860139631 -1 0 0
1906 1 67.1164109363646 15.472404490656057 1.0572192062349564 -1 0 0
1913 1 72.86925075608973 12.150973990171071 1.0572192062442043 -1 0 0
1924 7 72.86918675903887 14.36728828124977 -0.10929964860136814 -1 0 0
1914 1 70.95163748332163 15.472404490656084 1.0572192062349657 -1 0 0
1922 1 74.78686403027868 15.472404490656071 1.0572192062349508 -1 0 0
1921 1 76.70447730304677 12.150973990171076 1.05721920624425 -1 0 0
1929 1 80.53970385000373 12.15097399017108 1.0572192062442365 -1 0 0
1932 7 76.70441330599581 14.367288281249795 -0.10929964860136972 -1 0 0
1940 7 80.53963985295283 14.367288281249765 -0.1092996486013998 -1 0 0
1930 1 78.62209057723565 15.472404490656066 1.0572192062349537 -1 0 0
1937 1 84.37493039696083 12.150973990171108 1.0572192062442665 -1 0 0
1948 7 84.37486639990985 14.367288281249799 -0.10929964860135123 -1 0 0
1938 1 82.45731712419267 15.472404490656066 1.0572192062349643 -1 0 0
1946 1 86.29254367114966 15.472404490656022 1.0572192062349164 -1 0 0
1945 1 88.21015694391775 12.150973990171096 1.0572192062442445 -1 0 0
1953 1 92.04538349087477 12.150973990171096 1.0572192062442056 -1 0 0
1956 7 88.21009294686685 14.367288281249797 -0.10929964860133219 -1 0 0
1964 7 92.0453194938239 14.367288281249744 -0.10929964860137441 -1 0 0
1954 1 90.12777021810655 15.472404490656048 1.057219206234958 -1 0 0
1980 7 99.71577258773783 14.367288281249762 -0.10929964860139525 -1 0 0
1961 1 95.88061003783179 12.150973990171098 1.0572192062442518 -1 0 0
1969 1 99.71583658478868 12.15097399017107 1.0572192062442325 -1 0 0
1972 7 95.88054604078076 14.367288281249797 -0.10929964860135884 -1 0 0
1962 1 93.96299676506368 15.472404490656023 1.0572192062349135 -1 0 0
1970 1 97.79822331202065 15.47240449065609 1.0572192062349863 -1 0 0
2185 1 3.8351729108637707 18.793834991145093 1.0572192062442411 0 0 0
2187 7 1.9174956360985824 17.688718781730085 -0.10929964860371988 0 0 0
2195 7 5.752722183055612 17.688718781730095 -0.10929964860371622 0 0 0
2196 7 3.8351089138128094 21.010149282223765 -0.10929964860136912 0 0 0
2186 1 1.917559638095649 22.11526549163006 1.0572192062349535 0 0 0
2194 1 5.752786185052631 22.11526549163012 1.0572192062349575 0 0 0
2193 1 7.670399457820746 18.79383499114508 1.0572192062442336 0 0 0
2201 1 11.50562600477774 18.793834991145083 1.057219206244229 0 0 0
2203 7 9.587948730012611 17.688718781730085 -0.10929964860370309 0 0 0
2204 7 7.670335460769838 21.010149282223754 -0.10929964860139081 0 0 0
2212 7 11.505562007726812 21.010149282223757 -0.10929964860137388 0 0 0
2202 1 9.58801273200965 22.115265491630083 1.0572192062349588 0 0 0
2209 1 15.340852551734738 18.793834991145083 1.0572192062442332 0 0 0
2211 7 13.423175276969609 17.688718781730095 -0.10929964860370948 0 0 0
2219 7 17.258401823926626 17.688718781730092 -0.10929964860370572 0 0 0
2220 7 15.34078855468385 21.010149282223775 -0.10929964860135731 0 0 0
2210 1 13.42323927896665 22.115265491630097 1.0572192062349477 0 0 0
2218 1 17.25846582592361 22.115265491630062 1.0572192062349384 0 0 0
2217 1 19.176079098691734 18.793834991145058 1.0572192062442354 0 0 0
2225 1 23.0113056456487 18.793834991145086 1.0572192062442562 0 0 0
2227 7 21.093628370883625 17.688718781730092 -0.10929964860370375 0 0 0
2228 7 19.176015101640832 21.01014928222378 -0.10929964860138866 0 0 0
2236 7 23.011241648597856 21.01014928222377 -0.10929964860137606 0 0 0
2226 1 21.09369237288063 22.115265491630105 1.0572192062349464 0 0 0
2233 1 26.84653219260572 18.793834991145086 1.0572192062442427 0 0 0
2235 7 24.928854917840642 17.68871878173007 -0.10929964860372195 0 0 0
2243 7 28.76408146479763 17.688718781730092 -0.10929964860372313 0 0 0
2244 7 26.846468195554817 21.010149282223768 -0.1092996486013785 0 0 0
2234 1 24.928918919837628 22.11526549163007 1.057219206234938 0 0 0
2242 1 28.764145466794663 22.115265491630087 1.0572192062349484 0 0 0
2241 1 30.681758739562724 18.793834991145072 1.0572192062442403 0 0 0
2249 1 34.51698528651976 18.793834991145125 1.0572192062442343 0 0 0
2251 7 32.5993080117546 17.688718781730064 -0.10929964860373179 0 0 0
2252 7 30.68169474251182 21.01014928222378 -0.10929964860137426 0 0 0
2260 7 34.51692128946885 21.010149282223747 -0.10929964860135383 0 0 0
2250 1 32.59937201375163 22.115265491630094 1.0572192062349643 0 0 0
2257 1 38.3522118334768 18.793834991145047 1.0572192062442167 0 0 0
2259 7 36.434534558711604 17.6887187817301 -0.10929964860372575 0 0 0
2267 7 40.26976110566855 17.688718781730067 -0.10929964860369225 0 0 0
2268 7 38.352147836425836 21.010149282223765 -0.10929964860140469 0 0 0
2258 1 36.4345985607086 22.11526549163009 1.0572192062349404 0 0 0
2266 1 40.26982510766567 22.11526549163008 1.0572192062349448 0 0 0
2265 1 42.18743838043375 18.793834991145115 1.0572192062442847 0 0 0
2273 1 46.0226649273908 18.79383499114508 1.057219206244231 0 0 0
2275 7 44.10498765262562 17.68871878173006 -0.10929964860374326 0 0 0
2276 7 42.187374383382824 21.010149282223782 -0.10929964860135627 0 0 0
2284 7 46.02260093033987 21.01014928222377 -0.10929964860137127 0 0 0
2274 1 44.105051654622606 22.115265491630083 1.0572192062349577 0 0 0
2281 1 49.857891474347845 18.793834991145076 1.0572192062442403 0 0 0
2283 7 47.94021419958253 17.68871878173009 -0.1092996486037281 0 0 0
2083 7 51.77544074653957 17.688718781730135 -0.10929964860369609 -1 0 0
2084 7 49.857827477296865 21.01014928222376 -0.10929964860139069 -1 0 0
2282 1 47.94027820157959 22.11526549163009 1.0572192062349492 0 0 0
2082 1 51.775504748536626 22.1152654916301 1.0572192062349348 -1 0 0
2081 1 53.693118021304706 18.793834991145125 1.0572192062442518 -1 0 0
2089 1 57.52834456826174 18.793834991145065 1.0572192062442431 -1 0 0
2091 7 55.61066729349666 17.688718781730046 -0.10929964860372346 -1 0 0
2092 7 53.69305402425385 21.010149282223743 -0.10929964860136003 -1 0 0
2100 7 57.52828057121085 21.010149282223782 -0.10929964860138063 -1 0 0
2090 1 55.61073129549362 22.115265491630076 1.0572192062349528 -1 0 0
2097 1 61.36357111521873 18.79383499114506 1.0572192062442503 -1 0 0
2099 7 59.445893840453614 17.68871878173009 -0.10929964860370442 -1 0 0
2107 7 63.28112038741056 17.688718781730067 -0.10929964860374777 -1 0 0
2108 7 61.36350711816786 21.010149282223797 -0.10929964860137031 -1 0 0
2098 1 59.445957842450625 22.115265491630094 1.0572192062349364 -1 0 0
2106 1 63.28118438940759 22.115265491630073 1.0572192062349506 -1 0 0
2105 1 65.19879766217583 18.79383499114511 1.0572192062442423 -1 0 0
2113 1 69.03402420913274 18.793834991145108 1.0572192062442656 -1 0 0
2115 7 67.11634693436756 17.688718781730103 -0.10929964860371022 -1 0 0
2116 7 65.19873366512485 21.010149282223743 -0.10929964860137706 -1 0 0
2124 7 69.03396021208185 21.010149282223747 -0.10929964860139285 -1 0 0
2114 1 67.11641093636462 22.11526549163009 1.057219206234955 -1 0 0
2121 1 72.86925075608974 18.793834991145058 1.0572192062442174 -1 0 0
2123 7 70.95157348132467 17.688718781730092 -0.10929964860371506 -1 0 0
2131 7 74.78680002828159 17.688718781730085 -0.10929964860370292 -1 0 0
2132 7 72.8691867590388 21.01014928222375 -0.10929964860139282 -1 0 0
2122 1 70.95163748332166 22.115265491630105 1.057219206234957 -1 0 0
2130 1 74.78686403027872 22.115265491630083 1.0572192062349723 -1 0 0
2129 1 76.70447730304677 18.79383499114507 1.0572192062442414 -1 0 0
2137 1 80.53970385000376 18.793834991145083 1.0572192062442285 -1 0 0
2139 7 78.6220265752386 17.688718781730085 -0.10929964860372055 -1 0 0
2140 7 76.70441330599581 21.010149282223793 -0.10929964860136714 -1 0 0
2148 7 80.53963985295285 21.010149282223765 -0.109299648601374 -1 0 0
2138 1 78.62209057723564 22.115265491630087 1.0572192062349486 -1 0 0
2145 1 84.37493039696088 18.793834991145072 1.0572192062442392 -1 0 0
2147 7 82.45725312219554 17.68871878173007 -0.10929964860374025 -1 0 0
2155 7 86.29247966915253 17.688718781730117 -0.10929964860370066 -1 0 0
2156 7 84.37486639990983 21.010149282223775 -0.10929964860139035 -1 0 0
2146 1 82.45731712419263 22.115265491630108 1.0572192062349488 -1 0 0
2154 1 86.29254367114966 22.115265491630065 1.057219206234949 -1 0 0
2153 1 88.21015694391777 18.79383499114514 1.0572192062442278 -1 0 0
2161 1 92.04538349087474 18.79383499114511 1.0572192062442198 -1 0 0
2163 7 90.12770621610964 17.688718781730103 -0.1092996486037241 -1 0 0
2164 7 88.21009294686685 21.010149282223733 -0.10929964860135447 -1 0 0
2172 7 92.0453194938239 21.010149282223715 -0.1092996486013857 -1 0 0
2162 1 90.12777021810656 22.115265491630097 1.0572192062349857 -1 0 0
2188 7 99.71577258773785 21.010149282223793 -0.10929964860140538 -1 0 0
2169 1 95.88061003783176 18.793834991145065 1.057219206244249 -1 0 0
2171 7 93.96293276306659 17.688718781730103 -0.10929964860371678 -1 0 0
2177 1 99.7158365847887 18.793834991145015 1.057219206244224 -1 0 0
2179 7 97.79815931002366 17.68871878173011 -0.10929964860369738 -1 0 0
2180 7 95.88054604078079 21.0101492822238 -0.10929964860138713 -1 0 0
2170 1 93.96299676506366 22.11526549163004 1.057219206234924 -1 0 0
2178 1 97.79822331202065 22.115265491630115 1.0572192062349737 -1 0 0
2395 7 1.917495636098639 24.331579782704075 -0.10929964860374339 0 0 0
2403 7 5.752722183055593 24.331579782704054 -0.10929964860370626 0 0 0
2393 1 3.8351729108637556 25.436695992119073 1.0572192062442416 0 0 0
2404 7 3.835108913812834 27.653010283197794 -0.10929964860136232 0 0 0
2394 1 1.9175596380956674 28.758126492604102 1.0572192062349455 0 0 0
2402 1 5.752786185052631 28.758126492604063 1.0572192062349406 0 0 0
2411 7 9.587948730012613 24.33157978270408 -0.10929964860372078 0 0 0
2401 1 7.670399457820753 25.436695992119102 1.0572192062442496 0 0 0
2409 1 11.505626004777739 25.436695992119102 1.057219206244237 0 0 0
2412 7 7.670335460769819 27.653010283197773 -0.10929964860136551 0 0 0
2420 7 11.50556200772682 27.65301028319777 -0.10929964860135684 0 0 0
2410 1 9.588012732009654 28.75812649260407 1.0572192062349421 0 0 0
2419 7 13.4231752769696 24.331579782704065 -0.10929964860371917 0 0 0
2427 7 17.258401823926594 24.331579782704093 -0.10929964860370739 0 0 0
2417 1 15.34085255173477 25.436695992119073 1.0572192062442407 0 0 0
2428 7 15.340788554683842 27.653010283197776 -0.10929964860137241 0 0 0
2418 1 13.42323927896663 28.75812649260409 1.0572192062349455 0 0 0
2426 1 17.258465825923654 28.758126492604056 1.0572192062349408 0 0 0
2435 7 21.093628370883607 24.33157978270406 -0.10929964860370919 0 0 0
2425 1 19.17607909869175 25.4366959921191 1.05721920624424 0 0 0
2433 1 23.011305645648743 25.436695992119077 1.0572192062442516 0 0 0
2436 7 19.176015101640814 27.65301028319778 -0.10929964860135714 0 0 0
2444 7 23.01124164859786 27.653010283197787 -0.10929964860137546 0 0 0
2434 1 21.09369237288062 28.75812649260409 1.057219206234951 0 0 0
2443 7 24.928854917840603 24.33157978270408 -0.10929964860371931 0 0 0
2451 7 28.764081464797574 24.331579782704097 -0.10929964860369648 0 0 0
2441 1 26.846532192605782 25.43669599211907 1.057219206244229 0 0 0
2452 7 26.84646819555482 27.653010283197787 -0.10929964860136748 0 0 0
2442 1 24.92891891983763 28.75812649260407 1.0572192062349275 0 0 0
2450 1 28.764145466794634 28.758126492604084 1.0572192062349515 0 0 0
2459 7 32.599308011754566 24.33157978270407 -0.10929964860372314 0 0 0
2449 1 30.681758739562763 25.436695992119063 1.0572192062442292 0 0 0
2457 1 34.516985286519784 25.436695992119077 1.0572192062442494 0 0 0
2460 7 30.681694742511834 27.65301028319778 -0.1092996486013806 0 0 0
2468 7 34.51692128946887 27.6530102831978 -0.10929964860136562 0 0 0
2458 1 32.59937201375163 28.758126492604124 1.0572192062349428 0 0 0
2467 7 36.434534558711626 24.33157978270409 -0.10929964860368512 0 0 0
2475 7 40.269761105668614 24.331579782704086 -0.10929964860370157 0 0 0
2465 1 38.35221183347672 25.436695992119077 1.0572192062442127 0 0 0
2476 7 38.352147836425864 27.653010283197762 -0.10929964860138112 0 0 0
2466 1 36.434598560708594 28.758126492604084 1.0572192062349324 0 0 0
2474 1 40.26982510766564 28.758126492604063 1.057219206234957 0 0 0
2483 7 44.104987652625674 24.331579782704054 -0.10929964860373531 0 0 0
2473 1 42.18743838043368 25.436695992119116 1.0572192062442654 0 0 0
2481 1 46.022664927390736 25.436695992119088 1.0572192062442163 0 0 0
2484 7 42.187374383382846 27.653010283197773 -0.10929964860136325 0 0 0
2492 7 46.022600930339856 27.653010283197762 -0.1092996486013649 0 0 0
2482 1 44.10505165462261 28.75812649260408 1.057219206234953 0 0 0
2491 7 47.94021419958263 24.33157978270408 -0.10929964860369805 0 0 0
2291 7 51.77544074653958 24.33157978270403 -0.10929964860374174 -1 0 0
2489 1 49.857891474347724 25.436695992119077 1.0572192062442511 0 0 0
2292 7 49.85782747729686 27.65301028319778 -0.10929964860137215 -1 0 0
2490 1 47.94027820157961 28.758126492604077 1.0572192062349426 0 0 0
2290 1 51.77550474853661 28.75812649260408 1.0572192062349435 -1 0 0
2299 7 55.61066729349662 24.3315797827041 -0.10929964860370275 -1 0 0
2289 1 53.69311802130481 25.43669599211911 1.0572192062442778 -1 0 0
2297 1 57.52834456826171 25.436695992119077 1.0572192062442303 -1 0 0
2300 7 53.69305402425385 27.653010283197773 -0.10929964860136454 -1 0 0
2308 7 57.52828057121087 27.653010283197776 -0.10929964860137027 -1 0 0