LAMMPS data file via write_data, version 29 Aug 2024, timestep = 3, units = metal

6240 atoms
8 atom types

0 98.220750053946 xlo xhi
0 98.14807468323 ylo yhi
-50 50 zlo zhi

Masses

1 26.9815385
2 26.9815385
3 26.9815385
4 26.9815385
5 78.971
6 78.971
7 78.971
8 78.971

Atoms # atomic

1568 5 1.8888605779606045 1.09050188938331 0.019213308191113096 0 0 0
1576 5 5.666581733881606 1.0905018893833098 0.0192133081911129 0 0 0
1773 1 1.888860577960392 3.2715857376866833 1.1761049295802966 0 0 0
1781 1 5.66658173388139 3.2715857376866833 1.1761049295802963 0 0 0
1783 5 3.7777211559209 4.362104378824311 0.01921330819111161 0 0 0
1584 5 9.444302889802605 1.0905018893833103 0.019213308191112735 0 0 0
1789 1 9.44430288980239 3.271585737686683 1.1761049295802963 0 0 0
1791 5 7.555442311841899 4.362104378824311 0.019213308191111538 0 0 0
1799 5 11.3331634677629 4.362104378824312 0.01921330819111155 0 0 0
1592 5 13.222024045723606 1.0905018893833098 0.01921330819111249 0 0 0
1600 5 16.999745201644608 1.0905018893833096 0.019213308191112867 0 0 0
1797 1 13.22202404572339 3.271585737686683 1.1761049295802963 0 0 0
1805 1 16.999745201644394 3.2715857376866824 1.1761049295802966 0 0 0
1807 5 15.110884623683901 4.362104378824311 0.019213308191112333 0 0 0
1608 5 20.777466357565608 1.09050188938331 0.01921330819111277 0 0 0
1813 1 20.777466357565395 3.2715857376866824 1.1761049295802963 0 0 0
1815 5 18.8886057796049 4.362104378824311 0.01921330819111172 0 0 0
1823 5 22.666326935525902 4.362104378824311 0.019213308191111587 0 0 0
1616 5 24.555187513486608 1.09050188938331 0.019213308191112773 0 0 0
1624 5 28.332908669407608 1.09050188938331 0.019213308191112975 0 0 0
1821 1 24.555187513486395 3.2715857376866824 1.1761049295802963 0 0 0
1829 1 28.332908669407395 3.271585737686683 1.1761049295802968 0 0 0
1831 5 26.444048091446902 4.362104378824311 0.019213308191111753 0 0 0
1632 5 32.11062982532861 1.09050188938331 0.019213308191112406 0 0 0
1837 1 32.110629825328395 3.2715857376866837 1.1761049295802963 0 0 0
1839 5 30.221769247367902 4.362104378824311 0.01921330819111057 0 0 0
1847 5 33.9994904032889 4.362104378824312 0.01921330819111055 0 0 0
1640 5 35.88835098124961 1.0905018893833098 0.019213308191112752 0 0 0
1648 5 39.66607213717061 1.0905018893833098 0.01921330819111276 0 0 0
1845 1 35.88835098124939 3.2715857376866824 1.1761049295802963 0 0 0
1853 1 39.66607213717039 3.271585737686683 1.1761049295802966 0 0 0
1855 5 37.7772115592099 4.362104378824311 0.019213308191111667 0 0 0
1656 5 43.44379329309161 1.0905018893833098 0.019213308191112766 0 0 0
1861 1 43.44379329309139 3.271585737686683 1.1761049295802966 0 0 0
1863 5 41.5549327151309 4.362104378824311 0.01921330819111158 0 0 0
1871 5 45.3326538710519 4.362104378824311 0.019213308191111927 0 0 0
1664 5 47.22151444901261 1.0905018893833083 0.01921330819111276 0 0 0
1464 5 50.99923560493361 1.0905018893833085 0.01921330819111267 -1 0 0
1869 1 47.22151444901239 3.2715857376866815 1.1761049295802968 0 0 0
1669 1 50.999235604933396 3.2715857376866824 1.1761049295802966 -1 0 0
1671 5 49.1103750269729 4.362104378824311 0.01921330819111299 -1 0 0
1472 5 54.77695676085461 1.0905018893833098 0.01921330819111277 -1 0 0
1677 1 54.7769567608544 3.271585737686683 1.1761049295802966 -1 0 0
1679 5 52.888096182893904 4.362104378824312 0.019213308191111257 -1 0 0
1687 5 56.665817338814904 4.362104378824311 0.019213308191111538 -1 0 0
1480 5 58.55467791677561 1.0905018893833098 0.019213308191112787 -1 0 0
1488 5 62.33239907269661 1.0905018893833087 0.019213308191114532 -1 0 0
1685 1 58.5546779167754 3.271585737686683 1.1761049295802963 -1 0 0
1693 1 62.3323990726964 3.2715857376866815 1.1761049295802963 -1 0 0
1695 5 60.443538494735904 4.362104378824312 0.019213308191111188 -1 0 0
1496 5 66.1101202286176 1.0905018893833107 0.019213308191111188 -1 0 0
1701 1 66.1101202286174 3.2715857376866837 1.1761049295802948 -1 0 0
1703 5 64.2212596506569 4.362104378824311 0.019213308191113422 -1 0 0
1711 5 67.9989808065779 4.362104378824312 0.01921330819111136 -1 0 0
1504 5 69.8878413845386 1.09050188938331 0.019213308191112735 -1 0 0
1512 5 73.6655625404596 1.09050188938331 0.01921330819111274 -1 0 0
1709 1 69.8878413845384 3.2715857376866824 1.1761049295802966 -1 0 0
1717 1 73.6655625404594 3.2715857376866824 1.1761049295802966 -1 0 0
1719 5 71.7767019624989 4.362104378824312 0.019213308191111417 -1 0 0
1520 5 77.4432836963806 1.09050188938331 0.01921330819111274 -1 0 0
1725 1 77.4432836963804 3.2715857376866824 1.1761049295802966 -1 0 0
1727 5 75.5544231184199 4.362104378824312 0.019213308191111417 -1 0 0
1735 5 79.3321442743409 4.362104378824312 0.019213308191111417 -1 0 0
1528 5 81.2210048523016 1.09050188938331 0.01921330819111274 -1 0 0
1536 5 84.9987260082226 1.09050188938331 0.01921330819111274 -1 0 0
1733 1 81.2210048523014 3.2715857376866824 1.1761049295802966 -1 0 0
1741 1 84.9987260082224 3.2715857376866824 1.1761049295802966 -1 0 0
1743 5 83.1098654302619 4.362104378824312 0.019213308191111417 -1 0 0
1544 5 88.7764471641436 1.09050188938331 0.01921330819111274 -1 0 0
1749 1 88.7764471641434 3.2715857376866824 1.1761049295802966 -1 0 0
1751 5 86.8875865861829 4.362104378824312 0.019213308191111417 -1 0 0
1759 5 90.6653077421039 4.362104378824312 0.019213308191111417 -1 0 0
1775 5 98.2207500539459 4.362104378824313 0.0192133081911097 -1 0 0
1552 5 92.5541683200646 1.09050188938331 0.019213308191112742 -1 0 0
1560 5 96.3318894759856 1.090501889383309 0.019213308191113308 -1 0 0
1757 1 92.5541683200644 3.2715857376866824 1.1761049295802966 -1 0 0
1765 1 96.3318894759854 3.271585737686682 1.176104929580297 -1 0 0
1767 5 94.4430288980249 4.362104378824311 0.019213308191111465 -1 0 0
1774 1 9.620422622639392e-14 6.543188227127684 1.1761049295802974 0 0 0
1776 5 1.8888605779606045 7.633706868265312 0.01921330819111235 0 0 0
1782 1 3.777721155921097 6.543188227127683 1.176104929580297 0 0 0
1784 5 5.666581733881606 7.633706868265311 0.019213308191112385 0 0 0
1981 1 1.8888605779603922 9.814790716568684 1.1761049295802974 0 0 0
1989 1 5.66658173388139 9.814790716568684 1.176104929580297 0 0 0
1991 5 3.7777211559209 10.90530935770631 0.019213308191111687 0 0 0
1790 1 7.555442311842097 6.5431882271276836 1.1761049295802966 0 0 0
1792 5 9.444302889802605 7.633706868265312 0.019213308191111868 0 0 0
1798 1 11.333163467763098 6.543188227127683 1.176104929580297 0 0 0
1997 1 9.44430288980239 9.814790716568684 1.176104929580297 0 0 0
1999 5 7.555442311841899 10.905309357706312 0.019213308191111576 0 0 0
2007 5 11.3331634677629 10.905309357706312 0.019213308191111507 0 0 0
1800 5 13.222024045723606 7.633706868265311 0.019213308191112083 0 0 0
1806 1 15.110884623684099 6.5431882271276836 1.176104929580297 0 0 0
1808 5 16.999745201644608 7.633706868265311 0.019213308191112378 0 0 0
2005 1 13.222024045723392 9.814790716568684 1.176104929580297 0 0 0
2013 1 16.999745201644394 9.814790716568684 1.1761049295802974 0 0 0
2015 5 15.110884623683901 10.905309357706312 0.019213308191112808 0 0 0
1814 1 18.8886057796051 6.543188227127683 1.1761049295802968 0 0 0
1816 5 20.777466357565608 7.633706868265311 0.019213308191111864 0 0 0
1822 1 22.6663269355261 6.5431882271276836 1.176104929580297 0 0 0
2021 1 20.777466357565395 9.814790716568684 1.176104929580297 0 0 0
2023 5 18.8886057796049 10.90530935770631 0.019213308191111583 0 0 0
2031 5 22.666326935525902 10.90530935770631 0.01921330819111176 0 0 0
1824 5 24.555187513486608 7.633706868265311 0.019213308191111857 0 0 0
1830 1 26.4440480914471 6.543188227127683 1.176104929580297 0 0 0
1832 5 28.332908669407608 7.633706868265312 0.019213308191111642 0 0 0
2029 1 24.555187513486395 9.814790716568684 1.176104929580297 0 0 0
2037 1 28.332908669407395 9.814790716568682 1.1761049295802974 0 0 0
2039 5 26.444048091446902 10.90530935770631 0.019213308191111843 0 0 0
1838 1 30.2217692473681 6.543188227127683 1.1761049295802968 0 0 0
1840 5 32.11062982532861 7.633706868265311 0.01921330819111206 0 0 0
1846 1 33.9994904032891 6.543188227127683 1.1761049295802968 0 0 0
2045 1 32.110629825328395 9.814790716568684 1.1761049295802968 0 0 0
2047 5 30.221769247367902 10.90530935770631 0.01921330819111092 0 0 0
2055 5 33.9994904032889 10.905309357706312 0.019213308191110653 0 0 0
1848 5 35.88835098124961 7.633706868265311 0.01921330819111191 0 0 0
1854 1 37.7772115592101 6.543188227127683 1.1761049295802968 0 0 0
1856 5 39.66607213717061 7.633706868265311 0.01921330819111191 0 0 0
2053 1 35.88835098124939 9.814790716568684 1.1761049295802972 0 0 0
2061 1 39.66607213717039 9.814790716568684 1.1761049295802972 0 0 0
2063 5 37.7772115592099 10.90530935770631 0.01921330819111183 0 0 0
1862 1 41.5549327151311 6.543188227127683 1.1761049295802968 0 0 0
1864 5 43.44379329309161 7.633706868265311 0.01921330819111191 0 0 0
1870 1 45.3326538710521 6.543188227127683 1.1761049295802968 0 0 0
2069 1 43.44379329309139 9.814790716568684 1.1761049295802972 0 0 0
2071 5 41.5549327151309 10.90530935770631 0.01921330819111183 0 0 0
2079 5 45.3326538710519 10.90530935770631 0.0192133081911123 0 0 0
1872 5 47.22151444901261 7.633706868265311 0.01921330819111188 0 0 0
1670 1 49.1103750269731 6.5431882271276836 1.176104929580297 -1 0 0
1672 5 50.99923560493361 7.633706868265311 0.019213308191111778 -1 0 0
2077 1 47.22151444901239 9.814790716568682 1.1761049295802972 0 0 0
1877 1 50.999235604933396 9.814790716568684 1.1761049295802968 -1 0 0
1879 5 49.1103750269729 10.90530935770631 0.019213308191113367 -1 0 0
1678 1 52.8880961828941 6.543188227127683 1.176104929580297 -1 0 0
1680 5 54.77695676085461 7.633706868265311 0.019213308191111892 -1 0 0
1686 1 56.6658173388151 6.543188227127683 1.1761049295802968 -1 0 0
1885 1 54.7769567608544 9.814790716568684 1.176104929580297 -1 0 0
1887 5 52.888096182893904 10.90530935770631 0.01921330819111132 -1 0 0
1895 5 56.665817338814904 10.90530935770631 0.019213308191111708 -1 0 0
1688 5 58.55467791677561 7.633706868265311 0.019213308191111805 -1 0 0
1694 1 60.4435384947361 6.5431882271276836 1.176104929580296 -1 0 0
1696 5 62.33239907269661 7.633706868265312 0.01921330819111132 -1 0 0
1893 1 58.5546779167754 9.814790716568684 1.176104929580297 -1 0 0
1901 1 62.3323990726964 9.814790716568682 1.1761049295802968 -1 0 0
1903 5 60.443538494735904 10.90530935770631 0.01921330819111139 -1 0 0
1702 1 64.2212596506571 6.543188227127683 1.1761049295802968 -1 0 0
1704 5 66.1101202286176 7.63370686826531 0.019213308191112714 -1 0 0
1710 1 67.9989808065781 6.543188227127683 1.1761049295802968 -1 0 0
1909 1 66.1101202286174 9.814790716568684 1.1761049295802952 -1 0 0
1911 5 64.2212596506569 10.90530935770631 0.019213308191113828 -1 0 0
1919 5 67.9989808065779 10.905309357706312 0.019213308191111615 -1 0 0
1712 5 69.8878413845386 7.633706868265312 0.019213308191112083 -1 0 0
1718 1 71.7767019624991 6.543188227127683 1.1761049295802968 -1 0 0
1720 5 73.6655625404596 7.633706868265312 0.01921330819111207 -1 0 0
1917 1 69.8878413845384 9.814790716568684 1.176104929580297 -1 0 0
1925 1 73.6655625404594 9.814790716568684 1.176104929580297 -1 0 0
1927 5 71.7767019624989 10.905309357706312 0.0192133081911116 -1 0 0
1726 1 75.5544231184201 6.543188227127683 1.1761049295802968 -1 0 0
1728 5 77.4432836963806 7.633706868265312 0.019213308191112086 -1 0 0
1734 1 79.3321442743411 6.543188227127683 1.1761049295802968 -1 0 0
1933 1 77.4432836963804 9.814790716568684 1.176104929580297 -1 0 0
1935 5 75.5544231184199 10.905309357706312 0.019213308191111597 -1 0 0
1943 5 79.3321442743409 10.905309357706312 0.019213308191111618 -1 0 0
1736 5 81.2210048523016 7.633706868265312 0.019213308191112086 -1 0 0
1742 1 83.1098654302621 6.543188227127683 1.1761049295802968 -1 0 0
1744 5 84.9987260082226 7.633706868265312 0.019213308191112086 -1 0 0
1941 1 81.2210048523014 9.814790716568684 1.176104929580297 -1 0 0
1949 1 84.9987260082224 9.814790716568684 1.176104929580297 -1 0 0
1951 5 83.1098654302619 10.905309357706312 0.019213308191111618 -1 0 0
1750 1 86.8875865861831 6.543188227127683 1.1761049295802968 -1 0 0
1752 5 88.7764471641436 7.633706868265312 0.019213308191112086 -1 0 0
1758 1 90.6653077421041 6.543188227127683 1.1761049295802968 -1 0 0
1957 1 88.7764471641434 9.814790716568684 1.176104929580297 -1 0 0
1959 5 86.8875865861829 10.905309357706312 0.019213308191111618 -1 0 0
1967 5 90.6653077421039 10.905309357706312 0.019213308191111618 -1 0 0
1983 5 98.2207500539459 10.905309357706312 0.019213308191109994 -1 0 0
1760 5 92.5541683200646 7.633706868265312 0.019213308191112083 -1 0 0
1766 1 94.4430288980251 6.543188227127683 1.176104929580297 -1 0 0
1768 5 96.3318894759856 7.63370686826531 0.01921330819111272 -1 0 0
1965 1 92.5541683200644 9.814790716568684 1.176104929580297 -1 0 0
1973 1 96.3318894759854 9.814790716568682 1.1761049295802979 -1 0 0
1975 5 94.4430288980249 10.905309357706312 0.019213308191111545 -1 0 0
1982 1 9.642913856654591e-14 13.086393206009685 1.1761049295802972 0 0 0
1990 1 3.777721155921097 13.086393206009683 1.1761049295802966 0 0 0
1984 5 1.8888605779606045 14.176911847147311 0.019213308191111795 0 0 0
1992 5 5.666581733881606 14.176911847147311 0.019213308191111802 0 0 0
2189 1 1.888860577960392 16.357995695450683 1.1761049295802979 0 0 0
2197 1 5.66658173388139 16.357995695450683 1.1761049295802972 0 0 0
1998 1 7.555442311842097 13.086393206009683 1.176104929580296 0 0 0
2006 1 11.333163467763098 13.086393206009683 1.1761049295802963 0 0 0
2000 5 9.444302889802605 14.176911847147311 0.019213308191111663 0 0 0
2205 1 9.44430288980239 16.357995695450683 1.176104929580297 0 0 0
2014 1 15.110884623684099 13.086393206009683 1.176104929580296 0 0 0
2008 5 13.222024045723606 14.176911847147311 0.019213308191111646 0 0 0
2016 5 16.999745201644608 14.176911847147311 0.019213308191112034 0 0 0
2213 1 13.22202404572339 16.357995695450683 1.1761049295802979 0 0 0
2221 1 16.999745201644394 16.357995695450683 1.1761049295802972 0 0 0
2022 1 18.8886057796051 13.086393206009683 1.1761049295802963 0 0 0
2030 1 22.6663269355261 13.086393206009683 1.1761049295802963 0 0 0
2024 5 20.777466357565608 14.176911847147311 0.019213308191111726 0 0 0
2229 1 20.777466357565395 16.357995695450683 1.176104929580297 0 0 0
2038 1 26.4440480914471 13.086393206009683 1.1761049295802968 0 0 0
2032 5 24.555187513486608 14.176911847147311 0.019213308191111705 0 0 0
2040 5 28.332908669407608 14.176911847147311 0.019213308191111028 0 0 0
2237 1 24.555187513486395 16.357995695450683 1.1761049295802972 0 0 0
2245 1 28.332908669407395 16.357995695450683 1.176104929580297 0 0 0
2046 1 30.2217692473681 13.086393206009681 1.1761049295802963 0 0 0
2054 1 33.9994904032891 13.086393206009683 1.1761049295802968 0 0 0
2048 5 32.11062982532861 14.176911847147311 0.01921330819111165 0 0 0
2253 1 32.11062982532839 16.357995695450683 1.1761049295802963 0 0 0
2062 1 37.7772115592101 13.086393206009683 1.1761049295802966 0 0 0
2056 5 35.88835098124961 14.176911847147311 0.019213308191111618 0 0 0
2064 5 39.66607213717061 14.176911847147311 0.019213308191111635 0 0 0
2261 1 35.88835098124939 16.357995695450683 1.1761049295802972 0 0 0
2269 1 39.66607213717039 16.357995695450683 1.1761049295802972 0 0 0
2070 1 41.5549327151311 13.086393206009683 1.1761049295802966 0 0 0
2078 1 45.3326538710521 13.086393206009683 1.1761049295802963 0 0 0
2072 5 43.44379329309161 14.176911847147311 0.019213308191111635 0 0 0
2277 1 43.44379329309139 16.357995695450683 1.1761049295802972 0 0 0
1878 1 49.1103750269731 13.086393206009683 1.1761049295802968 -1 0 0
2080 5 47.22151444901261 14.176911847147311 0.019213308191111847 0 0 0
1880 5 50.99923560493361 14.176911847147311 0.019213308191111042 -1 0 0
2285 1 47.22151444901239 16.357995695450683 1.1761049295802974 0 0 0
2085 1 50.999235604933396 16.357995695450683 1.1761049295802972 -1 0 0
1886 1 52.8880961828941 13.086393206009683 1.1761049295802963 -1 0 0
1894 1 56.6658173388151 13.086393206009683 1.1761049295802966 -1 0 0
1888 5 54.77695676085461 14.176911847147311 0.01921330819111164 -1 0 0
2093 1 54.7769567608544 16.357995695450683 1.1761049295802972 -1 0 0
1902 1 60.4435384947361 13.086393206009683 1.176104929580296 -1 0 0
1896 5 58.55467791677561 14.176911847147311 0.01921330819111152 -1 0 0
1904 5 62.33239907269661 14.17691184714731 0.019213308191113335 -1 0 0
2101 1 58.5546779167754 16.357995695450683 1.1761049295802972 -1 0 0
2109 1 62.3323990726964 16.357995695450683 1.176104929580297 -1 0 0
1910 1 64.2212596506571 13.086393206009681 1.1761049295802963 -1 0 0
1918 1 67.9989808065781 13.086393206009683 1.176104929580296 -1 0 0
1912 5 66.1101202286176 14.176911847147313 0.019213308191110324 -1 0 0
2117 1 66.1101202286174 16.357995695450683 1.1761049295802954 -1 0 0
1926 1 71.7767019624991 13.086393206009683 1.1761049295802963 -1 0 0
1920 5 69.8878413845386 14.176911847147311 0.019213308191111795 -1 0 0
1928 5 73.6655625404596 14.176911847147311 0.019213308191111795 -1 0 0
2125 1 69.8878413845384 16.357995695450683 1.1761049295802972 -1 0 0
2133 1 73.6655625404594 16.357995695450683 1.1761049295802972 -1 0 0
1934 1 75.5544231184201 13.086393206009683 1.1761049295802963 -1 0 0
1942 1 79.3321442743411 13.086393206009683 1.1761049295802963 -1 0 0
1936 5 77.4432836963806 14.176911847147311 0.0192133081911118 -1 0 0
2141 1 77.4432836963804 16.357995695450683 1.1761049295802972 -1 0 0
1950 1 83.1098654302621 13.086393206009683 1.1761049295802963 -1 0 0
1944 5 81.2210048523016 14.176911847147311 0.0192133081911118 -1 0 0
1952 5 84.9987260082226 14.176911847147311 0.0192133081911118 -1 0 0
2149 1 81.2210048523014 16.357995695450683 1.1761049295802972 -1 0 0
2157 1 84.9987260082224 16.357995695450683 1.1761049295802972 -1 0 0
1958 1 86.8875865861831 13.086393206009683 1.1761049295802963 -1 0 0
1966 1 90.6653077421041 13.086393206009683 1.1761049295802963 -1 0 0
1960 5 88.7764471641436 14.176911847147311 0.0192133081911118 -1 0 0
2165 1 88.7764471641434 16.357995695450683 1.1761049295802972 -1 0 0
1974 1 94.4430288980251 13.086393206009683 1.1761049295802968 -1 0 0
1968 5 92.5541683200646 14.176911847147311 0.019213308191111788 -1 0 0
1976 5 96.3318894759856 14.17691184714731 0.019213308191112288 -1 0 0
2173 1 92.5541683200644 16.357995695450683 1.1761049295802972 -1 0 0
2181 1 96.3318894759854 16.357995695450683 1.176104929580298 -1 0 0
2199 5 3.7777211559208994 17.44851433658831 0.019213308191112582 0 0 0
2190 1 9.616434519370287e-14 19.629598184891684 1.1761049295802972 0 0 0
2192 5 1.8888605779606045 20.72011682602931 0.019213308191111375 0 0 0
2198 1 3.777721155921097 19.62959818489168 1.1761049295802972 0 0 0
2200 5 5.666581733881606 20.72011682602931 0.019213308191110404 0 0 0
2397 1 1.8888605779603918 22.90120067433268 1.1761049295802972 0 0 0
2405 1 5.66658173388139 22.90120067433268 1.1761049295802972 0 0 0
2207 5 7.555442311841899 17.44851433658831 0.01921330819111259 0 0 0
2215 5 11.333163467762901 17.44851433658831 0.01921330819111274 0 0 0
2206 1 7.555442311842097 19.629598184891684 1.176104929580297 0 0 0
2208 5 9.444302889802605 20.72011682602931 0.01921330819111062 0 0 0
2214 1 11.333163467763098 19.629598184891684 1.1761049295802974 0 0 0
2413 1 9.44430288980239 22.90120067433268 1.1761049295802968 0 0 0
2223 5 15.110884623683901 17.44851433658831 0.019213308191113113 0 0 0
2216 5 13.222024045723606 20.72011682602931 0.01921330819111134 0 0 0
2222 1 15.110884623684099 19.62959818489168 1.1761049295802963 0 0 0
2224 5 16.999745201644608 20.720116826029308 0.01921330819111055 0 0 0
2421 1 13.222024045723392 22.90120067433268 1.1761049295802968 0 0 0
2429 1 16.999745201644394 22.90120067433268 1.176104929580297 0 0 0
2231 5 18.8886057796049 17.44851433658831 0.019213308191112475 0 0 0
2239 5 22.666326935525902 17.44851433658831 0.019213308191112628 0 0 0
2230 1 18.8886057796051 19.629598184891684 1.1761049295802972 0 0 0
2232 5 20.777466357565608 20.72011682602931 0.019213308191110556 0 0 0
2238 1 22.6663269355261 19.629598184891684 1.1761049295802972 0 0 0
2437 1 20.777466357565395 22.90120067433268 1.176104929580297 0 0 0
2247 5 26.444048091446902 17.44851433658831 0.019213308191112652 0 0 0
2240 5 24.555187513486608 20.72011682602931 0.019213308191110553 0 0 0
2246 1 26.4440480914471 19.629598184891684 1.1761049295802974 0 0 0
2248 5 28.332908669407608 20.72011682602931 0.0192133081911109 0 0 0
2445 1 24.555187513486395 22.90120067433268 1.176104929580297 0 0 0
2453 1 28.332908669407395 22.90120067433268 1.176104929580297 0 0 0
2255 5 30.2217692473679 17.44851433658831 0.019213308191111018 0 0 0
2263 5 33.9994904032889 17.44851433658831 0.019213308191112582 0 0 0
2254 1 30.2217692473681 19.629598184891684 1.1761049295802972 0 0 0
2256 5 32.11062982532861 20.72011682602931 0.01921330819111127 0 0 0
2262 1 33.9994904032891 19.62959818489168 1.1761049295802972 0 0 0
2461 1 32.11062982532839 22.90120067433268 1.1761049295802963 0 0 0
2271 5 37.7772115592099 17.44851433658831 0.01921330819111257 0 0 0
2264 5 35.88835098124961 20.72011682602931 0.019213308191110542 0 0 0
2270 1 37.7772115592101 19.62959818489168 1.1761049295802972 0 0 0
2272 5 39.66607213717061 20.72011682602931 0.019213308191110542 0 0 0
2469 1 35.88835098124939 22.90120067433268 1.176104929580297 0 0 0
2477 1 39.66607213717039 22.90120067433268 1.1761049295802968 0 0 0
2279 5 41.5549327151309 17.44851433658831 0.01921330819111257 0 0 0
2287 5 45.3326538710519 17.44851433658831 0.019213308191112825 0 0 0
2278 1 41.5549327151311 19.62959818489168 1.1761049295802972 0 0 0
2280 5 43.44379329309161 20.72011682602931 0.019213308191110542 0 0 0
2286 1 45.3326538710521 19.62959818489168 1.1761049295802972 0 0 0
2485 1 43.44379329309139 22.90120067433268 1.1761049295802968 0 0 0
2087 5 49.1103750269729 17.44851433658831 0.019213308191113884 -1 0 0
2288 5 47.22151444901261 20.72011682602931 0.019213308191111136 0 0 0
2086 1 49.1103750269731 19.629598184891684 1.1761049295802972 -1 0 0
2088 5 50.99923560493361 20.72011682602931 0.019213308191110976 -1 0 0
2493 1 47.22151444901239 22.90120067433268 1.1761049295802974 0 0 0
2293 1 50.99923560493339 22.90120067433268 1.176104929580297 -1 0 0
2095 5 52.888096182893904 17.44851433658831 0.019213308191112232 -1 0 0
2103 5 56.665817338814904 17.44851433658831 0.0192133081911125 -1 0 0
2094 1 52.8880961828941 19.629598184891684 1.1761049295802972 -1 0 0
2096 5 54.77695676085461 20.720116826029308 0.01921330819111039 -1 0 0
2102 1 56.6658173388151 19.629598184891684 1.1761049295802974 -1 0 0
2301 1 54.7769567608544 22.90120067433268 1.1761049295802972 -1 0 0
2111 5 60.443538494735904 17.44851433658831 0.01921330819111241 -1 0 0
2104 5 58.55467791677561 20.72011682602931 0.019213308191110282 -1 0 0
2110 1 60.4435384947361 19.629598184891684 1.176104929580297 -1 0 0
2112 5 62.33239907269661 20.720116826029308 0.01921330819111274 -1 0 0
2309 1 58.5546779167754 22.90120067433268 1.176104929580297 -1 0 0
2317 1 62.3323990726964 22.90120067433268 1.176104929580297 -1 0 0
2119 5 64.2212596506569 17.448514336588307 0.01921330819111422 -1 0 0
2127 5 67.9989808065779 17.44851433658831 0.019213308191112312 -1 0 0
2118 1 64.2212596506571 19.62959818489168 1.176104929580297 -1 0 0
2120 5 66.1101202286176 20.72011682602931 0.019213308191109106 -1 0 0
2126 1 67.9989808065781 19.629598184891684 1.1761049295802972 -1 0 0
2325 1 66.1101202286174 22.90120067433268 1.1761049295802954 -1 0 0
2135 5 71.7767019624989 17.44851433658831 0.019213308191112485 -1 0 0
2128 5 69.8878413845386 20.72011682602931 0.01921330819111062 -1 0 0
2134 1 71.7767019624991 19.629598184891684 1.1761049295802972 -1 0 0
2136 5 73.6655625404596 20.72011682602931 0.019213308191110622 -1 0 0
2333 1 69.8878413845384 22.90120067433268 1.1761049295802968 -1 0 0
2341 1 73.6655625404594 22.90120067433268 1.1761049295802968 -1 0 0
2143 5 75.5544231184199 17.44851433658831 0.019213308191112485 -1 0 0
2151 5 79.3321442743409 17.44851433658831 0.019213308191112485 -1 0 0
2142 1 75.5544231184201 19.629598184891684 1.1761049295802972 -1 0 0
2144 5 77.4432836963806 20.72011682602931 0.019213308191110622 -1 0 0
2150 1 79.3321442743411 19.629598184891684 1.1761049295802972 -1 0 0
2349 1 77.4432836963804 22.90120067433268 1.1761049295802968 -1 0 0
2159 5 83.1098654302619 17.44851433658831 0.019213308191112485 -1 0 0
2152 5 81.2210048523016 20.72011682602931 0.019213308191110622 -1 0 0
2158 1 83.1098654302621 19.629598184891684 1.1761049295802972 -1 0 0
2160 5 84.9987260082226 20.72011682602931 0.019213308191110622 -1 0 0
2357 1 81.2210048523014 22.90120067433268 1.1761049295802968 -1 0 0
2365 1 84.9987260082224 22.90120067433268 1.1761049295802968 -1 0 0
2167 5 86.8875865861829 17.44851433658831 0.019213308191112485 -1 0 0
2175 5 90.6653077421039 17.44851433658831 0.019213308191112482 -1 0 0
2166 1 86.8875865861831 19.629598184891684 1.1761049295802972 -1 0 0
2168 5 88.7764471641436 20.72011682602931 0.019213308191110622 -1 0 0
2174 1 90.6653077421041 19.629598184891684 1.1761049295802972 -1 0 0
2373 1 88.7764471641434 22.90120067433268 1.1761049295802968 -1 0 0
2191 5 98.2207500539459 17.44851433658831 0.01921330819111128 -1 0 0
2183 5 94.4430288980249 17.44851433658831 0.019213308191112333 -1 0 0
2176 5 92.5541683200646 20.72011682602931 0.019213308191110622 -1 0 0
2182 1 94.4430288980251 19.62959818489168 1.1761049295802974 -1 0 0
2184 5 96.3318894759856 20.72011682602931 0.019213308191111743 -1 0 0
2381 1 92.5541683200644 22.90120067433268 1.176104929580297 -1 0 0
2389 1 96.3318894759854 22.90120067433268 1.1761049295802979 -1 0 0
2407 5 3.7777211559209003 23.99171931547031 0.01921330819111279 0 0 0
2398 1 9.689395428740119e-14 26.172803163773683 1.1761049295802979 0 0 0
2400 5 1.8888605779606045 27.263321804911314 0.019213308191111878 0 0 0
2406 1 3.7777211559210966 26.172803163773683 1.1761049295802974 0 0 0
2408 5 5.666581733881606 27.26332180491131 0.01921330819111114 0 0 0
2415 5 7.555442311841899 23.99171931547031 0.019213308191113138 0 0 0
2423 5 11.3331634677629 23.99171931547031 0.019213308191113235 0 0 0
2414 1 7.555442311842097 26.172803163773683 1.1761049295802974 0 0 0
2416 5 9.444302889802605 27.26332180491131 0.01921330819111111 0 0 0
2422 1 11.333163467763098 26.172803163773683 1.1761049295802977 0 0 0
2431 5 15.110884623683901 23.99171931547031 0.01921330819111375 0 0 0
2424 5 13.222024045723606 27.26332180491131 0.01921330819111162 0 0 0
2430 1 15.110884623684099 26.172803163773683 1.1761049295802979 0 0 0
2432 5 16.999745201644608 27.26332180491131 0.019213308191111313 0 0 0
2439 5 18.8886057796049 23.99171931547031 0.01921330819111317 0 0 0
2447 5 22.666326935525902 23.99171931547031 0.01921330819111328 0 0 0
2438 1 18.8886057796051 26.172803163773683 1.1761049295802977 0 0 0
2440 5 20.777466357565608 27.26332180491131 0.019213308191111268 0 0 0
2446 1 22.6663269355261 26.172803163773683 1.1761049295802977 0 0 0
2455 5 26.444048091446902 23.99171931547031 0.019213308191112957 0 0 0
2448 5 24.555187513486608 27.26332180491131 0.019213308191111292 0 0 0
2454 1 26.4440480914471 26.172803163773683 1.1761049295802974 0 0 0
2456 5 28.332908669407608 27.263321804911314 0.01921330819111171 0 0 0
2463 5 30.221769247367902 23.991719315470313 0.019213308191111274 0 0 0
2471 5 33.9994904032889 23.99171931547031 0.019213308191112822 0 0 0
2462 1 30.2217692473681 26.172803163773683 1.176104929580297 0 0 0
2464 5 32.11062982532861 27.263321804911314 0.01921330819111137 0 0 0
2470 1 33.9994904032891 26.172803163773683 1.1761049295802972 0 0 0
2479 5 37.7772115592099 23.99171931547031 0.01921330819111324 0 0 0
2472 5 35.88835098124961 27.26332180491131 0.019213308191111195 0 0 0
2478 1 37.7772115592101 26.172803163773683 1.1761049295802977 0 0 0
2480 5 39.66607213717061 27.26332180491131 0.01921330819111117 0 0 0
2487 5 41.5549327151309 23.99171931547031 0.01921330819111324 0 0 0
2495 5 45.3326538710519 23.99171931547031 0.01921330819111345 0 0 0
2486 1 41.5549327151311 26.172803163773683 1.1761049295802977 0 0 0
2488 5 43.44379329309161 27.26332180491131 0.01921330819111117 0 0 0
2494 1 45.3326538710521 26.172803163773683 1.1761049295802977 0 0 0
2295 5 49.110375026972896 23.99171931547031 0.019213308191113398 -1 0 0
2496 5 47.22151444901261 27.26332180491131 0.019213308191111608 0 0 0
2294 1 49.1103750269731 26.172803163773683 1.176104929580298 -1 0 0
2296 5 50.99923560493361 27.26332180491131 0.019213308191111486 -1 0 0
2303 5 52.888096182893904 23.99171931547031 0.019213308191113686 -1 0 0
2311 5 56.665817338814904 23.99171931547031 0.019213308191113276 -1 0 0
2302 1 52.8880961828941 26.172803163773683 1.1761049295802977 -1 0 0
2304 5 54.77695676085461 27.26332180491131 0.019213308191111146 -1 0 0
2310 1 56.6658173388151 26.172803163773683 1.1761049295802977 -1 0 0
2319 5 60.443538494735904 23.99171931547031 0.019213308191112714 -1 0 0
2312 5 58.55467791677561 27.26332180491131 0.019213308191111056 -1 0 0
2318 1 60.4435384947361 26.172803163773683 1.1761049295802972 -1 0 0
2320 5 62.33239907269661 27.26332180491131 0.019213308191113523 -1 0 0
2327 5 64.2212596506569 23.99171931547031 0.01921330819111441 -1 0 0
2335 5 67.9989808065779 23.99171931547031 0.019213308191113273 -1 0 0
2326 1 64.2212596506571 26.17280316377368 1.1761049295802972 -1 0 0
2328 5 66.1101202286176 27.26332180491131 0.019213308191109654 -1 0 0
2334 1 67.9989808065781 26.172803163773683 1.1761049295802972 -1 0 0
2343 5 71.7767019624989 23.99171931547031 0.01921330819111329 -1 0 0
2336 5 69.8878413845386 27.26332180491131 0.01921330819111115 -1 0 0
2342 1 71.7767019624991 26.172803163773683 1.176104929580297 -1 0 0
2344 5 73.6655625404596 27.26332180491131 0.019213308191111174 -1 0 0
2351 5 75.5544231184199 23.99171931547031 0.01921330819111329 -1 0 0
2359 5 79.3321442743409 23.99171931547031 0.01921330819111329 -1 0 0
2350 1 75.5544231184201 26.172803163773683 1.176104929580297 -1 0 0
2352 5 77.4432836963806 27.26332180491131 0.019213308191111174 -1 0 0
2358 1 79.3321442743411 26.172803163773683 1.176104929580297 -1 0 0