LAMMPS data file via write_data, version 29 Aug 2024, timestep = 3, units = metal

9360 atoms
12 atom types

0 98.220750053946 xlo xhi
0 98.14807468323 ylo yhi
-50 50 zlo zhi

Masses

1 26.9815385
2 26.9815385
3 26.9815385
4 26.9815385
5 26.9815385
6 26.9815385
7 78.971
8 78.971
9 78.971
10 78.971
11 78.971
12 78.971

Atoms # atomic

1568 7 1.8888605779606156 1.0905031024054985 0.018406657430888033 0 0 0
1576 7 5.666581733881617 1.0905031024054979 0.018406657430887763 0 0 0
1773 1 1.8888605779603802 3.2715869098492285 1.17564185701445 0 0 0
1781 1 5.6665817338813795 3.271586909849229 1.1756418570144496 0 0 0
1783 7 3.777721155920898 4.362105591846501 0.018406657430886653 0 0 0
1584 7 9.444302889802618 1.0905031024054979 0.018406657430887693 0 0 0
1789 1 9.44430288980238 3.271586909849229 1.1756418570144498 0 0 0
1791 7 7.555442311841898 4.362105591846501 0.018406657430886816 0 0 0
1799 7 11.3331634677629 4.3621055918465 0.018406657430886497 0 0 0
1592 7 13.222024045723618 1.0905031024054979 0.0184066574308875 0 0 0
1600 7 16.999745201644618 1.0905031024054979 0.018406657430887804 0 0 0
1797 1 13.222024045723382 3.271586909849229 1.1756418570144498 0 0 0
1805 1 16.999745201644384 3.271586909849229 1.1756418570144502 0 0 0
1807 7 15.1108846236839 4.362105591846501 0.018406657430887454 0 0 0
1608 7 20.77746635756562 1.090503102405498 0.0184066574308877 0 0 0
1813 1 20.77746635756538 3.271586909849229 1.1756418570144496 0 0 0
1815 7 18.8886057796049 4.362105591846501 0.018406657430886417 0 0 0
1823 7 22.666326935525902 4.3621055918465 0.01840665743088654 0 0 0
1616 7 24.55518751348662 1.090503102405498 0.018406657430887693 0 0 0
1624 7 28.33290866940762 1.0905031024054985 0.018406657430886878 0 0 0
1821 1 24.55518751348638 3.271586909849229 1.1756418570144498 0 0 0
1829 1 28.33290866940738 3.271586909849229 1.1756418570144493 0 0 0
1831 7 26.4440480914469 4.3621055918465 0.018406657430886326 0 0 0
1632 7 32.110629825328616 1.0905031024054983 0.01840665743088722 0 0 0
1837 1 32.11062982532838 3.271586909849229 1.1756418570144498 0 0 0
1839 7 30.2217692473679 4.362105591846501 0.018406657430885272 0 0 0
1847 7 33.999490403288895 4.362105591846501 0.018406657430886257 0 0 0
1640 7 35.888350981249616 1.090503102405498 0.01840665743088768 0 0 0
1648 7 39.666072137170616 1.090503102405498 0.018406657430887676 0 0 0
1845 1 35.88835098124938 3.271586909849229 1.1756418570144498 0 0 0
1853 1 39.66607213717038 3.271586909849229 1.1756418570144498 0 0 0
1855 7 37.777211559209896 4.362105591846501 0.0184066574308867 0 0 0
1656 7 43.443793293091616 1.090503102405498 0.018406657430887662 0 0 0
1861 1 43.44379329309138 3.271586909849229 1.1756418570144496 0 0 0
1863 7 41.554932715130896 4.362105591846501 0.018406657430886708 0 0 0
1871 7 45.332653871051896 4.362105591846501 0.018406657430887163 0 0 0
1664 7 47.221514449012616 1.0905031024054979 0.0184066574308879 0 0 0
1464 7 50.99923560493362 1.0905031024054972 0.018406657430888547 -1 0 0
1869 1 47.22151444901238 3.2715869098492285 1.1756418570144498 0 0 0
1669 1 50.99923560493338 3.2715869098492294 1.1756418570144493 -1 0 0
1671 7 49.110375026972896 4.3621055918465 0.018406657430887048 -1 0 0
1472 7 54.776956760854624 1.0905031024054979 0.01840665743088735 -1 0 0
1677 1 54.77695676085439 3.271586909849228 1.1756418570144505 -1 0 0
1679 7 52.888096182893904 4.3621055918465 0.01840665743088788 -1 0 0
1687 7 56.665817338814904 4.362105591846501 0.018406657430886687 -1 0 0
1480 7 58.554677916775624 1.090503102405498 0.018406657430887544 -1 0 0
1488 7 62.33239907269662 1.0905031024054992 0.018406657430887027 -1 0 0
1685 1 58.55467791677538 3.271586909849229 1.1756418570144496 -1 0 0
1693 1 62.33239907269639 3.27158690984923 1.1756418570144473 -1 0 0
1695 7 60.4435384947359 4.362105591846501 0.01840665743088611 -1 0 0
1496 7 66.11012022861762 1.090503102405498 0.018406657430887596 -1 0 0
1701 1 66.11012022861739 3.271586909849229 1.17564185701445 -1 0 0
1703 7 64.2212596506569 4.3621055918465 0.018406657430885924 -1 0 0
1711 7 67.99898080657789 4.362105591846501 0.018406657430886583 -1 0 0
1504 7 69.88784138453862 1.090503102405498 0.018406657430887572 -1 0 0
1512 7 73.66556254045962 1.090503102405498 0.018406657430887572 -1 0 0
1709 1 69.88784138453839 3.2715869098492285 1.17564185701445 -1 0 0
1717 1 73.66556254045939 3.2715869098492285 1.17564185701445 -1 0 0
1719 7 71.77670196249889 4.362105591846501 0.018406657430886587 -1 0 0
1520 7 77.44328369638062 1.090503102405498 0.018406657430887572 -1 0 0
1725 1 77.44328369638039 3.2715869098492285 1.17564185701445 -1 0 0
1727 7 75.55442311841989 4.362105591846501 0.018406657430886583 -1 0 0
1735 7 79.33214427434089 4.362105591846501 0.01840665743088658 -1 0 0
1528 7 81.22100485230162 1.090503102405498 0.018406657430887572 -1 0 0
1536 7 84.99872600822262 1.090503102405498 0.018406657430887572 -1 0 0
1733 1 81.22100485230139 3.2715869098492285 1.17564185701445 -1 0 0
1741 1 84.99872600822239 3.2715869098492285 1.17564185701445 -1 0 0
1743 7 83.10986543026189 4.362105591846501 0.018406657430886583 -1 0 0
1544 7 88.77644716414362 1.090503102405498 0.018406657430887572 -1 0 0
1749 1 88.77644716414339 3.2715869098492285 1.17564185701445 -1 0 0
1751 7 86.88758658618289 4.362105591846501 0.018406657430886583 -1 0 0
1759 7 90.66530774210389 4.362105591846501 0.01840665743088658 -1 0 0
1775 7 98.2207500539459 4.362105591846501 0.018406657430886524 -1 0 0
1552 7 92.55416832006462 1.090503102405498 0.018406657430887572 -1 0 0
1560 7 96.33188947598562 1.0905031024054987 0.01840665743088626 -1 0 0
1757 1 92.55416832006439 3.2715869098492285 1.17564185701445 -1 0 0
1765 1 96.33188947598539 3.2715869098492276 1.1756418570144511 -1 0 0
1767 7 94.44302889802489 4.362105591846501 0.01840665743088651 -1 0 0
1774 1 1.0502421706705118e-13 6.543189399290227 1.1756418570144542 0 0 0
1776 7 1.888860577960616 7.633708081287502 0.018406657430887246 0 0 0
1782 1 3.7777211559210992 6.543189399290229 1.17564185701445 0 0 0
1784 7 5.666581733881617 7.633708081287502 0.018406657430886986 0 0 0
1981 1 1.8888605779603806 9.814791888731229 1.1756418570144505 0 0 0
1989 1 5.6665817338813795 9.814791888731229 1.1756418570144502 0 0 0
1991 7 3.7777211559208976 10.905310570728501 0.018406657430886725 0 0 0
1790 1 7.5554423118421 6.543189399290228 1.17564185701445 0 0 0
1792 7 9.444302889802618 7.633708081287501 0.018406657430887083 0 0 0
1798 1 11.3331634677631 6.543189399290229 1.1756418570144498 0 0 0
1997 1 9.44430288980238 9.814791888731229 1.17564185701445 0 0 0
1999 7 7.555442311841897 10.905310570728501 0.01840665743088679 0 0 0
2007 7 11.333163467762898 10.9053105707285 0.018406657430886927 0 0 0
1800 7 13.222024045723618 7.633708081287502 0.018406657430886864 0 0 0
1806 1 15.1108846236841 6.543189399290229 1.1756418570144502 0 0 0
1808 7 16.999745201644618 7.633708081287501 0.01840665743088691 0 0 0
2005 1 13.222024045723382 9.814791888731229 1.1756418570144502 0 0 0
2013 1 16.999745201644384 9.814791888731229 1.175641857014451 0 0 0
2015 7 15.1108846236839 10.905310570728501 0.01840665743088749 0 0 0
1814 1 18.8886057796051 6.543189399290229 1.1756418570144496 0 0 0
1816 7 20.77746635756562 7.633708081287502 0.018406657430887065 0 0 0
1822 1 22.6663269355261 6.543189399290229 1.1756418570144498 0 0 0
2021 1 20.77746635756538 9.814791888731229 1.17564185701445 0 0 0
2023 7 18.8886057796049 10.905310570728501 0.018406657430886576 0 0 0
2031 7 22.666326935525902 10.905310570728501 0.018406657430886715 0 0 0
1824 7 24.55518751348662 7.633708081287502 0.01840665743088703 0 0 0
1830 1 26.4440480914471 6.543189399290229 1.17564185701445 0 0 0
1832 7 28.33290866940762 7.633708081287502 0.018406657430886767 0 0 0
2029 1 24.55518751348638 9.814791888731229 1.1756418570144502 0 0 0
2037 1 28.33290866940738 9.814791888731229 1.1756418570144502 0 0 0
2039 7 26.444048091446902 10.905310570728501 0.018406657430886757 0 0 0
1838 1 30.2217692473681 6.543189399290228 1.1756418570144487 0 0 0
1840 7 32.110629825328616 7.633708081287502 0.018406657430886045 0 0 0
1846 1 33.9994904032891 6.543189399290228 1.17564185701445 0 0 0
2045 1 32.11062982532838 9.814791888731229 1.1756418570144493 0 0 0
2047 7 30.2217692473679 10.905310570728501 0.01840665743088462 0 0 0
2055 7 33.999490403288895 10.905310570728501 0.018406657430886843 0 0 0
1848 7 35.888350981249616 7.633708081287502 0.0184066574308868 0 0 0
1854 1 37.7772115592101 6.543189399290228 1.17564185701445 0 0 0
1856 7 39.666072137170616 7.633708081287502 0.01840665743088681 0 0 0
2053 1 35.88835098124938 9.814791888731229 1.1756418570144502 0 0 0
2061 1 39.66607213717038 9.814791888731229 1.17564185701445 0 0 0
2063 7 37.777211559209896 10.905310570728501 0.01840665743088691 0 0 0
1862 1 41.5549327151311 6.543189399290228 1.17564185701445 0 0 0
1864 7 43.443793293091616 7.633708081287502 0.018406657430886673 0 0 0
1870 1 45.3326538710521 6.543189399290229 1.17564185701445 0 0 0
2069 1 43.44379329309138 9.814791888731229 1.1756418570144502 0 0 0
2071 7 41.554932715130896 10.905310570728501 0.0184066574308868 0 0 0
2079 7 45.332653871051896 10.9053105707285 0.018406657430887142 0 0 0
1872 7 47.221514449012616 7.633708081287501 0.01840665743088684 0 0 0
1670 1 49.1103750269731 6.543189399290229 1.1756418570144511 -1 0 0
1672 7 50.99923560493362 7.633708081287502 0.018406657430886802 -1 0 0
2077 1 47.22151444901238 9.814791888731229 1.1756418570144505 0 0 0
1877 1 50.99923560493338 9.814791888731229 1.1756418570144498 -1 0 0
1879 7 49.110375026972896 10.905310570728501 0.018406657430887197 -1 0 0
1678 1 52.8880961828941 6.543189399290229 1.1756418570144505 -1 0 0
1680 7 54.77695676085462 7.633708081287502 0.01840665743088682 -1 0 0
1686 1 56.6658173388151 6.543189399290229 1.17564185701445 -1 0 0
1885 1 54.77695676085439 9.814791888731229 1.17564185701445 -1 0 0
1887 7 52.888096182893904 10.9053105707285 0.018406657430887676 -1 0 0
1895 7 56.665817338814904 10.905310570728501 0.018406657430886552 -1 0 0
1688 7 58.55467791677562 7.633708081287502 0.018406657430886694 -1 0 0
1694 1 60.4435384947361 6.543189399290229 1.1756418570144493 -1 0 0
1696 7 62.33239907269662 7.633708081287501 0.01840665743088738 -1 0 0
1893 1 58.55467791677539 9.814791888731229 1.1756418570144502 -1 0 0
1901 1 62.33239907269639 9.814791888731229 1.175641857014449 -1 0 0
1903 7 60.443538494735904 10.905310570728501 0.018406657430886028 -1 0 0
1702 1 64.2212596506571 6.543189399290229 1.1756418570144487 -1 0 0
1704 7 66.11012022861762 7.633708081287502 0.018406657430886705 -1 0 0
1710 1 67.99898080657812 6.543189399290229 1.17564185701445 -1 0 0
1909 1 66.11012022861739 9.814791888731229 1.17564185701445 -1 0 0
1911 7 64.2212596506569 10.905310570728501 0.01840665743088627 -1 0 0
1919 7 67.99898080657789 10.905310570728501 0.018406657430886552 -1 0 0
1712 7 69.88784138453862 7.633708081287502 0.018406657430886722 -1 0 0
1718 1 71.77670196249912 6.543189399290229 1.17564185701445 -1 0 0
1720 7 73.66556254045962 7.633708081287502 0.018406657430886722 -1 0 0
1917 1 69.88784138453839 9.814791888731229 1.1756418570144502 -1 0 0
1925 1 73.66556254045939 9.814791888731229 1.1756418570144502 -1 0 0
1927 7 71.77670196249889 10.905310570728501 0.018406657430886552 -1 0 0
1726 1 75.55442311842012 6.543189399290229 1.17564185701445 -1 0 0
1728 7 77.44328369638062 7.633708081287502 0.018406657430886722 -1 0 0
1734 1 79.33214427434112 6.543189399290229 1.17564185701445 -1 0 0
1933 1 77.44328369638039 9.814791888731229 1.1756418570144502 -1 0 0
1935 7 75.55442311841989 10.905310570728501 0.018406657430886552 -1 0 0
1943 7 79.33214427434089 10.905310570728501 0.018406657430886552 -1 0 0
1736 7 81.22100485230162 7.633708081287502 0.018406657430886722 -1 0 0
1742 1 83.10986543026212 6.543189399290229 1.17564185701445 -1 0 0
1744 7 84.99872600822262 7.633708081287502 0.018406657430886722 -1 0 0
1941 1 81.22100485230139 9.814791888731229 1.1756418570144502 -1 0 0
1949 1 84.99872600822239 9.814791888731229 1.1756418570144502 -1 0 0
1951 7 83.10986543026189 10.905310570728501 0.018406657430886552 -1 0 0
1750 1 86.88758658618312 6.543189399290229 1.17564185701445 -1 0 0
1752 7 88.77644716414362 7.633708081287502 0.018406657430886722 -1 0 0
1758 1 90.66530774210412 6.543189399290229 1.17564185701445 -1 0 0
1957 1 88.77644716414339 9.814791888731229 1.1756418570144502 -1 0 0
1959 7 86.88758658618289 10.905310570728501 0.018406657430886552 -1 0 0
1967 7 90.66530774210389 10.905310570728501 0.01840665743088657 -1 0 0
1983 7 98.2207500539459 10.905310570728501 0.018406657430886417 -1 0 0
1760 7 92.55416832006462 7.633708081287502 0.018406657430886736 -1 0 0
1766 1 94.44302889802512 6.543189399290228 1.17564185701445 -1 0 0
1768 7 96.33188947598562 7.6337080812875024 0.018406657430885542 -1 0 0
1965 1 92.55416832006439 9.814791888731229 1.1756418570144502 -1 0 0
1973 1 96.33188947598539 9.814791888731227 1.1756418570144513 -1 0 0
1975 7 94.44302889802489 10.905310570728501 0.018406657430886736 -1 0 0
1982 1 1.0497773629767559e-13 13.086394378172226 1.1756418570144538 0 0 0
1990 1 3.7777211559210992 13.086394378172228 1.17564185701445 0 0 0
1984 7 1.888860577960616 14.1769130601695 0.018406657430886687 0 0 0
1992 7 5.666581733881617 14.1769130601695 0.018406657430886816 0 0 0
2189 1 1.8888605779603806 16.357996867613227 1.1756418570144511 0 0 0
2197 1 5.6665817338813795 16.357996867613227 1.1756418570144507 0 0 0
1998 1 7.555442311842099 13.086394378172228 1.17564185701445 0 0 0
2006 1 11.3331634677631 13.086394378172228 1.1756418570144496 0 0 0
2000 7 9.444302889802616 14.1769130601695 0.018406657430886736 0 0 0
2205 1 9.44430288980238 16.357996867613227 1.1756418570144507 0 0 0
2014 1 15.1108846236841 13.086394378172228 1.1756418570144502 0 0 0
2008 7 13.222024045723618 14.1769130601695 0.018406657430886444 0 0 0
2016 7 16.999745201644618 14.1769130601695 0.01840665743088653 0 0 0
2213 1 13.222024045723382 16.357996867613227 1.1756418570144505 0 0 0
2221 1 16.999745201644384 16.357996867613227 1.175641857014451 0 0 0
2022 1 18.8886057796051 13.086394378172228 1.1756418570144496 0 0 0
2030 1 22.6663269355261 13.086394378172228 1.1756418570144498 0 0 0
2024 7 20.77746635756562 14.1769130601695 0.018406657430886725 0 0 0
2229 1 20.77746635756538 16.357996867613227 1.175641857014451 0 0 0
2038 1 26.4440480914471 13.086394378172228 1.1756418570144498 0 0 0
2032 7 24.55518751348662 14.1769130601695 0.01840665743088671 0 0 0
2040 7 28.33290866940762 14.1769130601695 0.01840665743088632 0 0 0
2237 1 24.55518751348638 16.357996867613227 1.1756418570144507 0 0 0
2245 1 28.33290866940738 16.357996867613227 1.1756418570144502 0 0 0
2046 1 30.2217692473681 13.086394378172228 1.1756418570144491 0 0 0
2054 1 33.9994904032891 13.086394378172228 1.1756418570144498 0 0 0
2048 7 32.110629825328616 14.1769130601695 0.018406657430885556 0 0 0
2253 1 32.11062982532838 16.357996867613227 1.175641857014451 0 0 0
2062 1 37.7772115592101 13.086394378172228 1.1756418570144498 0 0 0
2056 7 35.888350981249616 14.1769130601695 0.018406657430886774 0 0 0
2064 7 39.666072137170616 14.1769130601695 0.018406657430886778 0 0 0
2261 1 35.88835098124938 16.357996867613227 1.1756418570144507 0 0 0
2269 1 39.66607213717038 16.357996867613227 1.1756418570144507 0 0 0
2070 1 41.5549327151311 13.086394378172228 1.1756418570144498 0 0 0
2078 1 45.3326538710521 13.086394378172228 1.1756418570144498 0 0 0
2072 7 43.443793293091616 14.1769130601695 0.018406657430886774 0 0 0
2277 1 43.44379329309138 16.357996867613227 1.1756418570144507 0 0 0
1878 1 49.1103750269731 13.086394378172228 1.17564185701445 -1 0 0
2080 7 47.221514449012616 14.176913060169499 0.018406657430886354 0 0 0
1880 7 50.99923560493362 14.176913060169499 0.0184066574308875 -1 0 0
2285 1 47.22151444901238 16.357996867613227 1.1756418570144502 0 0 0
2085 1 50.99923560493338 16.357996867613227 1.1756418570144516 -1 0 0
1886 1 52.8880961828941 13.086394378172228 1.1756418570144496 -1 0 0
1894 1 56.6658173388151 13.086394378172228 1.1756418570144498 -1 0 0
1888 7 54.776956760854624 14.1769130601695 0.01840665743088668 -1 0 0
2093 1 54.77695676085439 16.357996867613227 1.1756418570144496 -1 0 0
1902 1 60.4435384947361 13.086394378172228 1.1756418570144491 -1 0 0
1896 7 58.554677916775624 14.1769130601695 0.01840665743088668 -1 0 0
1904 7 62.33239907269662 14.176913060169502 0.018406657430885806 -1 0 0
2101 1 58.55467791677539 16.357996867613227 1.175641857014452 -1 0 0
2109 1 62.33239907269639 16.357996867613227 1.1756418570144482 -1 0 0
1910 1 64.2212596506571 13.086394378172228 1.1756418570144496 -1 0 0
1918 1 67.99898080657812 13.086394378172228 1.17564185701445 -1 0 0
1912 7 66.11012022861762 14.1769130601695 0.01840665743088648 -1 0 0
2117 1 66.11012022861739 16.357996867613227 1.1756418570144505 -1 0 0
1926 1 71.77670196249912 13.086394378172228 1.17564185701445 -1 0 0
1920 7 69.88784138453862 14.1769130601695 0.01840665743088657 -1 0 0
1928 7 73.66556254045962 14.1769130601695 0.018406657430886566 -1 0 0
2125 1 69.88784138453839 16.357996867613227 1.1756418570144507 -1 0 0
2133 1 73.66556254045939 16.357996867613227 1.1756418570144507 -1 0 0
1934 1 75.55442311842012 13.086394378172228 1.17564185701445 -1 0 0
1942 1 79.33214427434112 13.086394378172228 1.17564185701445 -1 0 0
1936 7 77.44328369638062 14.1769130601695 0.01840665743088657 -1 0 0
2141 1 77.44328369638039 16.357996867613227 1.1756418570144507 -1 0 0
1950 1 83.10986543026212 13.086394378172228 1.17564185701445 -1 0 0
1944 7 81.22100485230162 14.1769130601695 0.01840665743088657 -1 0 0
1952 7 84.99872600822262 14.1769130601695 0.018406657430886566 -1 0 0
2149 1 81.22100485230139 16.357996867613227 1.1756418570144507 -1 0 0
2157 1 84.99872600822239 16.357996867613227 1.1756418570144507 -1 0 0
1958 1 86.88758658618312 13.086394378172228 1.17564185701445 -1 0 0
1966 1 90.66530774210412 13.086394378172228 1.17564185701445 -1 0 0
1960 7 88.77644716414362 14.1769130601695 0.01840665743088657 -1 0 0
2165 1 88.77644716414339 16.357996867613227 1.1756418570144507 -1 0 0
1974 1 94.44302889802512 13.086394378172228 1.1756418570144498 -1 0 0
1968 7 92.55416832006462 14.1769130601695 0.018406657430886576 -1 0 0
1976 7 96.33188947598562 14.176913060169502 0.018406657430885334 -1 0 0
2173 1 92.55416832006439 16.357996867613227 1.1756418570144507 -1 0 0
2181 1 96.33188947598539 16.357996867613227 1.175641857014452 -1 0 0
2199 7 3.7777211559208976 17.4485155496105 0.01840665743088743 0 0 0
2190 1 1.0495322981196493e-13 19.629599357054225 1.1756418570144538 0 0 0
2192 7 1.888860577960616 20.7201180390515 0.018406657430886406 0 0 0
2198 1 3.7777211559210992 19.62959935705423 1.1756418570144493 0 0 0
2200 7 5.666581733881617 20.7201180390515 0.018406657430886295 0 0 0
2397 1 1.8888605779603802 22.901201846495226 1.1756418570144507 0 0 0
2405 1 5.6665817338813795 22.901201846495226 1.17564185701445 0 0 0
2207 7 7.555442311841897 17.4485155496105 0.01840665743088746 0 0 0
2215 7 11.333163467762898 17.4485155496105 0.01840665743088765 0 0 0
2206 1 7.5554423118421 19.62959935705423 1.1756418570144496 0 0 0
2208 7 9.444302889802616 20.7201180390515 0.01840665743088632 0 0 0
2214 1 11.3331634677631 19.62959935705423 1.1756418570144491 0 0 0
2413 1 9.44430288980238 22.901201846495226 1.17564185701445 0 0 0
2223 7 15.1108846236839 17.4485155496105 0.018406657430888124 0 0 0
2216 7 13.222024045723618 20.7201180390515 0.018406657430886243 0 0 0
2222 1 15.1108846236841 19.62959935705423 1.1756418570144502 0 0 0
2224 7 16.999745201644618 20.7201180390515 0.018406657430886354 0 0 0
2421 1 13.222024045723382 22.901201846495226 1.1756418570144498 0 0 0
2429 1 16.99974520164438 22.901201846495226 1.1756418570144505 0 0 0
2231 7 18.8886057796049 17.4485155496105 0.01840665743088714 0 0 0
2239 7 22.666326935525902 17.4485155496105 0.01840665743088733 0 0 0
2230 1 18.8886057796051 19.62959935705423 1.1756418570144493 0 0 0
2232 7 20.77746635756562 20.7201180390515 0.018406657430886167 0 0 0
2238 1 22.6663269355261 19.62959935705423 1.1756418570144491 0 0 0
2437 1 20.77746635756538 22.901201846495226 1.17564185701445 0 0 0
2247 7 26.444048091446902 17.4485155496105 0.018406657430887652 0 0 0
2240 7 24.55518751348662 20.7201180390515 0.0184066574308863 0 0 0
2246 1 26.4440480914471 19.62959935705423 1.1756418570144493 0 0 0
2248 7 28.33290866940762 20.7201180390515 0.018406657430886528 0 0 0
2445 1 24.55518751348638 22.901201846495226 1.17564185701445 0 0 0
2453 1 28.33290866940738 22.901201846495226 1.1756418570144498 0 0 0
2255 7 30.2217692473679 17.448515549610498 0.018406657430886306 0 0 0
2263 7 33.999490403288895 17.4485155496105 0.01840665743088724 0 0 0
2254 1 30.2217692473681 19.62959935705423 1.1756418570144482 0 0 0
2256 7 32.110629825328616 20.7201180390515 0.018406657430885227 0 0 0
2262 1 33.9994904032891 19.62959935705423 1.1756418570144493 0 0 0
2461 1 32.11062982532838 22.901201846495226 1.17564185701445 0 0 0
2271 7 37.777211559209896 17.4485155496105 0.018406657430887482 0 0 0
2264 7 35.888350981249616 20.7201180390515 0.01840665743088627 0 0 0
2270 1 37.7772115592101 19.62959935705423 1.1756418570144491 0 0 0
2272 7 39.666072137170616 20.7201180390515 0.018406657430886264 0 0 0
2469 1 35.88835098124938 22.901201846495226 1.1756418570144502 0 0 0
2477 1 39.66607213717038 22.901201846495226 1.1756418570144502 0 0 0
2279 7 41.554932715130896 17.4485155496105 0.018406657430887482 0 0 0
2287 7 45.332653871051896 17.4485155496105 0.01840665743088804 0 0 0
2278 1 41.5549327151311 19.62959935705423 1.1756418570144491 0 0 0
2280 7 43.443793293091616 20.7201180390515 0.018406657430886274 0 0 0
2286 1 45.3326538710521 19.62959935705423 1.1756418570144491 0 0 0
2485 1 43.44379329309138 22.901201846495226 1.1756418570144502 0 0 0
2087 7 49.110375026972896 17.448515549610498 0.01840665743088797 -1 0 0
2288 7 47.221514449012616 20.7201180390515 0.018406657430885945 0 0 0
2086 1 49.1103750269731 19.62959935705423 1.1756418570144502 -1 0 0
2088 7 50.99923560493362 20.7201180390515 0.018406657430885993 -1 0 0
2493 1 47.22151444901238 22.901201846495226 1.1756418570144502 0 0 0
2293 1 50.99923560493338 22.901201846495226 1.1756418570144498 -1 0 0
2095 7 52.8880961828939 17.4485155496105 0.018406657430888332 -1 0 0
2103 7 56.665817338814904 17.4485155496105 0.018406657430887458 -1 0 0
2094 1 52.8880961828941 19.62959935705423 1.1756418570144493 -1 0 0
2096 7 54.77695676085462 20.7201180390515 0.018406657430886233 -1 0 0
2102 1 56.6658173388151 19.62959935705423 1.1756418570144493 -1 0 0
2301 1 54.77695676085439 22.901201846495226 1.1756418570144498 -1 0 0
2111 7 60.443538494735904 17.4485155496105 0.0184066574308872 -1 0 0
2104 7 58.55467791677562 20.7201180390515 0.018406657430887433 -1 0 0
2110 1 60.4435384947361 19.62959935705423 1.175641857014449 -1 0 0
2112 7 62.33239907269662 20.7201180390515 0.01840665743088543 -1 0 0
2309 1 58.55467791677539 22.901201846495226 1.1756418570144502 -1 0 0
2317 1 62.33239907269639 22.901201846495226 1.1756418570144487 -1 0 0
2119 7 64.2212596506569 17.4485155496105 0.018406657430887242 -1 0 0
2127 7 67.99898080657789 17.4485155496105 0.018406657430887482 -1 0 0
2118 1 64.2212596506571 19.62959935705423 1.175641857014449 -1 0 0
2120 7 66.11012022861762 20.7201180390515 0.018406657430886108 -1 0 0
2126 1 67.99898080657812 19.62959935705423 1.1756418570144491 -1 0 0
2325 1 66.11012022861739 22.901201846495226 1.17564185701445 -1 0 0
2135 7 71.77670196249889 17.4485155496105 0.018406657430887482 -1 0 0
2128 7 69.88784138453862 20.7201180390515 0.018406657430886205 -1 0 0
2134 1 71.77670196249912 19.62959935705423 1.1756418570144491 -1 0 0
2136 7 73.66556254045962 20.7201180390515 0.018406657430886205 -1 0 0
2333 1 69.88784138453839 22.901201846495226 1.17564185701445 -1 0 0
2341 1 73.66556254045939 22.901201846495226 1.17564185701445 -1 0 0
2143 7 75.55442311841989 17.4485155496105 0.018406657430887485 -1 0 0
2151 7 79.33214427434089 17.4485155496105 0.018406657430887482 -1 0 0
2142 1 75.55442311842012 19.62959935705423 1.1756418570144491 -1 0 0
2144 7 77.44328369638062 20.7201180390515 0.018406657430886205 -1 0 0
2150 1 79.33214427434112 19.62959935705423 1.1756418570144491 -1 0 0
2349 1 77.44328369638039 22.901201846495226 1.17564185701445 -1 0 0
2159 7 83.10986543026189 17.4485155496105 0.018406657430887485 -1 0 0
2152 7 81.22100485230162 20.7201180390515 0.018406657430886205 -1 0 0
2158 1 83.10986543026212 19.62959935705423 1.1756418570144491 -1 0 0
2160 7 84.99872600822262 20.7201180390515 0.018406657430886205 -1 0 0
2357 1 81.22100485230139 22.901201846495226 1.17564185701445 -1 0 0
2365 1 84.99872600822239 22.901201846495226 1.17564185701445 -1 0 0
2167 7 86.88758658618289 17.4485155496105 0.018406657430887485 -1 0 0
2175 7 90.66530774210389 17.4485155496105 0.018406657430887485 -1 0 0
2166 1 86.88758658618312 19.62959935705423 1.1756418570144491 -1 0 0
2168 7 88.77644716414362 20.7201180390515 0.018406657430886205 -1 0 0
2174 1 90.66530774210412 19.62959935705423 1.1756418570144491 -1 0 0
2373 1 88.77644716414339 22.901201846495226 1.17564185701445 -1 0 0
2191 7 98.2207500539459 17.4485155496105 0.01840665743088715 -1 0 0
2183 7 94.44302889802489 17.4485155496105 0.018406657430887555 -1 0 0
2176 7 92.55416832006462 20.7201180390515 0.01840665743088621 -1 0 0
2182 1 94.44302889802512 19.62959935705423 1.1756418570144493 -1 0 0
2184 7 96.33188947598562 20.720118039051503 0.01840665743088481 -1 0 0
2381 1 92.55416832006439 22.901201846495226 1.17564185701445 -1 0 0
2389 1 96.33188947598539 22.901201846495226 1.1756418570144516 -1 0 0
2407 7 3.777721155920898 23.9917205284925 0.018406657430887447 0 0 0
2398 1 1.0490284323941826e-13 26.172804335936224 1.1756418570144542 0 0 0
2400 7 1.8888605779606154 27.2633230179335 0.018406657430886993 0 0 0
2406 1 3.7777211559210992 26.172804335936227 1.1756418570144505 0 0 0
2408 7 5.666581733881617 27.2633230179335 0.018406657430886476 0 0 0
2415 7 7.555442311841897 23.9917205284925 0.01840665743088734 0 0 0
2423 7 11.333163467762898 23.9917205284925 0.018406657430887593 0 0 0
2414 1 7.5554423118421 26.172804335936227 1.1756418570144507 0 0 0
2416 7 9.444302889802616 27.2633230179335 0.018406657430886916 0 0 0
2422 1 11.3331634677631 26.172804335936227 1.17564185701445 0 0 0
2431 7 15.1108846236839 23.9917205284925 0.01840665743088798 0 0 0
2424 7 13.222024045723618 27.2633230179335 0.018406657430886767 0 0 0
2430 1 15.1108846236841 26.172804335936227 1.175641857014451 0 0 0
2432 7 16.999745201644618 27.2633230179335 0.01840665743088677 0 0 0
2439 7 18.8886057796049 23.9917205284925 0.018406657430887586 0 0 0
2447 7 22.666326935525902 23.9917205284925 0.01840665743088755 0 0 0
2438 1 18.8886057796051 26.172804335936227 1.1756418570144502 0 0 0
2440 7 20.77746635756562 27.2633230179335 0.018406657430886507 0 0 0
2446 1 22.6663269355261 26.172804335936227 1.1756418570144502 0 0 0
2455 7 26.4440480914469 23.9917205284925 0.01840665743088736 0 0 0
2448 7 24.55518751348662 27.2633230179335 0.0184066574308865 0 0 0
2454 1 26.4440480914471 26.172804335936227 1.1756418570144502 0 0 0
2456 7 28.33290866940762 27.2633230179335 0.01840665743088622 0 0 0
2463 7 30.2217692473679 23.9917205284925 0.018406657430885855 0 0 0
2471 7 33.999490403288895 23.9917205284925 0.018406657430887263 0 0 0
2462 1 30.2217692473681 26.172804335936227 1.1756418570144493 0 0 0
2464 7 32.110629825328616 27.2633230179335 0.018406657430885556 0 0 0
2470 1 33.9994904032891 26.172804335936227 1.1756418570144502 0 0 0
2479 7 37.777211559209896 23.9917205284925 0.01840665743088743 0 0 0
2472 7 35.888350981249616 27.2633230179335 0.018406657430886684 0 0 0
2478 1 37.7772115592101 26.172804335936227 1.1756418570144505 0 0 0
2480 7 39.666072137170616 27.2633230179335 0.018406657430886684 0 0 0
2487 7 41.554932715130896 23.9917205284925 0.018406657430887423 0 0 0
2495 7 45.332653871051896 23.9917205284925 0.01840665743088822 0 0 0
2486 1 41.5549327151311 26.172804335936227 1.1756418570144505 0 0 0
2488 7 43.443793293091616 27.2633230179335 0.018406657430886687 0 0 0
2494 1 45.3326538710521 26.172804335936227 1.1756418570144502 0 0 0
2295 7 49.110375026972896 23.9917205284925 0.018406657430887638 -1 0 0
2496 7 47.221514449012616 27.2633230179335 0.01840665743088659 0 0 0
2294 1 49.1103750269731 26.172804335936227 1.175641857014451 -1 0 0
2296 7 50.99923560493362 27.2633230179335 0.01840665743088657 -1 0 0
2303 7 52.888096182893904 23.9917205284925 0.018406657430888932 -1 0 0
2311 7 56.665817338814904 23.9917205284925 0.0184066574308874 -1 0 0
2302 1 52.8880961828941 26.172804335936227 1.1756418570144502 -1 0 0
2304 7 54.77695676085462 27.2633230179335 0.018406657430886594 -1 0 0
2310 1 56.6658173388151 26.172804335936227 1.1756418570144505 -1 0 0
2319 7 60.443538494735904 23.9917205284925 0.018406657430887194 -1 0 0
2312 7 58.55467791677562 27.2633230179335 0.01840665743088646 -1 0 0
2318 1 60.4435384947361 26.172804335936227 1.17564185701445 -1 0 0
2320 7 62.33239907269662 27.2633230179335 0.0184066574308869 -1 0 0
2327 7 64.2212596506569 23.9917205284925 0.018406657430887374 -1 0 0
2335 7 67.99898080657789 23.9917205284925 0.018406657430887638 -1 0 0
2326 1 64.2212596506571 26.172804335936227 1.17564185701445 -1 0 0
2328 7 66.11012022861762 27.2633230179335 0.018406657430886517 -1 0 0
2334 1 67.99898080657812 26.172804335936227 1.1756418570144505 -1 0 0
2343 7 71.77670196249889 23.9917205284925 0.018406657430887638 -1 0 0
2336 7 69.88784138453862 27.2633230179335 0.0184066574308865 -1 0 0
2342 1 71.77670196249912 26.172804335936227 1.1756418570144505 -1 0 0
2344 7 73.66556254045962 27.2633230179335 0.0184066574308865 -1 0 0
2351 7 75.55442311841989 23.9917205284925 0.018406657430887638 -1 0 0
2359 7 79.33214427434089 23.9917205284925 0.018406657430887638 -1 0 0
2350 1 75.55442311842012 26.172804335936227 1.1756418570144505 -1 0 0
2352 7 77.44328369638062 27.2633230179335 0.0184066574308865 -1 0 0
2358 1 79.33214427434112 26.172804335936227 1.1756418570144505 -1 0 0