LAMMPS data file via write_data, version 29 Aug 2024, timestep = 2, units = metal

9180 atoms
9 atom types

0 100.60932256164 xlo xhi
0 98.747593088732 ylo yhi
-50 50 zlo zhi

Masses

1 58.6934
2 58.6934
3 58.6934
4 32.06
5 32.06
6 32.06
7 32.06
8 32.06
9 32.06

Atoms # atomic

1536 5 1.6768220426939993 1.9362254007793906 0.04495107697004456 0 0 0
1711 1 5.674657336218841e-18 2.903005632024031 1.1714989709240684 0 0 0
1717 1 3.3536440853879985 2.903005632024031 1.1714989709240684 0 0 0
1542 5 5.030466128082 1.9362254007793915 0.044951076970045474 0 0 0
1715 5 0 4.840566373977391 0.04495107697004526 0 0 0
1721 5 3.353644085387999 4.840566373977392 0.04495107697004567 0 0 0
1712 1 1.676822042693999 5.807346605222031 1.1714989709240704 0 0 0
1718 1 5.030466128082 5.807346605222031 1.1714989709240706 0 0 0
1534 4 2.1017249393403114e-19 0.9649532192785628 2.296828358041607 0 0 0
1540 4 3.353644085387999 0.9649532192785626 2.2968283580416067 0 0 0
1713 4 1.6768220426939993 3.869294192476562 2.2968283580416067 0 0 0
1719 4 5.030466128082 3.869294192476561 2.2968283580416053 0 0 0
1723 1 6.707288170776001 2.903005632024031 1.1714989709240686 0 0 0
1548 5 8.38411021347 1.936225400779391 0.04495107697004496 0 0 0
1729 1 10.060932256164001 2.903005632024031 1.1714989709240684 0 0 0
1554 5 11.737754298858002 1.936225400779391 0.04495107697004498 0 0 0
1727 5 6.707288170776001 4.840566373977392 0.0449510769700462 0 0 0
1733 5 10.060932256164001 4.840566373977391 0.04495107697004521 0 0 0
1724 1 8.384110213470002 5.807346605222031 1.1714989709240704 0 0 0
1730 1 11.737754298858 5.807346605222031 1.1714989709240708 0 0 0
1546 4 6.707288170776001 0.9649532192785619 2.296828358041606 0 0 0
1552 4 10.060932256164001 0.9649532192785629 2.2968283580416076 0 0 0
1725 4 8.384110213470002 3.869294192476562 2.2968283580416062 0 0 0
1731 4 11.737754298858 3.869294192476562 2.2968283580416062 0 0 0
1735 1 13.414576341552001 2.9030056320240307 1.1714989709240684 0 0 0
1560 5 15.091398384246004 1.9362254007793915 0.04495107697004551 0 0 0
1741 1 16.768220426940005 2.903005632024031 1.1714989709240686 0 0 0
1739 5 13.414576341552001 4.840566373977392 0.04495107697004622 0 0 0
1745 5 16.768220426940005 4.840566373977392 0.04495107697004566 0 0 0
1736 1 15.091398384246002 5.807346605222031 1.1714989709240704 0 0 0
1558 4 13.414576341552003 0.964953219278562 2.296828358041606 0 0 0
1564 4 16.768220426940005 0.9649532192785625 2.2968283580416067 0 0 0
1737 4 15.091398384246002 3.869294192476561 2.2968283580416053 0 0 0
1566 5 18.445042469634004 1.9362254007793906 0.044951076970044496 0 0 0
1747 1 20.121864512328003 2.903005632024031 1.1714989709240686 0 0 0
1572 5 21.798686555022 1.9362254007793906 0.044951076970044516 0 0 0
1753 1 23.475508597716 2.903005632024031 1.1714989709240686 0 0 0
1751 5 20.121864512328003 4.840566373977391 0.044951076970045266 0 0 0
1757 5 23.475508597716 4.840566373977391 0.04495107697004526 0 0 0
1742 1 18.445042469634004 5.807346605222031 1.1714989709240704 0 0 0
1748 1 21.798686555022 5.807346605222031 1.1714989709240706 0 0 0
1570 4 20.121864512328003 0.9649532192785628 2.296828358041607 0 0 0
1576 4 23.475508597716 0.9649532192785628 2.296828358041607 0 0 0
1743 4 18.445042469634004 3.869294192476562 2.2968283580416067 0 0 0
1749 4 21.798686555022 3.869294192476562 2.2968283580416067 0 0 0
1578 5 25.15233064041 1.9362254007793906 0.044951076970044516 0 0 0
1759 1 26.829152683104 2.903005632024031 1.1714989709240686 0 0 0
1584 5 28.505974725797998 1.9362254007793906 0.044951076970044516 0 0 0
1763 5 26.829152683104 4.840566373977391 0.04495107697004526 0 0 0
1754 1 25.15233064041 5.807346605222031 1.1714989709240706 0 0 0
1760 1 28.505974725797998 5.807346605222031 1.1714989709240706 0 0 0
1582 4 26.829152683104 0.9649532192785628 2.296828358041607 0 0 0
1755 4 25.15233064041 3.869294192476562 2.2968283580416067 0 0 0
1761 4 28.505974725797998 3.869294192476562 2.2968283580416067 0 0 0
1765 1 30.182796768491997 2.903005632024031 1.1714989709240684 0 0 0
1590 5 31.859618811185996 1.9362254007793906 0.04495107697004445 0 0 0
1771 1 33.536440853879995 2.903005632024031 1.1714989709240684 0 0 0
1596 5 35.213262896574 1.9362254007793922 0.04495107697004631 0 0 0
1769 5 30.182796768491997 4.840566373977391 0.04495107697004526 0 0 0
1775 5 33.536440853879995 4.840566373977392 0.04495107697004647 0 0 0
1766 1 31.859618811185996 5.807346605222031 1.1714989709240704 0 0 0
1772 1 35.213262896574 5.807346605222031 1.1714989709240706 0 0 0
1588 4 30.182796768491997 0.9649532192785628 2.296828358041607 0 0 0
1594 4 33.536440853879995 0.9649532192785619 2.296828358041606 0 0 0
1767 4 31.859618811185996 3.869294192476562 2.2968283580416067 0 0 0
1773 4 35.213262896574 3.8692941924765605 2.2968283580416045 0 0 0
1777 1 36.890084939268 2.9030056320240307 1.1714989709240688 0 0 0
1602 5 38.566906981962006 1.9362254007793915 0.04495107697004564 0 0 0
1783 1 40.243729024656005 2.903005632024031 1.1714989709240684 0 0 0
1781 5 36.890084939268 4.840566373977393 0.044951076970047035 0 0 0
1787 5 40.243729024656005 4.840566373977391 0.04495107697004519 0 0 0
1778 1 38.566906981962006 5.807346605222031 1.1714989709240704 0 0 0
1600 4 36.890084939268 0.9649532192785615 2.2968283580416053 0 0 0
1606 4 40.243729024656005 0.9649532192785629 2.2968283580416076 0 0 0
1779 4 38.566906981962006 3.869294192476561 2.2968283580416053 0 0 0
1608 5 41.920551067350004 1.9362254007793906 0.04495107697004452 0 0 0
1789 1 43.597373110044 2.903005632024031 1.1714989709240686 0 0 0
1614 5 45.274195152738 1.9362254007793906 0.044951076970044516 0 0 0
1795 1 46.951017195432 2.903005632024031 1.1714989709240686 0 0 0
1793 5 43.597373110044 4.840566373977391 0.04495107697004526 0 0 0
1799 5 46.951017195432 4.840566373977391 0.04495107697004526 0 0 0
1784 1 41.920551067350004 5.807346605222031 1.1714989709240706 0 0 0
1790 1 45.274195152738 5.807346605222031 1.1714989709240706 0 0 0
1612 4 43.597373110044 0.9649532192785628 2.296828358041607 0 0 0
1618 4 46.951017195432 0.9649532192785628 2.296828358041607 0 0 0
1785 4 41.920551067350004 3.869294192476562 2.2968283580416067 0 0 0
1791 4 45.274195152738 3.869294192476562 2.2968283580416067 0 0 0
1620 5 48.627839238126 1.9362254007793906 0.044951076970044516 0 0 0
1446 5 51.981483323514 1.9362254007793906 0.04495107697004452 -1 0 0
1621 1 50.30466128082 2.903005632024031 1.1714989709240686 -1 0 0
1625 5 50.30466128082 4.840566373977391 0.04495107697004526 -1 0 0
1796 1 48.627839238126 5.807346605222031 1.1714989709240706 0 0 0
1622 1 51.981483323514 5.807346605222031 1.1714989709240706 -1 0 0
1444 4 50.30466128082 0.9649532192785628 2.296828358041607 -1 0 0
1797 4 48.627839238126 3.869294192476562 2.2968283580416067 0 0 0
1623 4 51.981483323514 3.869294192476562 2.2968283580416067 -1 0 0
1627 1 53.658305366208 2.903005632024031 1.1714989709240684 -1 0 0
1452 5 55.335127408902 1.936225400779391 0.04495107697004508 -1 0 0
1633 1 57.011949451596 2.903005632024031 1.1714989709240686 -1 0 0
1458 5 58.68877149429 1.9362254007793915 0.04495107697004532 -1 0 0
1631 5 53.658305366208 4.840566373977391 0.044951076970045245 -1 0 0
1637 5 57.011949451595996 4.840566373977392 0.044951076970046015 -1 0 0
1628 1 55.335127408902 5.807346605222031 1.1714989709240706 -1 0 0
1634 1 58.688771494289995 5.807346605222031 1.1714989709240706 -1 0 0
1450 4 53.658305366208 0.9649532192785628 2.296828358041607 -1 0 0
1456 4 57.011949451595996 0.964953219278562 2.2968283580416062 -1 0 0
1629 4 55.335127408902 3.8692941924765614 2.296828358041606 -1 0 0
1635 4 58.68877149429 3.869294192476561 2.2968283580416053 -1 0 0
1639 1 60.365593536984 2.903005632024031 1.1714989709240684 -1 0 0
1464 5 62.042415579678 1.9362254007793902 0.04495107697004377 -1 0 0
1645 1 63.719237622372 2.9030056320240307 1.1714989709240686 -1 0 0
1643 5 60.365593536984 4.840566373977392 0.04495107697004592 -1 0 0
1649 5 63.719237622372 4.840566373977391 0.044951076970044704 -1 0 0
1640 1 62.042415579678 5.807346605222031 1.1714989709240706 -1 0 0
1462 4 60.365593536984 0.9649532192785624 2.2968283580416067 -1 0 0
1468 4 63.719237622372 0.9649532192785633 2.2968283580416076 -1 0 0
1641 4 62.042415579678 3.8692941924765627 2.2968283580416076 -1 0 0
1470 5 65.396059665066 1.9362254007793915 0.04495107697004533 -1 0 0
1651 1 67.07288170776 2.903005632024031 1.1714989709240688 -1 0 0
1476 5 68.749703750454 1.9362254007793915 0.044951076970045745 -1 0 0
1657 1 70.426525793148 2.903005632024031 1.1714989709240684 -1 0 0
1655 5 67.07288170776 4.840566373977393 0.044951076970047195 -1 0 0
1661 5 70.426525793148 4.840566373977391 0.04495107697004524 -1 0 0
1646 1 65.396059665066 5.807346605222031 1.1714989709240706 -1 0 0
1652 1 68.749703750454 5.807346605222031 1.1714989709240704 -1 0 0
1474 4 67.07288170776 0.9649532192785615 2.2968283580416053 -1 0 0
1480 4 70.426525793148 0.9649532192785629 2.296828358041607 -1 0 0
1647 4 65.396059665066 3.869294192476561 2.2968283580416053 -1 0 0
1653 4 68.749703750454 3.869294192476561 2.296828358041605 -1 0 0
1482 5 72.103347835842 1.9362254007793906 0.04495107697004452 -1 0 0
1663 1 73.780169878536 2.903005632024031 1.1714989709240686 -1 0 0
1488 5 75.45699192123 1.9362254007793906 0.04495107697004452 -1 0 0
1667 5 73.780169878536 4.840566373977391 0.04495107697004526 -1 0 0
1658 1 72.103347835842 5.807346605222031 1.1714989709240706 -1 0 0
1664 1 75.45699192123 5.807346605222031 1.1714989709240706 -1 0 0
1486 4 73.780169878536 0.9649532192785628 2.296828358041607 -1 0 0
1659 4 72.103347835842 3.869294192476562 2.2968283580416067 -1 0 0
1665 4 75.45699192123 3.869294192476562 2.2968283580416067 -1 0 0
1669 1 77.133813963924 2.903005632024031 1.1714989709240684 -1 0 0
1494 5 78.810636006618 1.9362254007793906 0.044951076970044496 -1 0 0
1675 1 80.487458049312 2.903005632024031 1.1714989709240684 -1 0 0
1500 5 82.164280092006 1.9362254007793922 0.04495107697004622 -1 0 0
1673 5 77.133813963924 4.840566373977391 0.04495107697004526 -1 0 0
1679 5 80.487458049312 4.840566373977392 0.044951076970046466 -1 0 0
1670 1 78.810636006618 5.807346605222031 1.1714989709240704 -1 0 0
1676 1 82.16428009200601 5.807346605222031 1.1714989709240706 -1 0 0
1492 4 77.133813963924 0.9649532192785628 2.296828358041607 -1 0 0
1498 4 80.487458049312 0.9649532192785621 2.296828358041606 -1 0 0
1671 4 78.810636006618 3.869294192476562 2.2968283580416067 -1 0 0
1677 4 82.164280092006 3.86929419247656 2.296828358041605 -1 0 0
1681 1 83.8411021347 2.9030056320240307 1.1714989709240688 -1 0 0
1506 5 85.51792417739401 1.9362254007793915 0.04495107697004564 -1 0 0
1687 1 87.194746220088 2.903005632024031 1.1714989709240684 -1 0 0
1685 5 83.84110213470001 4.840566373977393 0.044951076970046924 -1 0 0
1691 5 87.194746220088 4.840566373977391 0.04495107697004526 -1 0 0
1682 1 85.51792417739401 5.807346605222031 1.1714989709240704 -1 0 0
1504 4 83.84110213470001 0.9649532192785615 2.2968283580416053 -1 0 0
1510 4 87.194746220088 0.9649532192785629 2.296828358041607 -1 0 0
1683 4 85.51792417739401 3.869294192476561 2.2968283580416053 -1 0 0
1512 5 88.871568262782 1.9362254007793906 0.04495107697004452 -1 0 0
1693 1 90.548390305476 2.903005632024031 1.1714989709240686 -1 0 0
1518 5 92.22521234817 1.9362254007793906 0.044951076970044516 -1 0 0
1699 1 93.902034390864 2.903005632024031 1.1714989709240686 -1 0 0
1697 5 90.548390305476 4.840566373977391 0.04495107697004526 -1 0 0
1703 5 93.902034390864 4.840566373977391 0.04495107697004526 -1 0 0
1688 1 88.871568262782 5.807346605222031 1.1714989709240706 -1 0 0
1694 1 92.22521234817 5.807346605222031 1.1714989709240706 -1 0 0
1516 4 90.548390305476 0.9649532192785628 2.296828358041607 -1 0 0
1522 4 93.902034390864 0.9649532192785628 2.296828358041607 -1 0 0
1689 4 88.871568262782 3.869294192476562 2.2968283580416062 -1 0 0
1695 4 92.22521234817 3.869294192476562 2.2968283580416067 -1 0 0
1524 5 95.578856433558 1.9362254007793906 0.044951076970044516 -1 0 0
1705 1 97.255678476252 2.903005632024031 1.1714989709240686 -1 0 0
1530 5 98.932500518946 1.9362254007793906 0.04495107697004455 -1 0 0
1709 5 97.255678476252 4.840566373977391 0.04495107697004526 -1 0 0
1700 1 95.578856433558 5.807346605222031 1.1714989709240706 -1 0 0
1706 1 98.932500518946 5.807346605222031 1.1714989709240706 -1 0 0
1528 4 97.255678476252 0.9649532192785628 2.296828358041607 -1 0 0
1701 4 95.578856433558 3.869294192476562 2.2968283580416067 -1 0 0
1707 4 98.932500518946 3.869294192476562 2.2968283580416067 -1 0 0
1716 5 1.6768220426939993 7.74490734717539 0.044951076970044516 0 0 0
1722 5 5.030466128082 7.744907347175391 0.044951076970045564 0 0 0
1891 1 5.46448484228481e-18 8.711687578420031 1.1714989709240688 0 0 0
1897 1 3.3536440853879985 8.711687578420031 1.1714989709240686 0 0 0
1895 5 0 10.64924832037339 0.044951076970045196 0 0 0
1892 1 1.6768220426939993 11.616028551618031 1.1714989709240706 0 0 0
1901 5 3.353644085387999 10.649248320373392 0.0449510769700457 0 0 0
1898 1 5.030466128082 11.616028551618031 1.1714989709240706 0 0 0
1714 4 0 6.773635165674563 2.296828358041607 0 0 0
1720 4 3.353644085387999 6.773635165674563 2.2968283580416067 0 0 0
1893 4 1.6768220426939993 9.677976138872562 2.2968283580416062 0 0 0
1899 4 5.030466128082 9.67797613887256 2.2968283580416053 0 0 0
1728 5 8.38411021347 7.744907347175391 0.044951076970044926 0 0 0
1734 5 11.737754298858002 7.744907347175391 0.04495107697004494 0 0 0
1903 1 6.707288170776001 8.711687578420031 1.1714989709240686 0 0 0
1909 1 10.060932256164001 8.711687578420031 1.1714989709240688 0 0 0
1907 5 6.707288170776001 10.649248320373392 0.044951076970046334 0 0 0
1904 1 8.384110213470002 11.616028551618031 1.1714989709240706 0 0 0
1913 5 10.060932256164001 10.64924832037339 0.044951076970045134 0 0 0
1910 1 11.737754298858 11.616028551618031 1.1714989709240708 0 0 0
1726 4 6.707288170776001 6.773635165674562 2.296828358041606 0 0 0
1732 4 10.060932256164001 6.773635165674563 2.296828358041607 0 0 0
1905 4 8.384110213470002 9.677976138872562 2.2968283580416062 0 0 0
1911 4 11.737754298858 9.677976138872562 2.296828358041606 0 0 0
1740 5 15.091398384246004 7.744907347175391 0.04495107697004555 0 0 0
1915 1 13.414576341552001 8.711687578420031 1.1714989709240684 0 0 0
1921 1 16.768220426940005 8.711687578420031 1.1714989709240688 0 0 0
1919 5 13.414576341552001 10.649248320373392 0.044951076970046355 0 0 0
1916 1 15.091398384246004 11.616028551618031 1.1714989709240704 0 0 0
1925 5 16.768220426940005 10.649248320373392 0.044951076970045696 0 0 0
1738 4 13.414576341552003 6.773635165674562 2.296828358041606 0 0 0
1744 4 16.768220426940005 6.773635165674563 2.2968283580416067 0 0 0
1917 4 15.091398384246002 9.67797613887256 2.2968283580416053 0 0 0
1746 5 18.445042469634004 7.74490734717539 0.044951076970044454 0 0 0
1752 5 21.798686555022 7.74490734717539 0.044951076970044475 0 0 0
1927 1 20.121864512328003 8.711687578420031 1.1714989709240688 0 0 0
1933 1 23.475508597716 8.711687578420031 1.1714989709240688 0 0 0
1922 1 18.445042469634004 11.616028551618031 1.1714989709240706 0 0 0
1931 5 20.121864512328003 10.64924832037339 0.044951076970045196 0 0 0
1928 1 21.798686555022 11.616028551618031 1.1714989709240706 0 0 0
1937 5 23.475508597716 10.64924832037339 0.044951076970045196 0 0 0
1750 4 20.121864512328003 6.773635165674563 2.296828358041607 0 0 0
1756 4 23.475508597716 6.773635165674563 2.296828358041607 0 0 0
1923 4 18.445042469634004 9.677976138872562 2.2968283580416067 0 0 0
1929 4 21.798686555022 9.677976138872562 2.2968283580416062 0 0 0
1758 5 25.15233064041 7.74490734717539 0.044951076970044475 0 0 0
1764 5 28.505974725797998 7.74490734717539 0.044951076970044475 0 0 0
1939 1 26.829152683104 8.711687578420031 1.1714989709240688 0 0 0
1934 1 25.15233064041 11.616028551618031 1.1714989709240706 0 0 0
1943 5 26.829152683104 10.64924832037339 0.04495107697004519 0 0 0
1940 1 28.505974725797998 11.616028551618031 1.1714989709240706 0 0 0
1762 4 26.829152683104 6.773635165674563 2.296828358041607 0 0 0
1935 4 25.15233064041 9.677976138872562 2.2968283580416062 0 0 0
1941 4 28.505974725797998 9.677976138872562 2.2968283580416062 0 0 0
1770 5 31.859618811185996 7.74490734717539 0.0449510769700444 0 0 0
1776 5 35.213262896574 7.744907347175392 0.044951076970046334 0 0 0
1945 1 30.182796768491997 8.711687578420031 1.1714989709240688 0 0 0
1951 1 33.536440853879995 8.711687578420031 1.1714989709240688 0 0 0
1949 5 30.182796768491997 10.64924832037339 0.044951076970045196 0 0 0
1946 1 31.859618811185996 11.616028551618031 1.1714989709240706 0 0 0
1955 5 33.536440853879995 10.649248320373392 0.044951076970046445 0 0 0
1952 1 35.213262896574 11.616028551618031 1.1714989709240706 0 0 0
1768 4 30.182796768491997 6.773635165674563 2.296828358041607 0 0 0
1774 4 33.536440853879995 6.773635165674562 2.296828358041606 0 0 0
1947 4 31.859618811185996 9.677976138872562 2.2968283580416067 0 0 0
1953 4 35.213262896574 9.67797613887256 2.2968283580416045 0 0 0
1782 5 38.566906981962006 7.744907347175391 0.044951076970045675 0 0 0
1957 1 36.890084939268 8.711687578420031 1.1714989709240686 0 0 0
1963 1 40.243729024656005 8.711687578420031 1.1714989709240688 0 0 0
1961 5 36.890084939268 10.649248320373394 0.04495107697004717 0 0 0
1958 1 38.566906981962006 11.616028551618031 1.1714989709240706 0 0 0
1967 5 40.243729024656005 10.64924832037339 0.04495107697004512 0 0 0
1780 4 36.890084939268 6.773635165674562 2.2968283580416053 0 0 0
1786 4 40.243729024656005 6.773635165674563 2.296828358041607 0 0 0
1959 4 38.566906981962006 9.67797613887256 2.296828358041605 0 0 0
1788 5 41.920551067350004 7.74490734717539 0.044951076970044475 0 0 0
1794 5 45.274195152738 7.74490734717539 0.044951076970044475 0 0 0
1969 1 43.597373110044 8.711687578420031 1.1714989709240688 0 0 0
1975 1 46.951017195432 8.711687578420031 1.1714989709240688 0 0 0
1964 1 41.920551067350004 11.616028551618031 1.1714989709240706 0 0 0
1973 5 43.597373110044 10.64924832037339 0.04495107697004519 0 0 0
1970 1 45.274195152738 11.616028551618031 1.1714989709240706 0 0 0
1979 5 46.951017195432 10.64924832037339 0.044951076970045196 0 0 0
1792 4 43.597373110044 6.773635165674563 2.296828358041607 0 0 0
1798 4 46.951017195432 6.773635165674563 2.296828358041607 0 0 0
1965 4 41.920551067350004 9.677976138872562 2.2968283580416062 0 0 0
1971 4 45.274195152738 9.677976138872562 2.2968283580416062 0 0 0
1800 5 48.627839238126 7.74490734717539 0.044951076970044475 0 0 0
1626 5 51.981483323514 7.74490734717539 0.044951076970044475 -1 0 0
1801 1 50.30466128082 8.711687578420031 1.1714989709240688 -1 0 0
1976 1 48.627839238126 11.616028551618031 1.1714989709240706 0 0 0
1805 5 50.30466128082 10.64924832037339 0.044951076970045196 -1 0 0
1802 1 51.981483323514 11.616028551618031 1.1714989709240706 -1 0 0
1624 4 50.30466128082 6.773635165674563 2.296828358041607 -1 0 0
1977 4 48.627839238126 9.677976138872562 2.2968283580416062 0 0 0
1803 4 51.981483323514 9.677976138872562 2.2968283580416062 -1 0 0
1632 5 55.335127408902 7.744907347175391 0.04495107697004504 -1 0 0
1638 5 58.68877149429 7.744907347175391 0.04495107697004536 -1 0 0
1807 1 53.658305366208 8.711687578420031 1.1714989709240688 -1 0 0
1813 1 57.011949451596 8.711687578420031 1.1714989709240686 -1 0 0
1811 5 53.658305366208 10.64924832037339 0.04495107697004518 -1 0 0
1808 1 55.335127408902 11.616028551618031 1.1714989709240706 -1 0 0
1817 5 57.011949451595996 10.649248320373392 0.04495107697004614 -1 0 0
1814 1 58.688771494289995 11.616028551618031 1.1714989709240706 -1 0 0
1630 4 53.658305366208 6.773635165674563 2.296828358041607 -1 0 0
1636 4 57.011949451595996 6.773635165674562 2.2968283580416062 -1 0 0
1809 4 55.335127408902 9.677976138872562 2.296828358041606 -1 0 0
1815 4 58.68877149429 9.67797613887256 2.2968283580416053 -1 0 0
1644 5 62.042415579678 7.74490734717539 0.044951076970043774 -1 0 0
1819 1 60.365593536984 8.711687578420031 1.1714989709240686 -1 0 0
1825 1 63.719237622372 8.711687578420031 1.1714989709240684 -1 0 0
1823 5 60.365593536984 10.649248320373392 0.0449510769700459 -1 0 0
1820 1 62.042415579678 11.616028551618031 1.1714989709240706 -1 0 0
1829 5 63.719237622372 10.649248320373392 0.04495107697004475 -1 0 0
1642 4 60.365593536984 6.773635165674563 2.2968283580416067 -1 0 0
1648 4 63.719237622372 6.7736351656745635 2.2968283580416076 -1 0 0
1821 4 62.042415579678 9.677976138872562 2.296828358041607 -1 0 0
1650 5 65.396059665066 7.744907347175391 0.04495107697004534 -1 0 0
1656 5 68.749703750454 7.744907347175391 0.04495107697004578 -1 0 0
1831 1 67.07288170776 8.711687578420031 1.1714989709240688 -1 0 0
1837 1 70.426525793148 8.711687578420031 1.1714989709240688 -1 0 0
1826 1 65.396059665066 11.616028551618031 1.1714989709240708 -1 0 0
1835 5 67.07288170776 10.649248320373394 0.0449510769700473 -1 0 0
1832 1 68.749703750454 11.616028551618031 1.1714989709240706 -1 0 0
1841 5 70.426525793148 10.64924832037339 0.04495107697004516 -1 0 0
1654 4 67.07288170776 6.773635165674561 2.296828358041605 -1 0 0
1660 4 70.426525793148 6.773635165674563 2.296828358041607 -1 0 0
1827 4 65.396059665066 9.67797613887256 2.2968283580416053 -1 0 0
1833 4 68.749703750454 9.67797613887256 2.296828358041605 -1 0 0
1662 5 72.103347835842 7.74490734717539 0.044951076970044475 -1 0 0
1668 5 75.45699192123 7.74490734717539 0.044951076970044475 -1 0 0
1843 1 73.780169878536 8.711687578420031 1.1714989709240688 -1 0 0
1838 1 72.103347835842 11.616028551618031 1.1714989709240706 -1 0 0
1847 5 73.780169878536 10.64924832037339 0.044951076970045196 -1 0 0
1844 1 75.45699192123 11.616028551618031 1.1714989709240706 -1 0 0
1666 4 73.780169878536 6.773635165674563 2.296828358041607 -1 0 0
1839 4 72.103347835842 9.677976138872562 2.2968283580416062 -1 0 0
1845 4 75.45699192123 9.677976138872562 2.2968283580416062 -1 0 0
1674 5 78.810636006618 7.74490734717539 0.04495107697004445 -1 0 0
1680 5 82.164280092006 7.744907347175392 0.044951076970046196 -1 0 0
1849 1 77.133813963924 8.711687578420031 1.1714989709240688 -1 0 0
1855 1 80.487458049312 8.711687578420031 1.1714989709240688 -1 0 0
1853 5 77.133813963924 10.64924832037339 0.044951076970045196 -1 0 0
1850 1 78.810636006618 11.616028551618031 1.1714989709240706 -1 0 0
1859 5 80.487458049312 10.649248320373392 0.044951076970046445 -1 0 0
1856 1 82.16428009200601 11.616028551618031 1.1714989709240708 -1 0 0
1672 4 77.133813963924 6.773635165674563 2.296828358041607 -1 0 0
1678 4 80.487458049312 6.773635165674562 2.296828358041606 -1 0 0
1851 4 78.810636006618 9.677976138872562 2.2968283580416067 -1 0 0
1857 4 82.164280092006 9.67797613887256 2.296828358041605 -1 0 0
1686 5 85.51792417739401 7.744907347175391 0.04495107697004567 -1 0 0
1861 1 83.8411021347 8.711687578420031 1.1714989709240688 -1 0 0
1867 1 87.194746220088 8.711687578420031 1.1714989709240688 -1 0 0
1865 5 83.84110213470001 10.649248320373394 0.04495107697004706 -1 0 0
1862 1 85.51792417739401 11.616028551618031 1.1714989709240706 -1 0 0
1871 5 87.194746220088 10.64924832037339 0.04495107697004517 -1 0 0
1684 4 83.84110213470001 6.773635165674561 2.2968283580416053 -1 0 0
1690 4 87.194746220088 6.773635165674563 2.296828358041607 -1 0 0
1863 4 85.51792417739401 9.67797613887256 2.296828358041605 -1 0 0
1692 5 88.871568262782 7.74490734717539 0.044951076970044475 -1 0 0
1698 5 92.22521234817 7.74490734717539 0.044951076970044475 -1 0 0
1873 1 90.548390305476 8.711687578420031 1.1714989709240688 -1 0 0
1879 1 93.902034390864 8.711687578420031 1.1714989709240688 -1 0 0
1868 1 88.871568262782 11.616028551618031 1.1714989709240706 -1 0 0
1877 5 90.548390305476 10.64924832037339 0.044951076970045196 -1 0 0
1874 1 92.22521234817 11.616028551618031 1.1714989709240706 -1 0 0
1883 5 93.902034390864 10.64924832037339 0.044951076970045196 -1 0 0
1696 4 90.548390305476 6.773635165674563 2.296828358041607 -1 0 0
1702 4 93.902034390864 6.773635165674563 2.296828358041607 -1 0 0
1869 4 88.871568262782 9.677976138872562 2.2968283580416062 -1 0 0
1875 4 92.22521234817 9.677976138872562 2.2968283580416067 -1 0 0
1704 5 95.578856433558 7.74490734717539 0.044951076970044475 -1 0 0
1710 5 98.932500518946 7.74490734717539 0.0449510769700445 -1 0 0
1885 1 97.255678476252 8.711687578420031 1.1714989709240688 -1 0 0
1880 1 95.578856433558 11.616028551618031 1.1714989709240706 -1 0 0
1889 5 97.255678476252 10.64924832037339 0.044951076970045196 -1 0 0
1886 1 98.932500518946 11.616028551618031 1.1714989709240706 -1 0 0
1708 4 97.255678476252 6.773635165674563 2.296828358041607 -1 0 0
1881 4 95.578856433558 9.677976138872562 2.2968283580416062 -1 0 0
1887 4 98.932500518946 9.677976138872562 2.2968283580416062 -1 0 0
1896 5 1.6768220426939993 13.55358929357139 0.04495107697004512 0 0 0
1902 5 5.030466128082 13.553589293571392 0.044951076970046196 0 0 0
2071 1 7.145864793757059e-18 14.52036952481603 1.1714989709240702 0 0 0
2077 1 3.3536440853879985 14.52036952481603 1.1714989709240702 0 0 0
2075 5 0 16.457930266769388 0.044951076970043656 0 0 0
2081 5 3.353644085387999 16.457930266769388 0.04495107697004402 0 0 0
2072 1 1.676822042693999 17.424710498014026 1.1714989709240677 0 0 0
2078 1 5.030466128082 17.42471049801403 1.1714989709240677 0 0 0
1894 4 0 12.582317112070562 2.296828358041608 0 0 0
1900 4 3.353644085387999 12.582317112070562 2.2968283580416076 0 0 0
2073 4 1.6768220426939993 15.48665808526856 2.296828358041607 0 0 0
2079 4 5.030466128082 15.48665808526856 2.296828358041606 0 0 0
1908 5 8.38411021347 13.55358929357139 0.04495107697004554 0 0 0
1914 5 11.737754298858002 13.55358929357139 0.04495107697004557 0 0 0
2083 1 6.707288170776001 14.52036952481603 1.17149897092407 0 0 0
2089 1 10.060932256164001 14.52036952481603 1.1714989709240702 0 0 0
2087 5 6.707288170776001 16.457930266769388 0.04495107697004464 0 0 0
2093 5 10.060932256164001 16.457930266769388 0.04495107697004357 0 0 0
2084 1 8.384110213470002 17.42471049801403 1.171498970924068 0 0 0
2090 1 11.737754298858 17.42471049801403 1.171498970924068 0 0 0
1906 4 6.707288170776001 12.58231711207056 2.2968283580416067 0 0 0
1912 4 10.060932256164001 12.582317112070562 2.296828358041608 0 0 0
2085 4 8.38411021347 15.48665808526856 2.2968283580416067 0 0 0
2091 4 11.737754298858002 15.48665808526856 2.2968283580416067 0 0 0
1920 5 15.091398384246004 13.553589293571392 0.04495107697004615 0 0 0
2095 1 13.414576341552001 14.52036952481603 1.1714989709240697 0 0 0
2101 1 16.768220426940005 14.52036952481603 1.1714989709240704 0 0 0
2099 5 13.414576341552001 16.457930266769388 0.044951076970044655 0 0 0
2105 5 16.768220426940005 16.457930266769388 0.04495107697004402 0 0 0
2096 1 15.091398384246004 17.42471049801403 1.1714989709240675 0 0 0
1918 4 13.414576341552003 12.58231711207056 2.2968283580416067 0 0 0
1924 4 16.768220426940005 12.582317112070562 2.2968283580416076 0 0 0
2097 4 15.091398384246002 15.48665808526856 2.296828358041606 0 0 0
1926 5 18.445042469634004 13.55358929357139 0.04495107697004506 0 0 0
1932 5 21.798686555022 13.55358929357139 0.044951076970045085 0 0 0
2107 1 20.121864512328003 14.52036952481603 1.1714989709240702 0 0 0
2113 1 23.475508597716 14.52036952481603 1.1714989709240702 0 0 0
2111 5 20.121864512328003 16.457930266769388 0.044951076970043656 0 0 0
2117 5 23.475508597716 16.457930266769388 0.044951076970043656 0 0 0
2102 1 18.445042469634004 17.424710498014026 1.1714989709240677 0 0 0
2108 1 21.798686555022 17.424710498014026 1.1714989709240677 0 0 0
1930 4 20.121864512328003 12.582317112070562 2.296828358041608 0 0 0
1936 4 23.475508597716 12.582317112070562 2.296828358041608 0 0 0
2103 4 18.445042469634004 15.48665808526856 2.296828358041607 0 0 0
2109 4 21.798686555022 15.48665808526856 2.296828358041607 0 0 0
1938 5 25.15233064041 13.55358929357139 0.044951076970045085 0 0 0
1944 5 28.505974725797998 13.55358929357139 0.044951076970045085 0 0 0
2119 1 26.829152683104 14.52036952481603 1.1714989709240702 0 0 0
2123 5 26.829152683104 16.457930266769388 0.044951076970043656 0 0 0
2114 1 25.15233064041 17.424710498014026 1.1714989709240677 0 0 0
2120 1 28.505974725797998 17.424710498014026 1.1714989709240677 0 0 0
1942 4 26.829152683104 12.582317112070562 2.296828358041608 0 0 0
2115 4 25.15233064041 15.48665808526856 2.296828358041607 0 0 0
2121 4 28.505974725797998 15.48665808526856 2.296828358041607 0 0 0
1950 5 31.859618811185996 13.55358929357139 0.04495107697004501 0 0 0
1956 5 35.213262896574 13.553589293571392 0.04495107697004711 0 0 0
2125 1 30.182796768491997 14.52036952481603 1.1714989709240702 0 0 0
2131 1 33.536440853879995 14.52036952481603 1.1714989709240704 0 0 0
2129 5 30.182796768491997 16.457930266769388 0.04495107697004364 0 0 0
2135 5 33.536440853879995 16.457930266769388 0.04495107697004477 0 0 0
2126 1 31.859618811185996 17.424710498014026 1.1714989709240677 0 0 0
2132 1 35.213262896574 17.42471049801403 1.1714989709240677 0 0 0
1948 4 30.182796768491997 12.582317112070562 2.296828358041608 0 0 0
1954 4 33.536440853879995 12.58231711207056 2.2968283580416067 0 0 0
2127 4 31.859618811185996 15.48665808526856 2.296828358041607 0 0 0
2133 4 35.213262896574 15.48665808526856 2.2968283580416053 0 0 0
1962 5 38.566906981962006 13.553589293571392 0.044951076970046286 0 0 0
2137 1 36.890084939268 14.52036952481603 1.1714989709240702 0 0 0
2143 1 40.243729024656005 14.52036952481603 1.1714989709240702 0 0 0
2141 5 36.890084939268 16.457930266769388 0.04495107697004541 0 0 0
2147 5 40.243729024656005 16.457930266769388 0.04495107697004357 0 0 0
2138 1 38.566906981962006 17.42471049801403 1.171498970924068 0 0 0
1960 4 36.890084939268 12.58231711207056 2.2968283580416062 0 0 0
1966 4 40.243729024656005 12.582317112070562 2.296828358041608 0 0 0
2139 4 38.566906981962006 15.48665808526856 2.296828358041606 0 0 0
1968 5 41.920551067350004 13.55358929357139 0.044951076970045085 0 0 0
1974 5 45.274195152738 13.55358929357139 0.044951076970045085 0 0 0
2149 1 43.597373110044 14.52036952481603 1.1714989709240702 0 0 0