LAMMPS data file via write_data, version 29 Aug 2024, timestep = 0, units = metal

3060 atoms
3 atom types

0 100.60932256164 xlo xhi
0 98.747593088732 ylo yhi
0 17.350867856451 zlo zhi

Masses

1 58.6934
2 32.06
3 32.06

Atoms # atomic

1532 1 1.676822042693999 0 1.1754339282250008 0 0 0
1538 1 5.030466128081997 0 1.1754339282250008 0 0 0
1544 1 8.384110213470002 0 1.1754339282250008 0 0 0
1550 1 11.737754298858 0 1.1754339282250008 0 0 0
1556 1 15.091398384246006 0 1.1754339282250008 0 0 0
1562 1 18.445042469634004 0 1.1754339282250008 0 0 0
1568 1 21.798686555022 0 1.1754339282250008 0 0 0
1574 1 25.15233064041 0 1.1754339282250008 0 0 0
1580 1 28.505974725797998 0 1.1754339282250008 0 0 0
1586 1 31.859618811185996 0 1.1754339282250008 0 0 0
1592 1 35.213262896573994 0 1.1754339282250008 0 0 0
1598 1 38.566906981962006 0 1.1754339282250008 0 0 0
1604 1 41.920551067350004 0 1.1754339282250008 0 0 0
1610 1 45.274195152738 0 1.1754339282250008 0 0 0
1616 1 48.627839238126 0 1.1754339282250008 0 0 0
1442 1 51.981483323514 0 1.1754339282250008 -1 0 0
1448 1 55.335127408902 0 1.1754339282250008 -1 0 0
1454 1 58.68877149429 0 1.1754339282250008 -1 0 0
1460 1 62.042415579678 0 1.1754339282250008 -1 0 0
1466 1 65.39605966506599 0 1.1754339282250008 -1 0 0
1472 1 68.749703750454 0 1.1754339282250008 -1 0 0
1478 1 72.103347835842 0 1.1754339282250008 -1 0 0
1484 1 75.45699192123 0 1.1754339282250008 -1 0 0
1490 1 78.810636006618 0 1.1754339282250008 -1 0 0
1496 1 82.164280092006 0 1.1754339282250008 -1 0 0
1502 1 85.51792417739401 0 1.1754339282250008 -1 0 0
1508 1 88.871568262782 0 1.1754339282250008 -1 0 0
1514 1 92.22521234817 0 1.1754339282250008 -1 0 0
1520 1 95.578856433558 0 1.1754339282250008 -1 0 0
1526 1 98.932500518946 0 1.1754339282250008 -1 0 0
1536 3 1.676822042693999 1.936227315464997 0 0 0 0
1711 1 0 2.9043409731979963 1.1754339282250008 0 0 0
1717 1 3.353644085387998 2.9043409731979963 1.1754339282250008 0 0 0
1542 3 5.030466128081997 1.936227315464997 0 0 0 0
1723 1 6.707288170776003 2.9043409731979963 1.1754339282250008 0 0 0
1548 3 8.384110213470002 1.936227315464997 0 0 0 0
1729 1 10.060932256164001 2.9043409731979963 1.1754339282250008 0 0 0
1554 3 11.737754298858 1.936227315464997 0 0 0 0
1735 1 13.414576341552 2.9043409731979963 1.1754339282250008 0 0 0
1560 3 15.091398384246006 1.936227315464997 0 0 0 0
1741 1 16.768220426940005 2.9043409731979963 1.1754339282250008 0 0 0
1566 3 18.445042469634004 1.936227315464997 0 0 0 0
1747 1 20.121864512328003 2.9043409731979963 1.1754339282250008 0 0 0
1572 3 21.798686555022 1.936227315464997 0 0 0 0
1753 1 23.475508597716 2.9043409731979963 1.1754339282250008 0 0 0
1578 3 25.15233064041 1.936227315464997 0 0 0 0
1759 1 26.829152683104 2.9043409731979963 1.1754339282250008 0 0 0
1584 3 28.505974725797998 1.936227315464997 0 0 0 0
1765 1 30.182796768491997 2.9043409731979963 1.1754339282250008 0 0 0
1590 3 31.859618811185996 1.936227315464997 0 0 0 0
1771 1 33.536440853879995 2.9043409731979963 1.1754339282250008 0 0 0
1596 3 35.213262896573994 1.936227315464997 0 0 0 0
1777 1 36.89008493926801 2.9043409731979963 1.1754339282250008 0 0 0
1602 3 38.566906981962006 1.936227315464997 0 0 0 0
1783 1 40.243729024656005 2.9043409731979963 1.1754339282250008 0 0 0
1608 3 41.920551067350004 1.936227315464997 0 0 0 0
1789 1 43.597373110044 2.9043409731979963 1.1754339282250008 0 0 0
1614 3 45.274195152738 1.936227315464997 0 0 0 0
1795 1 46.951017195432 2.9043409731979963 1.1754339282250008 0 0 0
1620 3 48.627839238126 1.936227315464997 0 0 0 0
1446 3 51.981483323514 1.936227315464997 0 -1 0 0
1621 1 50.30466128082 2.9043409731979963 1.1754339282250008 -1 0 0
1627 1 53.658305366208 2.9043409731979963 1.1754339282250008 -1 0 0
1452 3 55.335127408902 1.936227315464997 0 -1 0 0
1633 1 57.011949451595996 2.9043409731979963 1.1754339282250008 -1 0 0
1458 3 58.68877149429 1.936227315464997 0 -1 0 0
1639 1 60.365593536984 2.9043409731979963 1.1754339282250008 -1 0 0
1464 3 62.042415579678 1.936227315464997 0 -1 0 0
1645 1 63.719237622372 2.9043409731979963 1.1754339282250008 -1 0 0
1470 3 65.39605966506599 1.936227315464997 0 -1 0 0
1651 1 67.07288170776 2.9043409731979963 1.1754339282250008 -1 0 0
1476 3 68.749703750454 1.936227315464997 0 -1 0 0
1657 1 70.426525793148 2.9043409731979963 1.1754339282250008 -1 0 0
1482 3 72.103347835842 1.936227315464997 0 -1 0 0
1663 1 73.780169878536 2.9043409731979963 1.1754339282250008 -1 0 0
1488 3 75.45699192123 1.936227315464997 0 -1 0 0
1669 1 77.133813963924 2.9043409731979963 1.1754339282250008 -1 0 0
1494 3 78.810636006618 1.936227315464997 0 -1 0 0
1675 1 80.487458049312 2.9043409731979963 1.1754339282250008 -1 0 0
1500 3 82.164280092006 1.936227315464997 0 -1 0 0
1681 1 83.84110213470001 2.9043409731979963 1.1754339282250008 -1 0 0
1506 3 85.51792417739401 1.936227315464997 0 -1 0 0
1687 1 87.194746220088 2.9043409731979963 1.1754339282250008 -1 0 0
1512 3 88.871568262782 1.936227315464997 0 -1 0 0
1693 1 90.548390305476 2.9043409731979963 1.1754339282250008 -1 0 0
1518 3 92.22521234817 1.936227315464997 0 -1 0 0
1699 1 93.902034390864 2.9043409731979963 1.1754339282250008 -1 0 0
1524 3 95.578856433558 1.936227315464997 0 -1 0 0
1705 1 97.255678476252 2.9043409731979963 1.1754339282250008 -1 0 0
1530 3 98.932500518946 1.936227315464997 0 -1 0 0
1715 3 0 4.840568288663 0 0 0 0
1721 3 3.353644085387998 4.840568288663 0 0 0 0
1727 3 6.707288170776003 4.840568288663 0 0 0 0
1733 3 10.060932256164001 4.840568288663 0 0 0 0
1739 3 13.414576341552 4.840568288663 0 0 0 0
1745 3 16.768220426940005 4.840568288663 0 0 0 0
1751 3 20.121864512328003 4.840568288663 0 0 0 0
1757 3 23.475508597716 4.840568288663 0 0 0 0
1763 3 26.829152683104 4.840568288663 0 0 0 0
1769 3 30.182796768491997 4.840568288663 0 0 0 0
1775 3 33.536440853879995 4.840568288663 0 0 0 0
1781 3 36.89008493926801 4.840568288663 0 0 0 0
1787 3 40.243729024656005 4.840568288663 0 0 0 0
1793 3 43.597373110044 4.840568288663 0 0 0 0
1799 3 46.951017195432 4.840568288663 0 0 0 0
1625 3 50.30466128082 4.840568288663 0 -1 0 0
1631 3 53.658305366208 4.840568288663 0 -1 0 0
1637 3 57.011949451595996 4.840568288663 0 -1 0 0
1643 3 60.365593536984 4.840568288663 0 -1 0 0
1649 3 63.719237622372 4.840568288663 0 -1 0 0
1655 3 67.07288170776 4.840568288663 0 -1 0 0
1661 3 70.426525793148 4.840568288663 0 -1 0 0
1667 3 73.780169878536 4.840568288663 0 -1 0 0
1673 3 77.133813963924 4.840568288663 0 -1 0 0
1679 3 80.487458049312 4.840568288663 0 -1 0 0
1685 3 83.84110213470001 4.840568288663 0 -1 0 0
1691 3 87.194746220088 4.840568288663 0 -1 0 0
1697 3 90.548390305476 4.840568288663 0 -1 0 0
1703 3 93.902034390864 4.840568288663 0 -1 0 0
1709 3 97.255678476252 4.840568288663 0 -1 0 0
1712 1 1.676822042693999 5.808681946396 1.1754339282250008 0 0 0
1718 1 5.030466128081997 5.808681946396 1.1754339282250008 0 0 0
1724 1 8.384110213470002 5.808681946396 1.1754339282250008 0 0 0
1730 1 11.737754298858 5.808681946396 1.1754339282250008 0 0 0
1736 1 15.091398384246006 5.808681946396 1.1754339282250008 0 0 0
1742 1 18.445042469634004 5.808681946396 1.1754339282250008 0 0 0
1748 1 21.798686555022 5.808681946396 1.1754339282250008 0 0 0
1754 1 25.15233064041 5.808681946396 1.1754339282250008 0 0 0
1760 1 28.505974725797998 5.808681946396 1.1754339282250008 0 0 0
1766 1 31.859618811185996 5.808681946396 1.1754339282250008 0 0 0
1772 1 35.213262896573994 5.808681946396 1.1754339282250008 0 0 0
1778 1 38.566906981962006 5.808681946396 1.1754339282250008 0 0 0
1784 1 41.920551067350004 5.808681946396 1.1754339282250008 0 0 0
1790 1 45.274195152738 5.808681946396 1.1754339282250008 0 0 0
1796 1 48.627839238126 5.808681946396 1.1754339282250008 0 0 0
1622 1 51.981483323514 5.808681946396 1.1754339282250008 -1 0 0
1628 1 55.335127408902 5.808681946396 1.1754339282250008 -1 0 0
1634 1 58.68877149429 5.808681946396 1.1754339282250008 -1 0 0
1640 1 62.042415579678 5.808681946396 1.1754339282250008 -1 0 0
1646 1 65.39605966506599 5.808681946396 1.1754339282250008 -1 0 0
1652 1 68.749703750454 5.808681946396 1.1754339282250008 -1 0 0
1658 1 72.103347835842 5.808681946396 1.1754339282250008 -1 0 0
1664 1 75.45699192123 5.808681946396 1.1754339282250008 -1 0 0
1670 1 78.810636006618 5.808681946396 1.1754339282250008 -1 0 0
1676 1 82.164280092006 5.808681946396 1.1754339282250008 -1 0 0
1682 1 85.51792417739401 5.808681946396 1.1754339282250008 -1 0 0
1688 1 88.871568262782 5.808681946396 1.1754339282250008 -1 0 0
1694 1 92.22521234817 5.808681946396 1.1754339282250008 -1 0 0
1700 1 95.578856433558 5.808681946396 1.1754339282250008 -1 0 0
1706 1 98.932500518946 5.808681946396 1.1754339282250008 -1 0 0
1716 3 1.676822042693999 7.744909261860997 0 0 0 0
1722 3 5.030466128081997 7.744909261860997 0 0 0 0
1728 3 8.384110213470002 7.744909261860997 0 0 0 0
1734 3 11.737754298858 7.744909261860997 0 0 0 0
1740 3 15.091398384246006 7.744909261860997 0 0 0 0
1746 3 18.445042469634004 7.744909261860997 0 0 0 0
1752 3 21.798686555022 7.744909261860997 0 0 0 0
1758 3 25.15233064041 7.744909261860997 0 0 0 0
1764 3 28.505974725797998 7.744909261860997 0 0 0 0
1770 3 31.859618811185996 7.744909261860997 0 0 0 0
1776 3 35.213262896573994 7.744909261860997 0 0 0 0
1782 3 38.566906981962006 7.744909261860997 0 0 0 0
1788 3 41.920551067350004 7.744909261860997 0 0 0 0
1794 3 45.274195152738 7.744909261860997 0 0 0 0
1800 3 48.627839238126 7.744909261860997 0 0 0 0
1626 3 51.981483323514 7.744909261860997 0 -1 0 0
1632 3 55.335127408902 7.744909261860997 0 -1 0 0
1638 3 58.68877149429 7.744909261860997 0 -1 0 0
1644 3 62.042415579678 7.744909261860997 0 -1 0 0
1650 3 65.39605966506599 7.744909261860997 0 -1 0 0
1656 3 68.749703750454 7.744909261860997 0 -1 0 0
1662 3 72.103347835842 7.744909261860997 0 -1 0 0
1668 3 75.45699192123 7.744909261860997 0 -1 0 0
1674 3 78.810636006618 7.744909261860997 0 -1 0 0
1680 3 82.164280092006 7.744909261860997 0 -1 0 0
1686 3 85.51792417739401 7.744909261860997 0 -1 0 0
1692 3 88.871568262782 7.744909261860997 0 -1 0 0
1698 3 92.22521234817 7.744909261860997 0 -1 0 0
1704 3 95.578856433558 7.744909261860997 0 -1 0 0
1710 3 98.932500518946 7.744909261860997 0 -1 0 0
1891 1 0 8.713022919593996 1.1754339282250008 0 0 0
1897 1 3.353644085387998 8.713022919593996 1.1754339282250008 0 0 0
1903 1 6.707288170776003 8.713022919593996 1.1754339282250008 0 0 0
1909 1 10.060932256164001 8.713022919593996 1.1754339282250008 0 0 0
1915 1 13.414576341552 8.713022919593996 1.1754339282250008 0 0 0
1921 1 16.768220426940005 8.713022919593996 1.1754339282250008 0 0 0
1927 1 20.121864512328003 8.713022919593996 1.1754339282250008 0 0 0
1933 1 23.475508597716 8.713022919593996 1.1754339282250008 0 0 0
1939 1 26.829152683104 8.713022919593996 1.1754339282250008 0 0 0
1945 1 30.182796768491997 8.713022919593996 1.1754339282250008 0 0 0
1951 1 33.536440853879995 8.713022919593996 1.1754339282250008 0 0 0
1957 1 36.89008493926801 8.713022919593996 1.1754339282250008 0 0 0
1963 1 40.243729024656005 8.713022919593996 1.1754339282250008 0 0 0
1969 1 43.597373110044 8.713022919593996 1.1754339282250008 0 0 0
1975 1 46.951017195432 8.713022919593996 1.1754339282250008 0 0 0
1801 1 50.30466128082 8.713022919593996 1.1754339282250008 -1 0 0
1807 1 53.658305366208 8.713022919593996 1.1754339282250008 -1 0 0
1813 1 57.011949451595996 8.713022919593996 1.1754339282250008 -1 0 0
1819 1 60.365593536984 8.713022919593996 1.1754339282250008 -1 0 0
1825 1 63.719237622372 8.713022919593996 1.1754339282250008 -1 0 0
1831 1 67.07288170776 8.713022919593996 1.1754339282250008 -1 0 0
1837 1 70.426525793148 8.713022919593996 1.1754339282250008 -1 0 0
1843 1 73.780169878536 8.713022919593996 1.1754339282250008 -1 0 0
1849 1 77.133813963924 8.713022919593996 1.1754339282250008 -1 0 0
1855 1 80.487458049312 8.713022919593996 1.1754339282250008 -1 0 0
1861 1 83.84110213470001 8.713022919593996 1.1754339282250008 -1 0 0
1867 1 87.194746220088 8.713022919593996 1.1754339282250008 -1 0 0
1873 1 90.548390305476 8.713022919593996 1.1754339282250008 -1 0 0
1879 1 93.902034390864 8.713022919593996 1.1754339282250008 -1 0 0
1885 1 97.255678476252 8.713022919593996 1.1754339282250008 -1 0 0
1895 3 0 10.649250235059 0 0 0 0
1892 1 1.676822042693999 11.617363892792 1.1754339282250008 0 0 0
1901 3 3.353644085387998 10.649250235059 0 0 0 0
1898 1 5.030466128081997 11.617363892792 1.1754339282250008 0 0 0
1907 3 6.707288170776003 10.649250235059 0 0 0 0
1904 1 8.384110213470002 11.617363892792 1.1754339282250008 0 0 0
1913 3 10.060932256164001 10.649250235059 0 0 0 0
1910 1 11.737754298858 11.617363892792 1.1754339282250008 0 0 0
1919 3 13.414576341552 10.649250235059 0 0 0 0
1916 1 15.091398384246006 11.617363892792 1.1754339282250008 0 0 0
1925 3 16.768220426940005 10.649250235059 0 0 0 0
1922 1 18.445042469634004 11.617363892792 1.1754339282250008 0 0 0
1931 3 20.121864512328003 10.649250235059 0 0 0 0
1928 1 21.798686555022 11.617363892792 1.1754339282250008 0 0 0
1937 3 23.475508597716 10.649250235059 0 0 0 0
1934 1 25.15233064041 11.617363892792 1.1754339282250008 0 0 0
1943 3 26.829152683104 10.649250235059 0 0 0 0
1940 1 28.505974725797998 11.617363892792 1.1754339282250008 0 0 0
1949 3 30.182796768491997 10.649250235059 0 0 0 0
1946 1 31.859618811185996 11.617363892792 1.1754339282250008 0 0 0
1955 3 33.536440853879995 10.649250235059 0 0 0 0
1952 1 35.213262896573994 11.617363892792 1.1754339282250008 0 0 0
1961 3 36.89008493926801 10.649250235059 0 0 0 0
1958 1 38.566906981962006 11.617363892792 1.1754339282250008 0 0 0
1967 3 40.243729024656005 10.649250235059 0 0 0 0
1964 1 41.920551067350004 11.617363892792 1.1754339282250008 0 0 0
1973 3 43.597373110044 10.649250235059 0 0 0 0
1970 1 45.274195152738 11.617363892792 1.1754339282250008 0 0 0
1979 3 46.951017195432 10.649250235059 0 0 0 0
1976 1 48.627839238126 11.617363892792 1.1754339282250008 0 0 0
1805 3 50.30466128082 10.649250235059 0 -1 0 0
1802 1 51.981483323514 11.617363892792 1.1754339282250008 -1 0 0
1811 3 53.658305366208 10.649250235059 0 -1 0 0
1808 1 55.335127408902 11.617363892792 1.1754339282250008 -1 0 0
1817 3 57.011949451595996 10.649250235059 0 -1 0 0
1814 1 58.68877149429 11.617363892792 1.1754339282250008 -1 0 0
1823 3 60.365593536984 10.649250235059 0 -1 0 0
1820 1 62.042415579678 11.617363892792 1.1754339282250008 -1 0 0
1829 3 63.719237622372 10.649250235059 0 -1 0 0
1826 1 65.39605966506599 11.617363892792 1.1754339282250008 -1 0 0
1835 3 67.07288170776 10.649250235059 0 -1 0 0
1832 1 68.749703750454 11.617363892792 1.1754339282250008 -1 0 0
1841 3 70.426525793148 10.649250235059 0 -1 0 0
1838 1 72.103347835842 11.617363892792 1.1754339282250008 -1 0 0
1847 3 73.780169878536 10.649250235059 0 -1 0 0
1844 1 75.45699192123 11.617363892792 1.1754339282250008 -1 0 0
1853 3 77.133813963924 10.649250235059 0 -1 0 0
1850 1 78.810636006618 11.617363892792 1.1754339282250008 -1 0 0
1859 3 80.487458049312 10.649250235059 0 -1 0 0
1856 1 82.164280092006 11.617363892792 1.1754339282250008 -1 0 0
1865 3 83.84110213470001 10.649250235059 0 -1 0 0
1862 1 85.51792417739401 11.617363892792 1.1754339282250008 -1 0 0
1871 3 87.194746220088 10.649250235059 0 -1 0 0
1868 1 88.871568262782 11.617363892792 1.1754339282250008 -1 0 0
1877 3 90.548390305476 10.649250235059 0 -1 0 0
1874 1 92.22521234817 11.617363892792 1.1754339282250008 -1 0 0
1883 3 93.902034390864 10.649250235059 0 -1 0 0
1880 1 95.578856433558 11.617363892792 1.1754339282250008 -1 0 0
1889 3 97.255678476252 10.649250235059 0 -1 0 0
1886 1 98.932500518946 11.617363892792 1.1754339282250008 -1 0 0
1896 3 1.676822042693999 13.553591208256996 0 0 0 0
1902 3 5.030466128081997 13.553591208256996 0 0 0 0
1908 3 8.384110213470002 13.553591208256996 0 0 0 0
1914 3 11.737754298858 13.553591208256996 0 0 0 0
1920 3 15.091398384246006 13.553591208256996 0 0 0 0
1926 3 18.445042469634004 13.553591208256996 0 0 0 0
1932 3 21.798686555022 13.553591208256996 0 0 0 0
1938 3 25.15233064041 13.553591208256996 0 0 0 0
1944 3 28.505974725797998 13.553591208256996 0 0 0 0
1950 3 31.859618811185996 13.553591208256996 0 0 0 0
1956 3 35.213262896573994 13.553591208256996 0 0 0 0
1962 3 38.566906981962006 13.553591208256996 0 0 0 0
1968 3 41.920551067350004 13.553591208256996 0 0 0 0
1974 3 45.274195152738 13.553591208256996 0 0 0 0
1980 3 48.627839238126 13.553591208256996 0 0 0 0
1806 3 51.981483323514 13.553591208256996 0 -1 0 0
1812 3 55.335127408902 13.553591208256996 0 -1 0 0
1818 3 58.68877149429 13.553591208256996 0 -1 0 0
1824 3 62.042415579678 13.553591208256996 0 -1 0 0
1830 3 65.39605966506599 13.553591208256996 0 -1 0 0
1836 3 68.749703750454 13.553591208256996 0 -1 0 0
1842 3 72.103347835842 13.553591208256996 0 -1 0 0
1848 3 75.45699192123 13.553591208256996 0 -1 0 0
1854 3 78.810636006618 13.553591208256996 0 -1 0 0
1860 3 82.164280092006 13.553591208256996 0 -1 0 0
1866 3 85.51792417739401 13.553591208256996 0 -1 0 0
1872 3 88.871568262782 13.553591208256996 0 -1 0 0
1878 3 92.22521234817 13.553591208256996 0 -1 0 0
1884 3 95.578856433558 13.553591208256996 0 -1 0 0
1890 3 98.932500518946 13.553591208256996 0 -1 0 0
2071 1 0 14.521704865989996 1.1754339282250008 0 0 0
2077 1 3.353644085387998 14.521704865989996 1.1754339282250008 0 0 0
2083 1 6.707288170776003 14.521704865989996 1.1754339282250008 0 0 0
2089 1 10.060932256164001 14.521704865989996 1.1754339282250008 0 0 0
2095 1 13.414576341552 14.521704865989996 1.1754339282250008 0 0 0
2101 1 16.768220426940005 14.521704865989996 1.1754339282250008 0 0 0
2107 1 20.121864512328003 14.521704865989996 1.1754339282250008 0 0 0
2113 1 23.475508597716 14.521704865989996 1.1754339282250008 0 0 0
2119 1 26.829152683104 14.521704865989996 1.1754339282250008 0 0 0
2125 1 30.182796768491997 14.521704865989996 1.1754339282250008 0 0 0
2131 1 33.536440853879995 14.521704865989996 1.1754339282250008 0 0 0
2137 1 36.89008493926801 14.521704865989996 1.1754339282250008 0 0 0
2143 1 40.243729024656005 14.521704865989996 1.1754339282250008 0 0 0
2149 1 43.597373110044 14.521704865989996 1.1754339282250008 0 0 0
2155 1 46.951017195432 14.521704865989996 1.1754339282250008 0 0 0
1981 1 50.30466128082 14.521704865989996 1.1754339282250008 -1 0 0
1987 1 53.658305366208 14.521704865989996 1.1754339282250008 -1 0 0
1993 1 57.011949451595996 14.521704865989996 1.1754339282250008 -1 0 0
1999 1 60.365593536984 14.521704865989996 1.1754339282250008 -1 0 0
2005 1 63.719237622372 14.521704865989996 1.1754339282250008 -1 0 0
2011 1 67.07288170776 14.521704865989996 1.1754339282250008 -1 0 0
2017 1 70.426525793148 14.521704865989996 1.1754339282250008 -1 0 0
2023 1 73.780169878536 14.521704865989996 1.1754339282250008 -1 0 0
2029 1 77.133813963924 14.521704865989996 1.1754339282250008 -1 0 0
2035 1 80.487458049312 14.521704865989996 1.1754339282250008 -1 0 0
2041 1 83.84110213470001 14.521704865989996 1.1754339282250008 -1 0 0
2047 1 87.194746220088 14.521704865989996 1.1754339282250008 -1 0 0
2053 1 90.548390305476 14.521704865989996 1.1754339282250008 -1 0 0
2059 1 93.902034390864 14.521704865989996 1.1754339282250008 -1 0 0
2065 1 97.255678476252 14.521704865989996 1.1754339282250008 -1 0 0
2075 3 0 16.457932181454993 0 0 0 0
2081 3 3.353644085387998 16.457932181454993 0 0 0 0
2087 3 6.707288170776003 16.457932181454993 0 0 0 0
2093 3 10.060932256164001 16.457932181454993 0 0 0 0
2099 3 13.414576341552 16.457932181454993 0 0 0 0
2105 3 16.768220426940005 16.457932181454993 0 0 0 0
2111 3 20.121864512328003 16.457932181454993 0 0 0 0
2117 3 23.475508597716 16.457932181454993 0 0 0 0
2123 3 26.829152683104 16.457932181454993 0 0 0 0
2129 3 30.182796768491997 16.457932181454993 0 0 0 0
2135 3 33.536440853879995 16.457932181454993 0 0 0 0
2141 3 36.89008493926801 16.457932181454993 0 0 0 0
2147 3 40.243729024656005 16.457932181454993 0 0 0 0
2153 3 43.597373110044 16.457932181454993 0 0 0 0
2159 3 46.951017195432 16.457932181454993 0 0 0 0
1985 3 50.30466128082 16.457932181454993 0 -1 0 0
1991 3 53.658305366208 16.457932181454993 0 -1 0 0
1997 3 57.011949451595996 16.457932181454993 0 -1 0 0
2003 3 60.365593536984 16.457932181454993 0 -1 0 0
2009 3 63.719237622372 16.457932181454993 0 -1 0 0
2015 3 67.07288170776 16.457932181454993 0 -1 0 0
2021 3 70.426525793148 16.457932181454993 0 -1 0 0
2027 3 73.780169878536 16.457932181454993 0 -1 0 0
2033 3 77.133813963924 16.457932181454993 0 -1 0 0
2039 3 80.487458049312 16.457932181454993 0 -1 0 0
2045 3 83.84110213470001 16.457932181454993 0 -1 0 0
2051 3 87.194746220088 16.457932181454993 0 -1 0 0
2057 3 90.548390305476 16.457932181454993 0 -1 0 0
2063 3 93.902034390864 16.457932181454993 0 -1 0 0
2069 3 97.255678476252 16.457932181454993 0 -1 0 0
2072 1 1.676822042693999 17.426045839187992 1.1754339282250008 0 0 0
2078 1 5.030466128081997 17.426045839187992 1.1754339282250008 0 0 0
2084 1 8.384110213470002 17.426045839187992 1.1754339282250008 0 0 0
2090 1 11.737754298858 17.426045839187992 1.1754339282250008 0 0 0
2096 1 15.091398384246006 17.426045839187992 1.1754339282250008 0 0 0
2102 1 18.445042469634004 17.426045839187992 1.1754339282250008 0 0 0
2108 1 21.798686555022 17.426045839187992 1.1754339282250008 0 0 0
2114 1 25.15233064041 17.426045839187992 1.1754339282250008 0 0 0
2120 1 28.505974725797998 17.426045839187992 1.1754339282250008 0 0 0
2126 1 31.859618811185996 17.426045839187992 1.1754339282250008 0 0 0
2132 1 35.213262896573994 17.426045839187992 1.1754339282250008 0 0 0
2138 1 38.566906981962006 17.426045839187992 1.1754339282250008 0 0 0
2144 1 41.920551067350004 17.426045839187992 1.1754339282250008 0 0 0
2150 1 45.274195152738 17.426045839187992 1.1754339282250008 0 0 0
2156 1 48.627839238126 17.426045839187992 1.1754339282250008 0 0 0
1982 1 51.981483323514 17.426045839187992 1.1754339282250008 -1 0 0
1988 1 55.335127408902 17.426045839187992 1.1754339282250008 -1 0 0
1994 1 58.68877149429 17.426045839187992 1.1754339282250008 -1 0 0
2000 1 62.042415579678 17.426045839187992 1.1754339282250008 -1 0 0
2006 1 65.39605966506599 17.426045839187992 1.1754339282250008 -1 0 0
2012 1 68.749703750454 17.426045839187992 1.1754339282250008 -1 0 0
2018 1 72.103347835842 17.426045839187992 1.1754339282250008 -1 0 0
2024 1 75.45699192123 17.426045839187992 1.1754339282250008 -1 0 0
2030 1 78.810636006618 17.426045839187992 1.1754339282250008 -1 0 0
2036 1 82.164280092006 17.426045839187992 1.1754339282250008 -1 0 0
2042 1 85.51792417739401 17.426045839187992 1.1754339282250008 -1 0 0
2048 1 88.871568262782 17.426045839187992 1.1754339282250008 -1 0 0
2054 1 92.22521234817 17.426045839187992 1.1754339282250008 -1 0 0
2060 1 95.578856433558 17.426045839187992 1.1754339282250008 -1 0 0
2066 1 98.932500518946 17.426045839187992 1.1754339282250008 -1 0 0
2076 3 1.676822042693999 19.362273154652996 0 0 0 0
2251 1 0 20.330386812385996 1.1754339282250008 0 0 0
2257 1 3.353644085387998 20.330386812385996 1.1754339282250008 0 0 0
2082 3 5.030466128081997 19.362273154652996 0 0 0 0
2263 1 6.707288170776003 20.330386812385996 1.1754339282250008 0 0 0
2088 3 8.384110213470002 19.362273154652996 0 0 0 0
2269 1 10.060932256164001 20.330386812385996 1.1754339282250008 0 0 0
2094 3 11.737754298858 19.362273154652996 0 0 0 0
2275 1 13.414576341552 20.330386812385996 1.1754339282250008 0 0 0
2100 3 15.091398384246006 19.362273154652996 0 0 0 0
2281 1 16.768220426940005 20.330386812385996 1.1754339282250008 0 0 0
2106 3 18.445042469634004 19.362273154652996 0 0 0 0
2287 1 20.121864512328003 20.330386812385996 1.1754339282250008 0 0 0
2112 3 21.798686555022 19.362273154652996 0 0 0 0
2293 1 23.475508597716 20.330386812385996 1.1754339282250008 0 0 0
2118 3 25.15233064041 19.362273154652996 0 0 0 0
2299 1 26.829152683104 20.330386812385996 1.1754339282250008 0 0 0
2124 3 28.505974725797998 19.362273154652996 0 0 0 0
2305 1 30.182796768491997 20.330386812385996 1.1754339282250008 0 0 0
2130 3 31.859618811185996 19.362273154652996 0 0 0 0
2311 1 33.536440853879995 20.330386812385996 1.1754339282250008 0 0 0
2136 3 35.213262896573994 19.362273154652996 0 0 0 0
2317 1 36.89008493926801 20.330386812385996 1.1754339282250008 0 0 0
2142 3 38.566906981962006 19.362273154652996 0 0 0 0
2323 1 40.243729024656005 20.330386812385996 1.1754339282250008 0 0 0
2148 3 41.920551067350004 19.362273154652996 0 0 0 0
2329 1 43.597373110044 20.330386812385996 1.1754339282250008 0 0 0
2154 3 45.274195152738 19.362273154652996 0 0 0 0
2335 1 46.951017195432 20.330386812385996 1.1754339282250008 0 0 0
2160 3 48.627839238126 19.362273154652996 0 0 0 0
1986 3 51.981483323514 19.362273154652996 0 -1 0 0
2161 1 50.30466128082 20.330386812385996 1.1754339282250008 -1 0 0
2167 1 53.658305366208 20.330386812385996 1.1754339282250008 -1 0 0
1992 3 55.335127408902 19.362273154652996 0 -1 0 0
2173 1 57.011949451595996 20.330386812385996 1.1754339282250008 -1 0 0
1998 3 58.68877149429 19.362273154652996 0 -1 0 0
2179 1 60.365593536984 20.330386812385996 1.1754339282250008 -1 0 0
2004 3 62.042415579678 19.362273154652996 0 -1 0 0
2185 1 63.719237622372 20.330386812385996 1.1754339282250008 -1 0 0
2010 3 65.39605966506599 19.362273154652996 0 -1 0 0
2191 1 67.07288170776 20.330386812385996 1.1754339282250008 -1 0 0
2016 3 68.749703750454 19.362273154652996 0 -1 0 0
2197 1 70.426525793148 20.330386812385996 1.1754339282250008 -1 0 0
2022 3 72.103347835842 19.362273154652996 0 -1 0 0
2203 1 73.780169878536 20.330386812385996 1.1754339282250008 -1 0 0
2028 3 75.45699192123 19.362273154652996 0 -1 0 0
2209 1 77.133813963924 20.330386812385996 1.1754339282250008 -1 0 0
2034 3 78.810636006618 19.362273154652996 0 -1 0 0
2215 1 80.487458049312 20.330386812385996 1.1754339282250008 -1 0 0
2040 3 82.164280092006 19.362273154652996 0 -1 0 0
2221 1 83.84110213470001 20.330386812385996 1.1754339282250008 -1 0 0
2046 3 85.51792417739401 19.362273154652996 0 -1 0 0
2227 1 87.194746220088 20.330386812385996 1.1754339282250008 -1 0 0
2052 3 88.871568262782 19.362273154652996 0 -1 0 0
2233 1 90.548390305476 20.330386812385996 1.1754339282250008 -1 0 0
2058 3 92.22521234817 19.362273154652996 0 -1 0 0
2239 1 93.902034390864 20.330386812385996 1.1754339282250008 -1 0 0
2064 3 95.578856433558 19.362273154652996 0 -1 0 0
2245 1 97.255678476252 20.330386812385996 1.1754339282250008 -1 0 0
2070 3 98.932500518946 19.362273154652996 0 -1 0 0
2255 3 0 22.266614127851 0 0 0 0
2261 3 3.353644085387998 22.266614127851 0 0 0 0
2267 3 6.707288170776003 22.266614127851 0 0 0 0
2273 3 10.060932256164001 22.266614127851 0 0 0 0
2279 3 13.414576341552 22.266614127851 0 0 0 0
2285 3 16.768220426940005 22.266614127851 0 0 0 0
2291 3 20.121864512328003 22.266614127851 0 0 0 0
2297 3 23.475508597716 22.266614127851 0 0 0 0
2303 3 26.829152683104 22.266614127851 0 0 0 0
2309 3 30.182796768491997 22.266614127851 0 0 0 0
2315 3 33.536440853879995 22.266614127851 0 0 0 0
2321 3 36.89008493926801 22.266614127851 0 0 0 0
2327 3 40.243729024656005 22.266614127851 0 0 0 0
2333 3 43.597373110044 22.266614127851 0 0 0 0
2339 3 46.951017195432 22.266614127851 0 0 0 0
2165 3 50.30466128082 22.266614127851 0 -1 0 0
2171 3 53.658305366208 22.266614127851 0 -1 0 0
2177 3 57.011949451595996 22.266614127851 0 -1 0 0
2183 3 60.365593536984 22.266614127851 0 -1 0 0
2189 3 63.719237622372 22.266614127851 0 -1 0 0
2195 3 67.07288170776 22.266614127851 0 -1 0 0
2201 3 70.426525793148 22.266614127851 0 -1 0 0
2207 3 73.780169878536 22.266614127851 0 -1 0 0
2213 3 77.133813963924 22.266614127851 0 -1 0 0
2219 3 80.487458049312 22.266614127851 0 -1 0 0
2225 3 83.84110213470001 22.266614127851 0 -1 0 0
2231 3 87.194746220088 22.266614127851 0 -1 0 0
2237 3 90.548390305476 22.266614127851 0 -1 0 0
2243 3 93.902034390864 22.266614127851 0 -1 0 0
2249 3 97.255678476252 22.266614127851 0 -1 0 0
2252 1 1.676822042693999 23.234727785584 1.1754339282250008 0 0 0
2258 1 5.030466128081997 23.234727785584 1.1754339282250008 0 0 0
2264 1 8.384110213470002 23.234727785584 1.1754339282250008 0 0 0
2270 1 11.737754298858 23.234727785584 1.1754339282250008 0 0 0
2276 1 15.091398384246006 23.234727785584 1.1754339282250008 0 0 0
2282 1 18.445042469634004 23.234727785584 1.1754339282250008 0 0 0
2288 1 21.798686555022 23.234727785584 1.1754339282250008 0 0 0
2294 1 25.15233064041 23.234727785584 1.1754339282250008 0 0 0
2300 1 28.505974725797998 23.234727785584 1.1754339282250008 0 0 0
2306 1 31.859618811185996 23.234727785584 1.1754339282250008 0 0 0
2312 1 35.213262896573994 23.234727785584 1.1754339282250008 0 0 0
2318 1 38.566906981962006 23.234727785584 1.1754339282250008 0 0 0
2324 1 41.920551067350004 23.234727785584 1.1754339282250008 0 0 0
2330 1 45.274195152738 23.234727785584 1.1754339282250008 0 0 0
2336 1 48.627839238126 23.234727785584 1.1754339282250008 0 0 0
2162 1 51.981483323514 23.234727785584 1.1754339282250008 -1 0 0
2168 1 55.335127408902 23.234727785584 1.1754339282250008 -1 0 0
2174 1 58.68877149429 23.234727785584 1.1754339282250008 -1 0 0
2180 1 62.042415579678 23.234727785584 1.1754339282250008 -1 0 0
2186 1 65.39605966506599 23.234727785584 1.1754339282250008 -1 0 0
2192 1 68.749703750454 23.234727785584 1.1754339282250008 -1 0 0
2198 1 72.103347835842 23.234727785584 1.1754339282250008 -1 0 0
2204 1 75.45699192123 23.234727785584 1.1754339282250008 -1 0 0
2210 1 78.810636006618 23.234727785584 1.1754339282250008 -1 0 0
2216 1 82.164280092006 23.234727785584 1.1754339282250008 -1 0 0
2222 1 85.51792417739401 23.234727785584 1.1754339282250008 -1 0 0
2228 1 88.871568262782 23.234727785584 1.1754339282250008 -1 0 0
2234 1 92.22521234817 23.234727785584 1.1754339282250008 -1 0 0
2240 1 95.578856433558 23.234727785584 1.1754339282250008 -1 0 0
2246 1 98.932500518946 23.234727785584 1.1754339282250008 -1 0 0
2256 3 1.676822042693999 25.170955101049003 0 0 0 0
2262 3 5.030466128081997 25.170955101049003 0 0 0 0
2268 3 8.384110213470002 25.170955101049003 0 0 0 0
2274 3 11.737754298858 25.170955101049003 0 0 0 0
2280 3 15.091398384246006 25.170955101049003 0 0 0 0