LAMMPS data file via write_data, version 29 Aug 2024, timestep = 2, units = metal

6120 atoms
6 atom types

0 100.60932256164 xlo xhi
0 98.747593088732 ylo yhi
-50 50 zlo zhi

Masses

1 58.6934
2 58.6934
3 32.06
4 32.06
5 32.06
6 32.06

Atoms # atomic

1536 4 1.6768220426939993 1.9362253967664338 0.045541958129571486 0 0 0
1711 1 6.997718220766237e-18 2.9030096431461847 1.1714909452447044 0 0 0
1717 1 3.3536440853879985 2.9030096431461847 1.1714909452447044 0 0 0
1542 4 5.030466128082 1.9362253967664345 0.045541958129572485 0 0 0
1715 4 0 4.840566369964434 0.04554195812957231 0 0 0
1721 4 3.353644085387999 4.840566369964435 0.04554195812957284 0 0 0
1712 1 1.6768220426939993 5.807350616344184 1.1714909452447064 0 0 0
1718 1 5.030466128082 5.807350616344184 1.1714909452447064 0 0 0
1534 3 0 0.9648953545424679 2.2959622633896575 0 0 0
1540 3 3.353644085387999 0.9648953545424677 2.295962263389657 0 0 0
1713 3 1.6768220426939993 3.869236327740467 2.295962263389657 0 0 0
1719 3 5.030466128082 3.869236327740466 2.2959622633896557 0 0 0
1723 1 6.707288170776001 2.9030096431461847 1.1714909452447044 0 0 0
1548 4 8.384110213470002 1.9362253967664338 0.04554195812957181 0 0 0
1729 1 10.060932256164001 2.9030096431461847 1.1714909452447044 0 0 0
1554 4 11.737754298858 1.9362253967664338 0.04554195812957181 0 0 0
1727 4 6.707288170776001 4.840566369964435 0.0455419581295734 0 0 0
1733 4 10.060932256164001 4.840566369964434 0.04554195812957226 0 0 0
1724 1 8.384110213470002 5.807350616344184 1.1714909452447064 0 0 0
1730 1 11.737754298858 5.807350616344184 1.1714909452447066 0 0 0
1546 3 6.707288170776001 0.9648953545424671 2.295962263389656 0 0 0
1552 3 10.060932256164001 0.964895354542468 2.2959622633896575 0 0 0
1725 3 8.384110213470002 3.869236327740467 2.2959622633896566 0 0 0
1731 3 11.737754298858 3.869236327740467 2.2959622633896566 0 0 0
1735 1 13.414576341552003 2.9030096431461847 1.1714909452447042 0 0 0
1560 4 15.091398384246004 1.9362253967664345 0.045541958129572464 0 0 0
1741 1 16.768220426940005 2.9030096431461847 1.1714909452447047 0 0 0
1739 4 13.414576341552001 4.840566369964435 0.04554195812957343 0 0 0
1745 4 16.768220426940005 4.840566369964435 0.04554195812957283 0 0 0
1736 1 15.091398384246004 5.807350616344184 1.1714909452447062 0 0 0
1558 3 13.414576341552003 0.9648953545424672 2.2959622633896566 0 0 0
1564 3 16.768220426940005 0.9648953545424677 2.295962263389657 0 0 0
1737 3 15.091398384246002 3.869236327740466 2.2959622633896557 0 0 0
1566 4 18.445042469634004 1.9362253967664336 0.045541958129571423 0 0 0
1747 1 20.121864512328003 2.9030096431461847 1.1714909452447044 0 0 0
1572 4 21.798686555022 1.9362253967664336 0.045541958129571444 0 0 0
1753 1 23.475508597716 2.9030096431461847 1.1714909452447044 0 0 0
1751 4 20.121864512328003 4.840566369964434 0.04554195812957232 0 0 0
1757 4 23.475508597716 4.840566369964434 0.04554195812957232 0 0 0
1742 1 18.445042469634004 5.807350616344184 1.1714909452447064 0 0 0
1748 1 21.798686555022 5.807350616344184 1.1714909452447066 0 0 0
1570 3 20.121864512328003 0.9648953545424679 2.2959622633896575 0 0 0
1576 3 23.475508597716 0.9648953545424679 2.2959622633896575 0 0 0
1743 3 18.445042469634004 3.869236327740467 2.295962263389657 0 0 0
1749 3 21.798686555022 3.869236327740467 2.295962263389657 0 0 0
1578 4 25.15233064041 1.9362253967664336 0.045541958129571444 0 0 0
1759 1 26.829152683104 2.9030096431461847 1.1714909452447044 0 0 0
1584 4 28.505974725797998 1.9362253967664336 0.045541958129571444 0 0 0
1763 4 26.829152683104 4.840566369964434 0.04554195812957232 0 0 0
1754 1 25.15233064041 5.807350616344184 1.1714909452447066 0 0 0
1760 1 28.505974725797998 5.807350616344184 1.1714909452447066 0 0 0
1582 3 26.829152683104 0.9648953545424679 2.2959622633896575 0 0 0
1755 3 25.15233064041 3.869236327740467 2.295962263389657 0 0 0
1761 3 28.505974725797998 3.869236327740467 2.295962263389657 0 0 0
1765 1 30.182796768491997 2.9030096431461847 1.1714909452447044 0 0 0
1590 4 31.859618811185996 1.9362253967664336 0.045541958129571375 0 0 0
1771 1 33.536440853879995 2.9030096431461847 1.1714909452447044 0 0 0
1596 4 35.213262896574 1.9362253967664353 0.04554195812957347 0 0 0
1769 4 30.182796768491997 4.840566369964434 0.04554195812957231 0 0 0
1775 4 33.536440853879995 4.840566369964435 0.04554195812957355 0 0 0
1766 1 31.859618811185996 5.807350616344184 1.1714909452447064 0 0 0
1772 1 35.213262896574 5.807350616344184 1.1714909452447066 0 0 0
1588 3 30.182796768491997 0.9648953545424679 2.2959622633896575 0 0 0
1594 3 33.536440853879995 0.9648953545424671 2.295962263389656 0 0 0
1767 3 31.859618811185996 3.869236327740467 2.295962263389657 0 0 0
1773 3 35.213262896574 3.8692363277404658 2.2959622633896553 0 0 0
1777 1 36.890084939268 2.9030096431461847 1.1714909452447042 0 0 0
1602 4 38.566906981962006 1.9362253967664345 0.04554195812957271 0 0 0
1783 1 40.243729024656005 2.9030096431461847 1.1714909452447044 0 0 0
1781 4 36.890084939268 4.840566369964436 0.045541958129574206 0 0 0
1787 4 40.243729024656005 4.840566369964434 0.04554195812957224 0 0 0
1778 1 38.566906981962006 5.807350616344184 1.1714909452447064 0 0 0
1600 3 36.890084939268 0.9648953545424664 2.2959622633896557 0 0 0
1606 3 40.243729024656005 0.964895354542468 2.295962263389658 0 0 0
1779 3 38.566906981962006 3.869236327740466 2.2959622633896557 0 0 0
1608 4 41.920551067350004 1.9362253967664336 0.045541958129571444 0 0 0
1789 1 43.597373110044 2.9030096431461847 1.1714909452447044 0 0 0
1614 4 45.274195152738 1.9362253967664336 0.045541958129571444 0 0 0
1795 1 46.951017195432 2.9030096431461847 1.1714909452447044 0 0 0
1793 4 43.597373110044 4.840566369964434 0.04554195812957232 0 0 0
1799 4 46.951017195432 4.840566369964434 0.04554195812957232 0 0 0
1784 1 41.920551067350004 5.807350616344184 1.1714909452447066 0 0 0
1790 1 45.274195152738 5.807350616344184 1.1714909452447066 0 0 0
1612 3 43.597373110044 0.9648953545424679 2.2959622633896575 0 0 0
1618 3 46.951017195432 0.9648953545424679 2.2959622633896575 0 0 0
1785 3 41.920551067350004 3.869236327740467 2.295962263389657 0 0 0
1791 3 45.274195152738 3.869236327740467 2.295962263389657 0 0 0
1620 4 48.627839238126 1.9362253967664336 0.045541958129571444 0 0 0
1446 4 51.981483323514 1.9362253967664336 0.04554195812957145 -1 0 0
1621 1 50.30466128082 2.9030096431461847 1.1714909452447044 -1 0 0
1625 4 50.30466128082 4.840566369964434 0.04554195812957232 -1 0 0
1796 1 48.627839238126 5.807350616344184 1.1714909452447066 0 0 0
1622 1 51.981483323514 5.807350616344184 1.1714909452447066 -1 0 0
1444 3 50.30466128082 0.9648953545424679 2.2959622633896575 -1 0 0
1797 3 48.627839238126 3.869236327740467 2.295962263389657 0 0 0
1623 3 51.981483323514 3.869236327740467 2.295962263389657 -1 0 0
1627 1 53.658305366208 2.9030096431461847 1.1714909452447044 -1 0 0
1452 4 55.335127408902 1.9362253967664338 0.045541958129572 -1 0 0
1633 1 57.011949451596 2.9030096431461847 1.1714909452447044 -1 0 0
1458 4 58.68877149429 1.9362253967664345 0.04554195812957228 -1 0 0
1631 4 53.658305366208 4.840566369964434 0.0455419581295723 -1 0 0
1637 4 57.011949451595996 4.840566369964435 0.045541958129573235 -1 0 0
1628 1 55.335127408902 5.807350616344184 1.1714909452447064 -1 0 0
1634 1 58.688771494289995 5.807350616344184 1.1714909452447064 -1 0 0
1450 3 53.658305366208 0.9648953545424679 2.2959622633896575 -1 0 0
1456 3 57.011949451595996 0.9648953545424672 2.2959622633896566 -1 0 0
1629 3 55.335127408902 3.869236327740467 2.295962263389656 -1 0 0
1635 3 58.68877149429 3.8692363277404667 2.2959622633896557 -1 0 0
1639 1 60.365593536984 2.9030096431461847 1.1714909452447044 -1 0 0
1464 4 62.042415579678 1.9362253967664331 0.04554195812957079 -1 0 0
1645 1 63.719237622372 2.9030096431461847 1.1714909452447044 -1 0 0
1643 4 60.365593536984 4.840566369964435 0.04554195812957301 -1 0 0
1649 4 63.719237622372 4.840566369964434 0.04554195812957171 -1 0 0
1640 1 62.042415579678 5.807350616344184 1.1714909452447064 -1 0 0
1462 3 60.365593536984 0.9648953545424677 2.295962263389657 -1 0 0
1468 3 63.719237622372 0.9648953545424684 2.2959622633896584 -1 0 0
1641 3 62.042415579678 3.8692363277404676 2.2959622633896575 -1 0 0
1470 4 65.396059665066 1.9362253967664345 0.04554195812957246 -1 0 0
1651 1 67.07288170776 2.9030096431461847 1.1714909452447042 -1 0 0
1476 4 68.749703750454 1.9362253967664345 0.04554195812957281 -1 0 0
1657 1 70.426525793148 2.9030096431461847 1.1714909452447044 -1 0 0
1655 4 67.07288170776 4.840566369964436 0.045541958129574456 -1 0 0
1661 4 70.426525793148 4.840566369964434 0.04554195812957229 -1 0 0
1646 1 65.396059665066 5.807350616344184 1.1714909452447066 -1 0 0
1652 1 68.749703750454 5.807350616344184 1.1714909452447064 -1 0 0
1474 3 67.07288170776 0.9648953545424664 2.2959622633896557 -1 0 0
1480 3 70.426525793148 0.9648953545424679 2.2959622633896575 -1 0 0
1647 3 65.396059665066 3.8692363277404667 2.2959622633896557 -1 0 0
1653 3 68.749703750454 3.869236327740466 2.2959622633896557 -1 0 0
1482 4 72.103347835842 1.9362253967664336 0.045541958129571444 -1 0 0
1663 1 73.780169878536 2.9030096431461847 1.1714909452447044 -1 0 0
1488 4 75.45699192123 1.9362253967664336 0.045541958129571444 -1 0 0
1667 4 73.780169878536 4.840566369964434 0.04554195812957232 -1 0 0
1658 1 72.103347835842 5.807350616344184 1.1714909452447066 -1 0 0
1664 1 75.45699192123 5.807350616344184 1.1714909452447066 -1 0 0
1486 3 73.780169878536 0.9648953545424679 2.2959622633896575 -1 0 0
1659 3 72.103347835842 3.869236327740467 2.295962263389657 -1 0 0
1665 3 75.45699192123 3.869236327740467 2.295962263389657 -1 0 0
1669 1 77.133813963924 2.9030096431461847 1.1714909452447044 -1 0 0
1494 4 78.810636006618 1.9362253967664336 0.045541958129571423 -1 0 0
1675 1 80.487458049312 2.9030096431461847 1.1714909452447044 -1 0 0
1500 4 82.164280092006 1.9362253967664353 0.045541958129573394 -1 0 0
1673 4 77.133813963924 4.840566369964434 0.04554195812957231 -1 0 0
1679 4 80.487458049312 4.840566369964435 0.04554195812957355 -1 0 0
1670 1 78.810636006618 5.807350616344184 1.1714909452447064 -1 0 0
1676 1 82.16428009200601 5.807350616344184 1.1714909452447066 -1 0 0
1492 3 77.133813963924 0.9648953545424679 2.2959622633896575 -1 0 0
1498 3 80.487458049312 0.9648953545424672 2.295962263389656 -1 0 0
1671 3 78.810636006618 3.869236327740467 2.295962263389657 -1 0 0
1677 3 82.164280092006 3.8692363277404658 2.2959622633896553 -1 0 0
1681 1 83.8411021347 2.9030096431461847 1.1714909452447042 -1 0 0
1506 4 85.51792417739401 1.9362253967664345 0.04554195812957271 -1 0 0
1687 1 87.194746220088 2.9030096431461847 1.1714909452447044 -1 0 0
1685 4 83.84110213470001 4.840566369964436 0.045541958129574164 -1 0 0
1691 4 87.194746220088 4.840566369964434 0.04554195812957231 -1 0 0
1682 1 85.51792417739401 5.807350616344184 1.1714909452447064 -1 0 0
1504 3 83.84110213470001 0.9648953545424664 2.2959622633896557 -1 0 0
1510 3 87.194746220088 0.9648953545424679 2.2959622633896575 -1 0 0
1683 3 85.51792417739401 3.8692363277404667 2.2959622633896557 -1 0 0
1512 4 88.871568262782 1.9362253967664336 0.04554195812957145 -1 0 0
1693 1 90.548390305476 2.9030096431461847 1.1714909452447044 -1 0 0
1518 4 92.22521234817 1.9362253967664336 0.045541958129571444 -1 0 0
1699 1 93.902034390864 2.9030096431461847 1.1714909452447044 -1 0 0
1697 4 90.548390305476 4.840566369964434 0.04554195812957232 -1 0 0
1703 4 93.902034390864 4.840566369964434 0.04554195812957232 -1 0 0
1688 1 88.871568262782 5.807350616344184 1.1714909452447066 -1 0 0
1694 1 92.22521234817 5.807350616344184 1.1714909452447066 -1 0 0
1516 3 90.548390305476 0.9648953545424679 2.2959622633896575 -1 0 0
1522 3 93.902034390864 0.9648953545424679 2.2959622633896575 -1 0 0
1689 3 88.871568262782 3.869236327740467 2.295962263389657 -1 0 0
1695 3 92.22521234817 3.869236327740467 2.295962263389657 -1 0 0
1524 4 95.578856433558 1.9362253967664336 0.045541958129571444 -1 0 0
1705 1 97.255678476252 2.9030096431461847 1.1714909452447044 -1 0 0
1530 4 98.932500518946 1.9362253967664336 0.04554195812957147 -1 0 0
1709 4 97.255678476252 4.840566369964434 0.04554195812957232 -1 0 0
1700 1 95.578856433558 5.807350616344184 1.1714909452447066 -1 0 0
1706 1 98.932500518946 5.807350616344184 1.1714909452447066 -1 0 0
1528 3 97.255678476252 0.9648953545424679 2.2959622633896575 -1 0 0
1701 3 95.578856433558 3.869236327740467 2.295962263389657 -1 0 0
1707 3 98.932500518946 3.869236327740467 2.295962263389657 -1 0 0
1716 4 1.676822042693999 7.744907343162433 0.04554195812957144 0 0 0
1722 4 5.030466128082 7.744907343162434 0.04554195812957245 0 0 0
1891 1 6.997718220766237e-18 8.711691589542184 1.1714909452447044 0 0 0
1897 1 3.3536440853879985 8.711691589542184 1.1714909452447044 0 0 0
1895 4 0 10.649248316360435 0.045541958129572374 0 0 0
1892 1 1.6768220426939993 11.616032562740184 1.1714909452447064 0 0 0
1901 4 3.353644085387999 10.649248316360435 0.04554195812957288 0 0 0
1898 1 5.030466128082 11.616032562740184 1.1714909452447062 0 0 0
1714 3 0 6.773577300938467 2.295962263389658 0 0 0
1720 3 3.353644085387999 6.773577300938467 2.295962263389657 0 0 0
1893 3 1.6768220426939993 9.677918274136466 2.295962263389657 0 0 0
1899 3 5.030466128082 9.677918274136466 2.2959622633896557 0 0 0
1728 4 8.384110213470002 7.744907343162434 0.04554195812957183 0 0 0
1734 4 11.737754298858 7.744907343162434 0.04554195812957183 0 0 0
1903 1 6.707288170776001 8.711691589542184 1.1714909452447042 0 0 0
1909 1 10.060932256164001 8.711691589542184 1.1714909452447044 0 0 0
1907 4 6.707288170776001 10.649248316360435 0.045541958129573526 0 0 0
1904 1 8.384110213470002 11.616032562740184 1.1714909452447066 0 0 0
1913 4 10.060932256164001 10.649248316360435 0.04554195812957231 0 0 0
1910 1 11.737754298858 11.616032562740184 1.1714909452447069 0 0 0
1726 3 6.707288170776001 6.7735773009384665 2.2959622633896566 0 0 0
1732 3 10.060932256164001 6.773577300938467 2.295962263389658 0 0 0
1905 3 8.384110213470002 9.677918274136466 2.2959622633896566 0 0 0
1911 3 11.737754298858 9.677918274136466 2.2959622633896566 0 0 0
1740 4 15.091398384246004 7.744907343162434 0.04554195812957243 0 0 0
1915 1 13.414576341552003 8.711691589542184 1.1714909452447042 0 0 0
1921 1 16.768220426940005 8.711691589542184 1.1714909452447047 0 0 0
1919 4 13.414576341552001 10.649248316360435 0.04554195812957348 0 0 0
1916 1 15.091398384246002 11.616032562740184 1.1714909452447062 0 0 0
1925 4 16.768220426940005 10.649248316360435 0.045541958129572874 0 0 0
1738 3 13.414576341552003 6.7735773009384665 2.2959622633896566 0 0 0
1744 3 16.768220426940005 6.773577300938467 2.295962263389657 0 0 0
1917 3 15.091398384246002 9.677918274136466 2.2959622633896557 0 0 0
1746 4 18.445042469634004 7.744907343162433 0.045541958129571444 0 0 0
1752 4 21.798686555022 7.744907343162433 0.045541958129571465 0 0 0
1927 1 20.121864512328003 8.711691589542184 1.1714909452447044 0 0 0
1933 1 23.475508597716 8.711691589542184 1.1714909452447044 0 0 0
1922 1 18.445042469634004 11.616032562740184 1.1714909452447064 0 0 0
1931 4 20.121864512328003 10.649248316360435 0.045541958129572374 0 0 0
1928 1 21.798686555022 11.616032562740184 1.1714909452447064 0 0 0
1937 4 23.475508597716 10.649248316360435 0.045541958129572374 0 0 0
1750 3 20.121864512328003 6.773577300938467 2.295962263389658 0 0 0
1756 3 23.475508597716 6.773577300938467 2.295962263389658 0 0 0
1923 3 18.445042469634004 9.677918274136466 2.295962263389657 0 0 0
1929 3 21.798686555022 9.677918274136466 2.295962263389657 0 0 0
1758 4 25.15233064041 7.744907343162433 0.045541958129571465 0 0 0
1764 4 28.505974725797998 7.744907343162433 0.045541958129571465 0 0 0
1939 1 26.829152683104 8.711691589542184 1.1714909452447044 0 0 0
1934 1 25.15233064041 11.616032562740184 1.1714909452447064 0 0 0
1943 4 26.829152683104 10.649248316360435 0.045541958129572374 0 0 0
1940 1 28.505974725797998 11.616032562740184 1.1714909452447064 0 0 0
1762 3 26.829152683104 6.773577300938467 2.295962263389658 0 0 0
1935 3 25.15233064041 9.677918274136466 2.295962263389657 0 0 0
1941 3 28.505974725797998 9.677918274136466 2.295962263389657 0 0 0
1770 4 31.859618811185996 7.744907343162433 0.045541958129571396 0 0 0
1776 4 35.213262896574 7.744907343162435 0.04554195812957334 0 0 0
1945 1 30.182796768491997 8.711691589542184 1.1714909452447044 0 0 0
1951 1 33.536440853879995 8.711691589542184 1.1714909452447044 0 0 0
1949 4 30.182796768491997 10.649248316360435 0.045541958129572374 0 0 0
1946 1 31.859618811185996 11.616032562740184 1.1714909452447064 0 0 0
1955 4 33.536440853879995 10.649248316360435 0.04554195812957361 0 0 0
1952 1 35.213262896574 11.616032562740184 1.1714909452447066 0 0 0
1768 3 30.182796768491997 6.773577300938467 2.295962263389658 0 0 0
1774 3 33.536440853879995 6.773577300938467 2.295962263389656 0 0 0
1947 3 31.859618811185996 9.677918274136466 2.295962263389657 0 0 0
1953 3 35.213262896574 9.677918274136465 2.295962263389655 0 0 0
1782 4 38.566906981962006 7.744907343162434 0.04554195812957258 0 0 0
1957 1 36.890084939268 8.711691589542184 1.1714909452447044 0 0 0
1963 1 40.243729024656005 8.711691589542184 1.1714909452447044 0 0 0
1961 4 36.890084939268 10.649248316360435 0.045541958129574275 0 0 0
1958 1 38.566906981962006 11.616032562740184 1.1714909452447064 0 0 0
1967 4 40.243729024656005 10.649248316360435 0.045541958129572305 0 0 0
1780 3 36.890084939268 6.7735773009384665 2.2959622633896557 0 0 0
1786 3 40.243729024656005 6.773577300938467 2.295962263389658 0 0 0
1959 3 38.566906981962006 9.677918274136465 2.2959622633896557 0 0 0
1788 4 41.920551067350004 7.744907343162433 0.045541958129571465 0 0 0
1794 4 45.274195152738 7.744907343162433 0.045541958129571465 0 0 0
1969 1 43.597373110044 8.711691589542184 1.1714909452447044 0 0 0
1975 1 46.951017195432 8.711691589542184 1.1714909452447044 0 0 0
1964 1 41.920551067350004 11.616032562740184 1.1714909452447064 0 0 0
1973 4 43.597373110044 10.649248316360435 0.045541958129572374 0 0 0
1970 1 45.274195152738 11.616032562740184 1.1714909452447064 0 0 0
1979 4 46.951017195432 10.649248316360435 0.045541958129572374 0 0 0
1792 3 43.597373110044 6.773577300938467 2.295962263389658 0 0 0
1798 3 46.951017195432 6.773577300938467 2.295962263389658 0 0 0
1965 3 41.920551067350004 9.677918274136466 2.295962263389657 0 0 0
1971 3 45.274195152738 9.677918274136466 2.295962263389657 0 0 0
1800 4 48.627839238126 7.744907343162433 0.045541958129571465 0 0 0
1626 4 51.981483323514 7.744907343162433 0.045541958129571465 -1 0 0
1801 1 50.30466128082 8.711691589542184 1.1714909452447044 -1 0 0
1976 1 48.627839238126 11.616032562740184 1.1714909452447064 0 0 0
1805 4 50.30466128082 10.649248316360435 0.04554195812957238 -1 0 0
1802 1 51.981483323514 11.616032562740184 1.1714909452447064 -1 0 0
1624 3 50.30466128082 6.773577300938467 2.295962263389658 -1 0 0
1977 3 48.627839238126 9.677918274136466 2.295962263389657 0 0 0
1803 3 51.981483323514 9.677918274136466 2.295962263389657 -1 0 0
1632 4 55.335127408902 7.744907343162434 0.04554195812957203 -1 0 0
1638 4 58.68877149429 7.744907343162434 0.04554195812957225 -1 0 0
1807 1 53.658305366208 8.711691589542184 1.1714909452447044 -1 0 0
1813 1 57.011949451596 8.711691589542184 1.1714909452447044 -1 0 0
1811 4 53.658305366208 10.649248316360435 0.04554195812957235 -1 0 0
1808 1 55.335127408902 11.616032562740184 1.1714909452447066 -1 0 0
1817 4 57.011949451595996 10.649248316360435 0.04554195812957326 -1 0 0
1814 1 58.688771494289995 11.616032562740184 1.1714909452447062 -1 0 0
1630 3 53.658305366208 6.773577300938467 2.295962263389658 -1 0 0
1636 3 57.011949451595996 6.7735773009384665 2.2959622633896566 -1 0 0
1809 3 55.335127408902 9.677918274136466 2.295962263389656 -1 0 0
1815 3 58.68877149429 9.677918274136466 2.2959622633896557 -1 0 0
1644 4 62.042415579678 7.744907343162433 0.0455419581295708 -1 0 0
1819 1 60.365593536984 8.711691589542184 1.1714909452447042 -1 0 0
1825 1 63.719237622372 8.711691589542184 1.1714909452447044 -1 0 0
1823 4 60.365593536984 10.649248316360435 0.04554195812957306 -1 0 0
1820 1 62.042415579678 11.616032562740184 1.1714909452447064 -1 0 0
1829 4 63.719237622372 10.649248316360433 0.045541958129571763 -1 0 0
1642 3 60.365593536984 6.773577300938467 2.295962263389657 -1 0 0
1648 3 63.719237622372 6.773577300938468 2.2959622633896584 -1 0 0
1821 3 62.042415579678 9.677918274136466 2.2959622633896575 -1 0 0
1650 4 65.396059665066 7.744907343162434 0.045541958129572395 -1 0 0
1656 4 68.749703750454 7.744907343162434 0.04554195812957269 -1 0 0
1831 1 67.07288170776 8.711691589542184 1.1714909452447044 -1 0 0
1837 1 70.426525793148 8.711691589542184 1.1714909452447044 -1 0 0
1826 1 65.396059665066 11.616032562740184 1.1714909452447064 -1 0 0
1835 4 67.07288170776 10.649248316360435 0.04554195812957443 -1 0 0
1832 1 68.749703750454 11.616032562740184 1.1714909452447064 -1 0 0
1841 4 70.426525793148 10.649248316360435 0.045541958129572346 -1 0 0
1654 3 67.07288170776 6.7735773009384665 2.2959622633896557 -1 0 0
1660 3 70.426525793148 6.773577300938467 2.295962263389658 -1 0 0
1827 3 65.396059665066 9.677918274136466 2.2959622633896557 -1 0 0
1833 3 68.749703750454 9.677918274136465 2.2959622633896553 -1 0 0
1662 4 72.103347835842 7.744907343162433 0.045541958129571465 -1 0 0
1668 4 75.45699192123 7.744907343162433 0.045541958129571465 -1 0 0
1843 1 73.780169878536 8.711691589542184 1.1714909452447044 -1 0 0
1838 1 72.103347835842 11.616032562740184 1.1714909452447064 -1 0 0
1847 4 73.780169878536 10.649248316360435 0.045541958129572374 -1 0 0
1844 1 75.45699192123 11.616032562740184 1.1714909452447064 -1 0 0
1666 3 73.780169878536 6.773577300938467 2.295962263389658 -1 0 0
1839 3 72.103347835842 9.677918274136466 2.295962263389657 -1 0 0
1845 3 75.45699192123 9.677918274136466 2.295962263389657 -1 0 0
1674 4 78.810636006618 7.744907343162433 0.04554195812957144 -1 0 0
1680 4 82.164280092006 7.744907343162435 0.04554195812957328 -1 0 0
1849 1 77.133813963924 8.711691589542184 1.1714909452447044 -1 0 0
1855 1 80.487458049312 8.711691589542184 1.1714909452447044 -1 0 0
1853 4 77.133813963924 10.649248316360435 0.045541958129572374 -1 0 0
1850 1 78.810636006618 11.616032562740184 1.1714909452447064 -1 0 0
1859 4 80.487458049312 10.649248316360435 0.0455419581295736 -1 0 0
1856 1 82.16428009200601 11.616032562740184 1.1714909452447066 -1 0 0
1672 3 77.133813963924 6.773577300938467 2.295962263389658 -1 0 0
1678 3 80.487458049312 6.773577300938467 2.295962263389656 -1 0 0
1851 3 78.810636006618 9.677918274136466 2.295962263389657 -1 0 0
1857 3 82.164280092006 9.677918274136465 2.2959622633896553 -1 0 0
1686 4 85.51792417739401 7.744907343162434 0.04554195812957258 -1 0 0
1861 1 83.8411021347 8.711691589542184 1.1714909452447044 -1 0 0
1867 1 87.194746220088 8.711691589542184 1.1714909452447044 -1 0 0
1865 4 83.84110213470001 10.649248316360435 0.045541958129574164 -1 0 0
1862 1 85.51792417739401 11.616032562740184 1.1714909452447064 -1 0 0
1871 4 87.194746220088 10.649248316360435 0.04554195812957237 -1 0 0
1684 3 83.84110213470001 6.7735773009384665 2.295962263389656 -1 0 0
1690 3 87.194746220088 6.773577300938467 2.295962263389658 -1 0 0
1863 3 85.51792417739401 9.677918274136466 2.2959622633896557 -1 0 0
1692 4 88.871568262782 7.744907343162433 0.045541958129571465 -1 0 0
1698 4 92.22521234817 7.744907343162433 0.045541958129571465 -1 0 0
1873 1 90.548390305476 8.711691589542184 1.1714909452447044 -1 0 0
1879 1 93.902034390864 8.711691589542184 1.1714909452447044 -1 0 0
1868 1 88.871568262782 11.616032562740184 1.1714909452447064 -1 0 0
1877 4 90.548390305476 10.649248316360435 0.045541958129572374 -1 0 0
1874 1 92.22521234817 11.616032562740184 1.1714909452447064 -1 0 0
1883 4 93.902034390864 10.649248316360435 0.045541958129572374 -1 0 0
1696 3 90.548390305476 6.773577300938467 2.295962263389658 -1 0 0
1702 3 93.902034390864 6.773577300938467 2.295962263389658 -1 0 0
1869 3 88.871568262782 9.677918274136466 2.295962263389657 -1 0 0
1875 3 92.22521234817 9.677918274136466 2.295962263389657 -1 0 0
1704 4 95.578856433558 7.744907343162433 0.045541958129571465 -1 0 0
1710 4 98.932500518946 7.744907343162433 0.04554195812957149 -1 0 0
1885 1 97.255678476252 8.711691589542184 1.1714909452447044 -1 0 0
1880 1 95.578856433558 11.616032562740184 1.1714909452447064 -1 0 0
1889 4 97.255678476252 10.649248316360435 0.045541958129572374 -1 0 0
1886 1 98.932500518946 11.616032562740184 1.1714909452447064 -1 0 0
1708 3 97.255678476252 6.773577300938467 2.295962263389658 -1 0 0
1881 3 95.578856433558 9.677918274136466 2.295962263389657 -1 0 0
1887 3 98.932500518946 9.677918274136466 2.295962263389657 -1 0 0
1896 4 1.676822042693999 13.553589289558433 0.04554195812957241 0 0 0
1902 4 5.030466128082 13.553589289558435 0.04554195812957351 0 0 0
2071 1 5.351196286468299e-18 14.520373535938184 1.171490945244706 0 0 0
2077 1 3.3536440853879985 14.520373535938184 1.171490945244706 0 0 0
2075 4 2.230318470096686e-19 16.45793026275643 0.04554195812957062 0 0 0
2081 4 3.353644085387999 16.45793026275643 0.045541958129571 0 0 0
2072 1 1.6768220426939993 17.424714509136184 1.1714909452447035 0 0 0
2078 1 5.030466128082 17.424714509136184 1.1714909452447038 0 0 0
1894 3 0 12.582259247334466 2.295962263389658 0 0 0
1900 3 3.353644085387999 12.582259247334466 2.2959622633896575 0 0 0
2073 3 1.6768220426939993 15.486600220532466 2.2959622633896575 0 0 0
2079 3 5.030466128082 15.486600220532466 2.295962263389656 0 0 0
1908 4 8.384110213470002 13.553589289558435 0.04554195812957284 0 0 0
1914 4 11.737754298858 13.553589289558435 0.04554195812957287 0 0 0
2083 1 6.707288170776001 14.520373535938184 1.171490945244706 0 0 0
2089 1 10.060932256164001 14.520373535938184 1.171490945244706 0 0 0
2087 4 6.707288170776001 16.45793026275643 0.04554195812957168 0 0 0
2093 4 10.060932256164001 16.45793026275643 0.045541958129570584 0 0 0
2084 1 8.384110213470002 17.424714509136184 1.1714909452447035 0 0 0
2090 1 11.737754298858 17.424714509136184 1.1714909452447038 0 0 0
1906 3 6.707288170776001 12.582259247334466 2.295962263389657 0 0 0
1912 3 10.060932256164001 12.582259247334466 2.2959622633896584 0 0 0
2085 3 8.384110213470002 15.486600220532466 2.295962263389657 0 0 0
2091 3 11.737754298858 15.486600220532466 2.295962263389657 0 0 0
1920 4 15.091398384246004 13.553589289558435 0.04554195812957356 0 0 0
2095 1 13.414576341552001 14.520373535938184 1.171490945244706 0 0 0
2101 1 16.768220426940005 14.520373535938184 1.1714909452447062 0 0 0
2099 4 13.414576341552001 16.45793026275643 0.04554195812957168 0 0 0
2105 4 16.768220426940005 16.45793026275643 0.04554195812957101 0 0 0
2096 1 15.091398384246002 17.424714509136184 1.1714909452447035 0 0 0
1918 3 13.414576341552003 12.582259247334466 2.295962263389657 0 0 0
1924 3 16.768220426940005 12.582259247334466 2.2959622633896575 0 0 0
2097 3 15.091398384246002 15.486600220532466 2.295962263389656 0 0 0
1926 4 18.445042469634004 13.553589289558433 0.04554195812957242 0 0 0
1932 4 21.798686555022 13.553589289558433 0.04554195812957245 0 0 0
2107 1 20.121864512328003 14.520373535938184 1.171490945244706 0 0 0
2113 1 23.475508597716 14.520373535938184 1.171490945244706 0 0 0
2111 4 20.121864512328003 16.45793026275643 0.045541958129570626 0 0 0
2117 4 23.475508597716 16.45793026275643 0.045541958129570626 0 0 0
2102 1 18.445042469634004 17.424714509136184 1.1714909452447035 0 0 0
2108 1 21.798686555022 17.424714509136184 1.1714909452447035 0 0 0
1930 3 20.121864512328003 12.582259247334466 2.295962263389658 0 0 0
1936 3 23.475508597716 12.582259247334466 2.295962263389658 0 0 0
2103 3 18.445042469634004 15.486600220532466 2.2959622633896575 0 0 0
2109 3 21.798686555022 15.486600220532466 2.2959622633896575 0 0 0
1938 4 25.15233064041 13.553589289558433 0.04554195812957245 0 0 0
1944 4 28.505974725797998 13.553589289558433 0.045541958129572443 0 0 0
2119 1 26.829152683104 14.520373535938184 1.171490945244706 0 0 0
2123 4 26.829152683104 16.45793026275643 0.045541958129570626 0 0 0
2114 1 25.15233064041 17.424714509136184 1.1714909452447035 0 0 0
2120 1 28.505974725797998 17.424714509136184 1.1714909452447035 0 0 0
1942 3 26.829152683104 12.582259247334466 2.295962263389658 0 0 0
2115 3 25.15233064041 15.486600220532466 2.2959622633896575 0 0 0
2121 3 28.505974725797998 15.486600220532466 2.2959622633896575 0 0 0
1950 4 31.859618811185996 13.553589289558433 0.04554195812957239 0 0 0
1956 4 35.213262896574 13.553589289558435 0.045541958129574324 0 0 0
2125 1 30.182796768491997 14.520373535938184 1.171490945244706 0 0 0
2131 1 33.536440853879995 14.520373535938182 1.1714909452447064 0 0 0
2129 4 30.182796768491997 16.45793026275643 0.04554195812957064 0 0 0
2135 4 33.536440853879995 16.45793026275643 0.0455419581295718 0 0 0
2126 1 31.859618811185996 17.424714509136184 1.1714909452447033 0 0 0
2132 1 35.213262896574 17.42471450913618 1.1714909452447038 0 0 0
1948 3 30.182796768491997 12.582259247334466 2.295962263389658 0 0 0
1954 3 33.536440853879995 12.582259247334466 2.295962263389657 0 0 0
2127 3 31.859618811185996 15.486600220532466 2.2959622633896575 0 0 0
2133 3 35.213262896574 15.486600220532464 2.2959622633896557 0 0 0
1962 4 38.566906981962006 13.553589289558435 0.04554195812957362 0 0 0
2137 1 36.890084939268 14.520373535938184 1.1714909452447062 0 0 0
2143 1 40.243729024656005 14.520373535938184 1.171490945244706 0 0 0
2141 4 36.890084939268 16.45793026275643 0.045541958129572555 0 0 0
2147 4 40.243729024656005 16.45793026275643 0.04554195812957058 0 0 0
2138 1 38.566906981962006 17.42471450913618 1.1714909452447038 0 0 0
1960 3 36.890084939268 12.582259247334466 2.295962263389656 0 0 0
1966 3 40.243729024656005 12.582259247334466 2.2959622633896584 0 0 0
2139 3 38.566906981962006 15.486600220532466 2.295962263389656 0 0 0
1968 4 41.920551067350004 13.553589289558433 0.04554195812957245 0 0 0
1974 4 45.274195152738 13.553589289558433 0.04554195812957245 0 0 0