LAMMPS data file via write_data, version 29 Aug 2024, timestep = 6, units = metal

6912 atoms
8 atom types

0 98.709579879651 xlo xhi
0 101.31611987504 ylo yhi
-50 50 zlo zhi

Masses

1 69.723
2 69.723
3 69.723
4 69.723
5 32.06
6 32.06
7 32.06
8 32.06

Atoms # atomic

1843 5 3.6453130920247583 1.0457353827121727 -0.07016573740794985 0 0 0
1837 1 1.8156333848749837 2.099757772931024 0.995218054339921 0 0 0
1845 1 5.471543750787979 2.0997577729310226 0.9952180543399195 0 0 0
1844 5 1.8173579157761215 4.211864128987306 -0.07016573719565294 0 0 0
1846 1 3.643588574628038 5.265886519072326 0.9952180544596684 0 0 0
1852 5 5.4732682816891325 4.2118641289873056 -0.07016573719565357 0 0 0
1851 5 7.301223457937772 1.0457353827121703 -0.07016573740795427 0 0 0
1859 5 10.957133823850771 1.0457353827121585 -0.07016573740795311 0 0 0
1853 1 9.127454116700978 2.0997577729310253 0.9952180543399204 0 0 0
1854 1 7.2994989405410395 5.265886519072326 0.995218054459667 0 0 0
1860 5 9.12917864760213 4.211864128987305 -0.07016573719565569 0 0 0
1862 1 10.95540930645404 5.265886519072324 0.9952180544596673 0 0 0
1867 5 14.61304418976377 1.0457353827121623 -0.0701657374079536 0 0 0
1861 1 12.783364482613976 2.099757772931025 0.9952180543399205 0 0 0
1869 1 16.439274848526974 2.0997577729310226 0.9952180543399228 0 0 0
1868 5 12.785089013515133 4.211864128987307 -0.07016573719565375 0 0 0
1870 1 14.611319672367037 5.265886519072331 0.9952180544596652 0 0 0
1876 5 16.44099937942814 4.211864128987304 -0.07016573719565385 0 0 0
1875 5 18.26895455567677 1.0457353827121647 -0.07016573740795004 0 0 0
1883 5 21.92486492158977 1.0457353827121691 -0.07016573740795394 0 0 0
1877 1 20.09518521443997 2.099757772931026 0.9952180543399205 0 0 0
1878 1 18.26723003828004 5.26588651907233 0.9952180544596654 0 0 0
1884 5 20.096909745341133 4.2118641289873056 -0.07016573719565658 0 0 0
1886 1 21.923140404193038 5.265886519072324 0.9952180544596666 0 0 0
1891 5 25.580775287502775 1.045735382712153 -0.07016573740795294 0 0 0
1885 1 23.751095580352974 2.0997577729310266 0.995218054339917 0 0 0
1893 1 27.40700594626598 2.0997577729310226 0.9952180543399208 0 0 0
1892 5 23.752820111254135 4.211864128987307 -0.07016573719565425 0 0 0
1894 1 25.57905077010604 5.265886519072327 0.9952180544596674 0 0 0
1900 5 27.408730477167126 4.211864128987306 -0.070165737195656 0 0 0
1899 5 29.23668565341577 1.0457353827121685 -0.07016573740795705 0 0 0
1907 5 32.89259601932877 1.045735382712165 -0.07016573740794722 0 0 0
1901 1 31.062916312178974 2.0997577729310226 0.9952180543399226 0 0 0
1909 1 34.71882667809197 2.099757772931029 0.9952180543399226 0 0 0
1902 1 29.234961136019034 5.265886519072328 0.9952180544596675 0 0 0
1908 5 31.064640843080134 4.211864128987305 -0.07016573719565254 0 0 0
1910 1 32.89087150193204 5.265886519072326 0.9952180544596645 0 0 0
1916 5 34.720551208993136 4.2118641289873056 -0.07016573719564996 0 0 0
1915 5 36.548506385241765 1.0457353827121632 -0.07016573740795871 0 0 0
1923 5 40.20441675115477 1.045735382712165 -0.0701657374079485 0 0 0
1917 1 38.37473704400497 2.0997577729310284 0.9952180543399217 0 0 0
1918 1 36.54678186784504 5.265886519072328 0.9952180544596709 0 0 0
1924 5 38.37646157490614 4.211864128987304 -0.07016573719565597 0 0 0
1926 1 40.202692233758036 5.265886519072329 0.995218054459664 0 0 0
1931 5 43.860327117067776 1.0457353827121652 -0.07016573740795681 0 0 0
1925 1 42.03064740991798 2.0997577729310195 0.9952180543399174 0 0 0
1933 1 45.686557775830984 2.0997577729310266 0.9952180543399268 0 0 0
1932 5 42.03237194081913 4.211864128987307 -0.07016573719565461 0 0 0
1934 1 43.85860259967104 5.2658865190723265 0.9952180544596632 0 0 0
1940 5 45.68828230673214 4.211864128987304 -0.07016573719566112 0 0 0
1939 5 47.51623748298078 1.0457353827121656 -0.0701657374079557 0 0 0
1731 5 51.17214784889377 1.0457353827121572 -0.07016573740795069 -1 0 0
1941 1 49.34246814174398 2.0997577729310275 0.995218054339913 0 0 0
1942 1 47.514512965584046 5.265886519072324 0.9952180544596645 0 0 0
1732 5 49.34419267264513 4.211864128987308 -0.07016573719565163 -1 0 0
1734 1 51.170423331497034 5.2658865190723265 0.9952180544596734 -1 0 0
1739 5 54.828058214806774 1.0457353827121585 -0.07016573740795096 -1 0 0
1733 1 52.99837850765698 2.099757772931022 0.9952180543399199 -1 0 0
1741 1 56.65428887356999 2.099757772931023 0.9952180543399177 -1 0 0
1740 5 53.00010303855813 4.211864128987304 -0.0701657371956584 -1 0 0
1742 1 54.82633369741004 5.265886519072322 0.9952180544596614 -1 0 0
1748 5 56.65601340447114 4.211864128987304 -0.07016573719565417 -1 0 0
1747 5 58.483968580719775 1.0457353827121671 -0.07016573740795422 -1 0 0
1755 5 62.139878946632784 1.0457353827121654 -0.070165737407949 -1 0 0
1749 1 60.310199239482984 2.0997577729310257 0.9952180543399224 -1 0 0
1750 1 58.48224406332305 5.2658865190723265 0.9952180544596672 -1 0 0
1756 5 60.31192377038414 4.2118641289873056 -0.07016573719565694 -1 0 0
1758 1 62.138154429236046 5.2658865190723265 0.9952180544596656 -1 0 0
1763 5 65.79578931254576 1.045735382712156 -0.07016573740795293 -1 0 0
1771 5 69.45169967845877 1.045735382712154 -0.0701657374079619 -1 0 0
1757 1 63.96610960539597 2.099757772931027 0.9952180543399227 -1 0 0
1765 1 67.62201997130897 2.0997577729310284 0.9952180543399132 -1 0 0
1764 5 63.967834136297135 4.211864128987303 -0.07016573719565963 -1 0 0
1766 1 65.79406479514905 5.265886519072326 0.9952180544596642 -1 0 0
1772 5 67.62374450221013 4.211864128987311 -0.070165737195645 -1 0 0
1774 1 69.44997516106204 5.265886519072326 0.9952180544596667 -1 0 0
1779 5 73.10761004437177 1.045735382712158 -0.0701657374079362 -1 0 0
1773 1 71.27793033722199 2.099757772931023 0.9952180543399151 -1 0 0
1781 1 74.93384070313498 2.099757772931023 0.995218054339916 -1 0 0
1780 5 71.27965486812315 4.211864128987302 -0.07016573719565955 -1 0 0
1782 1 73.10588552697504 5.265886519072328 0.995218054459653 -1 0 0
1788 5 74.93556523403612 4.211864128987304 -0.07016573719565618 -1 0 0
1787 5 76.76352041028478 1.0457353827121671 -0.07016573740795841 -1 0 0
1795 5 80.41943077619779 1.0457353827121703 -0.07016573740795481 -1 0 0
1789 1 78.58975106904796 2.0997577729310253 0.9952180543399222 -1 0 0
1790 1 76.76179589288805 5.265886519072329 0.9952180544596709 -1 0 0
1796 5 78.5914755999491 4.211864128987304 -0.07016573719565743 -1 0 0
1798 1 80.41770625880103 5.2658865190723265 0.9952180544596702 -1 0 0
1803 5 84.07534114211076 1.0457353827121676 -0.07016573740795032 -1 0 0
1797 1 82.24566143496097 2.0997577729310204 0.9952180543399203 -1 0 0
1805 1 85.901571800874 2.0997577729310186 0.9952180543399237 -1 0 0
1804 5 82.24738596586212 4.211864128987308 -0.07016573719565176 -1 0 0
1806 1 84.07361662471403 5.265886519072325 0.9952180544596674 -1 0 0
1812 5 85.90329633177514 4.21186412898731 -0.07016573719564281 -1 0 0
1811 5 87.73125150802379 1.0457353827121714 -0.07016573740794381 -1 0 0
1819 5 91.38716187393679 1.045735382712161 -0.07016573740795297 -1 0 0
1813 1 89.557482166787 2.0997577729310217 0.9952180543399181 -1 0 0
1814 1 87.72952699062704 5.265886519072334 0.9952180544596709 -1 0 0
1820 5 89.55920669768815 4.211864128987302 -0.07016573719565329 -1 0 0
1822 1 91.38543735654002 5.265886519072325 0.9952180544596663 -1 0 0
1835 5 98.69898260576277 1.0457353827121596 -0.07016573740795927 -1 0 0
1827 5 95.04307223984979 1.0457353827121612 -0.07016573740795434 -1 0 0
1821 1 93.2133925327 2.0997577729310217 0.9952180543399212 -1 0 0
1829 1 96.869302898613 2.099757772931032 0.9952180543399247 -1 0 0
1828 5 93.21511706360111 4.211864128987309 -0.07016573719565601 -1 0 0
1830 1 95.04134772245304 5.265886519072324 0.9952180544596639 -1 0 0
1836 5 96.87102742951411 4.211864128987304 -0.07016573719566005 -1 0 0
1838 1 98.69725808836604 5.265886519072322 0.9952180544596689 -1 0 0
2059 5 3.64531309202476 7.3779928749021675 -0.07016573740794667 0 0 0
2053 1 1.8156333848749842 8.432015265121025 0.9952180543399252 0 0 0
2061 1 5.471543750787978 8.432015265121024 0.9952180543399205 0 0 0
2060 5 1.817357915776137 10.5441216211773 -0.07016573719566124 0 0 0
2068 5 5.473268281689132 10.544121621177304 -0.07016573719565392 0 0 0
2062 1 3.64358857462804 11.598144011262328 0.9952180544596667 0 0 0
2067 5 7.301223457937773 7.377992874902165 -0.07016573740794992 0 0 0
2075 5 10.957133823850771 7.37799287490216 -0.07016573740795187 0 0 0
2069 1 9.127454116700974 8.432015265121027 0.9952180543399215 0 0 0
2076 5 9.129178647602135 10.544121621177304 -0.07016573719565486 0 0 0
2070 1 7.2994989405410395 11.59814401126233 0.9952180544596647 0 0 0
2078 1 10.95540930645404 11.598144011262324 0.9952180544596654 0 0 0
2083 5 14.613044189763768 7.37799287490216 -0.07016573740795126 0 0 0
2077 1 12.783364482613978 8.432015265121025 0.9952180543399208 0 0 0
2085 1 16.43927484852698 8.432015265121022 0.9952180543399196 0 0 0
2084 5 12.785089013515133 10.544121621177302 -0.07016573719565737 0 0 0
2092 5 16.44099937942814 10.5441216211773 -0.07016573719565435 0 0 0
2086 1 14.611319672367038 11.598144011262331 0.9952180544596655 0 0 0
2091 5 18.26895455567677 7.377992874902166 -0.07016573740794779 0 0 0
2099 5 21.924864921589773 7.377992874902163 -0.0701657374079491 0 0 0
2093 1 20.095185214439972 8.432015265121029 0.9952180543399243 0 0 0
2100 5 20.096909745341133 10.544121621177302 -0.07016573719565973 0 0 0
2094 1 18.26723003828004 11.598144011262328 0.9952180544596667 0 0 0
2102 1 21.923140404193038 11.59814401126232 0.9952180544596667 0 0 0
2107 5 25.580775287502775 7.3779928749021595 -0.0701657374079552 0 0 0
2101 1 23.751095580352974 8.432015265121025 0.995218054339918 0 0 0
2109 1 27.40700594626598 8.432015265121025 0.9952180543399214 0 0 0
2108 5 23.752820111254135 10.544121621177304 -0.07016573719565453 0 0 0
2116 5 27.408730477167126 10.5441216211773 -0.0701657371956552 0 0 0
2110 1 25.57905077010604 11.598144011262328 0.9952180544596644 0 0 0
2115 5 29.236685653415766 7.37799287490216 -0.07016573740795193 0 0 0
2123 5 32.892596019328764 7.377992874902164 -0.07016573740794493 0 0 0
2117 1 31.06291631217898 8.432015265121024 0.9952180543399213 0 0 0
2125 1 34.71882667809197 8.432015265121029 0.9952180543399264 0 0 0
2124 5 31.064640843080138 10.544121621177306 -0.07016573719565512 0 0 0
2132 5 34.720551208993136 10.544121621177304 -0.07016573719565346 0 0 0
2118 1 29.234961136019034 11.59814401126233 0.995218054459668 0 0 0
2126 1 32.89087150193204 11.598144011262324 0.9952180544596639 0 0 0
2131 5 36.548506385241765 7.377992874902158 -0.07016573740795556 0 0 0
2139 5 40.20441675115477 7.377992874902167 -0.07016573740794593 0 0 0
2133 1 38.37473704400497 8.432015265121025 0.9952180543399218 0 0 0
2140 5 38.37646157490613 10.5441216211773 -0.07016573719565737 0 0 0
2134 1 36.54678186784504 11.598144011262326 0.99521805445967 0 0 0
2142 1 40.202692233758036 11.59814401126233 0.9952180544596648 0 0 0
2147 5 43.860327117067776 7.377992874902161 -0.07016573740795605 0 0 0
2141 1 42.030647409917975 8.432015265121024 0.9952180543399166 0 0 0
2149 1 45.68655777583098 8.432015265121025 0.9952180543399215 0 0 0
2148 5 42.032371940819125 10.544121621177304 -0.07016573719565741 0 0 0
2156 5 45.68828230673214 10.544121621177302 -0.07016573719565755 0 0 0
2150 1 43.85860259967104 11.598144011262328 0.9952180544596634 0 0 0
2155 5 47.51623748298077 7.37799287490216 -0.07016573740795147 0 0 0
1947 5 51.17214784889377 7.377992874902164 -0.0701657374079543 -1 0 0
2157 1 49.342468141743986 8.432015265121032 0.995218054339917 0 0 0
1948 5 49.34419267264513 10.544121621177306 -0.07016573719565282 -1 0 0
2158 1 47.51451296558404 11.598144011262324 0.995218054459663 0 0 0
1950 1 51.17042333149704 11.598144011262328 0.9952180544596692 -1 0 0
1955 5 54.828058214806774 7.377992874902161 -0.07016573740795472 -1 0 0
1949 1 52.99837850765698 8.432015265121027 0.9952180543399224 -1 0 0
1957 1 56.65428887356998 8.432015265121027 0.9952180543399214 -1 0 0
1956 5 53.00010303855813 10.544121621177306 -0.0701657371956556 -1 0 0
1964 5 56.65601340447113 10.544121621177304 -0.07016573719565702 -1 0 0
1958 1 54.82633369741004 11.598144011262326 0.9952180544596599 -1 0 0
1963 5 58.48396858071977 7.377992874902161 -0.07016573740795384 -1 0 0
1971 5 62.13987894663278 7.377992874902166 -0.07016573740794577 -1 0 0
1965 1 60.310199239482984 8.432015265121027 0.9952180543399207 -1 0 0
1972 5 60.31192377038414 10.5441216211773 -0.07016573719565761 -1 0 0
1966 1 58.48224406332305 11.59814401126233 0.9952180544596645 -1 0 0
1974 1 62.138154429236046 11.59814401126233 0.9952180544596648 -1 0 0
1979 5 65.79578931254576 7.377992874902158 -0.07016573740795239 -1 0 0
1987 5 69.45169967845877 7.377992874902156 -0.07016573740796564 -1 0 0
1973 1 63.96610960539598 8.432015265121024 0.9952180543399182 -1 0 0
1981 1 67.62201997130899 8.432015265121027 0.9952180543399162 -1 0 0
1980 5 63.967834136297135 10.544121621177302 -0.07016573719565809 -1 0 0
1988 5 67.62374450221013 10.544121621177311 -0.07016573719564428 -1 0 0
1982 1 65.79406479514905 11.598144011262326 0.9952180544596623 -1 0 0
1990 1 69.44997516106204 11.598144011262326 0.9952180544596629 -1 0 0
1995 5 73.10761004437177 7.3779928749021675 -0.07016573740793697 -1 0 0
1989 1 71.277930337222 8.432015265121027 0.9952180543399199 -1 0 0
1997 1 74.93384070313498 8.432015265121024 0.995218054339916 -1 0 0
1996 5 71.27965486812315 10.544121621177302 -0.07016573719566328 -1 0 0
2004 5 74.93556523403613 10.544121621177304 -0.07016573719565367 -1 0 0
1998 1 73.10588552697504 11.598144011262331 0.995218054459657 -1 0 0
2003 5 76.76352041028478 7.37799287490216 -0.0701657374079574 -1 0 0
2011 5 80.41943077619779 7.377992874902165 -0.07016573740794406 -1 0 0
2005 1 78.58975106904796 8.432015265121024 0.995218054339919 -1 0 0
2012 5 78.59147559994912 10.544121621177302 -0.07016573719565758 -1 0 0
2006 1 76.76179589288803 11.598144011262328 0.9952180544596655 -1 0 0
2014 1 80.41770625880102 11.598144011262328 0.995218054459675 -1 0 0
2019 5 84.07534114211076 7.377992874902154 -0.07016573740795481 -1 0 0
2013 1 82.24566143496097 8.432015265121024 0.9952180543399283 -1 0 0
2021 1 85.90157180087398 8.43201526512102 0.9952180543399185 -1 0 0
2020 5 82.24738596586214 10.544121621177306 -0.07016573719565582 -1 0 0
2028 5 85.90329633177514 10.544121621177306 -0.07016573719564329 -1 0 0
2022 1 84.07361662471402 11.598144011262326 0.9952180544596658 -1 0 0
2027 5 87.73125150802379 7.377992874902169 -0.07016573740793518 -1 0 0
2035 5 91.38716187393679 7.377992874902164 -0.0701657374079513 -1 0 0
2029 1 89.557482166787 8.432015265121032 0.9952180543399266 -1 0 0
2036 5 89.55920669768815 10.544121621177297 -0.0701657371956522 -1 0 0
2030 1 87.72952699062704 11.598144011262336 0.9952180544596656 -1 0 0
2038 1 91.38543735654002 11.598144011262328 0.9952180544596696 -1 0 0
2051 5 98.69898260576277 7.377992874902154 -0.07016573740796304 -1 0 0
2043 5 95.04307223984979 7.377992874902162 -0.07016573740795384 -1 0 0
2037 1 93.2133925327 8.43201526512102 0.9952180543399225 -1 0 0
2045 1 96.86930289861299 8.432015265121032 0.9952180543399256 -1 0 0
2044 5 93.2151170636011 10.544121621177297 -0.07016573719566294 -1 0 0
2052 5 96.8710274295141 10.544121621177313 -0.07016573719564334 -1 0 0
2046 1 95.04134772245304 11.598144011262326 0.995218054459668 -1 0 0
2054 1 98.69725808836603 11.59814401126232 0.995218054459661 -1 0 0
2269 1 1.8156333848749837 14.764272757311028 0.9952180543399229 0 0 0
2275 5 3.6453130920247627 13.710250367092167 -0.07016573740795007 0 0 0
2277 1 5.471543750787979 14.764272757311026 0.9952180543399225 0 0 0
2276 5 1.8173579157761373 16.8763791133673 -0.07016573719565988 0 0 0
2284 5 5.473268281689135 16.876379113367303 -0.07016573719565165 0 0 0
2283 5 7.301223457937774 13.710250367092161 -0.07016573740795046 0 0 0
2285 1 9.127454116700976 14.764272757311026 0.99521805433992 0 0 0
2291 5 10.957133823850771 13.71025036709216 -0.07016573740795223 0 0 0
2292 5 9.129178647602133 16.876379113367307 -0.07016573719565354 0 0 0
2293 1 12.783364482613978 14.764272757311023 0.9952180543399208 0 0 0
2299 5 14.61304418976377 13.710250367092161 -0.07016573740795086 0 0 0
2301 1 16.439274848526978 14.764272757311023 0.9952180543399209 0 0 0
2300 5 12.785089013515135 16.876379113367307 -0.07016573719565677 0 0 0
2308 5 16.44099937942813 16.87637911336731 -0.07016573719565074 0 0 0
2307 5 18.26895455567677 13.710250367092165 -0.07016573740795 0 0 0
2309 1 20.09518521443997 14.764272757311028 0.9952180543399204 0 0 0
2315 5 21.92486492158977 13.71025036709216 -0.07016573740795717 0 0 0
2316 5 20.096909745341133 16.8763791133673 -0.07016573719565773 0 0 0
2317 1 23.751095580352978 14.764272757311026 0.9952180543399206 0 0 0
2323 5 25.580775287502767 13.710250367092161 -0.0701657374079527 0 0 0
2325 1 27.407005946265976 14.764272757311026 0.9952180543399226 0 0 0
2324 5 23.75282011125413 16.876379113367303 -0.0701657371956539 0 0 0
2332 5 27.40873047716713 16.876379113367303 -0.07016573719565476 0 0 0
2331 5 29.236685653415773 13.710250367092161 -0.07016573740795433 0 0 0
2333 1 31.062916312178977 14.764272757311025 0.995218054339922 0 0 0
2339 5 32.892596019328764 13.710250367092163 -0.07016573740794496 0 0 0
2341 1 34.71882667809198 14.764272757311028 0.9952180543399207 0 0 0
2340 5 31.064640843080134 16.876379113367307 -0.07016573719565142 0 0 0
2348 5 34.720551208993136 16.8763791133673 -0.07016573719564896 0 0 0
2347 5 36.54850638524177 13.710250367092163 -0.0701657374079507 0 0 0
2349 1 38.37473704400497 14.76427275731103 0.9952180543399196 0 0 0
2355 5 40.20441675115478 13.710250367092161 -0.07016573740795135 0 0 0
2356 5 38.37646157490613 16.8763791133673 -0.07016573719565146 0 0 0
2357 1 42.030647409917975 14.764272757311018 0.9952180543399176 0 0 0
2363 5 43.86032711706778 13.710250367092163 -0.07016573740794885 0 0 0
2365 1 45.686557775830984 14.764272757311026 0.9952180543399207 0 0 0
2364 5 42.032371940819125 16.876379113367307 -0.07016573719565333 0 0 0
2372 5 45.68828230673215 16.8763791133673 -0.07016573719565528 0 0 0
2371 5 47.51623748298077 13.710250367092161 -0.07016573740795302 0 0 0
2373 1 49.342468141743986 14.764272757311032 0.9952180543399167 0 0 0
2163 5 51.17214784889377 13.710250367092161 -0.07016573740795581 -1 0 0
2164 5 49.344192672645136 16.876379113367307 -0.07016573719565193 -1 0 0
2165 1 52.99837850765698 14.764272757311025 0.9952180543399208 -1 0 0
2171 5 54.828058214806774 13.71025036709216 -0.07016573740795408 -1 0 0
2173 1 56.65428887356998 14.764272757311028 0.9952180543399234 -1 0 0
2172 5 53.00010303855814 16.8763791133673 -0.07016573719565822 -1 0 0
2180 5 56.65601340447114 16.8763791133673 -0.0701657371956541 -1 0 0
2179 5 58.483968580719775 13.710250367092163 -0.07016573740795265 -1 0 0
2181 1 60.31019923948298 14.764272757311026 0.9952180543399186 -1 0 0
2187 5 62.139878946632784 13.710250367092161 -0.07016573740794425 -1 0 0
2188 5 60.31192377038413 16.8763791133673 -0.07016573719566059 -1 0 0
2189 1 63.96610960539597 14.764272757311025 0.9952180543399186 -1 0 0
2195 5 65.79578931254578 13.71025036709216 -0.07016573740795215 -1 0 0
2197 1 67.62201997130897 14.76427275731103 0.9952180543399137 -1 0 0
2203 5 69.45169967845877 13.710250367092158 -0.07016573740796168 -1 0 0
2196 5 63.96783413629713 16.876379113367303 -0.0701657371956618 -1 0 0
2204 5 67.62374450221013 16.87637911336731 -0.07016573719563939 -1 0 0
2205 1 71.27793033722199 14.764272757311023 0.995218054339913 -1 0 0
2211 5 73.10761004437177 13.710250367092167 -0.07016573740794528 -1 0 0
2213 1 74.93384070313498 14.764272757311021 0.9952180543399147 -1 0 0
2212 5 71.27965486812315 16.876379113367296 -0.07016573719566564 -1 0 0
2220 5 74.93556523403613 16.876379113367307 -0.0701657371956587 -1 0 0
2219 5 76.76352041028478 13.710250367092163 -0.07016573740795295 -1 0 0
2221 1 78.58975106904796 14.76427275731103 0.9952180543399263 -1 0 0
2227 5 80.41943077619779 13.710250367092161 -0.07016573740795264 -1 0 0
2228 5 78.5914755999491 16.876379113367303 -0.07016573719565442 -1 0 0
2229 1 82.24566143496097 14.764272757311028 0.9952180543399226 -1 0 0
2235 5 84.07534114211076 13.710250367092161 -0.07016573740795369 -1 0 0
2237 1 85.90157180087398 14.764272757311014 0.9952180543399238 -1 0 0
2236 5 82.24738596586214 16.876379113367314 -0.07016573719564034 -1 0 0
2244 5 85.90329633177514 16.876379113367292 -0.07016573719565992 -1 0 0
2243 5 87.73125150802379 13.710250367092172 -0.07016573740793475 -1 0 0
2245 1 89.55748216678701 14.764272757311034 0.9952180543399196 -1 0 0
2251 5 91.38716187393679 13.710250367092165 -0.07016573740795336 -1 0 0
2252 5 89.55920669768814 16.876379113367303 -0.07016573719564433 -1 0 0
2267 5 98.69898260576278 13.71025036709216 -0.070165737407953 -1 0 0
2253 1 93.21339253269998 14.76427275731103 0.9952180543399333 -1 0 0
2259 5 95.04307223984978 13.71025036709216 -0.0701657374079589 -1 0 0
2261 1 96.86930289861296 14.764272757311026 0.9952180543399096 -1 0 0
2260 5 93.2151170636011 16.876379113367296 -0.07016573719566792 -1 0 0
2268 5 96.87102742951411 16.87637911336732 -0.07016573719564172 -1 0 0
2278 1 3.6435885746280388 17.930401503452327 0.9952180544596659 0 0 0
2491 5 3.64531309202476 20.042507859282164 -0.07016573740794509 0 0 0
2485 1 1.8156333848749802 21.096530249501022 0.9952180543399222 0 0 0
2493 1 5.471543750787981 21.096530249501022 0.9952180543399208 0 0 0
2492 5 1.81735791577613 23.208636605557306 -0.0701657371956534 0 0 0
2500 5 5.47326828168913 23.208636605557302 -0.07016573719565217 0 0 0
2286 1 7.299498940541039 17.930401503452323 0.9952180544596679 0 0 0
2294 1 10.955409306454039 17.930401503452323 0.9952180544596653 0 0 0
2499 5 7.301223457937772 20.042507859282168 -0.0701657374079482 0 0 0
2507 5 10.95713382385077 20.042507859282157 -0.07016573740794854 0 0 0
2501 1 9.127454116700976 21.096530249501022 0.9952180543399204 0 0 0
2508 5 9.129178647602135 23.208636605557306 -0.07016573719565011 0 0 0
2302 1 14.611319672367035 17.93040150345233 0.9952180544596657 0 0 0
2515 5 14.613044189763773 20.042507859282164 -0.07016573740795029 0 0 0
2509 1 12.783364482613983 21.096530249501026 0.9952180543399223 0 0 0
2517 1 16.43927484852698 21.09653024950102 0.9952180543399215 0 0 0
2516 5 12.785089013515133 23.208636605557306 -0.07016573719565564 0 0 0
2524 5 16.44099937942813 23.208636605557306 -0.0701657371956544 0 0 0
2310 1 18.26723003828004 17.93040150345233 0.9952180544596632 0 0 0
2318 1 21.92314040419304 17.930401503452323 0.9952180544596645 0 0 0
2523 5 18.268954555676768 20.042507859282168 -0.07016573740794857 0 0 0
2531 5 21.92486492158977 20.04250785928216 -0.07016573740795089 0 0 0
2525 1 20.095185214439972 21.09653024950103 0.9952180543399254 0 0 0
2532 5 20.096909745341133 23.2086366055573 -0.07016573719565646 0 0 0
2326 1 25.57905077010604 17.930401503452327 0.9952180544596652 0 0 0
2539 5 25.580775287502775 20.04250785928216 -0.07016573740795232 0 0 0
2533 1 23.751095580352974 21.096530249501026 0.9952180543399212 0 0 0
2541 1 27.40700594626598 21.096530249501026 0.9952180543399236 0 0 0
2540 5 23.752820111254138 23.20863660555731 -0.0701657371956507 0 0 0
2548 5 27.408730477167133 23.208636605557302 -0.07016573719565639 0 0 0
2334 1 29.234961136019034 17.930401503452327 0.9952180544596692 0 0 0
2342 1 32.89087150193204 17.93040150345233 0.9952180544596634 0 0 0
2547 5 29.236685653415773 20.042507859282157 -0.0701657374079528 0 0 0
2555 5 32.89259601932877 20.042507859282168 -0.07016573740794449 0 0 0
2549 1 31.062916312178977 21.09653024950103 0.9952180543399229 0 0 0
2557 1 34.71882667809198 21.096530249501026 0.9952180543399229 0 0 0
2556 5 31.06464084308013 23.20863660555731 -0.07016573719565204 0 0 0
2564 5 34.720551208993136 23.208636605557302 -0.0701657371956499 0 0 0
2350 1 36.54678186784504 17.930401503452323 0.9952180544596698 0 0 0
2358 1 40.20269223375804 17.930401503452334 0.9952180544596636 0 0 0
2563 5 36.548506385241765 20.04250785928216 -0.07016573740795798 0 0 0
2571 5 40.204416751154774 20.042507859282168 -0.07016573740794431 0 0 0
2565 1 38.37473704400498 21.09653024950103 0.9952180543399225 0 0 0
2572 5 38.37646157490613 23.2086366055573 -0.07016573719565078 0 0 0
2366 1 43.85860259967104 17.93040150345233 0.9952180544596647 0 0 0
2579 5 43.86032711706778 20.04250785928216 -0.07016573740795029 0 0 0
2573 1 42.03064740991798 21.096530249501022 0.9952180543399178 0 0 0
2581 1 45.68655777583098 21.096530249501026 0.9952180543399238 0 0 0
2580 5 42.032371940819125 23.208636605557306 -0.07016573719565725 0 0 0
2588 5 45.68828230673214 23.208636605557302 -0.07016573719565533 0 0 0
2374 1 47.51451296558404 17.930401503452323 0.9952180544596636 0 0 0
2166 1 51.170423331497034 17.930401503452323 0.9952180544596689 -1 0 0
2587 5 47.51623748298078 20.04250785928216 -0.07016573740794729 0 0 0
2379 5 51.17214784889377 20.04250785928216 -0.07016573740795291 -1 0 0
2589 1 49.34246814174398 21.09653024950103 0.9952180543399165 0 0 0
2380 5 49.34419267264513 23.20863660555731 -0.07016573719565221 -1 0 0
2174 1 54.82633369741004 17.930401503452323 0.9952180544596623 -1 0 0
2387 5 54.828058214806774 20.04250785928216 -0.07016573740795196 -1 0 0
2381 1 52.99837850765699 21.096530249501026 0.9952180543399202 -1 0 0
2389 1 56.65428887356999 21.096530249501026 0.9952180543399225 -1 0 0
2388 5 53.00010303855813 23.208636605557306 -0.07016573719565644 -1 0 0
2396 5 56.65601340447113 23.2086366055573 -0.0701657371956527 -1 0 0
2182 1 58.482244063323044 17.93040150345233 0.9952180544596715 -1 0 0
2190 1 62.13815442923604 17.93040150345232 0.9952180544596607 -1 0 0
2395 5 58.483968580719775 20.042507859282168 -0.0701657374079571 -1 0 0
2403 5 62.139878946632784 20.042507859282164 -0.07016573740794192 -1 0 0
2397 1 60.310199239482984 21.096530249501022 0.9952180543399209 -1 0 0
2404 5 60.31192377038413 23.208636605557302 -0.07016573719565421 -1 0 0
2198 1 65.79406479514905 17.930401503452323 0.9952180544596673 -1 0 0
2206 1 69.44997516106204 17.930401503452327 0.9952180544596659 -1 0 0
2411 5 65.79578931254578 20.042507859282168 -0.07016573740794778 -1 0 0
2419 5 69.45169967845878 20.042507859282157 -0.07016573740795377 -1 0 0
2405 1 63.96610960539598 21.09653024950103 0.9952180543399199 -1 0 0
2413 1 67.62201997130897 21.096530249501026 0.9952180543399164 -1 0 0
2412 5 63.967834136297135 23.20863660555731 -0.07016573719565633 -1 0 0
2420 5 67.62374450221012 23.208636605557302 -0.07016573719565555 -1 0 0
2214 1 73.10588552697504 17.93040150345232 0.9952180544596557 -1 0 0
2427 5 73.10761004437177 20.04250785928215 -0.0701657374079585 -1 0 0
2421 1 71.27793033722199 21.096530249501026 0.9952180543399178 -1 0 0
2429 1 74.93384070313499 21.096530249501022 0.9952180543399178 -1 0 0
2428 5 71.27965486812313 23.208636605557313 -0.07016573719564263 -1 0 0
2436 5 74.93556523403613 23.208636605557302 -0.07016573719565508 -1 0 0
2222 1 76.76179589288803 17.93040150345233 0.9952180544596689 -1 0 0
2230 1 80.41770625880102 17.93040150345232 0.9952180544596713 -1 0 0
2435 5 76.76352041028477 20.04250785928217 -0.07016573740793931 -1 0 0
2443 5 80.41943077619779 20.04250785928216 -0.07016573740795179 -1 0 0
2437 1 78.58975106904795 21.096530249501026 0.9952180543399191 -1 0 0
2444 5 78.59147559994912 23.208636605557302 -0.0701657371956533 -1 0 0
2238 1 84.073616624714 17.930401503452323 0.9952180544596648 -1 0 0
2451 5 84.07534114211077 20.042507859282168 -0.07016573740794572 -1 0 0
2445 1 82.24566143496097 21.09653024950102 0.9952180543399233 -1 0 0
2453 1 85.901571800874 21.096530249501026 0.9952180543399192 -1 0 0
2452 5 82.24738596586212 23.2086366055573 -0.07016573719565325 -1 0 0
2460 5 85.90329633177514 23.208636605557313 -0.0701657371956461 -1 0 0
2246 1 87.72952699062704 17.930401503452334 0.9952180544596687 -1 0 0
2254 1 91.38543735654004 17.930401503452327 0.9952180544596696 -1 0 0
2459 5 87.73125150802379 20.042507859282164 -0.07016573740793754 -1 0 0
2467 5 91.38716187393679 20.04250785928216 -0.07016573740795484 -1 0 0
2461 1 89.557482166787 21.096530249501026 0.9952180543399242 -1 0 0
2468 5 89.55920669768814 23.208636605557302 -0.07016573719564603 -1 0 0
2483 5 98.69898260576277 20.042507859282154 -0.07016573740795744 -1 0 0
2262 1 95.04134772245304 17.930401503452323 0.9952180544596725 -1 0 0
2270 1 98.69725808836603 17.93040150345232 0.9952180544596672 -1 0 0
2475 5 95.04307223984979 20.04250785928216 -0.07016573740795207 -1 0 0
2469 1 93.2133925327 21.096530249501022 0.9952180543399257 -1 0 0
2477 1 96.86930289861299 21.09653024950103 0.9952180543399247 -1 0 0
2476 5 93.21511706360113 23.208636605557302 -0.0701657371956521 -1 0 0
2484 5 96.87102742951411 23.208636605557306 -0.0701657371956552 -1 0 0
2494 1 3.6435885746280383 24.262658995642326 0.9952180544596674 0 0 0
2701 1 1.8156333848749842 27.42878774169103 0.9952180543399235 0 0 0
2707 5 3.6453130920247587 26.374765351472167 -0.07016573740794778 0 0 0
2709 1 5.471543750787976 27.428787741691025 0.995218054339923 0 0 0
2708 5 1.8173579157761333 29.5408940977473 -0.07016573719565992 0 0 0
2716 5 5.473268281689132 29.540894097747298 -0.07016573719565565 0 0 0
2502 1 7.29949894054104 24.262658995642326 0.9952180544596666 0 0 0
2510 1 10.955409306454037 24.262658995642322 0.9952180544596709 0 0 0
2715 5 7.301223457937771 26.37476535147216 -0.07016573740795348 0 0 0
2717 1 9.127454116700978 27.428787741691025 0.9952180543399224 0 0 0
2723 5 10.95713382385077 26.374765351472163 -0.07016573740795574 0 0 0
2724 5 9.129178647602137 29.5408940977473 -0.0701657371956535 0 0 0
2518 1 14.611319672367035 24.262658995642322 0.9952180544596665 0 0 0
2725 1 12.783364482613981 27.428787741691025 0.9952180543399204 0 0 0
2731 5 14.613044189763773 26.374765351472156 -0.07016573740795327 0 0 0
2733 1 16.43927484852698 27.428787741691025 0.9952180543399187 0 0 0
2732 5 12.785089013515135 29.540894097747305 -0.07016573719565523 0 0 0
2740 5 16.440999379428135 29.540894097747298 -0.07016573719565454 0 0 0
2526 1 18.267230038280037 24.262658995642322 0.9952180544596672 0 0 0