LAMMPS data file via write_data, version 29 Aug 2024, timestep = 7, units = metal

10368 atoms
12 atom types

0 98.709579879651 xlo xhi
0 101.31611987504 ylo yhi
-50 50 zlo zhi

Masses

1 69.723
2 69.723
3 69.723
4 69.723
5 69.723
6 69.723
7 32.06
8 32.06
9 32.06
10 32.06
11 32.06
12 32.06

Atoms # atomic

1843 7 3.638355964012501 1.0397110657580277 -0.09263677015838032 0 0 0
1837 1 1.8076868932648607 2.092652800437139 0.9741479796449461 0 0 0
1845 1 5.46359725917786 2.092652800437154 0.9741479796449476 0 0 0
1844 7 1.8104007851013058 4.205839811718734 -0.09263677028049169 0 0 0
1846 1 3.6356420788690755 5.258781546546811 0.9741479794999428 0 0 0
1852 7 5.4663111510143105 4.205839811718725 -0.09263677028048492 0 0 0
1851 7 7.294266329925512 1.0397110657580242 -0.09263677015838222 0 0 0
1859 7 10.950176695838506 1.0397110657580215 -0.09263677015838598 0 0 0
1853 1 9.119507625090861 2.0926528004371616 0.9741479796449486 0 0 0
1854 1 7.291552444782073 5.258781546546809 0.9741479794999394 0 0 0
1860 7 9.122221516927313 4.2058398117187235 -0.09263677028048575 0 0 0
1862 1 10.947462810695077 5.258781546546805 0.9741479794999404 0 0 0
1867 7 14.606087061751511 1.0397110657580222 -0.0926367701583849 0 0 0
1861 1 12.775417991003867 2.0926528004371616 0.9741479796449405 0 0 0
1869 1 16.431328356916865 2.092652800437154 0.9741479796449516 0 0 0
1868 7 12.778131882840318 4.205839811718727 -0.09263677028048775 0 0 0
1870 1 14.603373176608075 5.258781546546807 0.9741479794999388 0 0 0
1876 7 16.434042248753315 4.205839811718727 -0.09263677028049087 0 0 0
1875 7 18.261997427664507 1.0397110657580237 -0.09263677015838576 0 0 0
1883 7 21.91790779357751 1.0397110657580229 -0.09263677015838712 0 0 0
1877 1 20.087238722829866 2.0926528004371603 0.9741479796449442 0 0 0
1878 1 18.259283542521075 5.258781546546807 0.9741479794999398 0 0 0
1884 7 20.08995261466632 4.205839811718729 -0.09263677028048865 0 0 0
1886 1 21.915193908434073 5.258781546546804 0.9741479794999377 0 0 0
1891 7 25.573818159490504 1.0397110657580269 -0.09263677015838997 0 0 0
1885 1 23.743149088742864 2.092652800437158 0.9741479796449494 0 0 0
1893 1 27.399059454655863 2.0926528004371625 0.9741479796449466 0 0 0
1892 7 23.745862980579314 4.205839811718727 -0.09263677028048933 0 0 0
1894 1 25.57110427434708 5.258781546546805 0.974147979499941 0 0 0
1900 7 27.401773346492305 4.205839811718721 -0.09263677028048423 0 0 0
1899 7 29.22972852540351 1.0397110657580286 -0.0926367701583927 0 0 0
1907 7 32.88563889131651 1.0397110657580206 -0.09263677015838556 0 0 0
1901 1 31.054969820568868 2.0926528004371594 0.9741479796449585 0 0 0
1909 1 34.71088018648186 2.09265280043716 0.9741479796449459 0 0 0
1902 1 29.22701464026007 5.258781546546807 0.9741479794999393 0 0 0
1908 7 31.057683712405318 4.205839811718727 -0.09263677028049128 0 0 0
1910 1 32.882925006173075 5.258781546546809 0.9741479794999405 0 0 0
1916 7 34.713594078318316 4.2058398117187314 -0.09263677028048564 0 0 0
1915 7 36.541549257229505 1.0397110657580173 -0.09263677015839492 0 0 0
1923 7 40.19745962314252 1.0397110657580142 -0.09263677015838422 0 0 0
1917 1 38.36679055239487 2.0926528004371696 0.9741479796449521 0 0 0
1918 1 36.53883537208608 5.258781546546807 0.9741479794999416 0 0 0
1924 7 38.36950444423132 4.205839811718726 -0.09263677028048639 0 0 0
1926 1 40.19474573799908 5.258781546546803 0.97414797949994 0 0 0
1931 7 43.85336998905551 1.039711065758022 -0.09263677015838108 0 0 0
1925 1 42.022700918307876 2.0926528004371625 0.9741479796449418 0 0 0
1933 1 45.67861128422087 2.092652800437153 0.9741479796449494 0 0 0
1932 7 42.02541481014431 4.205839811718725 -0.09263677028048352 0 0 0
1934 1 43.85065610391208 5.258781546546809 0.9741479794999358 0 0 0
1940 7 45.68132517605732 4.205839811718731 -0.0926367702804978 0 0 0
1939 7 47.50928035496852 1.0397110657580209 -0.09263677015838612 0 0 0
1731 7 51.16519072088152 1.039711065758027 -0.09263677015839619 -1 0 0
1941 1 49.33452165013387 2.0926528004371576 0.9741479796449591 0 0 0
1942 1 47.50656646982509 5.258781546546804 0.9741479794999376 0 0 0
1732 7 49.337235541970315 4.2058398117187314 -0.09263677028048711 -1 0 0
1734 1 51.162476835738076 5.258781546546803 0.9741479794999391 -1 0 0
1739 7 54.82110108679451 1.0397110657580249 -0.09263677015838741 -1 0 0
1733 1 52.99043201604687 2.0926528004371536 0.9741479796449477 -1 0 0
1741 1 56.64634238195987 2.092652800437158 0.974147979644945 -1 0 0
1740 7 52.99314590788332 4.205839811718729 -0.09263677028049166 -1 0 0
1742 1 54.81838720165108 5.258781546546806 0.9741479794999371 -1 0 0
1748 7 56.64905627379632 4.205839811718729 -0.09263677028048789 -1 0 0
1747 7 58.477011452707515 1.0397110657580189 -0.09263677015838144 -1 0 0
1755 7 62.13292181862051 1.0397110657580184 -0.09263677015838583 -1 0 0
1749 1 60.30225274787288 2.0926528004371567 0.9741479796449417 -1 0 0
1750 1 58.47429756756408 5.2587815465468095 0.974147979499941 -1 0 0
1756 7 60.304966639709306 4.205839811718722 -0.09263677028049168 -1 0 0
1758 1 62.13020793347708 5.258781546546803 0.9741479794999378 -1 0 0
1763 7 65.7888321845335 1.0397110657580164 -0.09263677015839393 -1 0 0
1771 7 69.44474255044652 1.0397110657580255 -0.09263677015838846 -1 0 0
1757 1 63.95816311378588 2.092652800437162 0.974147979644939 -1 0 0
1765 1 67.61407347969887 2.092652800437161 0.9741479796449503 -1 0 0
1764 7 63.960877005622315 4.2058398117187314 -0.09263677028048663 -1 0 0
1766 1 65.78611829939008 5.258781546546807 0.9741479794999351 -1 0 0
1772 7 67.61678737153531 4.20583981171873 -0.09263677028049105 -1 0 0
1774 1 69.44202866530308 5.258781546546803 0.9741479794999393 -1 0 0
1779 7 73.10065291635952 1.0397110657580255 -0.09263677015837869 -1 0 0
1773 1 71.26998384561188 2.0926528004371563 0.9741479796449446 -1 0 0
1781 1 74.92589421152486 2.092652800437154 0.9741479796449575 -1 0 0
1780 7 71.27269773744831 4.205839811718727 -0.09263677028048735 -1 0 0
1782 1 73.09793903121607 5.258781546546804 0.9741479794999413 -1 0 0
1788 7 74.92860810336133 4.2058398117187314 -0.09263677028049322 -1 0 0
1787 7 76.75656328227251 1.039711065758024 -0.09263677015840077 -1 0 0
1795 7 80.41247364818551 1.0397110657580169 -0.09263677015838899 -1 0 0
1789 1 78.58180457743786 2.092652800437161 0.974147979644941 -1 0 0
1790 1 76.75384939712909 5.258781546546803 0.9741479794999406 -1 0 0
1796 7 78.58451846927431 4.205839811718724 -0.0926367702804841 -1 0 0
1798 1 80.40975976304206 5.258781546546816 0.9741479794999396 -1 0 0
1803 7 84.06838401409851 1.0397110657580144 -0.09263677015838549 -1 0 0
1797 1 82.23771494335087 2.0926528004371634 0.9741479796449452 -1 0 0
1805 1 85.89362530926387 2.0926528004371687 0.974147979644949 -1 0 0
1804 7 82.24042883518732 4.205839811718731 -0.09263677028049423 -1 0 0
1806 1 84.06567012895508 5.258781546546802 0.9741479794999403 -1 0 0
1812 7 85.8963392011003 4.205839811718732 -0.09263677028048133 -1 0 0
1811 7 87.7242943800115 1.0397110657580135 -0.09263677015839064 -1 0 0
1819 7 91.38020474592452 1.0397110657580215 -0.09263677015838778 -1 0 0
1813 1 89.54953567517688 2.0926528004371496 0.9741479796449638 -1 0 0
1814 1 87.72158049486808 5.258781546546805 0.9741479794999384 -1 0 0
1820 7 89.5522495670133 4.205839811718733 -0.09263677028049909 -1 0 0
1822 1 91.37749086078108 5.258781546546804 0.9741479794999353 -1 0 0
1835 7 98.6920254777505 1.0397110657580244 -0.09263677015838329 -1 0 0
1827 7 95.0361151118375 1.0397110657580262 -0.09263677015838923 -1 0 0
1821 1 93.20544604108987 2.092652800437159 0.9741479796449556 -1 0 0
1829 1 96.86135640700287 2.0926528004371554 0.9741479796449665 -1 0 0
1828 7 93.2081599329263 4.205839811718726 -0.09263677028047695 -1 0 0
1830 1 95.03340122669408 5.258781546546801 0.9741479794999488 -1 0 0
1836 7 96.86407029883931 4.205839811718722 -0.09263677028048971 -1 0 0
1838 1 98.68931159260708 5.258781546546811 0.974147979499935 -1 0 0
2059 7 3.6383559640124923 7.371968557948023 -0.09263677015838438 0 0 0
2053 1 1.8076868932648609 8.424910292627155 0.9741479796449436 0 0 0
2061 1 5.463597259177859 8.424910292627164 0.9741479796449578 0 0 0
2060 7 1.8104007851013038 10.538097303908732 -0.09263677028049111 0 0 0
2068 7 5.466311151014313 10.538097303908733 -0.09263677028048538 0 0 0
2062 1 3.6356420788690764 11.59103903873681 0.9741479794999469 0 0 0
2067 7 7.294266329925512 7.371968557948018 -0.09263677015838645 0 0 0
2075 7 10.95017669583851 7.371968557948021 -0.09263677015839053 0 0 0
2069 1 9.119507625090861 8.424910292627164 0.9741479796449568 0 0 0
2076 7 9.122221516927315 10.538097303908733 -0.0926367702804875 0 0 0
2070 1 7.291552444782074 11.591039038736808 0.9741479794999421 0 0 0
2078 1 10.947462810695077 11.591039038736803 0.9741479794999421 0 0 0
2083 7 14.60608706175151 7.371968557948017 -0.0926367701583877 0 0 0
2077 1 12.775417991003865 8.424910292627164 0.9741479796449543 0 0 0
2085 1 16.43132835691686 8.42491029262716 0.9741479796449548 0 0 0
2084 7 12.778131882840317 10.538097303908735 -0.09263677028048903 0 0 0
2092 7 16.434042248753315 10.538097303908733 -0.09263677028049226 0 0 0
2086 1 14.603373176608073 11.591039038736804 0.9741479794999397 0 0 0
2091 7 18.26199742766451 7.371968557948022 -0.09263677015838853 0 0 0
2099 7 21.917907793577502 7.371968557948019 -0.09263677015838882 0 0 0
2093 1 20.087238722829863 8.424910292627164 0.9741479796449547 0 0 0
2100 7 20.089952614666316 10.538097303908733 -0.09263677028048956 0 0 0
2094 1 18.259283542521075 11.591039038736803 0.9741479794999436 0 0 0
2102 1 21.915193908434073 11.591039038736803 0.9741479794999368 0 0 0
2107 7 25.573818159490507 7.371968557948024 -0.09263677015839104 0 0 0
2101 1 23.74314908874286 8.424910292627164 0.9741479796449539 0 0 0
2109 1 27.399059454655863 8.424910292627164 0.9741479796449547 0 0 0
2108 7 23.745862980579318 10.538097303908737 -0.09263677028048735 0 0 0
2116 7 27.40177334649231 10.538097303908728 -0.09263677028048618 0 0 0
2110 1 25.571104274347075 11.591039038736806 0.9741479794999439 0 0 0
2115 7 29.22972852540351 7.371968557948024 -0.09263677015839138 0 0 0
2123 7 32.88563889131651 7.371968557948016 -0.09263677015838431 0 0 0
2117 1 31.054969820568868 8.42491029262716 0.9741479796449592 0 0 0
2125 1 34.710880186481866 8.424910292627162 0.9741479796449494 0 0 0
2124 7 31.057683712405318 10.53809730390873 -0.09263677028049144 0 0 0
2132 7 34.713594078318316 10.538097303908733 -0.09263677028048907 0 0 0
2118 1 29.22701464026007 11.591039038736804 0.9741479794999399 0 0 0
2126 1 32.882925006173075 11.591039038736806 0.9741479794999441 0 0 0
2131 7 36.541549257229505 7.371968557948018 -0.09263677015838963 0 0 0
2139 7 40.197459623142514 7.371968557948019 -0.09263677015839052 0 0 0
2133 1 38.36679055239487 8.424910292627164 0.9741479796449544 0 0 0
2140 7 38.36950444423131 10.538097303908737 -0.09263677028049203 0 0 0
2134 1 36.538835372086076 11.591039038736803 0.9741479794999428 0 0 0
2142 1 40.194745737999085 11.591039038736808 0.9741479794999436 0 0 0
2147 7 43.85336998905551 7.371968557948024 -0.09263677015838054 0 0 0
2141 1 42.022700918307876 8.424910292627159 0.9741479796449546 0 0 0
2149 1 45.67861128422087 8.42491029262716 0.9741479796449526 0 0 0
2148 7 42.02541481014431 10.538097303908728 -0.09263677028049142 0 0 0
2156 7 45.681325176057314 10.538097303908735 -0.09263677028049144 0 0 0
2150 1 43.85065610391208 11.591039038736803 0.9741479794999429 0 0 0
2155 7 47.50928035496852 7.371968557948021 -0.09263677015839393 0 0 0
1947 7 51.16519072088151 7.3719685579480245 -0.0926367701583981 -1 0 0
2157 1 49.33452165013387 8.424910292627164 0.9741479796449596 0 0 0
1948 7 49.337235541970315 10.538097303908728 -0.09263677028048445 -1 0 0
2158 1 47.50656646982508 11.591039038736803 0.9741479794999368 0 0 0
1950 1 51.162476835738076 11.5910390387368 0.9741479794999371 -1 0 0
1955 7 54.82110108679451 7.371968557948021 -0.09263677015838553 -1 0 0
1949 1 52.990432016046874 8.42491029262716 0.9741479796449505 -1 0 0
1957 1 56.64634238195987 8.42491029262716 0.9741479796449549 -1 0 0
1956 7 52.99314590788332 10.538097303908732 -0.09263677028048804 -1 0 0
1964 7 56.64905627379632 10.538097303908733 -0.09263677028049323 -1 0 0
1958 1 54.81838720165107 11.591039038736806 0.9741479794999447 -1 0 0
1963 7 58.47701145270751 7.371968557948017 -0.09263677015838918 -1 0 0
1971 7 62.13292181862052 7.371968557948024 -0.09263677015839118 -1 0 0
1965 1 60.30225274787287 8.42491029262716 0.9741479796449546 -1 0 0
1972 7 60.30496663970931 10.538097303908732 -0.09263677028049289 -1 0 0
1966 1 58.474297567564086 11.591039038736804 0.9741479794999398 -1 0 0
1974 1 62.13020793347708 11.5910390387368 0.9741479794999406 -1 0 0
1979 7 65.78883218453349 7.371968557948015 -0.09263677015839247 -1 0 0
1987 7 69.44474255044652 7.371968557948028 -0.09263677015839017 -1 0 0
1973 1 63.95816311378587 8.42491029262716 0.9741479796449469 -1 0 0
1981 1 67.61407347969887 8.424910292627162 0.9741479796449632 -1 0 0
1980 7 63.960877005622315 10.538097303908726 -0.09263677028048498 -1 0 0
1988 7 67.61678737153531 10.538097303908733 -0.09263677028049883 -1 0 0
1982 1 65.78611829939008 11.591039038736806 0.9741479794999396 -1 0 0
1990 1 69.44202866530308 11.5910390387368 0.9741479794999454 -1 0 0
1995 7 73.10065291635951 7.371968557948021 -0.09263677015838628 -1 0 0
1989 1 71.26998384561189 8.42491029262716 0.9741479796449528 -1 0 0
1997 1 74.92589421152486 8.424910292627166 0.9741479796449599 -1 0 0
1996 7 71.27269773744831 10.538097303908732 -0.09263677028048138 -1 0 0
2004 7 74.92860810336131 10.538097303908732 -0.092636770280492 -1 0 0
1998 1 73.09793903121609 11.591039038736797 0.9741479794999365 -1 0 0
2003 7 76.7565632822725 7.371968557948023 -0.09263677015839758 -1 0 0
2011 7 80.41247364818551 7.371968557948016 -0.09263677015839225 -1 0 0
2005 1 78.58180457743786 8.424910292627159 0.9741479796449524 -1 0 0
2012 7 78.58451846927431 10.538097303908732 -0.09263677028049054 -1 0 0
2006 1 76.75384939712909 11.59103903873681 0.9741479794999441 -1 0 0
2014 1 80.40975976304206 11.591039038736804 0.9741479794999471 -1 0 0
2019 7 84.06838401409851 7.371968557948017 -0.09263677015838179 -1 0 0
2013 1 82.23771494335085 8.424910292627159 0.9741479796449583 -1 0 0
2021 1 85.89362530926387 8.424910292627168 0.9741479796449535 -1 0 0
2020 7 82.24042883518732 10.538097303908735 -0.09263677028049615 -1 0 0
2028 7 85.89633920110032 10.53809730390873 -0.09263677028047826 -1 0 0
2022 1 84.06567012895508 11.591039038736806 0.9741479794999406 -1 0 0
2027 7 87.72429438001149 7.371968557948024 -0.09263677015838553 -1 0 0
2035 7 91.38020474592452 7.371968557948023 -0.09263677015839235 -1 0 0
2029 1 89.54953567517688 8.424910292627159 0.9741479796449566 -1 0 0
2036 7 89.5522495670133 10.538097303908733 -0.09263677028050005 -1 0 0
2030 1 87.72158049486808 11.591039038736808 0.9741479794999445 -1 0 0
2038 1 91.3774908607811 11.5910390387368 0.974147979499939 -1 0 0
2051 7 98.6920254777505 7.371968557948022 -0.09263677015838102 -1 0 0
2043 7 95.0361151118375 7.371968557948025 -0.09263677015839178 -1 0 0
2037 1 93.20544604108987 8.424910292627168 0.9741479796449564 -1 0 0
2045 1 96.86135640700287 8.424910292627164 0.9741479796449632 -1 0 0
2044 7 93.2081599329263 10.53809730390873 -0.09263677028048063 -1 0 0
2052 7 96.8640702988393 10.53809730390873 -0.09263677028048567 -1 0 0
2046 1 95.03340122669408 11.591039038736795 0.9741479794999417 -1 0 0
2054 1 98.68931159260708 11.591039038736806 0.9741479794999358 -1 0 0
2269 1 1.807686893264862 14.757167784817153 0.9741479796449439 0 0 0
2275 7 3.6383559640124976 13.704226050138022 -0.09263677015838462 0 0 0
2277 1 5.4635972591778605 14.75716778481716 0.9741479796449561 0 0 0
2276 7 1.8104007851013153 16.870354796098734 -0.09263677028049543 0 0 0
2284 7 5.4663111510143105 16.870354796098734 -0.09263677028048722 0 0 0
2283 7 7.2942663299255095 13.704226050138017 -0.09263677015838792 0 0 0
2285 1 9.119507625090861 14.757167784817163 0.9741479796449526 0 0 0
2291 7 10.95017669583851 13.704226050138018 -0.09263677015839367 0 0 0
2292 7 9.122221516927317 16.870354796098734 -0.09263677028049083 0 0 0
2293 1 12.775417991003865 14.757167784817158 0.9741479796449519 0 0 0
2299 7 14.606087061751511 13.70422605013802 -0.09263677015839082 0 0 0
2301 1 16.431328356916865 14.757167784817161 0.9741479796449546 0 0 0
2300 7 12.778131882840317 16.870354796098734 -0.09263677028049186 0 0 0
2308 7 16.43404224875331 16.87035479609873 -0.09263677028048786 0 0 0
2307 7 18.261997427664507 13.70422605013802 -0.09263677015839256 0 0 0
2309 1 20.087238722829866 14.75716778481716 0.9741479796449507 0 0 0
2315 7 21.91790779357751 13.704226050138018 -0.09263677015839014 0 0 0
2316 7 20.08995261466632 16.870354796098734 -0.09263677028049389 0 0 0
2317 1 23.74314908874286 14.75716778481716 0.9741479796449517 0 0 0
2323 7 25.573818159490504 13.704226050138018 -0.09263677015839261 0 0 0
2325 1 27.39905945465586 14.75716778481716 0.9741479796449534 0 0 0
2324 7 23.74586298057931 16.870354796098734 -0.09263677028048904 0 0 0
2332 7 27.401773346492316 16.87035479609873 -0.0926367702804886 0 0 0
2331 7 29.229728525403512 13.70422605013802 -0.09263677015839249 0 0 0
2333 1 31.054969820568864 14.75716778481716 0.9741479796449579 0 0 0
2339 7 32.88563889131651 13.704226050138018 -0.09263677015838702 0 0 0
2341 1 34.71088018648186 14.757167784817158 0.9741479796449453 0 0 0
2340 7 31.057683712405314 16.87035479609873 -0.09263677028049051 0 0 0
2348 7 34.713594078318316 16.870354796098734 -0.09263677028048989 0 0 0
2347 7 36.54154925722952 13.70422605013802 -0.09263677015839243 0 0 0
2349 1 38.366790552394875 14.757167784817161 0.9741479796449555 0 0 0
2355 7 40.19745962314251 13.704226050138026 -0.09263677015838817 0 0 0
2356 7 38.36950444423131 16.870354796098727 -0.09263677028049327 0 0 0
2357 1 42.022700918307876 14.75716778481716 0.974147979644948 0 0 0
2363 7 43.853369989055516 13.704226050138024 -0.09263677015839054 0 0 0
2365 1 45.67861128422088 14.757167784817161 0.9741479796449579 0 0 0
2364 7 42.025414810144305 16.870354796098738 -0.09263677028048958 0 0 0
2372 7 45.68132517605731 16.870354796098734 -0.09263677028049415 0 0 0
2371 7 47.50928035496852 13.704226050138022 -0.09263677015839475 0 0 0
2373 1 49.334521650133865 14.757167784817163 0.9741479796449563 0 0 0
2163 7 51.16519072088152 13.704226050138026 -0.09263677015839861 -1 0 0
2164 7 49.337235541970315 16.87035479609873 -0.09263677028048545 -1 0 0
2165 1 52.990432016046874 14.757167784817156 0.9741479796449489 -1 0 0
2171 7 54.82110108679451 13.70422605013802 -0.09263677015838619 -1 0 0
2173 1 56.64634238195986 14.757167784817158 0.9741479796449521 -1 0 0
2172 7 52.99314590788332 16.87035479609873 -0.0926367702804912 -1 0 0
2180 7 56.64905627379632 16.870354796098738 -0.09263677028049268 -1 0 0
2179 7 58.477011452707515 13.70422605013802 -0.09263677015839146 -1 0 0
2181 1 60.30225274787287 14.75716778481716 0.9741479796449524 -1 0 0
2187 7 62.13292181862052 13.704226050138024 -0.09263677015839214 -1 0 0
2188 7 60.30496663970931 16.870354796098727 -0.09263677028049211 -1 0 0
2189 1 63.95816311378588 14.757167784817165 0.9741479796449469 -1 0 0
2195 7 65.7888321845335 13.704226050138017 -0.0926367701583946 -1 0 0
2197 1 67.61407347969887 14.757167784817158 0.9741479796449506 -1 0 0
2203 7 69.44474255044652 13.704226050138027 -0.09263677015839157 -1 0 0
2196 7 63.960877005622315 16.87035479609873 -0.09263677028048535 -1 0 0
2204 7 67.61678737153531 16.870354796098738 -0.09263677028049572 -1 0 0
2205 1 71.26998384561188 14.75716778481716 0.9741479796449611 -1 0 0
2211 7 73.10065291635952 13.704226050138022 -0.09263677015839007 -1 0 0
2213 1 74.92589421152488 14.757167784817156 0.9741479796449468 -1 0 0
2212 7 71.27269773744831 16.87035479609873 -0.09263677028048863 -1 0 0
2220 7 74.92860810336133 16.870354796098734 -0.09263677028049398 -1 0 0
2219 7 76.75656328227251 13.704226050138024 -0.0926367701583919 -1 0 0
2221 1 78.58180457743785 14.757167784817165 0.9741479796449581 -1 0 0
2227 7 80.4124736481855 13.704226050138013 -0.09263677015840871 -1 0 0
2228 7 78.58451846927431 16.870354796098727 -0.09263677028048901 -1 0 0
2229 1 82.23771494335087 14.757167784817158 0.9741479796449481 -1 0 0
2235 7 84.06838401409851 13.704226050138018 -0.09263677015838233 -1 0 0
2237 1 85.89362530926387 14.757167784817161 0.9741479796449574 -1 0 0
2236 7 82.24042883518732 16.87035479609874 -0.09263677028049097 -1 0 0
2244 7 85.89633920110032 16.87035479609873 -0.09263677028048256 -1 0 0
2243 7 87.7242943800115 13.704226050138017 -0.09263677015838728 -1 0 0
2245 1 89.54953567517687 14.757167784817156 0.9741479796449541 -1 0 0
2251 7 91.3802047459245 13.704226050138026 -0.09263677015839544 -1 0 0
2252 7 89.55224956701332 16.87035479609874 -0.09263677028049785 -1 0 0
2267 7 98.6920254777505 13.704226050138024 -0.09263677015838401 -1 0 0
2253 1 93.20544604108987 14.757167784817161 0.9741479796449557 -1 0 0
2259 7 95.0361151118375 13.70422605013802 -0.09263677015839639 -1 0 0
2261 1 96.86135640700289 14.757167784817156 0.9741479796449606 -1 0 0
2260 7 93.20815993292632 16.87035479609873 -0.09263677028047995 -1 0 0
2268 7 96.8640702988393 16.870354796098734 -0.0926367702804908 -1 0 0
2278 1 3.6356420788690764 17.92329653092681 0.974147979499949 0 0 0
2491 7 3.6383559640124994 20.036483542328018 -0.09263677015838494 0 0 0
2485 1 1.807686893264861 21.089425277007155 0.9741479796449465 0 0 0
2493 1 5.46359725917786 21.089425277007162 0.9741479796449579 0 0 0
2492 7 1.8104007851013177 23.20261228828873 -0.09263677028049846 0 0 0
2500 7 5.466311151014313 23.202612288288734 -0.09263677028048604 0 0 0
2286 1 7.291552444782074 17.9232965309268 0.9741479794999428 0 0 0
2294 1 10.947462810695077 17.923296530926805 0.9741479794999447 0 0 0
2499 7 7.294266329925512 20.036483542328014 -0.09263677015838612 0 0 0
2507 7 10.950176695838508 20.03648354232802 -0.09263677015838716 0 0 0
2501 1 9.119507625090865 21.089425277007162 0.9741479796449533 0 0 0
2508 7 9.122221516927313 23.202612288288737 -0.09263677028048874 0 0 0
2302 1 14.603373176608079 17.9232965309268 0.9741479794999431 0 0 0
2515 7 14.606087061751511 20.036483542328014 -0.09263677015838745 0 0 0
2509 1 12.775417991003863 21.089425277007162 0.9741479796449524 0 0 0
2517 1 16.431328356916865 21.089425277007162 0.9741479796449565 0 0 0
2516 7 12.778131882840318 23.20261228828874 -0.0926367702804897 0 0 0
2524 7 16.43404224875331 23.20261228828873 -0.0926367702804889 0 0 0
2310 1 18.259283542521075 17.923296530926805 0.974147979499939 0 0 0
2318 1 21.915193908434077 17.923296530926805 0.9741479794999436 0 0 0
2523 7 18.261997427664507 20.03648354232802 -0.09263677015838932 0 0 0
2531 7 21.91790779357751 20.036483542328014 -0.09263677015838559 0 0 0
2525 1 20.087238722829866 21.089425277007162 0.9741479796449536 0 0 0
2532 7 20.089952614666313 23.20261228828874 -0.09263677028049727 0 0 0
2326 1 25.571104274347075 17.923296530926805 0.9741479794999403 0 0 0
2539 7 25.573818159490507 20.03648354232802 -0.09263677015838584 0 0 0
2533 1 23.743149088742864 21.089425277007162 0.9741479796449579 0 0 0
2541 1 27.399059454655863 21.08942527700716 0.9741479796449536 0 0 0
2540 7 23.745862980579314 23.20261228828873 -0.09263677028048622 0 0 0
2548 7 27.40177334649231 23.202612288288726 -0.09263677028049387 0 0 0
2334 1 29.22701464026007 17.92329653092681 0.9741479794999454 0 0 0
2342 1 32.882925006173075 17.923296530926805 0.9741479794999421 0 0 0
2547 7 29.22972852540351 20.03648354232802 -0.09263677015838855 0 0 0
2555 7 32.88563889131651 20.036483542328014 -0.0926367701583855 0 0 0
2549 1 31.054969820568864 21.089425277007162 0.9741479796449584 0 0 0
2557 1 34.71088018648186 21.089425277007162 0.9741479796449491 0 0 0
2556 7 31.057683712405314 23.20261228828873 -0.09263677028048894 0 0 0
2564 7 34.713594078318316 23.202612288288734 -0.09263677028048499 0 0 0
2350 1 36.538835372086076 17.923296530926805 0.9741479794999479 0 0 0
2358 1 40.19474573799908 17.9232965309268 0.9741479794999396 0 0 0
2563 7 36.541549257229505 20.036483542328018 -0.0926367701583901 0 0 0
2571 7 40.197459623142514 20.036483542328014 -0.0926367701583908 0 0 0
2565 1 38.36679055239487 21.089425277007166 0.9741479796449571 0 0 0
2572 7 38.36950444423131 23.202612288288737 -0.09263677028048972 0 0 0
2366 1 43.85065610391208 17.92329653092681 0.9741479794999427 0 0 0
2579 7 43.85336998905551 20.036483542328018 -0.09263677015838447 0 0 0
2573 1 42.022700918307876 21.08942527700716 0.9741479796449503 0 0 0
2581 1 45.67861128422087 21.08942527700716 0.9741479796449546 0 0 0
2580 7 42.02541481014432 23.202612288288734 -0.09263677028049366 0 0 0
2588 7 45.681325176057314 23.20261228828873 -0.09263677028049595 0 0 0
2374 1 47.50656646982508 17.923296530926805 0.9741479794999401 0 0 0
2166 1 51.162476835738076 17.9232965309268 0.9741479794999374 -1 0 0
2587 7 47.50928035496852 20.03648354232802 -0.0926367701583898 0 0 0
2379 7 51.16519072088152 20.036483542328025 -0.09263677015839561 -1 0 0
2589 1 49.33452165013387 21.089425277007166 0.9741479796449599 0 0 0
2380 7 49.33723554197031 23.202612288288726 -0.09263677028048771 -1 0 0
2174 1 54.81838720165107 17.923296530926805 0.974147979499944 -1 0 0
2387 7 54.82110108679452 20.03648354232802 -0.09263677015838395 -1 0 0
2381 1 52.990432016046874 21.089425277007162 0.9741479796449483 -1 0 0
2389 1 56.64634238195987 21.08942527700716 0.9741479796449499 -1 0 0
2388 7 52.993145907883324 23.202612288288726 -0.09263677028049264 -1 0 0
2396 7 56.64905627379632 23.202612288288734 -0.09263677028049322 -1 0 0
2182 1 58.474297567564086 17.923296530926805 0.974147979499941 -1 0 0
2190 1 62.13020793347709 17.923296530926805 0.9741479794999395 -1 0 0
2395 7 58.477011452707515 20.03648354232802 -0.09263677015838534 -1 0 0
2403 7 62.13292181862051 20.03648354232802 -0.09263677015839152 -1 0 0
2397 1 60.30225274787288 21.089425277007162 0.9741479796449521 -1 0 0
2404 7 60.304966639709306 23.202612288288734 -0.09263677028049641 -1 0 0
2198 1 65.78611829939008 17.923296530926805 0.9741479794999386 -1 0 0
2206 1 69.44202866530308 17.923296530926798 0.974147979499943 -1 0 0
2411 7 65.78883218453349 20.036483542328014 -0.0926367701583955 -1 0 0
2419 7 69.4447425504465 20.036483542328025 -0.09263677015839099 -1 0 0
2405 1 63.95816311378588 21.089425277007162 0.9741479796449539 -1 0 0
2413 1 67.61407347969887 21.089425277007162 0.9741479796449581 -1 0 0
2412 7 63.96087700562231 23.202612288288734 -0.09263677028048696 -1 0 0
2420 7 67.61678737153531 23.202612288288737 -0.0926367702804942 -1 0 0
2214 1 73.09793903121607 17.92329653092681 0.9741479794999445 -1 0 0
2427 7 73.10065291635952 20.03648354232802 -0.09263677015838298 -1 0 0
2421 1 71.26998384561189 21.089425277007155 0.9741479796449533 -1 0 0
2429 1 74.92589421152486 21.08942527700716 0.9741479796449543 -1 0 0
2428 7 71.27269773744831 23.202612288288726 -0.09263677028049283 -1 0 0
2436 7 74.92860810336131 23.202612288288734 -0.09263677028049033 -1 0 0
2222 1 76.75384939712909 17.923296530926805 0.9741479794999344 -1 0 0
2230 1 80.40975976304206 17.923296530926805 0.9741479794999518 -1 0 0
2435 7 76.7565632822725 20.036483542328014 -0.0926367701583888 -1 0 0
2443 7 80.41247364818551 20.036483542328018 -0.09263677015840387 -1 0 0
2437 1 78.58180457743786 21.089425277007162 0.9741479796449496 -1 0 0
2444 7 78.58451846927431 23.202612288288737 -0.09263677028048772 -1 0 0
2238 1 84.06567012895508 17.923296530926805 0.974147979499941 -1 0 0
2451 7 84.06838401409848 20.036483542328007 -0.09263677015837976 -1 0 0
2445 1 82.23771494335087 21.089425277007162 0.974147979644962 -1 0 0
2453 1 85.89362530926387 21.08942527700716 0.9741479796449416 -1 0 0
2452 7 82.24042883518732 23.202612288288723 -0.09263677028049838 -1 0 0
2460 7 85.8963392011003 23.202612288288748 -0.09263677028047704 -1 0 0
2246 1 87.72158049486808 17.9232965309268 0.9741479794999415 -1 0 0
2254 1 91.3774908607811 17.923296530926805 0.9741479794999368 -1 0 0
2459 7 87.7242943800115 20.036483542328014 -0.09263677015838706 -1 0 0
2467 7 91.3802047459245 20.03648354232803 -0.09263677015838397 -1 0 0
2461 1 89.54953567517688 21.089425277007155 0.9741479796449695 -1 0 0
2468 7 89.55224956701332 23.20261228828873 -0.09263677028049982 -1 0 0
2483 7 98.6920254777505 20.036483542328018 -0.09263677015838181 -1 0 0
2262 1 95.03340122669408 17.923296530926798 0.9741479794999466 -1 0 0
2270 1 98.68931159260708 17.92329653092681 0.974147979499934 -1 0 0
2475 7 95.0361151118375 20.036483542328025 -0.09263677015839171 -1 0 0
2469 1 93.20544604108987 21.089425277007166 0.9741479796449449 -1 0 0
2477 1 96.86135640700289 21.08942527700716 0.9741479796449605 -1 0 0
2476 7 93.2081599329263 23.202612288288737 -0.09263677028047984 -1 0 0
2484 7 96.86407029883931 23.202612288288734 -0.09263677028048983 -1 0 0
2494 1 3.6356420788690778 24.25555402311681 0.9741479794999494 0 0 0
2701 1 1.807686893264856 27.421682769197144 0.9741479796449383 0 0 0
2707 7 3.638355964012496 26.368741034518017 -0.09263677015838158 0 0 0
2709 1 5.46359725917786 27.421682769197155 0.9741479796449556 0 0 0
2708 7 1.8104007851013102 29.534869780478736 -0.09263677028049497 0 0 0
2716 7 5.466311151014304 29.534869780478736 -0.09263677028048684 0 0 0
2502 1 7.291552444782072 24.255554023116808 0.9741479794999424 0 0 0
2510 1 10.947462810695077 24.255554023116805 0.9741479794999447 0 0 0
2715 7 7.294266329925511 26.368741034518013 -0.09263677015838745 0 0 0
2717 1 9.119507625090861 27.42168276919715 0.9741479796449575 0 0 0
2723 7 10.95017669583851 26.36874103451802 -0.09263677015839072 0 0 0
2724 7 9.122221516927315 29.53486978047873 -0.09263677028049178 0 0 0
2518 1 14.603373176608077 24.2555540231168 0.9741479794999395 0 0 0
2725 1 12.775417991003865 27.421682769197158 0.9741479796449513 0 0 0
2731 7 14.60608706175151 26.368741034518017 -0.09263677015839197 0 0 0
2733 1 16.431328356916868 27.421682769197158 0.9741479796449511 0 0 0
2732 7 12.778131882840318 29.53486978047873 -0.0926367702804883 0 0 0
2740 7 16.43404224875331 29.53486978047873 -0.09263677028049022 0 0 0