LAMMPS data file via write_data, version 29 Aug 2024, timestep = 0, units = metal

3456 atoms
4 atom types

0 98.709579879651 xlo xhi
0 101.31611987504 ylo yhi
0 20.807299721384 zlo zhi

Masses

1 69.723
2 69.723
3 32.06
4 32.06

Atoms # atomic

1835 3 5.982600849563369e-05 1.0552311800569996 0 0 0 0
1843 3 3.6559701919214973 1.0552311800569996 0 0 0 0
1851 3 7.311880557834499 1.0552311800569996 0 0 0 0
1859 3 10.9677909237475 1.0552311800569996 0 0 0 0
1867 3 14.623701289660495 1.0552311800569996 0 0 0 0
1875 3 18.279611655573497 1.0552311800569996 0 0 0 0
1883 3 21.9355220214865 1.0552311800569996 0 0 0 0
1891 3 25.5914323873995 1.0552311800569996 0 0 0 0
1899 3 29.247342753312502 1.0552311800569996 0 0 0 0
1907 3 32.903253119225504 1.0552311800569996 0 0 0 0
1915 3 36.55916348513849 1.0552311800569996 0 0 0 0
1923 3 40.21507385105149 1.0552311800569996 0 0 0 0
1931 3 43.870984216964494 1.0552311800569996 0 0 0 0
1939 3 47.526894582877496 1.0552311800569996 0 0 0 0
1731 3 51.1828049487905 1.0552311800569996 0 -1 0 0
1739 3 54.8387153147035 1.0552311800569996 0 -1 0 0
1747 3 58.4946256806165 1.0552311800569996 0 -1 0 0
1755 3 62.1505360465295 1.0552311800569996 0 -1 0 0
1763 3 65.8064464124425 1.0552311800569996 0 -1 0 0
1771 3 69.4623567783555 1.0552311800569996 0 -1 0 0
1779 3 73.1182671442685 1.0552311800569996 0 -1 0 0
1787 3 76.7741775101815 1.0552311800569996 0 -1 0 0
1795 3 80.4300878760945 1.0552311800569996 0 -1 0 0
1803 3 84.08599824200749 1.0552311800569996 0 -1 0 0
1811 3 87.7419086079205 1.0552311800569996 0 -1 0 0
1819 3 91.3978189738335 1.0552311800569996 0 -1 0 0
1827 3 95.0537293397465 1.0552311800569996 0 -1 0 0
1837 1 1.8278226230974965 2.1107254333720036 1.088599612095999 0 0 0
1845 1 5.483732989010498 2.1107254333720036 1.088599612095999 0 0 0
1853 1 9.1396433549235 2.1107254333720036 1.088599612095999 0 0 0
1861 1 12.795553720836494 2.1107254333720036 1.088599612095999 0 0 0
1869 1 16.451464086749503 2.1107254333720036 1.088599612095999 0 0 0
1877 1 20.107374452662505 2.1107254333720036 1.088599612095999 0 0 0
1885 1 23.763284818575492 2.1107254333720036 1.088599612095999 0 0 0
1893 1 27.419195184488494 2.1107254333720036 1.088599612095999 0 0 0
1901 1 31.075105550401496 2.1107254333720036 1.088599612095999 0 0 0
1909 1 34.7310159163145 2.1107254333720036 1.088599612095999 0 0 0
1917 1 38.3869262822275 2.1107254333720036 1.088599612095999 0 0 0
1925 1 42.0428366481405 2.1107254333720036 1.088599612095999 0 0 0
1933 1 45.6987470140535 2.1107254333720036 1.088599612095999 0 0 0
1941 1 49.354657379966504 2.1107254333720036 1.088599612095999 0 0 0
1733 1 53.0105677458795 2.1107254333720036 1.088599612095999 -1 0 0
1741 1 56.6664781117925 2.1107254333720036 1.088599612095999 -1 0 0
1749 1 60.3223884777055 2.1107254333720036 1.088599612095999 -1 0 0
1757 1 63.978298843618504 2.1107254333720036 1.088599612095999 -1 0 0
1765 1 67.6342092095315 2.1107254333720036 1.088599612095999 -1 0 0
1773 1 71.29011957544449 2.1107254333720036 1.088599612095999 -1 0 0
1781 1 74.9460299413575 2.1107254333720036 1.088599612095999 -1 0 0
1789 1 78.6019403072705 2.1107254333720036 1.088599612095999 -1 0 0
1797 1 82.2578506731835 2.1107254333720036 1.088599612095999 -1 0 0
1805 1 85.9137610390965 2.1107254333720036 1.088599612095999 -1 0 0
1813 1 89.5696714050095 2.1107254333720036 1.088599612095999 -1 0 0
1821 1 93.2255817709225 2.1107254333720036 1.088599612095999 -1 0 0
1829 1 96.8814921368355 2.1107254333720036 1.088599612095999 -1 0 0
1844 3 1.8280150039445004 4.2213599261520045 0 0 0 0
1846 1 3.6557778010335014 5.276854179467001 1.088599612095999 0 0 0
1852 3 5.483925369857495 4.2213599261520045 0 0 0 0
1854 1 7.311688166946496 5.276854179467001 1.088599612095999 0 0 0
1860 3 9.139835735770497 4.2213599261520045 0 0 0 0
1862 1 10.967598532859498 5.276854179467001 1.088599612095999 0 0 0
1868 3 12.795746101683498 4.2213599261520045 0 0 0 0
1870 1 14.6235088987725 5.276854179467001 1.088599612095999 0 0 0
1876 3 16.4516564675965 4.2213599261520045 0 0 0 0
1878 1 18.279419264685494 5.276854179467001 1.088599612095999 0 0 0
1884 3 20.1075668335095 4.2213599261520045 0 0 0 0
1886 1 21.935329630598495 5.276854179467001 1.088599612095999 0 0 0
1892 3 23.763477199422503 4.2213599261520045 0 0 0 0
1894 1 25.591239996511497 5.276854179467001 1.088599612095999 0 0 0
1900 3 27.419387565335505 4.2213599261520045 0 0 0 0
1902 1 29.2471503624245 5.276854179467001 1.088599612095999 0 0 0
1908 3 31.075297931248492 4.2213599261520045 0 0 0 0
1910 1 32.9030607283375 5.276854179467001 1.088599612095999 0 0 0
1916 3 34.731208297161494 4.2213599261520045 0 0 0 0
1918 1 36.5589710942505 5.276854179467001 1.088599612095999 0 0 0
1924 3 38.387118663074496 4.2213599261520045 0 0 0 0
1926 1 40.214881460163504 5.276854179467001 1.088599612095999 0 0 0
1932 3 42.0430290289875 4.2213599261520045 0 0 0 0
1934 1 43.87079182607649 5.276854179467001 1.088599612095999 0 0 0
1940 3 45.6989393949005 4.2213599261520045 0 0 0 0
1942 1 47.52670219198949 5.276854179467001 1.088599612095999 0 0 0
1732 3 49.3548497608135 4.2213599261520045 0 -1 0 0
1734 1 51.1826125579025 5.276854179467001 1.088599612095999 -1 0 0
1740 3 53.0107601267265 4.2213599261520045 0 -1 0 0
1742 1 54.8385229238155 5.276854179467001 1.088599612095999 -1 0 0
1748 3 56.6666704926395 4.2213599261520045 0 -1 0 0
1750 1 58.4944332897285 5.276854179467001 1.088599612095999 -1 0 0
1756 3 60.3225808585525 4.2213599261520045 0 -1 0 0
1758 1 62.1503436556415 5.276854179467001 1.088599612095999 -1 0 0
1764 3 63.9784912244655 4.2213599261520045 0 -1 0 0
1766 1 65.80625402155451 5.276854179467001 1.088599612095999 -1 0 0
1772 3 67.6344015903785 4.2213599261520045 0 -1 0 0
1774 1 69.4621643874675 5.276854179467001 1.088599612095999 -1 0 0
1780 3 71.2903119562915 4.2213599261520045 0 -1 0 0
1782 1 73.1180747533805 5.276854179467001 1.088599612095999 -1 0 0
1788 3 74.9462223222045 4.2213599261520045 0 -1 0 0
1790 1 76.7739851192935 5.276854179467001 1.088599612095999 -1 0 0
1796 3 78.6021326881175 4.2213599261520045 0 -1 0 0
1798 1 80.4298954852065 5.276854179467001 1.088599612095999 -1 0 0
1804 3 82.25804305403051 4.2213599261520045 0 -1 0 0
1806 1 84.0858058511195 5.276854179467001 1.088599612095999 -1 0 0
1812 3 85.91395341994351 4.2213599261520045 0 -1 0 0
1814 1 87.74171621703249 5.276854179467001 1.088599612095999 -1 0 0
1820 3 89.5698637858565 4.2213599261520045 0 -1 0 0
1822 1 91.39762658294549 5.276854179467001 1.088599612095999 -1 0 0
1828 3 93.2257741517695 4.2213599261520045 0 -1 0 0
1830 1 95.0535369488585 5.276854179467001 1.088599612095999 -1 0 0
1836 3 96.8816845176825 4.2213599261520045 0 -1 0 0
1838 1 98.7094473147715 5.276854179467001 1.088599612095999 -1 0 0
2051 3 5.982600849563369e-05 7.387488672247002 0 0 0 0
2059 3 3.6559701919214973 7.387488672247002 0 0 0 0
2067 3 7.311880557834499 7.387488672247002 0 0 0 0
2075 3 10.9677909237475 7.387488672247002 0 0 0 0
2083 3 14.623701289660495 7.387488672247002 0 0 0 0
2091 3 18.279611655573497 7.387488672247002 0 0 0 0
2099 3 21.9355220214865 7.387488672247002 0 0 0 0
2107 3 25.5914323873995 7.387488672247002 0 0 0 0
2115 3 29.247342753312502 7.387488672247002 0 0 0 0
2123 3 32.903253119225504 7.387488672247002 0 0 0 0
2131 3 36.55916348513849 7.387488672247002 0 0 0 0
2139 3 40.21507385105149 7.387488672247002 0 0 0 0
2147 3 43.870984216964494 7.387488672247002 0 0 0 0
2155 3 47.526894582877496 7.387488672247002 0 0 0 0
1947 3 51.1828049487905 7.387488672247002 0 -1 0 0
1955 3 54.8387153147035 7.387488672247002 0 -1 0 0
1963 3 58.4946256806165 7.387488672247002 0 -1 0 0
1971 3 62.1505360465295 7.387488672247002 0 -1 0 0
1979 3 65.8064464124425 7.387488672247002 0 -1 0 0
1987 3 69.4623567783555 7.387488672247002 0 -1 0 0
1995 3 73.1182671442685 7.387488672247002 0 -1 0 0
2003 3 76.7741775101815 7.387488672247002 0 -1 0 0
2011 3 80.4300878760945 7.387488672247002 0 -1 0 0
2019 3 84.08599824200749 7.387488672247002 0 -1 0 0
2027 3 87.7419086079205 7.387488672247002 0 -1 0 0
2035 3 91.3978189738335 7.387488672247002 0 -1 0 0
2043 3 95.0537293397465 7.387488672247002 0 -1 0 0
2053 1 1.8278226230974965 8.442982925562 1.088599612095999 0 0 0
2061 1 5.483732989010498 8.442982925562 1.088599612095999 0 0 0
2069 1 9.1396433549235 8.442982925562 1.088599612095999 0 0 0
2077 1 12.795553720836494 8.442982925562 1.088599612095999 0 0 0
2085 1 16.451464086749503 8.442982925562 1.088599612095999 0 0 0
2093 1 20.107374452662505 8.442982925562 1.088599612095999 0 0 0
2101 1 23.763284818575492 8.442982925562 1.088599612095999 0 0 0
2109 1 27.419195184488494 8.442982925562 1.088599612095999 0 0 0
2117 1 31.075105550401496 8.442982925562 1.088599612095999 0 0 0
2125 1 34.7310159163145 8.442982925562 1.088599612095999 0 0 0
2133 1 38.3869262822275 8.442982925562 1.088599612095999 0 0 0
2141 1 42.0428366481405 8.442982925562 1.088599612095999 0 0 0
2149 1 45.6987470140535 8.442982925562 1.088599612095999 0 0 0
2157 1 49.354657379966504 8.442982925562 1.088599612095999 0 0 0
1949 1 53.0105677458795 8.442982925562 1.088599612095999 -1 0 0
1957 1 56.6664781117925 8.442982925562 1.088599612095999 -1 0 0
1965 1 60.3223884777055 8.442982925562 1.088599612095999 -1 0 0
1973 1 63.978298843618504 8.442982925562 1.088599612095999 -1 0 0
1981 1 67.6342092095315 8.442982925562 1.088599612095999 -1 0 0
1989 1 71.29011957544449 8.442982925562 1.088599612095999 -1 0 0
1997 1 74.9460299413575 8.442982925562 1.088599612095999 -1 0 0
2005 1 78.6019403072705 8.442982925562 1.088599612095999 -1 0 0
2013 1 82.2578506731835 8.442982925562 1.088599612095999 -1 0 0
2021 1 85.9137610390965 8.442982925562 1.088599612095999 -1 0 0
2029 1 89.5696714050095 8.442982925562 1.088599612095999 -1 0 0
2037 1 93.2255817709225 8.442982925562 1.088599612095999 -1 0 0
2045 1 96.8814921368355 8.442982925562 1.088599612095999 -1 0 0
2060 3 1.8280150039445004 10.553617418342 0 0 0 0
2068 3 5.483925369857495 10.553617418342 0 0 0 0
2076 3 9.139835735770497 10.553617418342 0 0 0 0
2084 3 12.795746101683498 10.553617418342 0 0 0 0
2092 3 16.4516564675965 10.553617418342 0 0 0 0
2100 3 20.1075668335095 10.553617418342 0 0 0 0
2108 3 23.763477199422503 10.553617418342 0 0 0 0
2116 3 27.419387565335505 10.553617418342 0 0 0 0
2124 3 31.075297931248492 10.553617418342 0 0 0 0
2132 3 34.731208297161494 10.553617418342 0 0 0 0
2140 3 38.387118663074496 10.553617418342 0 0 0 0
2148 3 42.0430290289875 10.553617418342 0 0 0 0
2156 3 45.6989393949005 10.553617418342 0 0 0 0
1948 3 49.3548497608135 10.553617418342 0 -1 0 0
1956 3 53.0107601267265 10.553617418342 0 -1 0 0
1964 3 56.6666704926395 10.553617418342 0 -1 0 0
1972 3 60.3225808585525 10.553617418342 0 -1 0 0
1980 3 63.9784912244655 10.553617418342 0 -1 0 0
1988 3 67.6344015903785 10.553617418342 0 -1 0 0
1996 3 71.2903119562915 10.553617418342 0 -1 0 0
2004 3 74.9462223222045 10.553617418342 0 -1 0 0
2012 3 78.6021326881175 10.553617418342 0 -1 0 0
2020 3 82.25804305403051 10.553617418342 0 -1 0 0
2028 3 85.91395341994351 10.553617418342 0 -1 0 0
2036 3 89.5698637858565 10.553617418342 0 -1 0 0
2044 3 93.2257741517695 10.553617418342 0 -1 0 0
2052 3 96.8816845176825 10.553617418342 0 -1 0 0
2062 1 3.6557778010335014 11.609111671657004 1.088599612095999 0 0 0
2070 1 7.311688166946496 11.609111671657004 1.088599612095999 0 0 0
2078 1 10.967598532859498 11.609111671657004 1.088599612095999 0 0 0
2086 1 14.6235088987725 11.609111671657004 1.088599612095999 0 0 0
2094 1 18.279419264685494 11.609111671657004 1.088599612095999 0 0 0
2102 1 21.935329630598495 11.609111671657004 1.088599612095999 0 0 0
2110 1 25.591239996511497 11.609111671657004 1.088599612095999 0 0 0
2118 1 29.2471503624245 11.609111671657004 1.088599612095999 0 0 0
2126 1 32.9030607283375 11.609111671657004 1.088599612095999 0 0 0
2134 1 36.5589710942505 11.609111671657004 1.088599612095999 0 0 0
2142 1 40.214881460163504 11.609111671657004 1.088599612095999 0 0 0
2150 1 43.87079182607649 11.609111671657004 1.088599612095999 0 0 0
2158 1 47.52670219198949 11.609111671657004 1.088599612095999 0 0 0
1950 1 51.1826125579025 11.609111671657004 1.088599612095999 -1 0 0
1958 1 54.8385229238155 11.609111671657004 1.088599612095999 -1 0 0
1966 1 58.4944332897285 11.609111671657004 1.088599612095999 -1 0 0
1974 1 62.1503436556415 11.609111671657004 1.088599612095999 -1 0 0
1982 1 65.80625402155451 11.609111671657004 1.088599612095999 -1 0 0
1990 1 69.4621643874675 11.609111671657004 1.088599612095999 -1 0 0
1998 1 73.1180747533805 11.609111671657004 1.088599612095999 -1 0 0
2006 1 76.7739851192935 11.609111671657004 1.088599612095999 -1 0 0
2014 1 80.4298954852065 11.609111671657004 1.088599612095999 -1 0 0
2022 1 84.0858058511195 11.609111671657004 1.088599612095999 -1 0 0
2030 1 87.74171621703249 11.609111671657004 1.088599612095999 -1 0 0
2038 1 91.39762658294549 11.609111671657004 1.088599612095999 -1 0 0
2046 1 95.0535369488585 11.609111671657004 1.088599612095999 -1 0 0
2054 1 98.7094473147715 11.609111671657004 1.088599612095999 -1 0 0
2267 3 5.982600849563369e-05 13.719746164436998 0 0 0 0
2269 1 1.8278226230974965 14.775240417752002 1.088599612095999 0 0 0
2275 3 3.6559701919214973 13.719746164436998 0 0 0 0
2277 1 5.483732989010498 14.775240417752002 1.088599612095999 0 0 0
2283 3 7.311880557834499 13.719746164436998 0 0 0 0
2285 1 9.1396433549235 14.775240417752002 1.088599612095999 0 0 0
2291 3 10.9677909237475 13.719746164436998 0 0 0 0
2293 1 12.795553720836494 14.775240417752002 1.088599612095999 0 0 0
2299 3 14.623701289660495 13.719746164436998 0 0 0 0
2301 1 16.451464086749503 14.775240417752002 1.088599612095999 0 0 0
2307 3 18.279611655573497 13.719746164436998 0 0 0 0
2309 1 20.107374452662505 14.775240417752002 1.088599612095999 0 0 0
2315 3 21.9355220214865 13.719746164436998 0 0 0 0
2317 1 23.763284818575492 14.775240417752002 1.088599612095999 0 0 0
2323 3 25.5914323873995 13.719746164436998 0 0 0 0
2325 1 27.419195184488494 14.775240417752002 1.088599612095999 0 0 0
2331 3 29.247342753312502 13.719746164436998 0 0 0 0
2333 1 31.075105550401496 14.775240417752002 1.088599612095999 0 0 0
2339 3 32.903253119225504 13.719746164436998 0 0 0 0
2341 1 34.7310159163145 14.775240417752002 1.088599612095999 0 0 0
2347 3 36.55916348513849 13.719746164436998 0 0 0 0
2349 1 38.3869262822275 14.775240417752002 1.088599612095999 0 0 0
2355 3 40.21507385105149 13.719746164436998 0 0 0 0
2357 1 42.0428366481405 14.775240417752002 1.088599612095999 0 0 0
2363 3 43.870984216964494 13.719746164436998 0 0 0 0
2365 1 45.6987470140535 14.775240417752002 1.088599612095999 0 0 0
2371 3 47.526894582877496 13.719746164436998 0 0 0 0
2373 1 49.354657379966504 14.775240417752002 1.088599612095999 0 0 0
2163 3 51.1828049487905 13.719746164436998 0 -1 0 0
2165 1 53.0105677458795 14.775240417752002 1.088599612095999 -1 0 0
2171 3 54.8387153147035 13.719746164436998 0 -1 0 0
2173 1 56.6664781117925 14.775240417752002 1.088599612095999 -1 0 0
2179 3 58.4946256806165 13.719746164436998 0 -1 0 0
2181 1 60.3223884777055 14.775240417752002 1.088599612095999 -1 0 0
2187 3 62.1505360465295 13.719746164436998 0 -1 0 0
2189 1 63.978298843618504 14.775240417752002 1.088599612095999 -1 0 0
2195 3 65.8064464124425 13.719746164436998 0 -1 0 0
2197 1 67.6342092095315 14.775240417752002 1.088599612095999 -1 0 0
2203 3 69.4623567783555 13.719746164436998 0 -1 0 0
2205 1 71.29011957544449 14.775240417752002 1.088599612095999 -1 0 0
2211 3 73.1182671442685 13.719746164436998 0 -1 0 0
2213 1 74.9460299413575 14.775240417752002 1.088599612095999 -1 0 0
2219 3 76.7741775101815 13.719746164436998 0 -1 0 0
2221 1 78.6019403072705 14.775240417752002 1.088599612095999 -1 0 0
2227 3 80.4300878760945 13.719746164436998 0 -1 0 0
2229 1 82.2578506731835 14.775240417752002 1.088599612095999 -1 0 0
2235 3 84.08599824200749 13.719746164436998 0 -1 0 0
2237 1 85.9137610390965 14.775240417752002 1.088599612095999 -1 0 0
2243 3 87.7419086079205 13.719746164436998 0 -1 0 0
2245 1 89.5696714050095 14.775240417752002 1.088599612095999 -1 0 0
2251 3 91.3978189738335 13.719746164436998 0 -1 0 0
2253 1 93.2255817709225 14.775240417752002 1.088599612095999 -1 0 0
2259 3 95.0537293397465 13.719746164436998 0 -1 0 0
2261 1 96.8814921368355 14.775240417752002 1.088599612095999 -1 0 0
2276 3 1.8280150039445004 16.885874910531996 0 0 0 0
2284 3 5.483925369857495 16.885874910531996 0 0 0 0
2292 3 9.139835735770497 16.885874910531996 0 0 0 0
2300 3 12.795746101683498 16.885874910531996 0 0 0 0
2308 3 16.4516564675965 16.885874910531996 0 0 0 0
2316 3 20.1075668335095 16.885874910531996 0 0 0 0
2324 3 23.763477199422503 16.885874910531996 0 0 0 0
2332 3 27.419387565335505 16.885874910531996 0 0 0 0
2340 3 31.075297931248492 16.885874910531996 0 0 0 0
2348 3 34.731208297161494 16.885874910531996 0 0 0 0
2356 3 38.387118663074496 16.885874910531996 0 0 0 0
2364 3 42.0430290289875 16.885874910531996 0 0 0 0
2372 3 45.6989393949005 16.885874910531996 0 0 0 0
2164 3 49.3548497608135 16.885874910531996 0 -1 0 0
2172 3 53.0107601267265 16.885874910531996 0 -1 0 0
2180 3 56.6666704926395 16.885874910531996 0 -1 0 0
2188 3 60.3225808585525 16.885874910531996 0 -1 0 0
2196 3 63.9784912244655 16.885874910531996 0 -1 0 0
2204 3 67.6344015903785 16.885874910531996 0 -1 0 0
2212 3 71.2903119562915 16.885874910531996 0 -1 0 0
2220 3 74.9462223222045 16.885874910531996 0 -1 0 0
2228 3 78.6021326881175 16.885874910531996 0 -1 0 0
2236 3 82.25804305403051 16.885874910531996 0 -1 0 0
2244 3 85.91395341994351 16.885874910531996 0 -1 0 0
2252 3 89.5698637858565 16.885874910531996 0 -1 0 0
2260 3 93.2257741517695 16.885874910531996 0 -1 0 0
2268 3 96.8816845176825 16.885874910531996 0 -1 0 0
2278 1 3.6557778010335014 17.941369163847 1.088599612095999 0 0 0
2286 1 7.311688166946496 17.941369163847 1.088599612095999 0 0 0
2294 1 10.967598532859498 17.941369163847 1.088599612095999 0 0 0
2302 1 14.6235088987725 17.941369163847 1.088599612095999 0 0 0
2310 1 18.279419264685494 17.941369163847 1.088599612095999 0 0 0
2318 1 21.935329630598495 17.941369163847 1.088599612095999 0 0 0
2326 1 25.591239996511497 17.941369163847 1.088599612095999 0 0 0
2334 1 29.2471503624245 17.941369163847 1.088599612095999 0 0 0
2342 1 32.9030607283375 17.941369163847 1.088599612095999 0 0 0
2350 1 36.5589710942505 17.941369163847 1.088599612095999 0 0 0
2358 1 40.214881460163504 17.941369163847 1.088599612095999 0 0 0
2366 1 43.87079182607649 17.941369163847 1.088599612095999 0 0 0
2374 1 47.52670219198949 17.941369163847 1.088599612095999 0 0 0
2166 1 51.1826125579025 17.941369163847 1.088599612095999 -1 0 0
2174 1 54.8385229238155 17.941369163847 1.088599612095999 -1 0 0
2182 1 58.4944332897285 17.941369163847 1.088599612095999 -1 0 0
2190 1 62.1503436556415 17.941369163847 1.088599612095999 -1 0 0
2198 1 65.80625402155451 17.941369163847 1.088599612095999 -1 0 0
2206 1 69.4621643874675 17.941369163847 1.088599612095999 -1 0 0
2214 1 73.1180747533805 17.941369163847 1.088599612095999 -1 0 0
2222 1 76.7739851192935 17.941369163847 1.088599612095999 -1 0 0
2230 1 80.4298954852065 17.941369163847 1.088599612095999 -1 0 0
2238 1 84.0858058511195 17.941369163847 1.088599612095999 -1 0 0
2246 1 87.74171621703249 17.941369163847 1.088599612095999 -1 0 0
2254 1 91.39762658294549 17.941369163847 1.088599612095999 -1 0 0
2262 1 95.0535369488585 17.941369163847 1.088599612095999 -1 0 0
2270 1 98.7094473147715 17.941369163847 1.088599612095999 -1 0 0
2483 3 5.982600849563369e-05 20.052003656627008 0 0 0 0
2491 3 3.6559701919214973 20.052003656627008 0 0 0 0
2499 3 7.311880557834499 20.052003656627008 0 0 0 0
2507 3 10.9677909237475 20.052003656627008 0 0 0 0
2515 3 14.623701289660495 20.052003656627008 0 0 0 0
2523 3 18.279611655573497 20.052003656627008 0 0 0 0
2531 3 21.9355220214865 20.052003656627008 0 0 0 0
2539 3 25.5914323873995 20.052003656627008 0 0 0 0
2547 3 29.247342753312502 20.052003656627008 0 0 0 0
2555 3 32.903253119225504 20.052003656627008 0 0 0 0
2563 3 36.55916348513849 20.052003656627008 0 0 0 0
2571 3 40.21507385105149 20.052003656627008 0 0 0 0
2579 3 43.870984216964494 20.052003656627008 0 0 0 0
2587 3 47.526894582877496 20.052003656627008 0 0 0 0
2379 3 51.1828049487905 20.052003656627008 0 -1 0 0
2387 3 54.8387153147035 20.052003656627008 0 -1 0 0
2395 3 58.4946256806165 20.052003656627008 0 -1 0 0
2403 3 62.1505360465295 20.052003656627008 0 -1 0 0
2411 3 65.8064464124425 20.052003656627008 0 -1 0 0
2419 3 69.4623567783555 20.052003656627008 0 -1 0 0
2427 3 73.1182671442685 20.052003656627008 0 -1 0 0
2435 3 76.7741775101815 20.052003656627008 0 -1 0 0
2443 3 80.4300878760945 20.052003656627008 0 -1 0 0
2451 3 84.08599824200749 20.052003656627008 0 -1 0 0
2459 3 87.7419086079205 20.052003656627008 0 -1 0 0
2467 3 91.3978189738335 20.052003656627008 0 -1 0 0
2475 3 95.0537293397465 20.052003656627008 0 -1 0 0
2485 1 1.8278226230974965 21.107497909941998 1.088599612095999 0 0 0
2493 1 5.483732989010498 21.107497909941998 1.088599612095999 0 0 0
2501 1 9.1396433549235 21.107497909941998 1.088599612095999 0 0 0
2509 1 12.795553720836494 21.107497909941998 1.088599612095999 0 0 0
2517 1 16.451464086749503 21.107497909941998 1.088599612095999 0 0 0
2525 1 20.107374452662505 21.107497909941998 1.088599612095999 0 0 0
2533 1 23.763284818575492 21.107497909941998 1.088599612095999 0 0 0
2541 1 27.419195184488494 21.107497909941998 1.088599612095999 0 0 0
2549 1 31.075105550401496 21.107497909941998 1.088599612095999 0 0 0
2557 1 34.7310159163145 21.107497909941998 1.088599612095999 0 0 0
2565 1 38.3869262822275 21.107497909941998 1.088599612095999 0 0 0
2573 1 42.0428366481405 21.107497909941998 1.088599612095999 0 0 0
2581 1 45.6987470140535 21.107497909941998 1.088599612095999 0 0 0
2589 1 49.354657379966504 21.107497909941998 1.088599612095999 0 0 0
2381 1 53.0105677458795 21.107497909941998 1.088599612095999 -1 0 0
2389 1 56.6664781117925 21.107497909941998 1.088599612095999 -1 0 0
2397 1 60.3223884777055 21.107497909941998 1.088599612095999 -1 0 0
2405 1 63.978298843618504 21.107497909941998 1.088599612095999 -1 0 0
2413 1 67.6342092095315 21.107497909941998 1.088599612095999 -1 0 0
2421 1 71.29011957544449 21.107497909941998 1.088599612095999 -1 0 0
2429 1 74.9460299413575 21.107497909941998 1.088599612095999 -1 0 0
2437 1 78.6019403072705 21.107497909941998 1.088599612095999 -1 0 0
2445 1 82.2578506731835 21.107497909941998 1.088599612095999 -1 0 0
2453 1 85.9137610390965 21.107497909941998 1.088599612095999 -1 0 0
2461 1 89.5696714050095 21.107497909941998 1.088599612095999 -1 0 0
2469 1 93.2255817709225 21.107497909941998 1.088599612095999 -1 0 0
2477 1 96.8814921368355 21.107497909941998 1.088599612095999 -1 0 0
2492 3 1.8280150039445004 23.218132402722006 0 0 0 0
2494 1 3.6557778010335014 24.273626656036996 1.088599612095999 0 0 0
2500 3 5.483925369857495 23.218132402722006 0 0 0 0
2502 1 7.311688166946496 24.273626656036996 1.088599612095999 0 0 0
2508 3 9.139835735770497 23.218132402722006 0 0 0 0
2510 1 10.967598532859498 24.273626656036996 1.088599612095999 0 0 0
2516 3 12.795746101683498 23.218132402722006 0 0 0 0
2518 1 14.6235088987725 24.273626656036996 1.088599612095999 0 0 0
2524 3 16.4516564675965 23.218132402722006 0 0 0 0
2526 1 18.279419264685494 24.273626656036996 1.088599612095999 0 0 0
2532 3 20.1075668335095 23.218132402722006 0 0 0 0
2534 1 21.935329630598495 24.273626656036996 1.088599612095999 0 0 0
2540 3 23.763477199422503 23.218132402722006 0 0 0 0
2542 1 25.591239996511497 24.273626656036996 1.088599612095999 0 0 0
2548 3 27.419387565335505 23.218132402722006 0 0 0 0
2550 1 29.2471503624245 24.273626656036996 1.088599612095999 0 0 0
2556 3 31.075297931248492 23.218132402722006 0 0 0 0
2558 1 32.9030607283375 24.273626656036996 1.088599612095999 0 0 0
2564 3 34.731208297161494 23.218132402722006 0 0 0 0
2566 1 36.5589710942505 24.273626656036996 1.088599612095999 0 0 0
2572 3 38.387118663074496 23.218132402722006 0 0 0 0
2574 1 40.214881460163504 24.273626656036996 1.088599612095999 0 0 0
2580 3 42.0430290289875 23.218132402722006 0 0 0 0
2582 1 43.87079182607649 24.273626656036996 1.088599612095999 0 0 0
2588 3 45.6989393949005 23.218132402722006 0 0 0 0
2590 1 47.52670219198949 24.273626656036996 1.088599612095999 0 0 0
2380 3 49.3548497608135 23.218132402722006 0 -1 0 0
2382 1 51.1826125579025 24.273626656036996 1.088599612095999 -1 0 0
2388 3 53.0107601267265 23.218132402722006 0 -1 0 0
2390 1 54.8385229238155 24.273626656036996 1.088599612095999 -1 0 0
2396 3 56.6666704926395 23.218132402722006 0 -1 0 0
2398 1 58.4944332897285 24.273626656036996 1.088599612095999 -1 0 0
2404 3 60.3225808585525 23.218132402722006 0 -1 0 0
2406 1 62.1503436556415 24.273626656036996 1.088599612095999 -1 0 0
2412 3 63.9784912244655 23.218132402722006 0 -1 0 0
2414 1 65.80625402155451 24.273626656036996 1.088599612095999 -1 0 0
2420 3 67.6344015903785 23.218132402722006 0 -1 0 0
2422 1 69.4621643874675 24.273626656036996 1.088599612095999 -1 0 0
2428 3 71.2903119562915 23.218132402722006 0 -1 0 0
2430 1 73.1180747533805 24.273626656036996 1.088599612095999 -1 0 0
2436 3 74.9462223222045 23.218132402722006 0 -1 0 0
2438 1 76.7739851192935 24.273626656036996 1.088599612095999 -1 0 0
2444 3 78.6021326881175 23.218132402722006 0 -1 0 0
2446 1 80.4298954852065 24.273626656036996 1.088599612095999 -1 0 0
2452 3 82.25804305403051 23.218132402722006 0 -1 0 0
2454 1 84.0858058511195 24.273626656036996 1.088599612095999 -1 0 0
2460 3 85.91395341994351 23.218132402722006 0 -1 0 0
2462 1 87.74171621703249 24.273626656036996 1.088599612095999 -1 0 0
2468 3 89.5698637858565 23.218132402722006 0 -1 0 0
2470 1 91.39762658294549 24.273626656036996 1.088599612095999 -1 0 0
2476 3 93.2257741517695 23.218132402722006 0 -1 0 0
2478 1 95.0535369488585 24.273626656036996 1.088599612095999 -1 0 0
2484 3 96.8816845176825 23.218132402722006 0 -1 0 0
2486 1 98.7094473147715 24.273626656036996 1.088599612095999 -1 0 0
2699 3 5.982600849563369e-05 26.384261148817004 0 0 0 0
2701 1 1.8278226230974965 27.439755402132008 1.088599612095999 0 0 0
2707 3 3.6559701919214973 26.384261148817004 0 0 0 0
2709 1 5.483732989010498 27.439755402132008 1.088599612095999 0 0 0
2715 3 7.311880557834499 26.384261148817004 0 0 0 0
2717 1 9.1396433549235 27.439755402132008 1.088599612095999 0 0 0
2723 3 10.9677909237475 26.384261148817004 0 0 0 0
2725 1 12.795553720836494 27.439755402132008 1.088599612095999 0 0 0
2731 3 14.623701289660495 26.384261148817004 0 0 0 0
2733 1 16.451464086749503 27.439755402132008 1.088599612095999 0 0 0
2739 3 18.279611655573497 26.384261148817004 0 0 0 0
2741 1 20.107374452662505 27.439755402132008 1.088599612095999 0 0 0
2747 3 21.9355220214865 26.384261148817004 0 0 0 0
2749 1 23.763284818575492 27.439755402132008 1.088599612095999 0 0 0
2755 3 25.5914323873995 26.384261148817004 0 0 0 0
2757 1 27.419195184488494 27.439755402132008 1.088599612095999 0 0 0
2763 3 29.247342753312502 26.384261148817004 0 0 0 0
2765 1 31.075105550401496 27.439755402132008 1.088599612095999 0 0 0
2771 3 32.903253119225504 26.384261148817004 0 0 0 0
2773 1 34.7310159163145 27.439755402132008 1.088599612095999 0 0 0
2779 3 36.55916348513849 26.384261148817004 0 0 0 0
2781 1 38.3869262822275 27.439755402132008 1.088599612095999 0 0 0
2787 3 40.21507385105149 26.384261148817004 0 0 0 0
2789 1 42.0428366481405 27.439755402132008 1.088599612095999 0 0 0
2795 3 43.870984216964494 26.384261148817004 0 0 0 0
2797 1 45.6987470140535 27.439755402132008 1.088599612095999 0 0 0
2803 3 47.526894582877496 26.384261148817004 0 0 0 0
2805 1 49.354657379966504 27.439755402132008 1.088599612095999 0 0 0
2595 3 51.1828049487905 26.384261148817004 0 -1 0 0
2597 1 53.0105677458795 27.439755402132008 1.088599612095999 -1 0 0
2603 3 54.8387153147035 26.384261148817004 0 -1 0 0
2605 1 56.6664781117925 27.439755402132008 1.088599612095999 -1 0 0
2611 3 58.4946256806165 26.384261148817004 0 -1 0 0
2613 1 60.3223884777055 27.439755402132008 1.088599612095999 -1 0 0
2619 3 62.1505360465295 26.384261148817004 0 -1 0 0
2621 1 63.978298843618504 27.439755402132008 1.088599612095999 -1 0 0
2627 3 65.8064464124425 26.384261148817004 0 -1 0 0
2629 1 67.6342092095315 27.439755402132008 1.088599612095999 -1 0 0
2635 3 69.4623567783555 26.384261148817004 0 -1 0 0
2637 1 71.29011957544449 27.439755402132008 1.088599612095999 -1 0 0
2643 3 73.1182671442685 26.384261148817004 0 -1 0 0
2645 1 74.9460299413575 27.439755402132008 1.088599612095999 -1 0 0
2651 3 76.7741775101815 26.384261148817004 0 -1 0 0
2653 1 78.6019403072705 27.439755402132008 1.088599612095999 -1 0 0
2659 3 80.4300878760945 26.384261148817004 0 -1 0 0
2661 1 82.2578506731835 27.439755402132008 1.088599612095999 -1 0 0
2667 3 84.08599824200749 26.384261148817004 0 -1 0 0
2669 1 85.9137610390965 27.439755402132008 1.088599612095999 -1 0 0
2675 3 87.7419086079205 26.384261148817004 0 -1 0 0
2677 1 89.5696714050095 27.439755402132008 1.088599612095999 -1 0 0
2683 3 91.3978189738335 26.384261148817004 0 -1 0 0
2685 1 93.2255817709225 27.439755402132008 1.088599612095999 -1 0 0
2691 3 95.0537293397465 26.384261148817004 0 -1 0 0
2693 1 96.8814921368355 27.439755402132008 1.088599612095999 -1 0 0
2708 3 1.8280150039445004 29.550389894912 0 0 0 0
2716 3 5.483925369857495 29.550389894912 0 0 0 0
2724 3 9.139835735770497 29.550389894912 0 0 0 0
2732 3 12.795746101683498 29.550389894912 0 0 0 0
2740 3 16.4516564675965 29.550389894912 0 0 0 0
2748 3 20.1075668335095 29.550389894912 0 0 0 0
2756 3 23.763477199422503 29.550389894912 0 0 0 0
2764 3 27.419387565335505 29.550389894912 0 0 0 0
2772 3 31.075297931248492 29.550389894912 0 0 0 0
2780 3 34.731208297161494 29.550389894912 0 0 0 0
2788 3 38.387118663074496 29.550389894912 0 0 0 0
2796 3 42.0430290289875 29.550389894912 0 0 0 0
2804 3 45.6989393949005 29.550389894912 0 0 0 0
2596 3 49.3548497608135 29.550389894912 0 -1 0 0
2604 3 53.0107601267265 29.550389894912 0 -1 0 0
2612 3 56.6666704926395 29.550389894912 0 -1 0 0