LAMMPS data file via write_data, version 29 Aug 2024, timestep = 2, units = metal

7290 atoms
9 atom types

0 100.854973822086 xlo xhi
0 97.04774380881 ylo yhi
-50 50 zlo zhi

Masses

1 54.938044
2 54.938044
3 54.938044
4 127.6
5 127.6
6 127.6
7 127.6
8 127.6
9 127.6

Atoms # atomic

1385 1 1.867079661058802 3.234309822011116 1.5636147889771022 0 0 0
1222 5 3.7353539754973712 2.1566209810169634 0.03644047030331591 0 0 0
1391 1 5.602449061876803 3.234309822011116 1.5636147889771022 0 0 0
1383 5 1.8676692750883708 5.391545774643965 0.03644047030331497 0 0 0
1389 5 5.603038675906372 5.391545774643965 0.03644047030331491 0 0 0
1228 5 7.470723376315373 2.1566209810169634 0.03644047030331595 0 0 0
1397 1 9.337818462694806 3.234309822011116 1.5636147889771022 0 0 0
1234 5 11.206092777133374 2.1566209810169634 0.03644047030331578 0 0 0
1395 5 9.338408076724374 5.391545774643965 0.036440470303315015 0 0 0
1403 1 13.073187863512803 3.234309822011116 1.563614788977102 0 0 0
1240 5 14.94146217795137 2.156620981016963 0.036440470303315035 0 0 0
1409 1 16.8085572643308 3.234309822011116 1.5636147889771024 0 0 0
1401 5 13.073777477542373 5.391545774643964 0.036440470303313884 0 0 0
1407 5 16.80914687836037 5.391545774643965 0.03644047030331496 0 0 0
1246 5 18.67683157876937 2.1566209810169634 0.03644047030331593 0 0 0
1415 1 20.543926665148803 3.234309822011116 1.5636147889771022 0 0 0
1252 5 22.41220097958737 2.1566209810169634 0.03644047030331592 0 0 0
1413 5 20.54451627917837 5.391545774643965 0.03644047030331495 0 0 0
1421 1 24.279296065966804 3.234309822011116 1.5636147889771022 0 0 0
1258 5 26.147570380405373 2.1566209810169634 0.03644047030331592 0 0 0
1427 1 28.014665466784805 3.234309822011116 1.5636147889771022 0 0 0
1419 5 24.279885679996372 5.391545774643965 0.03644047030331495 0 0 0
1425 5 28.015255080814374 5.391545774643965 0.03644047030331495 0 0 0
1264 5 29.882939781223374 2.1566209810169634 0.03644047030331592 0 0 0
1433 1 31.750034867602807 3.234309822011116 1.563614788977102 0 0 0
1270 5 33.61830918204137 2.1566209810169634 0.03644047030331563 0 0 0
1439 1 35.48540426842081 3.234309822011116 1.5636147889771022 0 0 0
1431 5 31.750624481632375 5.391545774643965 0.03644047030331466 0 0 0
1437 5 35.48599388245037 5.391545774643965 0.0364404703033149 0 0 0
1276 5 37.353678582859374 2.1566209810169634 0.03644047030331592 0 0 0
1445 1 39.22077366923881 3.234309822011116 1.5636147889771022 0 0 0
1282 5 41.089047983677375 2.1566209810169634 0.036440470303316215 0 0 0
1443 5 39.221363283268374 5.391545774643965 0.03644047030331492 0 0 0
1451 1 42.956143070056804 3.234309822011116 1.563614788977102 0 0 0
1288 5 44.82441738449537 2.1566209810169616 0.0364404703033136 0 0 0
1457 1 46.6915124708748 3.234309822011116 1.5636147889771022 0 0 0
1449 5 42.956732684086376 5.391545774643963 0.03644047030331312 0 0 0
1455 5 46.69210208490436 5.391545774643965 0.0364404703033147 0 0 0
1294 5 48.559786785313364 2.1566209810169634 0.03644047030331594 0 0 0
1301 1 50.4268818716928 3.234309822011116 1.5636147889771022 -1 0 0
1138 5 52.295156186131365 2.1566209810169634 0.03644047030331592 -1 0 0
1299 5 50.427471485722364 5.391545774643965 0.03644047030331489 -1 0 0
1307 1 54.1622512725108 3.234309822011116 1.5636147889771022 -1 0 0
1144 5 56.030525586949366 2.1566209810169634 0.03644047030331606 -1 0 0
1313 1 57.8976206733288 3.234309822011116 1.5636147889771022 -1 0 0
1305 5 54.162840886540366 5.391545774643965 0.03644047030331491 -1 0 0
1311 5 57.89821028735837 5.391545774643964 0.036440470303314314 -1 0 0
1150 5 59.76589498776736 2.1566209810169625 0.03644047030331475 -1 0 0
1319 1 61.6329900741468 3.234309822011116 1.5636147889771024 -1 0 0
1156 5 63.50126438858536 2.1566209810169634 0.03644047030331592 -1 0 0
1317 5 61.63357968817636 5.391545774643965 0.036440470303314564 -1 0 0
1325 1 65.36835947496479 3.234309822011116 1.5636147889771022 -1 0 0
1162 5 67.23663378940337 2.1566209810169634 0.03644047030331592 -1 0 0
1331 1 69.10372887578279 3.234309822011116 1.5636147889771022 -1 0 0
1168 5 70.97200319022137 2.1566209810169634 0.03644047030331592 -1 0 0
1323 5 65.36894908899437 5.391545774643965 0.03644047030331489 -1 0 0
1329 5 69.10431848981237 5.391545774643965 0.0364404703033149 -1 0 0
1337 1 72.8390982766008 3.234309822011116 1.5636147889771022 -1 0 0
1174 5 74.70737259103937 2.1566209810169634 0.03644047030331592 -1 0 0
1343 1 76.5744676774188 3.234309822011116 1.5636147889771022 -1 0 0
1335 5 72.83968789063037 5.391545774643965 0.0364404703033149 -1 0 0
1341 5 76.57505729144837 5.391545774643965 0.0364404703033149 -1 0 0
1180 5 78.44274199185737 2.1566209810169634 0.03644047030331592 -1 0 0
1349 1 80.3098370782368 3.234309822011116 1.5636147889771022 -1 0 0
1186 5 82.17811139267538 2.1566209810169634 0.03644047030331592 -1 0 0
1347 5 80.31042669226638 5.391545774643965 0.0364404703033149 -1 0 0
1355 1 84.0452064790548 3.234309822011116 1.563614788977102 -1 0 0
1192 5 85.91348079349338 2.1566209810169634 0.03644047030331592 -1 0 0
1361 1 87.7805758798728 3.234309822011116 1.563614788977102 -1 0 0
1353 5 84.04579609308438 5.391545774643965 0.0364404703033149 -1 0 0
1359 5 87.78116549390238 5.391545774643965 0.0364404703033149 -1 0 0
1198 5 89.64885019431138 2.1566209810169634 0.03644047030331592 -1 0 0
1367 1 91.5159452806908 3.234309822011116 1.563614788977102 -1 0 0
1204 5 93.38421959512938 2.1566209810169634 0.03644047030331594 -1 0 0
1365 5 91.51653489472038 5.391545774643965 0.0364404703033149 -1 0 0
1216 5 100.85495839676537 2.156620981016963 0.036440470303315334 -1 0 0
1373 1 95.2513146815088 3.234309822011116 1.5636147889771022 -1 0 0
1210 5 97.11958899594738 2.156620981016962 0.03644047030331463 -1 0 0
1379 1 98.9866840823268 3.234309822011116 1.563614788977102 -1 0 0
1371 5 95.25190429553838 5.391545774643965 0.03644047030331518 -1 0 0
1377 5 98.98727369635637 5.391545774643963 0.036440470303312766 -1 0 0
1386 1 3.7347643614678026 6.469234615638117 1.5636147889771013 0 0 0
1384 5 3.7353539754973712 8.626470568270964 0.03644047030331428 0 0 0
1547 1 1.867079661058802 9.704159409265115 1.563614788977102 0 0 0
1553 1 5.602449061876803 9.704159409265115 1.5636147889771022 0 0 0
1392 1 7.470133762285804 6.469234615638117 1.5636147889771013 0 0 0
1398 1 11.205503163103806 6.469234615638117 1.5636147889771013 0 0 0
1390 5 7.470723376315373 8.626470568270964 0.03644047030331437 0 0 0
1396 5 11.206092777133374 8.626470568270964 0.03644047030331419 0 0 0
1559 1 9.337818462694806 9.704159409265115 1.563614788977102 0 0 0
1404 1 14.940872563921802 6.469234615638117 1.5636147889771015 0 0 0
1402 5 14.94146217795137 8.626470568270964 0.036440470303313294 0 0 0
1565 1 13.073187863512803 9.704159409265115 1.563614788977102 0 0 0
1571 1 16.8085572643308 9.704159409265115 1.5636147889771022 0 0 0
1410 1 18.676241964739802 6.469234615638117 1.5636147889771015 0 0 0
1416 1 22.411611365557803 6.469234615638117 1.5636147889771013 0 0 0
1408 5 18.67683157876937 8.626470568270964 0.0364404703033143 0 0 0
1414 5 22.41220097958737 8.626470568270964 0.036440470303314286 0 0 0
1577 1 20.543926665148803 9.704159409265115 1.5636147889771022 0 0 0
1422 1 26.146980766375805 6.469234615638117 1.5636147889771013 0 0 0
1420 5 26.147570380405373 8.626470568270964 0.036440470303314286 0 0 0
1583 1 24.279296065966804 9.704159409265115 1.5636147889771022 0 0 0
1589 1 28.014665466784805 9.704159409265115 1.5636147889771022 0 0 0
1428 1 29.882350167193806 6.469234615638117 1.5636147889771013 0 0 0
1434 1 33.61771956801181 6.469234615638117 1.5636147889771013 0 0 0
1426 5 29.882939781223374 8.626470568270964 0.036440470303314286 0 0 0
1432 5 33.61830918204137 8.626470568270964 0.03644047030331405 0 0 0
1595 1 31.750034867602807 9.704159409265115 1.5636147889771022 0 0 0
1601 1 35.48540426842081 9.704159409265115 1.563614788977102 0 0 0
1440 1 37.35308896882981 6.469234615638117 1.5636147889771013 0 0 0
1446 1 41.08845836964781 6.469234615638117 1.5636147889771006 0 0 0
1438 5 37.353678582859374 8.626470568270964 0.03644047030331437 0 0 0
1444 5 41.089047983677375 8.626470568270966 0.03644047030331461 0 0 0
1607 1 39.22077366923881 9.704159409265115 1.563614788977102 0 0 0
1452 1 44.8238277704658 6.469234615638117 1.5636147889771017 0 0 0
1450 5 44.82441738449537 8.626470568270964 0.036440470303312 0 0 0
1613 1 42.956143070056804 9.704159409265115 1.563614788977102 0 0 0
1619 1 46.6915124708748 9.704159409265115 1.563614788977102 0 0 0
1458 1 48.5591971712838 6.469234615638117 1.5636147889771015 0 0 0
1302 1 52.2945665721018 6.469234615638117 1.5636147889771015 -1 0 0
1456 5 48.559786785313364 8.626470568270964 0.03644047030331439 0 0 0
1300 5 52.295156186131365 8.626470568270964 0.036440470303314376 -1 0 0
1463 1 50.4268818716928 9.704159409265115 1.563614788977102 -1 0 0
1308 1 56.0299359729198 6.469234615638117 1.5636147889771015 -1 0 0
1306 5 56.030525586949366 8.626470568270964 0.036440470303314515 -1 0 0
1469 1 54.1622512725108 9.704159409265115 1.563614788977102 -1 0 0
1475 1 57.8976206733288 9.704159409265115 1.563614788977102 -1 0 0
1314 1 59.765305373737796 6.469234615638117 1.5636147889771013 -1 0 0
1320 1 63.5006747745558 6.469234615638117 1.5636147889771015 -1 0 0
1312 5 59.76589498776736 8.626470568270964 0.036440470303313065 -1 0 0
1318 5 63.50126438858536 8.626470568270964 0.036440470303314376 -1 0 0
1481 1 61.6329900741468 9.704159409265115 1.5636147889771022 -1 0 0
1326 1 67.23604417537379 6.469234615638117 1.5636147889771015 -1 0 0
1332 1 70.9714135761918 6.469234615638117 1.5636147889771013 -1 0 0
1324 5 67.23663378940337 8.626470568270964 0.036440470303314376 -1 0 0
1330 5 70.97200319022137 8.626470568270964 0.036440470303314376 -1 0 0
1487 1 65.36835947496479 9.704159409265115 1.563614788977102 -1 0 0
1493 1 69.10372887578279 9.704159409265115 1.563614788977102 -1 0 0
1338 1 74.7067829770098 6.469234615638117 1.5636147889771013 -1 0 0
1336 5 74.70737259103937 8.626470568270964 0.036440470303314376 -1 0 0
1499 1 72.8390982766008 9.704159409265115 1.563614788977102 -1 0 0
1505 1 76.5744676774188 9.704159409265115 1.563614788977102 -1 0 0
1344 1 78.4421523778278 6.469234615638117 1.5636147889771013 -1 0 0
1350 1 82.1775217786458 6.469234615638117 1.5636147889771013 -1 0 0
1342 5 78.44274199185737 8.626470568270964 0.036440470303314376 -1 0 0
1348 5 82.17811139267538 8.626470568270964 0.036440470303314376 -1 0 0
1511 1 80.3098370782368 9.704159409265115 1.563614788977102 -1 0 0
1356 1 85.9128911794638 6.469234615638117 1.5636147889771013 -1 0 0
1354 5 85.91348079349338 8.626470568270964 0.036440470303314376 -1 0 0
1517 1 84.0452064790548 9.704159409265115 1.563614788977102 -1 0 0
1523 1 87.7805758798728 9.704159409265115 1.563614788977102 -1 0 0
1362 1 89.6482605802818 6.469234615638117 1.5636147889771013 -1 0 0
1368 1 93.3836299810998 6.469234615638117 1.5636147889771013 -1 0 0
1360 5 89.64885019431138 8.626470568270964 0.036440470303314376 -1 0 0
1366 5 93.38421959512938 8.626470568270964 0.03644047030331439 -1 0 0
1529 1 91.5159452806908 9.704159409265115 1.563614788977102 -1 0 0
1380 1 100.85436878273579 6.469234615638117 1.5636147889771008 -1 0 0
1378 5 100.85495839676537 8.626470568270966 0.036440470303313724 -1 0 0
1374 1 97.1189993819178 6.469234615638117 1.5636147889771013 -1 0 0
1372 5 97.11958899594738 8.626470568270964 0.03644047030331304 -1 0 0
1535 1 95.2513146815088 9.704159409265115 1.563614788977102 -1 0 0
1541 1 98.9866840823268 9.704159409265115 1.5636147889771017 -1 0 0
1545 5 1.8676692750883708 11.861395361897964 0.03644047030331586 0 0 0
1548 1 3.734764361467803 12.939084202892115 1.5636147889771026 0 0 0
1551 5 5.6030386759063715 11.861395361897964 0.036440470303315785 0 0 0
1546 5 3.7353539754973712 15.09632015552496 0.036440470303314626 0 0 0
1709 1 1.8670796610588023 16.174008996519113 1.563614788977102 0 0 0
1715 1 5.602449061876803 16.174008996519113 1.563614788977102 0 0 0
1554 1 7.470133762285804 12.939084202892115 1.5636147889771026 0 0 0
1557 5 9.338408076724374 11.861395361897964 0.036440470303315944 0 0 0
1560 1 11.205503163103806 12.939084202892115 1.5636147889771028 0 0 0
1552 5 7.470723376315373 15.09632015552496 0.03644047030331473 0 0 0
1558 5 11.206092777133374 15.09632015552496 0.036440470303314494 0 0 0
1721 1 9.337818462694806 16.174008996519113 1.563614788977102 0 0 0
1563 5 13.073777477542373 11.861395361897964 0.03644047030331489 0 0 0
1566 1 14.940872563921802 12.939084202892115 1.5636147889771028 0 0 0
1569 5 16.80914687836037 11.861395361897964 0.03644047030331575 0 0 0
1564 5 14.94146217795137 15.09632015552496 0.036440470303313675 0 0 0
1727 1 13.073187863512803 16.174008996519113 1.563614788977102 0 0 0
1733 1 16.8085572643308 16.174008996519113 1.5636147889771022 0 0 0
1572 1 18.676241964739802 12.939084202892115 1.5636147889771026 0 0 0
1575 5 20.54451627917837 11.861395361897964 0.03644047030331584 0 0 0
1578 1 22.411611365557803 12.939084202892115 1.5636147889771026 0 0 0
1570 5 18.67683157876937 15.09632015552496 0.036440470303314654 0 0 0
1576 5 22.41220097958737 15.09632015552496 0.03644047030331464 0 0 0
1739 1 20.543926665148803 16.174008996519113 1.563614788977102 0 0 0
1581 5 24.279885679996372 11.861395361897964 0.03644047030331584 0 0 0
1584 1 26.146980766375805 12.939084202892115 1.5636147889771026 0 0 0
1587 5 28.015255080814374 11.861395361897964 0.03644047030331584 0 0 0
1582 5 26.147570380405373 15.09632015552496 0.03644047030331464 0 0 0
1745 1 24.279296065966804 16.174008996519113 1.563614788977102 0 0 0
1751 1 28.014665466784805 16.174008996519113 1.563614788977102 0 0 0
1590 1 29.882350167193806 12.939084202892115 1.5636147889771026 0 0 0
1593 5 31.750624481632375 11.861395361897964 0.036440470303315556 0 0 0
1596 1 33.61771956801181 12.939084202892115 1.5636147889771026 0 0 0
1599 5 35.48599388245037 11.861395361897964 0.03644047030331585 0 0 0
1588 5 29.882939781223374 15.09632015552496 0.03644047030331464 0 0 0
1594 5 33.61830918204137 15.09632015552496 0.03644047030331436 0 0 0
1757 1 31.750034867602807 16.174008996519113 1.563614788977102 0 0 0
1763 1 35.48540426842081 16.174008996519113 1.563614788977102 0 0 0
1602 1 37.35308896882981 12.939084202892115 1.5636147889771026 0 0 0
1605 5 39.221363283268374 11.861395361897964 0.03644047030331587 0 0 0
1608 1 41.08845836964781 12.939084202892115 1.5636147889771022 0 0 0
1600 5 37.353678582859374 15.09632015552496 0.03644047030331463 0 0 0
1606 5 41.089047983677375 15.096320155524962 0.036440470303314834 0 0 0
1769 1 39.22077366923881 16.174008996519113 1.563614788977102 0 0 0
1611 5 42.956732684086376 11.861395361897964 0.03644047030331404 0 0 0
1614 1 44.8238277704658 12.939084202892115 1.5636147889771033 0 0 0
1617 5 46.69210208490436 11.861395361897964 0.036440470303315625 0 0 0
1612 5 44.82441738449537 15.09632015552496 0.036440470303312315 0 0 0
1775 1 42.956143070056804 16.174008996519113 1.563614788977102 0 0 0
1781 1 46.6915124708748 16.174008996519113 1.5636147889771022 0 0 0
1620 1 48.5591971712838 12.939084202892115 1.5636147889771026 0 0 0
1461 5 50.427471485722364 11.861395361897964 0.03644047030331585 -1 0 0
1464 1 52.2945665721018 12.939084202892115 1.5636147889771028 -1 0 0
1618 5 48.559786785313364 15.09632015552496 0.03644047030331466 0 0 0
1462 5 52.295156186131365 15.09632015552496 0.03644047030331465 -1 0 0
1625 1 50.4268818716928 16.174008996519113 1.5636147889771022 -1 0 0
1467 5 54.162840886540366 11.861395361897964 0.036440470303315854 -1 0 0
1470 1 56.0299359729198 12.939084202892115 1.5636147889771028 -1 0 0
1473 5 57.89821028735837 11.861395361897964 0.036440470303315126 -1 0 0
1468 5 56.030525586949366 15.09632015552496 0.03644047030331478 -1 0 0
1631 1 54.1622512725108 16.174008996519113 1.5636147889771022 -1 0 0
1637 1 57.8976206733288 16.174008996519113 1.563614788977102 -1 0 0
1476 1 59.765305373737796 12.939084202892115 1.5636147889771028 -1 0 0
1479 5 61.63357968817636 11.861395361897964 0.03644047030331547 -1 0 0
1482 1 63.5006747745558 12.939084202892115 1.5636147889771028 -1 0 0
1474 5 59.76589498776736 15.09632015552496 0.036440470303313446 -1 0 0
1480 5 63.50126438858536 15.09632015552496 0.03644047030331465 -1 0 0
1643 1 61.6329900741468 16.174008996519113 1.5636147889771022 -1 0 0
1485 5 65.36894908899437 11.861395361897964 0.03644047030331585 -1 0 0
1488 1 67.23604417537379 12.939084202892115 1.5636147889771028 -1 0 0
1491 5 69.10431848981237 11.861395361897964 0.03644047030331585 -1 0 0
1494 1 70.9714135761918 12.939084202892115 1.5636147889771026 -1 0 0
1486 5 67.23663378940337 15.09632015552496 0.03644047030331465 -1 0 0
1492 5 70.97200319022137 15.09632015552496 0.03644047030331465 -1 0 0
1649 1 65.36835947496479 16.174008996519113 1.5636147889771022 -1 0 0
1655 1 69.10372887578279 16.174008996519113 1.563614788977102 -1 0 0
1497 5 72.83968789063037 11.861395361897964 0.03644047030331585 -1 0 0
1500 1 74.7067829770098 12.939084202892115 1.5636147889771026 -1 0 0
1503 5 76.57505729144837 11.861395361897964 0.03644047030331585 -1 0 0
1498 5 74.70737259103937 15.09632015552496 0.03644047030331465 -1 0 0
1661 1 72.8390982766008 16.174008996519113 1.563614788977102 -1 0 0
1667 1 76.5744676774188 16.174008996519113 1.563614788977102 -1 0 0
1506 1 78.4421523778278 12.939084202892115 1.5636147889771026 -1 0 0
1509 5 80.31042669226638 11.861395361897964 0.03644047030331585 -1 0 0
1512 1 82.1775217786458 12.939084202892115 1.5636147889771026 -1 0 0
1504 5 78.44274199185737 15.09632015552496 0.03644047030331465 -1 0 0
1510 5 82.17811139267538 15.09632015552496 0.03644047030331465 -1 0 0
1673 1 80.3098370782368 16.174008996519113 1.563614788977102 -1 0 0
1515 5 84.04579609308438 11.861395361897964 0.03644047030331585 -1 0 0
1518 1 85.9128911794638 12.939084202892115 1.5636147889771028 -1 0 0
1521 5 87.78116549390238 11.861395361897964 0.03644047030331585 -1 0 0
1516 5 85.91348079349338 15.09632015552496 0.03644047030331465 -1 0 0
1679 1 84.0452064790548 16.174008996519113 1.563614788977102 -1 0 0
1685 1 87.7805758798728 16.174008996519113 1.563614788977102 -1 0 0
1524 1 89.6482605802818 12.939084202892115 1.5636147889771028 -1 0 0
1527 5 91.51653489472038 11.861395361897964 0.03644047030331585 -1 0 0
1530 1 93.3836299810998 12.939084202892115 1.5636147889771028 -1 0 0
1522 5 89.64885019431138 15.09632015552496 0.03644047030331465 -1 0 0
1528 5 93.38421959512938 15.09632015552496 0.03644047030331466 -1 0 0
1691 1 91.5159452806908 16.174008996519113 1.563614788977102 -1 0 0
1542 1 100.85436878273579 12.939084202892115 1.5636147889771024 -1 0 0
1540 5 100.85495839676537 15.096320155524962 0.03644047030331396 -1 0 0
1533 5 95.25190429553838 11.861395361897964 0.036440470303316125 -1 0 0
1536 1 97.1189993819178 12.939084202892115 1.5636147889771026 -1 0 0
1539 5 98.98727369635637 11.861395361897964 0.036440470303313696 -1 0 0
1534 5 97.11958899594738 15.09632015552496 0.03644047030331335 -1 0 0
1697 1 95.2513146815088 16.174008996519113 1.563614788977102 -1 0 0
1703 1 98.9866840823268 16.174008996519113 1.5636147889771017 -1 0 0
1707 5 1.8676692750883708 18.33124494915196 0.03644047030331551 0 0 0
1713 5 5.603038675906372 18.33124494915196 0.03644047030331548 0 0 0
1710 1 3.7347643614678026 19.40893379014611 1.5636147889771024 0 0 0
1871 1 1.867079661058802 22.643858583773113 1.5636147889771022 0 0 0
1708 5 3.7353539754973712 21.56616974277896 0.03644047030331545 0 0 0
1877 1 5.602449061876803 22.643858583773113 1.5636147889771022 0 0 0
1719 5 9.338408076724374 18.33124494915196 0.03644047030331559 0 0 0
1716 1 7.470133762285804 19.40893379014611 1.5636147889771022 0 0 0
1722 1 11.205503163103806 19.40893379014611 1.5636147889771022 0 0 0
1714 5 7.470723376315373 21.56616974277896 0.03644047030331555 0 0 0
1883 1 9.337818462694806 22.643858583773113 1.5636147889771022 0 0 0
1720 5 11.206092777133374 21.56616974277896 0.03644047030331531 0 0 0
1725 5 13.073777477542373 18.33124494915196 0.036440470303314564 0 0 0
1731 5 16.80914687836037 18.33124494915196 0.03644047030331533 0 0 0
1728 1 14.940872563921802 19.40893379014611 1.5636147889771022 0 0 0
1889 1 13.073187863512803 22.643858583773113 1.5636147889771022 0 0 0
1726 5 14.94146217795137 21.56616974277896 0.03644047030331457 0 0 0
1895 1 16.8085572643308 22.643858583773113 1.5636147889771024 0 0 0
1737 5 20.54451627917837 18.33124494915196 0.036440470303315486 0 0 0
1734 1 18.676241964739802 19.40893379014611 1.5636147889771022 0 0 0
1740 1 22.411611365557803 19.40893379014611 1.5636147889771022 0 0 0
1732 5 18.67683157876937 21.56616974277896 0.03644047030331548 0 0 0
1901 1 20.543926665148803 22.643858583773113 1.5636147889771022 0 0 0
1738 5 22.41220097958737 21.56616974277896 0.03644047030331546 0 0 0
1743 5 24.279885679996372 18.33124494915196 0.036440470303315486 0 0 0
1749 5 28.015255080814374 18.33124494915196 0.036440470303315486 0 0 0
1746 1 26.146980766375805 19.40893379014611 1.5636147889771022 0 0 0
1907 1 24.279296065966804 22.643858583773113 1.5636147889771022 0 0 0
1744 5 26.147570380405373 21.56616974277896 0.03644047030331546 0 0 0
1913 1 28.014665466784805 22.643858583773113 1.5636147889771022 0 0 0
1755 5 31.750624481632375 18.33124494915196 0.0364404703033152 0 0 0
1761 5 35.48599388245037 18.33124494915196 0.036440470303315486 0 0 0
1752 1 29.882350167193806 19.40893379014611 1.5636147889771022 0 0 0
1758 1 33.61771956801181 19.40893379014611 1.5636147889771022 0 0 0
1750 5 29.882939781223374 21.56616974277896 0.03644047030331546 0 0 0
1919 1 31.750034867602807 22.643858583773113 1.5636147889771022 0 0 0
1756 5 33.61830918204137 21.56616974277896 0.036440470303315174 0 0 0
1925 1 35.48540426842081 22.643858583773113 1.5636147889771022 0 0 0
1767 5 39.221363283268374 18.33124494915196 0.036440470303315514 0 0 0
1764 1 37.35308896882981 19.40893379014611 1.5636147889771022 0 0 0
1770 1 41.08845836964781 19.40893379014611 1.5636147889771015 0 0 0
1762 5 37.353678582859374 21.56616974277896 0.036440470303315466 0 0 0
1931 1 39.22077366923881 22.643858583773113 1.563614788977102 0 0 0
1768 5 41.089047983677375 21.56616974277896 0.03644047030331574 0 0 0
1773 5 42.956732684086376 18.33124494915196 0.03644047030331361 0 0 0
1779 5 46.69210208490436 18.33124494915196 0.03644047030331512 0 0 0
1776 1 44.8238277704658 19.40893379014611 1.5636147889771028 0 0 0
1937 1 42.956143070056804 22.643858583773113 1.563614788977102 0 0 0
1774 5 44.82441738449537 21.566169742778957 0.03644047030331312 0 0 0
1943 1 46.6915124708748 22.643858583773113 1.5636147889771022 0 0 0
1623 5 50.427471485722364 18.33124494915196 0.036440470303315486 -1 0 0
1782 1 48.5591971712838 19.40893379014611 1.5636147889771022 0 0 0
1626 1 52.2945665721018 19.40893379014611 1.5636147889771022 -1 0 0
1780 5 48.559786785313364 21.56616974277896 0.03644047030331548 0 0 0
1787 1 50.4268818716928 22.643858583773113 1.5636147889771022 -1 0 0
1624 5 52.295156186131365 21.56616974277896 0.03644047030331546 -1 0 0
1629 5 54.162840886540366 18.33124494915196 0.0364404703033155 -1 0 0
1635 5 57.89821028735837 18.33124494915196 0.0364404703033148 -1 0 0
1632 1 56.0299359729198 19.40893379014611 1.5636147889771022 -1 0 0
1793 1 54.1622512725108 22.643858583773113 1.5636147889771022 -1 0 0
1630 5 56.030525586949366 21.56616974277896 0.0364404703033156 -1 0 0
1799 1 57.8976206733288 22.643858583773113 1.5636147889771022 -1 0 0
1641 5 61.63357968817636 18.33124494915196 0.036440470303315035 -1 0 0
1638 1 59.765305373737796 19.40893379014611 1.5636147889771022 -1 0 0
1644 1 63.5006747745558 19.40893379014611 1.5636147889771022 -1 0 0
1636 5 59.76589498776736 21.56616974277896 0.03644047030331428 -1 0 0
1805 1 61.6329900741468 22.643858583773113 1.5636147889771022 -1 0 0
1642 5 63.50126438858536 21.56616974277896 0.036440470303315466 -1 0 0
1647 5 65.36894908899437 18.33124494915196 0.036440470303315486 -1 0 0
1653 5 69.10431848981237 18.33124494915196 0.03644047030331549 -1 0 0
1650 1 67.23604417537379 19.40893379014611 1.5636147889771022 -1 0 0
1656 1 70.9714135761918 19.40893379014611 1.5636147889771022 -1 0 0
1811 1 65.36835947496479 22.643858583773113 1.5636147889771022 -1 0 0
1648 5 67.23663378940337 21.56616974277896 0.03644047030331546 -1 0 0
1817 1 69.10372887578279 22.643858583773113 1.5636147889771022 -1 0 0
1654 5 70.97200319022137 21.56616974277896 0.03644047030331546 -1 0 0
1659 5 72.83968789063037 18.33124494915196 0.03644047030331549 -1 0 0
1665 5 76.57505729144837 18.33124494915196 0.036440470303315486 -1 0 0
1662 1 74.7067829770098 19.40893379014611 1.5636147889771022 -1 0 0
1823 1 72.8390982766008 22.643858583773113 1.5636147889771022 -1 0 0
1660 5 74.70737259103937 21.56616974277896 0.03644047030331546 -1 0 0
1829 1 76.5744676774188 22.643858583773113 1.5636147889771022 -1 0 0
1671 5 80.31042669226638 18.33124494915196 0.03644047030331549 -1 0 0
1668 1 78.4421523778278 19.40893379014611 1.5636147889771022 -1 0 0
1674 1 82.1775217786458 19.40893379014611 1.5636147889771022 -1 0 0
1666 5 78.44274199185737 21.56616974277896 0.036440470303315466 -1 0 0
1835 1 80.3098370782368 22.643858583773113 1.5636147889771022 -1 0 0
1672 5 82.17811139267538 21.56616974277896 0.03644047030331546 -1 0 0
1677 5 84.04579609308438 18.33124494915196 0.03644047030331549 -1 0 0
1683 5 87.78116549390238 18.33124494915196 0.03644047030331549 -1 0 0
1680 1 85.9128911794638 19.40893379014611 1.5636147889771022 -1 0 0
1841 1 84.0452064790548 22.643858583773113 1.563614788977102 -1 0 0
1678 5 85.91348079349338 21.56616974277896 0.03644047030331546 -1 0 0
1847 1 87.7805758798728 22.643858583773113 1.5636147889771022 -1 0 0
1689 5 91.51653489472038 18.33124494915196 0.036440470303315486 -1 0 0
1686 1 89.6482605802818 19.40893379014611 1.5636147889771022 -1 0 0
1692 1 93.3836299810998 19.40893379014611 1.5636147889771022 -1 0 0
1684 5 89.64885019431138 21.56616974277896 0.036440470303315466 -1 0 0
1853 1 91.5159452806908 22.643858583773113 1.5636147889771022 -1 0 0
1690 5 93.38421959512938 21.56616974277896 0.03644047030331547 -1 0 0
1704 1 100.85436878273579 19.40893379014611 1.5636147889771017 -1 0 0
1702 5 100.85495839676537 21.56616974277896 0.03644047030331491 -1 0 0
1695 5 95.25190429553838 18.33124494915196 0.03644047030331564 -1 0 0
1701 5 98.98727369635637 18.33124494915196 0.03644047030331325 -1 0 0
1698 1 97.1189993819178 19.40893379014611 1.5636147889771022 -1 0 0
1859 1 95.2513146815088 22.643858583773113 1.563614788977102 -1 0 0
1696 5 97.11958899594738 21.56616974277896 0.03644047030331417 -1 0 0
1865 1 98.9866840823268 22.643858583773113 1.563614788977102 -1 0 0
1869 5 1.8676692750883708 24.801094536405962 0.03644047030331548 0 0 0
1872 1 3.7347643614678026 25.878783377400115 1.5636147889771022 0 0 0
1875 5 5.603038675906372 24.801094536405962 0.036440470303315466 0 0 0
1870 5 3.7353539754973712 28.036019330032964 0.03644047030331546 0 0 0
1878 1 7.470133762285804 25.878783377400115 1.5636147889771022 0 0 0
1881 5 9.338408076724374 24.801094536405962 0.03644047030331557 0 0 0
1884 1 11.205503163103806 25.878783377400115 1.5636147889771022 0 0 0
1876 5 7.470723376315373 28.036019330032964 0.03644047030331555 0 0 0
1882 5 11.206092777133374 28.036019330032964 0.03644047030331531 0 0 0
1887 5 13.073777477542373 24.801094536405962 0.036440470303314584 0 0 0
1890 1 14.940872563921802 25.878783377400115 1.5636147889771022 0 0 0
1893 5 16.80914687836037 24.801094536405962 0.03644047030331537 0 0 0
1888 5 14.94146217795137 28.036019330032964 0.03644047030331458 0 0 0
1896 1 18.676241964739802 25.878783377400115 1.5636147889771022 0 0 0
1899 5 20.54451627917837 24.801094536405962 0.03644047030331547 0 0 0
1902 1 22.411611365557803 25.878783377400115 1.5636147889771022 0 0 0
1894 5 18.67683157876937 28.036019330032964 0.03644047030331548 0 0 0
1900 5 22.41220097958737 28.036019330032964 0.03644047030331546 0 0 0
1905 5 24.279885679996372 24.801094536405962 0.03644047030331547 0 0 0
1908 1 26.146980766375805 25.878783377400115 1.5636147889771022 0 0 0
1911 5 28.015255080814374 24.801094536405962 0.03644047030331547 0 0 0
1906 5 26.147570380405373 28.036019330032964 0.03644047030331546 0 0 0
1914 1 29.882350167193806 25.878783377400115 1.5636147889771022 0 0 0
1917 5 31.750624481632375 24.801094536405962 0.03644047030331519 0 0 0
1920 1 33.61771956801181 25.878783377400115 1.5636147889771022 0 0 0
1923 5 35.48599388245037 24.801094536405962 0.03644047030331547 0 0 0
1912 5 29.882939781223374 28.036019330032964 0.03644047030331546 0 0 0
1918 5 33.61830918204137 28.036019330032964 0.03644047030331518 0 0 0
1926 1 37.35308896882981 25.878783377400115 1.5636147889771022 0 0 0
1929 5 39.221363283268374 24.801094536405962 0.036440470303315486 0 0 0
1932 1 41.08845836964781 25.878783377400115 1.5636147889771015 0 0 0
1924 5 37.353678582859374 28.036019330032964 0.036440470303315466 0 0 0
1930 5 41.089047983677375 28.036019330032964 0.03644047030331575 0 0 0
1935 5 42.956732684086376 24.801094536405962 0.03644047030331371 0 0 0
1938 1 44.8238277704658 25.878783377400115 1.5636147889771026 0 0 0
1941 5 46.69210208490436 24.801094536405962 0.03644047030331524 0 0 0
1936 5 44.82441738449537 28.03601933003296 0.03644047030331312 0 0 0
1944 1 48.5591971712838 25.878783377400115 1.5636147889771022 0 0 0
1785 5 50.427471485722364 24.801094536405962 0.03644047030331546 -1 0 0
1788 1 52.2945665721018 25.878783377400115 1.5636147889771022 -1 0 0
1942 5 48.559786785313364 28.036019330032964 0.03644047030331548 0 0 0
1786 5 52.295156186131365 28.036019330032964 0.036440470303315466 -1 0 0
1791 5 54.162840886540366 24.801094536405962 0.03644047030331548 -1 0 0
1794 1 56.0299359729198 25.878783377400115 1.5636147889771022 -1 0 0
1797 5 57.89821028735837 24.801094536405962 0.03644047030331482 -1 0 0
1792 5 56.030525586949366 28.036019330032964 0.03644047030331559 -1 0 0
1800 1 59.765305373737796 25.878783377400115 1.563614788977102 -1 0 0
1803 5 61.63357968817636 24.801094536405962 0.03644047030331508 -1 0 0
1806 1 63.5006747745558 25.878783377400115 1.5636147889771022 -1 0 0