LAMMPS data file via write_data, version 29 Aug 2024, timestep = 2, units = metal

4860 atoms
6 atom types

0 100.854973822086 xlo xhi
0 97.04774380881 ylo yhi
-50 50 zlo zhi

Masses

1 54.938044
2 54.938044
3 127.6
4 127.6
5 127.6
6 127.6

Atoms # atomic

1385 1 1.8670789535910248 3.234309092889213 1.5636139314116053 0 0 0
1222 4 3.735353506877633 2.156621075547078 0.036970534708598395 0 0 0
1391 1 5.602448354409026 3.2343090928892133 1.5636139314116053 0 0 0
1383 4 1.8676688064686329 5.391545869174079 0.03697053470859744 0 0 0
1389 4 5.603038207286634 5.391545869174079 0.03697053470859739 0 0 0
1228 4 7.4707229076956345 2.156621075547078 0.03697053470859829 0 0 0
1397 1 9.337817755227027 3.2343090928892133 1.5636139314116053 0 0 0
1234 4 11.206092308513636 2.156621075547078 0.036970534708598374 0 0 0
1395 4 9.338407608104635 5.391545869174079 0.0369705347085973 0 0 0
1403 1 13.073187156045027 3.2343090928892133 1.5636139314116053 0 0 0
1240 4 14.941461709331632 2.156621075547077 0.036970534708597375 0 0 0
1409 1 16.808556556863024 3.234309092889213 1.563613931411605 0 0 0
1401 4 13.073777008922635 5.391545869174078 0.03697053470859649 0 0 0
1407 4 16.80914640974063 5.391545869174079 0.03697053470859726 0 0 0
1246 4 18.67683111014963 2.156621075547078 0.03697053470859837 0 0 0
1415 1 20.543925957681026 3.2343090928892133 1.5636139314116053 0 0 0
1252 4 22.412200510967633 2.156621075547078 0.03697053470859835 0 0 0
1413 4 20.544515810558632 5.391545869174079 0.03697053470859734 0 0 0
1421 1 24.279295358499027 3.2343090928892133 1.5636139314116053 0 0 0
1258 4 26.147569911785634 2.156621075547078 0.03697053470859835 0 0 0
1427 1 28.01466475931703 3.2343090928892133 1.5636139314116053 0 0 0
1419 4 24.279885211376634 5.391545869174079 0.03697053470859734 0 0 0
1425 4 28.015254612194635 5.391545869174079 0.03697053470859734 0 0 0
1264 4 29.882939312603636 2.156621075547078 0.03697053470859837 0 0 0
1433 1 31.750034160135026 3.2343090928892133 1.5636139314116055 0 0 0
1270 4 33.618308713421634 2.1566210755470783 0.03697053470859865 0 0 0
1439 1 35.48540356095303 3.234309092889213 1.5636139314116053 0 0 0
1431 4 31.750624013012636 5.391545869174079 0.03697053470859766 0 0 0
1437 4 35.485993413830634 5.391545869174079 0.03697053470859741 0 0 0
1276 4 37.353678114239635 2.156621075547078 0.03697053470859835 0 0 0
1445 1 39.22077296177103 3.234309092889213 1.5636139314116053 0 0 0
1282 4 41.089047515057636 2.156621075547078 0.03697053470859808 0 0 0
1443 4 39.221362814648636 5.391545869174079 0.036970534708597416 0 0 0
1451 1 42.95614236258903 3.234309092889213 1.5636139314116053 0 0 0
1288 4 44.82441691587563 2.1566210755470765 0.03697053470859647 0 0 0
1457 1 46.69151176340702 3.2343090928892133 1.5636139314116053 0 0 0
1449 4 42.95673221546664 5.391545869174077 0.03697053470859547 0 0 0
1455 4 46.692101616284624 5.391545869174079 0.03697053470859707 0 0 0
1294 4 48.559786316693625 2.156621075547078 0.03697053470859841 0 0 0
1301 1 50.42688116422502 3.2343090928892133 1.5636139314116053 -1 0 0
1138 4 52.295155717511626 2.156621075547078 0.03697053470859836 -1 0 0
1299 4 50.427471017102626 5.391545869174079 0.03697053470859739 -1 0 0
1307 1 54.162250565043024 3.2343090928892133 1.5636139314116053 -1 0 0
1144 4 56.03052511832963 2.156621075547078 0.03697053470859796 -1 0 0
1313 1 57.89761996586102 3.234309092889213 1.5636139314116047 -1 0 0
1305 4 54.16284041792063 5.391545869174079 0.03697053470859741 -1 0 0
1311 4 57.89820981873863 5.391545869174078 0.036970534708596195 -1 0 0
1150 4 59.76589451914763 2.1566210755470774 0.03697053470859775 -1 0 0
1319 1 61.63298936667902 3.2343090928892133 1.563613931411606 -1 0 0
1156 4 63.50126391996562 2.156621075547078 0.036970534708597805 -1 0 0
1317 4 61.63357921955662 5.391545869174079 0.036970534708597534 -1 0 0
1325 1 65.36835876749701 3.234309092889213 1.5636139314116049 -1 0 0
1162 4 67.23663332078362 2.156621075547078 0.036970534708598304 -1 0 0
1331 1 69.10372816831502 3.2343090928892133 1.5636139314116053 -1 0 0
1168 4 70.97200272160163 2.156621075547078 0.03697053470859834 -1 0 0
1323 4 65.36894862037462 5.391545869174079 0.03697053470859674 -1 0 0
1329 4 69.10431802119263 5.391545869174079 0.03697053470859739 -1 0 0
1337 1 72.83909756913302 3.2343090928892133 1.5636139314116053 -1 0 0
1174 4 74.70737212241963 2.156621075547078 0.03697053470859834 -1 0 0
1343 1 76.57446696995102 3.2343090928892133 1.5636139314116053 -1 0 0
1335 4 72.83968742201063 5.391545869174079 0.03697053470859739 -1 0 0
1341 4 76.57505682282863 5.391545869174079 0.03697053470859739 -1 0 0
1180 4 78.44274152323763 2.156621075547078 0.03697053470859834 -1 0 0
1349 1 80.30983637076902 3.2343090928892133 1.5636139314116053 -1 0 0
1186 4 82.17811092405563 2.156621075547078 0.03697053470859834 -1 0 0
1347 4 80.31042622364663 5.391545869174079 0.03697053470859739 -1 0 0
1355 1 84.04520577158702 3.2343090928892133 1.563613931411605 -1 0 0
1192 4 85.91348032487363 2.156621075547078 0.03697053470859834 -1 0 0
1361 1 87.78057517240502 3.2343090928892133 1.5636139314116053 -1 0 0
1353 4 84.04579562446463 5.391545869174079 0.03697053470859739 -1 0 0
1359 4 87.78116502528263 5.391545869174079 0.03697053470859739 -1 0 0
1198 4 89.64884972569163 2.156621075547078 0.03697053470859834 -1 0 0
1367 1 91.51594457322302 3.2343090928892133 1.563613931411605 -1 0 0
1204 4 93.38421912650963 2.1566210755470783 0.03697053470859843 -1 0 0
1365 4 91.51653442610063 5.391545869174079 0.03697053470859739 -1 0 0
1216 4 100.85495792814562 2.156621075547078 0.03697053470859814 -1 0 0
1373 1 95.25131397404103 3.2343090928892138 1.5636139314116062 -1 0 0
1210 4 97.11958852732764 2.156621075547077 0.036970534708596986 -1 0 0
1379 1 98.98668337485903 3.2343090928892124 1.5636139314116044 -1 0 0
1371 4 95.25190382691864 5.391545869174079 0.03697053470859768 -1 0 0
1377 4 98.98727322773664 5.391545869174077 0.036970534708595244 -1 0 0
1386 1 3.7347636540000253 6.469233886516213 1.5636139314116044 0 0 0
1384 4 3.735353506877633 8.62647066280108 0.03697053470859684 0 0 0
1547 1 1.8670789535910248 9.704158680143212 1.563613931411605 0 0 0
1553 1 5.602448354409026 9.704158680143212 1.563613931411605 0 0 0
1392 1 7.470133054818027 6.469233886516213 1.5636139314116047 0 0 0
1398 1 11.205502455636028 6.469233886516213 1.5636139314116047 0 0 0
1390 4 7.4707229076956345 8.62647066280108 0.03697053470859674 0 0 0
1396 4 11.206092308513636 8.62647066280108 0.036970534708596715 0 0 0
1559 1 9.337817755227027 9.704158680143212 1.563613931411605 0 0 0
1404 1 14.940871856454025 6.469233886516213 1.5636139314116044 0 0 0
1402 4 14.941461709331632 8.62647066280108 0.03697053470859577 0 0 0
1565 1 13.073187156045027 9.704158680143212 1.5636139314116053 0 0 0
1571 1 16.808556556863024 9.704158680143212 1.563613931411605 0 0 0
1410 1 18.676241257272025 6.469233886516213 1.5636139314116047 0 0 0
1416 1 22.411610658090027 6.469233886516213 1.5636139314116047 0 0 0
1408 4 18.67683111014963 8.62647066280108 0.03697053470859681 0 0 0
1414 4 22.412200510967633 8.62647066280108 0.0369705347085968 0 0 0
1577 1 20.543925957681026 9.704158680143212 1.5636139314116053 0 0 0
1422 1 26.146980058908028 6.469233886516213 1.5636139314116047 0 0 0
1420 4 26.147569911785634 8.62647066280108 0.0369705347085968 0 0 0
1583 1 24.279295358499027 9.704158680143212 1.5636139314116053 0 0 0
1589 1 28.01466475931703 9.704158680143212 1.5636139314116053 0 0 0
1428 1 29.88234945972603 6.469233886516213 1.5636139314116047 0 0 0
1434 1 33.61771886054403 6.469233886516213 1.5636139314116049 0 0 0
1426 4 29.882939312603636 8.62647066280108 0.03697053470859682 0 0 0
1432 4 33.618308713421634 8.62647066280108 0.03697053470859711 0 0 0
1595 1 31.750034160135026 9.704158680143212 1.5636139314116055 0 0 0
1601 1 35.48540356095303 9.704158680143212 1.5636139314116053 0 0 0
1440 1 37.35308826136203 6.469233886516213 1.5636139314116044 0 0 0
1446 1 41.08845766218003 6.469233886516213 1.5636139314116047 0 0 0
1438 4 37.353678114239635 8.62647066280108 0.03697053470859679 0 0 0
1444 4 41.089047515057636 8.62647066280108 0.036970534708596466 0 0 0
1607 1 39.22077296177103 9.704158680143212 1.5636139314116053 0 0 0
1452 1 44.82382706299803 6.469233886516213 1.5636139314116047 0 0 0
1450 4 44.82441691587563 8.626470662801077 0.03697053470859489 0 0 0
1613 1 42.95614236258903 9.704158680143212 1.563613931411605 0 0 0
1619 1 46.69151176340702 9.704158680143212 1.5636139314116053 0 0 0
1458 1 48.55919646381602 6.469233886516213 1.5636139314116047 0 0 0
1302 1 52.29456586463402 6.469233886516213 1.5636139314116047 -1 0 0
1456 4 48.559786316693625 8.62647066280108 0.03697053470859685 0 0 0
1300 4 52.295155717511626 8.62647066280108 0.03697053470859679 -1 0 0
1463 1 50.42688116422502 9.704158680143212 1.5636139314116053 -1 0 0
1308 1 56.029935265452025 6.469233886516213 1.5636139314116047 -1 0 0
1306 4 56.03052511832963 8.62647066280108 0.0369705347085964 -1 0 0
1469 1 54.162250565043024 9.704158680143212 1.5636139314116053 -1 0 0
1475 1 57.89761996586102 9.704158680143212 1.5636139314116047 -1 0 0
1314 1 59.76530466627002 6.469233886516213 1.5636139314116049 -1 0 0
1320 1 63.50067406708802 6.469233886516213 1.5636139314116042 -1 0 0
1312 4 59.76589451914763 8.626470662801077 0.0369705347085961 -1 0 0
1318 4 63.50126391996562 8.62647066280108 0.03697053470859626 -1 0 0
1481 1 61.63298936667902 9.704158680143212 1.5636139314116058 -1 0 0
1326 1 67.23604346790601 6.469233886516213 1.5636139314116047 -1 0 0
1332 1 70.97141286872402 6.469233886516213 1.5636139314116047 -1 0 0
1324 4 67.23663332078362 8.62647066280108 0.03697053470859676 -1 0 0
1330 4 70.97200272160163 8.62647066280108 0.03697053470859679 -1 0 0
1487 1 65.36835876749701 9.704158680143212 1.5636139314116049 -1 0 0
1493 1 69.10372816831502 9.704158680143212 1.5636139314116053 -1 0 0
1338 1 74.70678226954202 6.469233886516213 1.5636139314116047 -1 0 0
1336 4 74.70737212241963 8.62647066280108 0.03697053470859679 -1 0 0
1499 1 72.83909756913302 9.704158680143212 1.563613931411605 -1 0 0
1505 1 76.57446696995102 9.704158680143212 1.563613931411605 -1 0 0
1344 1 78.44215167036002 6.469233886516213 1.5636139314116047 -1 0 0
1350 1 82.17752107117802 6.469233886516213 1.5636139314116047 -1 0 0
1342 4 78.44274152323763 8.62647066280108 0.03697053470859679 -1 0 0
1348 4 82.17811092405563 8.62647066280108 0.03697053470859679 -1 0 0
1511 1 80.30983637076902 9.704158680143212 1.563613931411605 -1 0 0
1356 1 85.91289047199602 6.469233886516213 1.5636139314116047 -1 0 0
1354 4 85.91348032487363 8.62647066280108 0.03697053470859679 -1 0 0
1517 1 84.04520577158702 9.704158680143212 1.563613931411605 -1 0 0
1523 1 87.78057517240502 9.704158680143212 1.563613931411605 -1 0 0
1362 1 89.64825987281402 6.469233886516213 1.5636139314116047 -1 0 0
1368 1 93.38362927363202 6.469233886516213 1.5636139314116047 -1 0 0
1360 4 89.64884972569163 8.62647066280108 0.03697053470859679 -1 0 0
1366 4 93.38421912650963 8.62647066280108 0.03697053470859689 -1 0 0
1529 1 91.51594457322302 9.704158680143212 1.563613931411605 -1 0 0
1380 1 100.85436807526801 6.469233886516213 1.5636139314116047 -1 0 0
1378 4 100.85495792814562 8.62647066280108 0.03697053470859659 -1 0 0
1374 1 97.11899867445003 6.469233886516213 1.5636139314116044 -1 0 0
1372 4 97.11958852732764 8.626470662801077 0.03697053470859546 -1 0 0
1535 1 95.25131397404103 9.704158680143212 1.5636139314116062 -1 0 0
1541 1 98.98668337485903 9.704158680143212 1.5636139314116042 -1 0 0
1545 4 1.8676688064686329 11.86139545642808 0.0369705347085983 0 0 0
1548 1 3.7347636540000253 12.939083473770213 1.5636139314116064 0 0 0
1551 4 5.603038207286634 11.86139545642808 0.03697053470859831 0 0 0
1546 4 3.735353506877633 15.096320250055076 0.036970534708597236 0 0 0
1709 1 1.8670789535910248 16.17400826739721 1.563613931411605 0 0 0
1715 1 5.602448354409026 16.17400826739721 1.563613931411605 0 0 0
1554 1 7.470133054818027 12.939083473770213 1.5636139314116062 0 0 0
1557 4 9.338407608104635 11.86139545642808 0.0369705347085983 0 0 0
1560 1 11.205502455636028 12.939083473770213 1.563613931411606 0 0 0
1552 4 7.4707229076956345 15.096320250055076 0.03697053470859717 0 0 0
1558 4 11.206092308513636 15.096320250055076 0.03697053470859707 0 0 0
1721 1 9.337817755227027 16.17400826739721 1.563613931411605 0 0 0
1563 4 13.073777008922635 11.861395456428077 0.0369705347085974 0 0 0
1566 1 14.940871856454025 12.939083473770213 1.563613931411606 0 0 0
1569 4 16.80914640974063 11.86139545642808 0.03697053470859818 0 0 0
1564 4 14.941461709331632 15.096320250055076 0.03697053470859622 0 0 0
1727 1 13.073187156045027 16.17400826739721 1.563613931411605 0 0 0
1733 1 16.808556556863024 16.17400826739721 1.563613931411605 0 0 0
1572 1 18.676241257272025 12.939083473770213 1.5636139314116062 0 0 0
1575 4 20.544515810558632 11.86139545642808 0.036970534708598325 0 0 0
1578 1 22.411610658090027 12.939083473770213 1.5636139314116062 0 0 0
1570 4 18.67683111014963 15.096320250055076 0.036970534708597264 0 0 0
1576 4 22.412200510967633 15.096320250055076 0.03697053470859725 0 0 0
1739 1 20.543925957681026 16.17400826739721 1.563613931411605 0 0 0
1581 4 24.279885211376634 11.86139545642808 0.036970534708598325 0 0 0
1584 1 26.146980058908028 12.939083473770213 1.5636139314116062 0 0 0
1587 4 28.015254612194635 11.86139545642808 0.036970534708598325 0 0 0
1582 4 26.147569911785634 15.096320250055076 0.03697053470859725 0 0 0
1745 1 24.279295358499027 16.17400826739721 1.563613931411605 0 0 0
1751 1 28.01466475931703 16.17400826739721 1.563613931411605 0 0 0
1590 1 29.88234945972603 12.939083473770213 1.5636139314116062 0 0 0
1593 4 31.750624013012636 11.86139545642808 0.03697053470859864 0 0 0
1596 1 33.61771886054403 12.939083473770213 1.5636139314116064 0 0 0
1599 4 35.485993413830634 11.86139545642808 0.03697053470859833 0 0 0
1588 4 29.882939312603636 15.096320250055076 0.036970534708597264 0 0 0
1594 4 33.618308713421634 15.096320250055076 0.03697053470859755 0 0 0
1757 1 31.750034160135026 16.17400826739721 1.5636139314116053 0 0 0
1763 1 35.48540356095303 16.17400826739721 1.5636139314116049 0 0 0
1602 1 37.35308826136203 12.939083473770213 1.5636139314116062 0 0 0
1605 4 39.221362814648636 11.86139545642808 0.03697053470859834 0 0 0
1608 1 41.08845766218003 12.939083473770213 1.5636139314116062 0 0 0
1600 4 37.353678114239635 15.096320250055076 0.036970534708597236 0 0 0
1606 4 41.089047515057636 15.096320250055076 0.03697053470859691 0 0 0
1769 1 39.22077296177103 16.17400826739721 1.5636139314116049 0 0 0
1611 4 42.95673221546664 11.861395456428077 0.03697053470859636 0 0 0
1614 1 44.82382706299803 12.939083473770213 1.563613931411606 0 0 0
1617 4 46.692101616284624 11.86139545642808 0.03697053470859803 0 0 0
1612 4 44.82441691587563 15.096320250055074 0.03697053470859536 0 0 0
1775 1 42.95614236258903 16.17400826739721 1.563613931411605 0 0 0
1781 1 46.69151176340702 16.17400826739721 1.563613931411605 0 0 0
1620 1 48.55919646381602 12.939083473770213 1.5636139314116062 0 0 0
1461 4 50.427471017102626 11.86139545642808 0.03697053470859831 -1 0 0
1464 1 52.29456586463402 12.939083473770213 1.5636139314116062 -1 0 0
1618 4 48.559786316693625 15.096320250055076 0.036970534708597305 0 0 0
1462 4 52.295155717511626 15.096320250055076 0.036970534708597305 -1 0 0
1625 1 50.42688116422502 16.17400826739721 1.563613931411605 -1 0 0
1467 4 54.16284041792063 11.86139545642808 0.03697053470859833 -1 0 0
1470 1 56.029935265452025 12.939083473770213 1.5636139314116062 -1 0 0
1473 4 57.89820981873863 11.861395456428077 0.03697053470859706 -1 0 0
1468 4 56.03052511832963 15.096320250055076 0.03697053470859675 -1 0 0
1631 1 54.162250565043024 16.17400826739721 1.563613931411605 -1 0 0
1637 1 57.89761996586102 16.17400826739721 1.5636139314116049 -1 0 0
1476 1 59.76530466627002 12.939083473770213 1.5636139314116062 -1 0 0
1479 4 61.63357921955662 11.86139545642808 0.0369705347085984 -1 0 0
1482 1 63.50067406708802 12.939083473770213 1.5636139314116058 -1 0 0
1474 4 59.76589451914763 15.096320250055076 0.036970534708596445 -1 0 0
1480 4 63.50126391996562 15.096320250055076 0.036970534708596646 -1 0 0
1643 1 61.63298936667902 16.17400826739721 1.563613931411606 -1 0 0
1485 4 65.36894862037462 11.86139545642808 0.036970534708597735 -1 0 0
1488 1 67.23604346790601 12.939083473770213 1.5636139314116062 -1 0 0
1491 4 69.10431802119263 11.86139545642808 0.03697053470859832 -1 0 0
1494 1 70.97141286872402 12.939083473770213 1.5636139314116062 -1 0 0
1486 4 67.23663332078362 15.096320250055076 0.03697053470859721 -1 0 0
1492 4 70.97200272160163 15.096320250055076 0.03697053470859724 -1 0 0
1649 1 65.36835876749701 16.17400826739721 1.5636139314116047 -1 0 0
1655 1 69.10372816831502 16.17400826739721 1.563613931411605 -1 0 0
1497 4 72.83968742201063 11.86139545642808 0.03697053470859832 -1 0 0
1500 1 74.70678226954202 12.939083473770213 1.5636139314116062 -1 0 0
1503 4 76.57505682282863 11.86139545642808 0.03697053470859832 -1 0 0
1498 4 74.70737212241963 15.096320250055076 0.03697053470859724 -1 0 0
1661 1 72.83909756913302 16.17400826739721 1.563613931411605 -1 0 0
1667 1 76.57446696995102 16.17400826739721 1.563613931411605 -1 0 0
1506 1 78.44215167036002 12.939083473770213 1.5636139314116062 -1 0 0
1509 4 80.31042622364663 11.86139545642808 0.03697053470859832 -1 0 0
1512 1 82.17752107117802 12.939083473770213 1.5636139314116062 -1 0 0
1504 4 78.44274152323763 15.096320250055076 0.03697053470859724 -1 0 0
1510 4 82.17811092405563 15.096320250055076 0.03697053470859724 -1 0 0
1673 1 80.30983637076902 16.17400826739721 1.563613931411605 -1 0 0
1515 4 84.04579562446463 11.86139545642808 0.03697053470859832 -1 0 0
1518 1 85.91289047199602 12.939083473770213 1.563613931411606 -1 0 0
1521 4 87.78116502528263 11.86139545642808 0.03697053470859832 -1 0 0
1516 4 85.91348032487363 15.096320250055076 0.03697053470859724 -1 0 0
1679 1 84.04520577158702 16.17400826739721 1.5636139314116049 -1 0 0
1685 1 87.78057517240502 16.17400826739721 1.563613931411605 -1 0 0
1524 1 89.64825987281402 12.939083473770213 1.563613931411606 -1 0 0
1527 4 91.51653442610063 11.86139545642808 0.03697053470859832 -1 0 0
1530 1 93.38362927363202 12.939083473770213 1.563613931411606 -1 0 0
1522 4 89.64884972569163 15.096320250055076 0.03697053470859724 -1 0 0
1528 4 93.38421912650963 15.096320250055076 0.03697053470859734 -1 0 0
1691 1 91.51594457322302 16.17400826739721 1.563613931411605 -1 0 0
1542 1 100.85436807526801 12.939083473770213 1.5636139314116062 -1 0 0
1540 4 100.85495792814562 15.096320250055076 0.036970534708596924 -1 0 0
1533 4 95.25190382691864 11.86139545642808 0.03697053470859862 -1 0 0
1536 1 97.11899867445003 12.939083473770213 1.563613931411606 -1 0 0
1539 4 98.98727322773664 11.861395456428077 0.03697053470859619 -1 0 0
1534 4 97.11958852732764 15.096320250055076 0.03697053470859589 -1 0 0
1697 1 95.25131397404103 16.174008267397213 1.5636139314116062 -1 0 0
1703 1 98.98668337485903 16.17400826739721 1.5636139314116042 -1 0 0
1707 4 1.8676688064686326 18.33124504368207 0.0369705347085977 0 0 0
1713 4 5.603038207286634 18.33124504368207 0.03697053470859771 0 0 0
1710 1 3.7347636540000257 19.408933061024207 1.5636139314116053 0 0 0
1871 1 1.8670789535910248 22.64385785465121 1.5636139314116053 0 0 0
1708 4 3.735353506877633 21.566169837309072 0.03697053470859802 0 0 0
1877 1 5.602448354409026 22.64385785465121 1.5636139314116053 0 0 0
1719 4 9.338407608104635 18.33124504368207 0.03697053470859763 0 0 0
1716 1 7.470133054818027 19.408933061024207 1.5636139314116053 0 0 0
1722 1 11.205502455636028 19.408933061024207 1.5636139314116055 0 0 0
1714 4 7.4707229076956345 21.566169837309072 0.03697053470859794 0 0 0
1883 1 9.337817755227027 22.64385785465121 1.5636139314116053 0 0 0
1720 4 11.206092308513636 21.566169837309072 0.036970534708597985 0 0 0
1725 4 13.073777008922635 18.33124504368207 0.036970534708596785 0 0 0
1731 4 16.80914640974063 18.33124504368207 0.03697053470859757 0 0 0
1728 1 14.940871856454025 19.408933061024207 1.563613931411605 0 0 0
1889 1 13.073187156045027 22.64385785465121 1.5636139314116053 0 0 0
1726 4 14.941461709331632 21.566169837309072 0.03697053470859691 0 0 0
1895 1 16.808556556863024 22.64385785465121 1.5636139314116053 0 0 0
1737 4 20.544515810558632 18.33124504368207 0.036970534708597666 0 0 0
1734 1 18.676241257272025 19.408933061024207 1.5636139314116053 0 0 0
1740 1 22.411610658090027 19.408933061024207 1.5636139314116053 0 0 0
1732 4 18.67683111014963 21.566169837309072 0.03697053470859799 0 0 0
1901 1 20.543925957681026 22.64385785465121 1.5636139314116053 0 0 0
1738 4 22.412200510967633 21.566169837309072 0.03697053470859798 0 0 0
1743 4 24.279885211376634 18.33124504368207 0.036970534708597666 0 0 0
1749 4 28.015254612194635 18.33124504368207 0.036970534708597666 0 0 0
1746 1 26.146980058908028 19.408933061024207 1.5636139314116053 0 0 0
1907 1 24.279295358499027 22.64385785465121 1.5636139314116053 0 0 0
1744 4 26.147569911785634 21.566169837309072 0.03697053470859798 0 0 0
1913 1 28.01466475931703 22.64385785465121 1.5636139314116053 0 0 0
1755 4 31.750624013012636 18.33124504368207 0.03697053470859798 0 0 0
1761 4 35.485993413830634 18.33124504368207 0.03697053470859768 0 0 0
1752 1 29.88234945972603 19.408933061024207 1.5636139314116053 0 0 0
1758 1 33.61771886054403 19.408933061024207 1.5636139314116055 0 0 0
1750 4 29.882939312603636 21.566169837309072 0.036970534708598 0 0 0
1919 1 31.750034160135026 22.64385785465121 1.5636139314116055 0 0 0
1756 4 33.618308713421634 21.566169837309072 0.03697053470859829 0 0 0
1925 1 35.48540356095303 22.64385785465121 1.5636139314116053 0 0 0
1767 4 39.221362814648636 18.33124504368207 0.03697053470859767 0 0 0
1764 1 37.35308826136203 19.408933061024207 1.5636139314116053 0 0 0
1770 1 41.08845766218003 19.408933061024207 1.5636139314116055 0 0 0
1762 4 37.353678114239635 21.566169837309072 0.03697053470859797 0 0 0
1931 1 39.22077296177103 22.64385785465121 1.5636139314116053 0 0 0
1768 4 41.089047515057636 21.566169837309072 0.036970534708597645 0 0 0
1773 4 42.95673221546664 18.33124504368207 0.03697053470859565 0 0 0
1779 4 46.692101616284624 18.331245043682074 0.03697053470859732 0 0 0
1776 1 44.82382706299803 19.408933061024207 1.5636139314116055 0 0 0
1937 1 42.95614236258903 22.64385785465121 1.5636139314116049 0 0 0
1774 4 44.82441691587563 21.566169837309072 0.03697053470859614 0 0 0
1943 1 46.69151176340702 22.64385785465121 1.5636139314116055 0 0 0
1623 4 50.427471017102626 18.33124504368207 0.036970534708597645 -1 0 0
1782 1 48.55919646381602 19.408933061024207 1.5636139314116058 0 0 0
1626 1 52.29456586463402 19.408933061024207 1.5636139314116055 -1 0 0
1780 4 48.559786316693625 21.566169837309072 0.03697053470859805 0 0 0
1787 1 50.42688116422502 22.64385785465121 1.5636139314116053 -1 0 0
1624 4 52.295155717511626 21.566169837309072 0.03697053470859797 -1 0 0
1629 4 54.16284041792063 18.33124504368207 0.03697053470859767 -1 0 0
1635 4 57.89820981873863 18.33124504368207 0.036970534708596466 -1 0 0
1632 1 56.029935265452025 19.408933061024207 1.5636139314116055 -1 0 0
1793 1 54.162250565043024 22.64385785465121 1.5636139314116053 -1 0 0
1630 4 56.03052511832963 21.566169837309072 0.036970534708597576 -1 0 0
1799 1 57.89761996586102 22.64385785465121 1.5636139314116047 -1 0 0
1641 4 61.63357921955662 18.33124504368207 0.036970534708597805 -1 0 0
1638 1 59.76530466627002 19.408933061024207 1.5636139314116053 -1 0 0
1644 1 63.50067406708802 19.408933061024207 1.5636139314116049 -1 0 0
1636 4 59.76589451914763 21.566169837309072 0.03697053470859734 -1 0 0
1805 1 61.63298936667902 22.64385785465121 1.563613931411606 -1 0 0
1642 4 63.50126391996562 21.566169837309072 0.03697053470859743 -1 0 0
1647 4 65.36894862037462 18.33124504368207 0.036970534708597076 -1 0 0
1653 4 69.10431802119263 18.33124504368207 0.036970534708597666 -1 0 0
1650 1 67.23604346790601 19.408933061024207 1.5636139314116053 -1 0 0
1656 1 70.97141286872402 19.408933061024207 1.5636139314116053 -1 0 0
1811 1 65.36835876749701 22.64385785465121 1.5636139314116047 -1 0 0
1648 4 67.23663332078362 21.566169837309072 0.03697053470859799 -1 0 0
1817 1 69.10372816831502 22.64385785465121 1.5636139314116053 -1 0 0
1654 4 70.97200272160163 21.566169837309072 0.03697053470859803 -1 0 0
1659 4 72.83968742201063 18.33124504368207 0.03697053470859766 -1 0 0
1665 4 76.57505682282863 18.33124504368207 0.03697053470859766 -1 0 0
1662 1 74.70678226954202 19.408933061024207 1.5636139314116053 -1 0 0
1823 1 72.83909756913302 22.64385785465121 1.5636139314116053 -1 0 0
1660 4 74.70737212241963 21.566169837309072 0.03697053470859803 -1 0 0
1829 1 76.57446696995102 22.64385785465121 1.5636139314116053 -1 0 0
1671 4 80.31042622364663 18.33124504368207 0.03697053470859766 -1 0 0
1668 1 78.44215167036002 19.408933061024207 1.5636139314116053 -1 0 0
1674 1 82.17752107117802 19.408933061024207 1.5636139314116053 -1 0 0
1666 4 78.44274152323763 21.566169837309072 0.036970534708598034 -1 0 0
1835 1 80.30983637076902 22.64385785465121 1.5636139314116053 -1 0 0
1672 4 82.17811092405563 21.566169837309072 0.03697053470859803 -1 0 0
1677 4 84.04579562446463 18.33124504368207 0.036970534708597666 -1 0 0
1683 4 87.78116502528263 18.33124504368207 0.03697053470859766 -1 0 0
1680 1 85.91289047199602 19.408933061024207 1.5636139314116053 -1 0 0
1841 1 84.04520577158702 22.64385785465121 1.563613931411605 -1 0 0
1678 4 85.91348032487363 21.566169837309072 0.03697053470859803 -1 0 0
1847 1 87.78057517240502 22.64385785465121 1.5636139314116053 -1 0 0
1689 4 91.51653442610063 18.33124504368207 0.03697053470859764 -1 0 0
1686 1 89.64825987281402 19.408933061024207 1.5636139314116053 -1 0 0
1692 1 93.38362927363202 19.408933061024207 1.5636139314116055 -1 0 0
1684 4 89.64884972569163 21.566169837309072 0.036970534708598034 -1 0 0
1853 1 91.51594457322302 22.64385785465121 1.5636139314116053 -1 0 0
1690 4 93.38421912650963 21.566169837309072 0.03697053470859814 -1 0 0
1704 1 100.85436807526801 19.408933061024207 1.5636139314116055 -1 0 0
1702 4 100.85495792814562 21.566169837309072 0.03697053470859777 -1 0 0
1695 4 95.25190382691864 18.331245043682074 0.03697053470859794 -1 0 0
1701 4 98.98727322773664 18.33124504368207 0.03697053470859549 -1 0 0
1698 1 97.11899867445003 19.408933061024207 1.563613931411605 -1 0 0
1859 1 95.25131397404103 22.64385785465121 1.5636139314116064 -1 0 0
1696 4 97.11958852732764 21.566169837309072 0.03697053470859667 -1 0 0
1865 1 98.98668337485903 22.64385785465121 1.5636139314116042 -1 0 0
1869 4 1.8676688064686326 24.801094630936074 0.03697053470859803 0 0 0
1872 1 3.7347636540000257 25.87878264827821 1.5636139314116053 0 0 0
1875 4 5.603038207286634 24.801094630936074 0.036970534708598034 0 0 0
1870 4 3.735353506877633 28.036019424563076 0.036970534708598034 0 0 0
1878 1 7.470133054818027 25.87878264827821 1.5636139314116053 0 0 0
1881 4 9.338407608104635 24.801094630936074 0.03697053470859796 0 0 0
1884 1 11.205502455636028 25.87878264827821 1.5636139314116055 0 0 0
1876 4 7.4707229076956345 28.036019424563076 0.03697053470859794 0 0 0
1882 4 11.206092308513636 28.036019424563076 0.036970534708597985 0 0 0
1887 4 13.073777008922635 24.801094630936074 0.036970534708597125 0 0 0
1890 1 14.940871856454025 25.87878264827821 1.563613931411605 0 0 0
1893 4 16.80914640974063 24.801094630936074 0.036970534708597895 0 0 0
1888 4 14.941461709331632 28.036019424563076 0.03697053470859692 0 0 0
1896 1 18.676241257272025 25.87878264827821 1.5636139314116053 0 0 0
1899 4 20.544515810558632 24.801094630936074 0.03697053470859799 0 0 0
1902 1 22.411610658090027 25.87878264827821 1.5636139314116053 0 0 0
1894 4 18.67683111014963 28.036019424563076 0.03697053470859799 0 0 0
1900 4 22.412200510967633 28.036019424563076 0.036970534708597985 0 0 0
1905 4 24.279885211376634 24.801094630936074 0.03697053470859799 0 0 0
1908 1 26.146980058908028 25.87878264827821 1.5636139314116053 0 0 0
1911 4 28.015254612194635 24.801094630936074 0.03697053470859799 0 0 0
1906 4 26.147569911785634 28.036019424563076 0.036970534708597985 0 0 0
1914 1 29.88234945972603 25.87878264827821 1.5636139314116053 0 0 0
1917 4 31.750624013012636 24.801094630936074 0.036970534708598304 0 0 0
1920 1 33.61771886054403 25.87878264827821 1.5636139314116055 0 0 0
1923 4 35.485993413830634 24.801094630936074 0.036970534708598006 0 0 0
1912 4 29.882939312603636 28.036019424563076 0.036970534708598006 0 0 0
1918 4 33.618308713421634 28.036019424563076 0.036970534708598304 0 0 0
1926 1 37.35308826136203 25.87878264827821 1.5636139314116053 0 0 0
1929 4 39.221362814648636 24.801094630936074 0.03697053470859799 0 0 0
1932 1 41.08845766218003 25.87878264827821 1.5636139314116055 0 0 0
1924 4 37.353678114239635 28.036019424563076 0.03697053470859798 0 0 0
1930 4 41.089047515057636 28.036019424563076 0.03697053470859765 0 0 0
1935 4 42.95673221546664 24.801094630936074 0.03697053470859609 0 0 0
1938 1 44.82382706299803 25.87878264827821 1.563613931411605 0 0 0
1941 4 46.692101616284624 24.801094630936074 0.03697053470859767 0 0 0
1936 4 44.82441691587563 28.036019424563076 0.03697053470859612 0 0 0
1944 1 48.55919646381602 25.87878264827821 1.5636139314116053 0 0 0
1785 4 50.427471017102626 24.801094630936074 0.03697053470859797 -1 0 0
1788 1 52.29456586463402 25.87878264827821 1.5636139314116053 -1 0 0
1942 4 48.559786316693625 28.036019424563076 0.03697053470859803 0 0 0
1786 4 52.295155717511626 28.036019424563076 0.03697053470859798 -1 0 0
1791 4 54.16284041792063 24.801094630936074 0.03697053470859799 -1 0 0
1794 1 56.029935265452025 25.87878264827821 1.5636139314116055 -1 0 0
1797 4 57.89820981873863 24.801094630936074 0.03697053470859676 -1 0 0
1792 4 56.03052511832963 28.036019424563076 0.036970534708597576 -1 0 0
1800 1 59.76530466627002 25.87878264827821 1.5636139314116053 -1 0 0
1803 4 61.63357921955662 24.801094630936074 0.03697053470859812 -1 0 0