LAMMPS data file via write_data, version 2 Aug 2023, timestep = 2, units = metal

10368 atoms
36 atom types

0 101.890126869904 xlo xhi
0 99.26936804718 ylo yhi
-50 50 zlo zhi

Masses

1 95.95
2 95.95
3 95.95
4 95.95
5 95.95
6 95.95
7 95.95
8 95.95
9 95.95
10 95.95
11 95.95
12 95.95
13 32.06
14 32.06
15 32.06
16 32.06
17 32.06
18 32.06
19 32.06
20 32.06
21 32.06
22 32.06
23 32.06
24 32.06
25 32.06
26 32.06
27 32.06
28 32.06
29 32.06
30 32.06
31 32.06
32 32.06
33 32.06
34 32.06
35 32.06
36 32.06

Atoms # atomic

1745 16 1.5920332323419675 0.9191608152519011 0.012069769329791254 0 0 0
1746 2 3.184066464684155 1.476065713566327e-13 1.5620871777770373 0 0 0
1736 14 4.776099697026239 0.9191608152518886 0.012069769329851902 0 0 0
1733 4 1.5920332323419824 2.7574824457551697 1.5620871777770375 0 0 0
1742 3 4.776099697026364 2.757482445755252 1.5620871777770378 0 0 0
1739 18 3.1840664646841175 3.6766432610069426 0.012069769329803715 0 0 0
2127 2 2.1523547692927784e-14 5.514964891510149 1.562087177777037 0 0 0
2133 1 3.1840664646845407 5.514964891510274 1.5620871777770378 0 0 0
1774 1 6.368132929368677 2.7090403552428087e-13 1.5620871777770382 0 0 0
1769 16 7.9601661617109665 0.9191608152519011 0.012069769329791133 0 0 0
1770 2 9.552199394053154 1.4781210389937866e-13 1.5620871777770373 0 0 0
1760 14 11.144232626395238 0.9191608152518889 0.012069769329851425 0 0 0
1757 4 7.960166161710983 2.7574824457551697 1.5620871777770375 0 0 0
1766 3 11.144232626395363 2.7574824457552514 1.562087177777038 0 0 0
1764 20 6.368132929368801 3.676643261006851 0.012069769329838968 0 0 0
1763 18 9.552199394053119 3.676643261006943 0.012069769329803701 0 0 0
2151 2 6.368132929369018 5.514964891510151 1.5620871777770373 0 0 0
2157 1 9.55219939405354 5.5149648915102745 1.562087177777038 0 0 0
1798 1 12.736265858737678 2.717707141849971e-13 1.5620871777770384 0 0 0
1793 16 14.32829909107997 0.9191608152519007 0.012069769329791591 0 0 0
1794 2 15.920332323422155 1.4687408550714636e-13 1.5620871777770373 0 0 0
1781 4 14.328299091079986 2.7574824457551705 1.5620871777770375 0 0 0
1788 20 12.7362658587378 3.6766432610068507 0.012069769329839079 0 0 0
1787 18 15.920332323422121 3.6766432610069435 0.01206976932980339 0 0 0
2175 2 12.736265858738019 5.514964891510151 1.5620871777770375 0 0 0
2181 1 15.920332323422544 5.5149648915102745 1.562087177777038 0 0 0
1784 14 17.512365555764234 0.9191608152518893 0.012069769329850953 0 0 0
1822 1 19.104398788106675 2.719186835361526e-13 1.5620871777770382 0 0 0
1817 16 20.696432020448967 0.9191608152519007 0.012069769329791546 0 0 0
1818 2 22.288465252791152 1.4689503132594009e-13 1.5620871777770373 0 0 0
1790 3 17.51236555576436 2.7574824457552505 1.5620871777770378 0 0 0
1805 4 20.696432020448984 2.7574824457551705 1.5620871777770375 0 0 0
1812 20 19.104398788106796 3.6766432610068507 0.012069769329839294 0 0 0
1811 18 22.28846525279112 3.676643261006943 0.01206976932980354 0 0 0
2199 2 19.10439878810702 5.51496489151015 1.5620871777770373 0 0 0
2205 1 22.288465252791543 5.5149648915102745 1.562087177777038 0 0 0
1808 14 23.880498485133234 0.9191608152518885 0.012069769329851836 0 0 0
1846 1 25.472531717475675 2.716627238815789e-13 1.5620871777770384 0 0 0
1841 16 27.064564949817967 0.9191608152519015 0.012069769329790727 0 0 0
1814 3 23.880498485133366 2.7574824457552523 1.562087177777038 0 0 0
1829 4 27.064564949817985 2.7574824457551688 1.5620871777770375 0 0 0
1836 20 25.472531717475803 3.6766432610068507 0.012069769329838977 0 0 0
2223 2 25.47253171747602 5.51496489151015 1.5620871777770373 0 0 0
1842 2 28.656598182160153 1.4801208578272298e-13 1.5620871777770373 0 0 0
1832 14 30.24863141450224 0.9191608152518884 0.012069769329852105 0 0 0
1870 1 31.840664646844676 2.6970506516032447e-13 1.5620871777770382 0 0 0
1865 16 33.43269787918696 0.9191608152519013 0.012069769329790304 0 0 0
1838 3 30.248631414502366 2.757482445755252 1.5620871777770378 0 0 0
1853 4 33.43269787918698 2.7574824457551697 1.5620871777770375 0 0 0
1835 18 28.65659818216012 3.676643261006942 0.012069769329804211 0 0 0
1860 20 31.8406646468448 3.6766432610068516 0.012069769329838434 0 0 0
2229 1 28.65659818216054 5.5149648915102745 1.562087177777038 0 0 0
2247 2 31.840664646845017 5.51496489151015 1.5620871777770373 0 0 0
1866 2 35.02473111152915 1.4860730463347837e-13 1.5620871777770373 0 0 0
1856 14 36.61676434387124 0.919160815251889 0.012069769329851784 0 0 0
1894 1 38.20879757621368 2.7237542294508806e-13 1.5620871777770384 0 0 0
1862 3 36.61676434387136 2.757482445755252 1.5620871777770378 0 0 0
1859 18 35.024731111529114 3.676643261006942 0.012069769329804138 0 0 0
1884 20 38.208797576213804 3.6766432610068507 0.012069769329839393 0 0 0
2253 1 35.02473111152954 5.5149648915102745 1.562087177777038 0 0 0
2271 2 38.20879757621402 5.514964891510152 1.5620871777770373 0 0 0
1889 16 39.80083080855597 0.919160815251901 0.012069769329790852 0 0 0
1890 2 41.392864040898154 1.4616424512580872e-13 1.5620871777770373 0 0 0
1880 14 42.984897273240236 0.919160815251889 0.012069769329851498 0 0 0
1918 1 44.57693050558267 2.720853360957912e-13 1.5620871777770382 0 0 0
1877 4 39.800830808555986 2.7574824457551688 1.5620871777770375 0 0 0
1886 3 42.98489727324036 2.7574824457552523 1.5620871777770378 0 0 0
1883 18 41.39286404089812 3.676643261006943 0.012069769329803182 0 0 0
1908 20 44.5769305055828 3.6766432610068507 0.01206976932983925 0 0 0
2277 1 41.39286404089854 5.514964891510273 1.5620871777770378 0 0 0
2295 2 44.576930505583015 5.514964891510152 1.5620871777770373 0 0 0
1913 16 46.16896373792497 0.9191608152519007 0.01206976932979149 0 0 0
1914 2 47.76099697026715 1.4732997643335658e-13 1.5620871777770373 0 0 0
1904 14 49.35303020260923 0.9191608152518892 0.012069769329851238 0 0 0
1901 4 46.16896373792498 2.7574824457551705 1.5620871777770375 0 0 0
1910 3 49.35303020260936 2.757482445755251 1.5620871777770378 0 0 0
1907 18 47.760996970267115 3.676643261006943 0.01206976932980377 0 0 0
2301 1 47.76099697026754 5.5149648915102745 1.5620871777770378 0 0 0
1558 1 50.94506343495167 2.703346258032677e-13 1.562087177777038 -1 0 0
1548 20 50.9450634349518 3.676643261006851 0.012069769329838758 -1 0 0
1553 16 52.53709666729396 0.9191608152519007 0.012069769329791188 -1 0 0
1554 2 54.12912989963615 1.4742147975362163e-13 1.5620871777770373 -1 0 0
1544 14 55.72116313197823 0.9191608152518892 0.012069769329850988 -1 0 0
1541 4 52.53709666729398 2.75748244575517 1.5620871777770375 -1 0 0
1550 3 55.72116313197836 2.757482445755251 1.5620871777770378 -1 0 0
1547 18 54.12912989963611 3.676643261006943 0.012069769329803484 -1 0 0
1935 2 50.94506343495201 5.514964891510149 1.5620871777770373 -1 0 0
1941 1 54.12912989963654 5.514964891510275 1.562087177777038 -1 0 0
1582 1 57.31319636432067 2.722291523927528e-13 1.5620871777770384 -1 0 0
1577 16 58.90522959666296 0.9191608152519007 0.012069769329791738 -1 0 0
1578 2 60.49726282900515 1.4734950066760583e-13 1.5620871777770373 -1 0 0
1568 14 62.089296061347234 0.919160815251889 0.012069769329851316 -1 0 0
1565 4 58.90522959666298 2.7574824457551697 1.5620871777770375 -1 0 0
1574 3 62.089296061347355 2.757482445755252 1.5620871777770378 -1 0 0
1572 20 57.313196364320795 3.6766432610068507 0.012069769329839256 -1 0 0
1571 18 60.49726282900511 3.6766432610069426 0.012069769329803779 -1 0 0
1959 2 57.313196364321016 5.514964891510151 1.5620871777770375 -1 0 0
1965 1 60.497262829005535 5.514964891510274 1.562087177777038 -1 0 0
1606 1 63.68132929368967 2.72035344754447e-13 1.5620871777770384 -1 0 0
1601 16 65.27336252603196 0.9191608152519006 0.012069769329791409 -1 0 0
1602 2 66.86539575837415 1.471485993640013e-13 1.5620871777770373 -1 0 0
1589 4 65.27336252603199 2.757482445755171 1.5620871777770375 -1 0 0
1596 20 63.6813292936898 3.676643261006851 0.01206976932983915 -1 0 0
1595 18 66.86539575837412 3.6766432610069435 0.012069769329803162 -1 0 0
1983 2 63.68132929369001 5.514964891510151 1.5620871777770373 -1 0 0
1989 1 66.86539575837453 5.514964891510275 1.562087177777038 -1 0 0
1592 14 68.45742899071624 0.9191608152518894 0.012069769329851076 -1 0 0
1630 1 70.04946222305867 2.7194390398043297e-13 1.5620871777770384 -1 0 0
1625 16 71.64149545540096 0.919160815251901 0.012069769329790779 -1 0 0
1626 2 73.23352868774315 1.4711366328040218e-13 1.5620871777770373 -1 0 0
1598 3 68.45742899071637 2.757482445755251 1.5620871777770378 -1 0 0
1613 4 71.64149545540097 2.7574824457551683 1.5620871777770375 -1 0 0
1620 20 70.0494622230588 3.6766432610068502 0.012069769329839624 -1 0 0
1619 18 73.2335286877431 3.6766432610069435 0.01206976932980324 -1 0 0
2007 2 70.04946222305901 5.514964891510149 1.5620871777770373 -1 0 0
2013 1 73.23352868774353 5.514964891510275 1.562087177777038 -1 0 0
1616 14 74.82556192008524 0.9191608152518891 0.012069769329851567 -1 0 0
1654 1 76.41759515242767 2.7112829265862894e-13 1.5620871777770382 -1 0 0
1649 16 78.00962838476997 0.9191608152519002 0.012069769329792198 -1 0 0
1622 3 74.82556192008535 2.7574824457552527 1.5620871777770378 -1 0 0
1637 4 78.00962838476998 2.75748244575517 1.5620871777770375 -1 0 0
1644 20 76.4175951524278 3.6766432610068507 0.012069769329839077 -1 0 0
2031 2 76.417595152428 5.514964891510148 1.5620871777770375 -1 0 0
1650 2 79.60166161711216 1.4903488059767e-13 1.5620871777770373 -1 0 0
1640 14 81.19369484945425 0.919160815251889 0.012069769329851106 -1 0 0
1678 1 82.78572808179668 2.716904538645651e-13 1.5620871777770382 -1 0 0
1673 16 84.37776131413897 0.9191608152519009 0.012069769329791213 -1 0 0
1646 3 81.19369484945436 2.7574824457552523 1.5620871777770378 -1 0 0
1661 4 84.37776131413898 2.7574824457551688 1.5620871777770375 -1 0 0
1643 18 79.60166161711211 3.676643261006942 0.012069769329804221 -1 0 0
1668 20 82.7857280817968 3.6766432610068507 0.01206976932983943 -1 0 0
2037 1 79.60166161711254 5.514964891510275 1.562087177777038 -1 0 0
2055 2 82.78572808179702 5.514964891510151 1.5620871777770373 -1 0 0
1674 2 85.96979454648115 1.4476885816833485e-13 1.5620871777770373 -1 0 0
1664 14 87.56182777882323 0.9191608152518885 0.012069769329851944 -1 0 0
1702 1 89.15386101116567 2.711312369893933e-13 1.5620871777770382 -1 0 0
1670 3 87.56182777882336 2.757482445755252 1.5620871777770378 -1 0 0
1667 18 85.96979454648111 3.676643261006944 0.012069769329802974 -1 0 0
1692 20 89.15386101116579 3.676643261006851 0.01206976932983831 -1 0 0
2061 1 85.96979454648154 5.514964891510274 1.562087177777038 -1 0 0
2079 2 89.15386101116601 5.51496489151015 1.5620871777770373 -1 0 0
1697 16 90.74589424350796 0.9191608152519015 0.012069769329790713 -1 0 0
1698 2 92.33792747585015 1.4922310907555332e-13 1.5620871777770373 -1 0 0
1688 14 93.92996070819224 0.919160815251889 0.012069769329851182 -1 0 0
1726 1 95.52199394053467 2.714021210974206e-13 1.5620871777770382 -1 0 0
1685 4 90.74589424350798 2.757482445755169 1.5620871777770375 -1 0 0
1694 3 93.92996070819235 2.7574824457552523 1.5620871777770378 -1 0 0
1691 18 92.33792747585011 3.676643261006942 0.012069769329804424 -1 0 0
1716 20 95.5219939405348 3.676643261006851 0.01206976932983914 -1 0 0
2085 1 92.33792747585053 5.5149648915102745 1.5620871777770378 -1 0 0
2103 2 95.52199394053501 5.514964891510151 1.5620871777770373 -1 0 0
1750 1 101.89012686990367 2.7126864131946e-13 1.5620871777770384 -1 0 0
1740 20 101.8901268699038 3.6766432610068502 0.012069769329839984 -1 0 0
1721 16 97.11402717287696 0.9191608152519006 0.01206976932979149 -1 0 0
1722 2 98.70606040521915 1.4715035344615372e-13 1.5620871777770373 -1 0 0
1712 14 100.29809363756124 0.9191608152518894 0.012069769329851009 -1 0 0
1709 4 97.11402717287699 2.75748244575517 1.5620871777770375 -1 0 0
1718 3 100.29809363756137 2.757482445755251 1.562087177777037 -1 0 0
1715 18 98.70606040521912 3.6766432610069435 0.012069769329803248 -1 0 0
2109 1 98.70606040521953 5.514964891510275 1.562087177777038 -1 0 0
2115 14 1.5920332323422084 6.4341257067618915 0.01206976932985137 0 0 0
2128 16 4.776099697026936 6.434125706761904 0.01206976932979081 0 0 0
2122 3 1.5920332323423323 8.272447337265255 1.5620871777770378 0 0 0
2114 4 4.776099697026952 8.272447337265172 1.5620871777770375 0 0 0
2118 18 3.697687608633586e-14 9.191608152516945 0.012069769329802891 0 0 0
2119 20 3.184066464684718 9.191608152516853 0.01206976932983881 0 0 0
2130 2 3.184066464684155 11.029929783020151 1.5620871777770373 0 0 0
2139 14 7.960166161711206 6.434125706761892 0.012069769329851161 0 0 0
2152 16 11.144232626395938 6.434125706761904 0.012069769329790803 0 0 0
2146 3 7.9601661617113315 8.272447337265254 1.5620871777770378 0 0 0
2138 4 11.144232626395953 8.272447337265172 1.5620871777770373 0 0 0
2142 18 6.368132929369036 9.191608152516944 0.012069769329803595 0 0 0
2143 20 9.552199394053716 9.191608152516851 0.012069769329839003 0 0 0
2158 1 6.368132929368677 11.029929783020274 1.562087177777038 0 0 0
2154 2 9.552199394053154 11.029929783020151 1.5620871777770373 0 0 0
2163 14 14.32829909108021 6.4341257067618915 0.0120697693298514 0 0 0
2170 3 14.328299091080332 8.272447337265254 1.5620871777770378 0 0 0
2166 18 12.736265858738037 9.191608152516945 0.012069769329803682 0 0 0
2167 20 15.92033232342272 9.191608152516851 0.01206976932983901 0 0 0
2182 1 12.736265858737678 11.029929783020275 1.562087177777038 0 0 0
2178 2 15.920332323422155 11.02992978302015 1.5620871777770375 0 0 0
2176 16 17.51236555576494 6.434125706761905 0.01206976932979049 0 0 0
2187 14 20.69643202044921 6.4341257067618915 0.012069769329851286 0 0 0
2162 4 17.512365555764955 8.272447337265172 1.5620871777770375 0 0 0
2194 3 20.696432020449333 8.272447337265254 1.5620871777770378 0 0 0
2190 18 19.104398788107034 9.191608152516945 0.0120697693298034 0 0 0
2191 20 22.28846525279172 9.191608152516853 0.012069769329839433 0 0 0
2206 1 19.104398788106675 11.029929783020275 1.5620871777770382 0 0 0
2202 2 22.288465252791152 11.029929783020151 1.5620871777770373 0 0 0
2200 16 23.880498485133938 6.434125706761904 0.012069769329791029 0 0 0
2211 14 27.064564949818205 6.434125706761892 0.012069769329850426 0 0 0
2186 4 23.880498485133955 8.272447337265174 1.5620871777770375 0 0 0
2218 3 27.064564949818333 8.272447337265254 1.562087177777038 0 0 0
2214 18 25.472531717476038 9.191608152516945 0.012069769329803163 0 0 0
2230 1 25.472531717475675 11.029929783020275 1.562087177777038 0 0 0
2224 16 30.248631414502935 6.434125706761904 0.012069769329791093 0 0 0
2235 14 33.43269787918721 6.4341257067618915 0.0120697693298517 0 0 0
2210 4 30.248631414502952 8.272447337265172 1.5620871777770375 0 0 0
2242 3 33.43269787918734 8.272447337265254 1.5620871777770378 0 0 0
2215 20 28.656598182160717 9.191608152516851 0.012069769329839518 0 0 0
2238 18 31.840664646845035 9.191608152516945 0.012069769329803293 0 0 0
2226 2 28.656598182160156 11.029929783020151 1.5620871777770373 0 0 0
2254 1 31.840664646844676 11.029929783020274 1.562087177777038 0 0 0
2248 16 36.616764343871935 6.434125706761905 0.012069769329790314 0 0 0
2234 4 36.61676434387195 8.27244733726517 1.5620871777770375 0 0 0
2239 20 35.024731111529725 9.191608152516853 0.012069769329838949 0 0 0
2262 18 38.20879757621404 9.191608152516944 0.012069769329804055 0 0 0
2250 2 35.02473111152915 11.029929783020151 1.5620871777770373 0 0 0
2278 1 38.20879757621368 11.029929783020275 1.562087177777038 0 0 0
2259 14 39.80083080855621 6.4341257067618915 0.012069769329851267 0 0 0
2272 16 42.98489727324093 6.434125706761904 0.012069769329790515 0 0 0
2266 3 39.800830808556334 8.272447337265254 1.5620871777770378 0 0 0
2258 4 42.984897273240946 8.27244733726517 1.5620871777770375 0 0 0
2263 20 41.39286404089872 9.191608152516853 0.012069769329838484 0 0 0
2286 18 44.576930505583036 9.191608152516944 0.012069769329804608 0 0 0
2274 2 41.392864040898154 11.02992978302015 1.5620871777770373 0 0 0
2302 1 44.57693050558267 11.029929783020275 1.562087177777038 0 0 0
2283 14 46.16896373792521 6.4341257067618915 0.012069769329851451 0 0 0
2296 16 49.353030202609936 6.434125706761905 0.012069769329790352 0 0 0
2290 3 46.16896373792533 8.272447337265254 1.5620871777770378 0 0 0
2282 4 49.35303020260995 8.272447337265172 1.5620871777770373 0 0 0
2287 20 47.76099697026772 9.191608152516851 0.012069769329838893 0 0 0
2298 2 47.76099697026715 11.029929783020151 1.5620871777770373 0 0 0
1942 1 50.94506343495167 11.029929783020274 1.562087177777038 -1 0 0
1923 14 52.5370966672942 6.4341257067618915 0.01206976932985126 -1 0 0
1936 16 55.72116313197893 6.434125706761905 0.01206976932979053 -1 0 0
1930 3 52.53709666729433 8.272447337265254 1.5620871777770378 -1 0 0
1922 4 55.72116313197895 8.27244733726517 1.5620871777770375 -1 0 0
1926 18 50.94506343495203 9.191608152516945 0.012069769329802905 -1 0 0
1927 20 54.129129899636716 9.191608152516851 0.012069769329839324 -1 0 0
1938 2 54.12912989963615 11.029929783020151 1.5620871777770373 -1 0 0
1947 14 58.905229596663204 6.4341257067618915 0.012069769329851772 -1 0 0
1960 16 62.08929606134793 6.434125706761904 0.012069769329790814 -1 0 0
1954 3 58.905229596663325 8.272447337265254 1.5620871777770378 -1 0 0
1946 4 62.089296061347945 8.272447337265172 1.5620871777770373 -1 0 0
1950 18 57.31319636432103 9.191608152516944 0.012069769329804123 -1 0 0
1951 20 60.49726282900571 9.191608152516853 0.012069769329838512 -1 0 0
1966 1 57.31319636432067 11.029929783020275 1.5620871777770378 -1 0 0
1962 2 60.49726282900515 11.029929783020151 1.5620871777770373 -1 0 0
1971 14 65.2733625260322 6.4341257067618915 0.012069769329850717 -1 0 0
1978 3 65.27336252603233 8.272447337265254 1.5620871777770378 -1 0 0
1974 18 63.681329293690034 9.191608152516944 0.012069769329804471 -1 0 0
1975 20 66.86539575837472 9.191608152516851 0.012069769329839221 -1 0 0
1990 1 63.68132929368967 11.029929783020275 1.562087177777038 -1 0 0
1986 2 66.86539575837415 11.029929783020151 1.5620871777770375 -1 0 0
1984 16 68.45742899071693 6.434125706761904 0.012069769329790689 -1 0 0
1995 14 71.6414954554012 6.434125706761892 0.012069769329851241 -1 0 0
1970 4 68.45742899071695 8.27244733726517 1.5620871777770375 -1 0 0
2002 3 71.64149545540133 8.272447337265255 1.5620871777770378 -1 0 0
1998 18 70.04946222305902 9.191608152516945 0.012069769329803286 -1 0 0
1999 20 73.23352868774371 9.191608152516851 0.012069769329839254 -1 0 0
2014 1 70.04946222305867 11.029929783020275 1.562087177777038 -1 0 0
2010 2 73.23352868774315 11.029929783020151 1.5620871777770373 -1 0 0
2008 16 74.82556192008593 6.434125706761904 0.012069769329790354 -1 0 0
2019 14 78.0096283847702 6.4341257067618915 0.012069769329852133 -1 0 0
1994 4 74.82556192008595 8.27244733726517 1.5620871777770378 -1 0 0
2026 3 78.00962838477032 8.272447337265255 1.5620871777770378 -1 0 0
2022 18 76.41759515242802 9.191608152516945 0.012069769329803297 -1 0 0
2038 1 76.41759515242767 11.029929783020275 1.562087177777038 -1 0 0
2032 16 81.19369484945494 6.434125706761904 0.012069769329790708 -1 0 0
2043 14 84.3777613141392 6.434125706761892 0.012069769329851243 -1 0 0
2018 4 81.19369484945496 8.272447337265172 1.5620871777770375 -1 0 0
2050 3 84.37776131413933 8.272447337265254 1.562087177777038 -1 0 0
2023 20 79.60166161711271 9.191608152516853 0.012069769329839022 -1 0 0
2046 18 82.78572808179703 9.191608152516944 0.012069769329804563 -1 0 0
2034 2 79.60166161711216 11.029929783020153 1.5620871777770375 -1 0 0
2062 1 82.78572808179668 11.029929783020275 1.562087177777038 -1 0 0
2056 16 87.56182777882394 6.434125706761904 0.012069769329790677 -1 0 0
2042 4 87.56182777882395 8.272447337265172 1.5620871777770375 -1 0 0
2047 20 85.96979454648172 9.191608152516853 0.012069769329837788 -1 0 0
2070 18 89.15386101116603 9.191608152516945 0.012069769329803314 -1 0 0
2058 2 85.96979454648115 11.02992978302015 1.5620871777770373 -1 0 0
2086 1 89.15386101116567 11.029929783020274 1.562087177777038 -1 0 0
2067 14 90.7458942435082 6.434125706761892 0.012069769329850476 -1 0 0
2080 16 93.92996070819294 6.434125706761904 0.012069769329790914 -1 0 0
2074 3 90.74589424350833 8.272447337265254 1.5620871777770378 -1 0 0
2066 4 93.92996070819295 8.272447337265172 1.5620871777770375 -1 0 0
2071 20 92.3379274758507 9.191608152516851 0.012069769329839579 -1 0 0
2094 18 95.52199394053503 9.191608152516944 0.012069769329804355 -1 0 0
2082 2 92.33792747585015 11.029929783020153 1.5620871777770373 -1 0 0
2110 1 95.52199394053467 11.029929783020274 1.562087177777038 -1 0 0
2134 1 101.89012686990367 11.029929783020275 1.562087177777038 -1 0 0
2091 14 97.1140271728772 6.434125706761892 0.012069769329850792 -1 0 0
2104 16 100.29809363756193 6.434125706761904 0.01206976932979088 -1 0 0
2098 3 97.11402717287733 8.272447337265254 1.5620871777770378 -1 0 0
2090 4 100.29809363756195 8.27244733726517 1.5620871777770378 -1 0 0
2095 20 98.70606040521972 9.191608152516851 0.012069769329839223 -1 0 0
2106 2 98.70606040521915 11.029929783020151 1.5620871777770375 -1 0 0
2129 16 1.5920332323419675 11.949090598271903 0.012069769329790968 0 0 0
2120 14 4.776099697026239 11.94909059827189 0.012069769329851675 0 0 0
2117 4 1.5920332323419824 13.78741222877517 1.5620871777770375 0 0 0
2126 3 4.776099697026364 13.787412228775251 1.5620871777770378 0 0 0
2123 18 3.1840664646841175 14.706573044026939 0.012069769329803167 0 0 0
2511 2 2.1575097809031965e-14 16.544894674530145 1.562087177777037 0 0 0
2517 1 3.1840664646845407 16.54489467453027 1.5620871777770382 0 0 0
2499 14 1.5920332323422084 17.464055489781888 0.012069769329851697 0 0 0
2512 16 4.776099697026936 17.4640554897819 0.012069769329791072 0 0 0
2153 16 7.9601661617109665 11.949090598271903 0.012069769329790892 0 0 0
2144 14 11.144232626395238 11.94909059827189 0.012069769329851253 0 0 0
2141 4 7.960166161710983 13.78741222877517 1.5620871777770375 0 0 0
2150 3 11.144232626395363 13.787412228775251 1.5620871777770378 0 0 0
2148 20 6.368132929368801 14.706573044026847 0.012069769329838066 0 0 0
2147 18 9.552199394053119 14.706573044026939 0.012069769329803352 0 0 0
2535 2 6.368132929369017 16.544894674530145 1.5620871777770375 0 0 0
2541 1 9.55219939405354 16.54489467453027 1.562087177777038 0 0 0
2523 14 7.960166161711206 17.464055489781888 0.012069769329851343 0 0 0
2536 16 11.144232626395938 17.4640554897819 0.012069769329791053 0 0 0
2177 16 14.32829909107997 11.949090598271903 0.01206976932979129 0 0 0
2165 4 14.328299091079986 13.787412228775171 1.5620871777770375 0 0 0
2172 20 12.7362658587378 14.706573044026847 0.012069769329838565 0 0 0
2171 18 15.920332323422121 14.706573044026939 0.012069769329802922 0 0 0
2559 2 12.736265858738019 16.544894674530145 1.5620871777770373 0 0 0
2565 1 15.920332323422544 16.54489467453027 1.562087177777038 0 0 0
2547 14 14.32829909108021 17.464055489781888 0.012069769329851819 0 0 0
2168 14 17.512365555764234 11.94909059827189 0.012069769329850842 0 0 0
2201 16 20.696432020448967 11.949090598271903 0.01206976932979125 0 0 0
2174 3 17.51236555576436 13.787412228775251 1.5620871777770378 0 0 0
2189 4 20.696432020448984 13.787412228775171 1.5620871777770375 0 0 0
2196 20 19.104398788106796 14.706573044026847 0.012069769329838782 0 0 0
2195 18 22.28846525279112 14.706573044026939 0.012069769329802874 0 0 0
2583 2 19.10439878810702 16.544894674530145 1.5620871777770373 0 0 0
2589 1 22.288465252791543 16.54489467453027 1.562087177777038 0 0 0
2560 16 17.51236555576494 17.464055489781902 0.012069769329790765 0 0 0
2571 14 20.69643202044921 17.464055489781888 0.012069769329851616 0 0 0
2192 14 23.880498485133234 11.94909059827189 0.012069769329851598 0 0 0
2225 16 27.064564949817967 11.949090598271903 0.012069769329790495 0 0 0
2198 3 23.880498485133366 13.787412228775251 1.5620871777770378 0 0 0
2213 4 27.064564949817985 13.787412228775167 1.5620871777770375 0 0 0
2220 20 25.472531717475803 14.706573044026847 0.012069769329838415 0 0 0
2607 2 25.47253171747602 16.544894674530145 1.5620871777770373 0 0 0
2584 16 23.880498485133938 17.4640554897819 0.012069769329791298 0 0 0
2595 14 27.064564949818205 17.464055489781888 0.012069769329850967 0 0 0
2216 14 30.24863141450224 11.94909059827189 0.0120697693298519 0 0 0
2249 16 33.43269787918696 11.949090598271903 0.012069769329790153 0 0 0
2222 3 30.248631414502366 13.787412228775251 1.5620871777770378 0 0 0
2237 4 33.43269787918698 13.78741222877517 1.5620871777770375 0 0 0
2219 18 28.65659818216012 14.706573044026939 0.012069769329803796 0 0 0
2244 20 31.8406646468448 14.706573044026849 0.012069769329837849 0 0 0
2613 1 28.65659818216054 16.54489467453027 1.562087177777038 0 0 0
2631 2 31.840664646845017 16.544894674530145 1.5620871777770373 0 0 0
2608 16 30.248631414502935 17.4640554897819 0.012069769329791319 0 0 0
2619 14 33.43269787918721 17.464055489781888 0.012069769329851968 0 0 0
2240 14 36.61676434387124 11.94909059827189 0.012069769329851616 0 0 0
2246 3 36.61676434387136 13.787412228775251 1.5620871777770378 0 0 0
2243 18 35.024731111529114 14.706573044026939 0.012069769329803555 0 0 0
2268 20 38.208797576213804 14.706573044026849 0.012069769329838935 0 0 0
2637 1 35.02473111152954 16.54489467453027 1.562087177777038 0 0 0
2655 2 38.20879757621402 16.54489467453015 1.5620871777770373 0 0 0
2632 16 36.616764343871935 17.464055489781902 0.012069769329790665 0 0 0
2273 16 39.80083080855597 11.949090598271903 0.012069769329790753 0 0 0
2264 14 42.984897273240236 11.94909059827189 0.01206976932985145 0 0 0
2261 4 39.800830808555986 13.78741222877517 1.5620871777770375 0 0 0
2270 3 42.98489727324036 13.787412228775251 1.5620871777770378 0 0 0
2267 18 41.39286404089812 14.706573044026939 0.01206976932980246 0 0 0
2292 20 44.5769305055828 14.706573044026849 0.012069769329838763 0 0 0
2661 1 41.39286404089854 16.54489467453027 1.562087177777038 0 0 0
2679 2 44.576930505583015 16.54489467453015 1.5620871777770373 0 0 0
2643 14 39.80083080855621 17.464055489781888 0.012069769329851519 0 0 0
2656 16 42.98489727324093 17.4640554897819 0.012069769329791005 0 0 0
2297 16 46.16896373792497 11.949090598271903 0.012069769329791261 0 0 0
2288 14 49.35303020260923 11.94909059827189 0.012069769329850951 0 0 0
2285 4 46.16896373792498 13.787412228775171 1.5620871777770375 0 0 0
2294 3 49.35303020260936 13.787412228775251 1.5620871777770378 0 0 0
2291 18 47.760996970267115 14.706573044026939 0.012069769329803304 0 0 0
2685 1 47.76099697026754 16.54489467453027 1.562087177777038 0 0 0
2667 14 46.16896373792521 17.464055489781888 0.012069769329851664 0 0 0
2680 16 49.353030202609936 17.464055489781902 0.01206976932979074 0 0 0
1932 20 50.9450634349518 14.706573044026849 0.012069769329838215 -1 0 0
1937 16 52.53709666729396 11.949090598271903 0.01206976932979127 -1 0 0
1928 14 55.72116313197823 11.94909059827189 0.012069769329851003 -1 0 0
1925 4 52.53709666729398 13.78741222877517 1.5620871777770375 -1 0 0
1934 3 55.72116313197836 13.787412228775251 1.5620871777770378 -1 0 0
1931 18 54.12912989963611 14.706573044026939 0.01206976932980287 -1 0 0
2319 2 50.94506343495201 16.544894674530145 1.5620871777770373 -1 0 0
2325 1 54.12912989963654 16.544894674530273 1.5620871777770382 -1 0 0
2307 14 52.5370966672942 17.464055489781888 0.01206976932985145 -1 0 0
2320 16 55.72116313197893 17.4640554897819 0.01206976932979098 -1 0 0
1961 16 58.90522959666296 11.949090598271903 0.012069769329791442 -1 0 0
1952 14 62.089296061347234 11.94909059827189 0.012069769329851132 -1 0 0
1949 4 58.90522959666298 13.78741222877517 1.5620871777770375 -1 0 0
1958 3 62.089296061347355 13.787412228775251 1.5620871777770378 -1 0 0
1956 20 57.313196364320795 14.706573044026847 0.012069769329838765 -1 0 0
1955 18 60.49726282900511 14.706573044026939 0.012069769329803135 -1 0 0
2343 2 57.313196364321016 16.544894674530145 1.5620871777770373 -1 0 0
2349 1 60.497262829005535 16.54489467453027 1.562087177777038 -1 0 0
2331 14 58.905229596663204 17.464055489781888 0.012069769329852145 -1 0 0
2344 16 62.08929606134793 17.4640554897819 0.012069769329791272 -1 0 0
1985 16 65.27336252603196 11.949090598271903 0.012069769329791185 -1 0 0
1973 4 65.27336252603199 13.787412228775171 1.5620871777770375 -1 0 0
1980 20 63.6813292936898 14.706573044026849 0.012069769329838671 -1 0 0
1979 18 66.86539575837412 14.70657304402694 0.012069769329802551 -1 0 0
2367 2 63.68132929369001 16.54489467453015 1.5620871777770373 -1 0 0
2373 1 66.86539575837453 16.544894674530273 1.562087177777038 -1 0 0
2355 14 65.2733625260322 17.464055489781888 0.012069769329850932 -1 0 0
1976 14 68.45742899071624 11.94909059827189 0.012069769329850965 -1 0 0
2009 16 71.64149545540096 11.949090598271903 0.012069769329790696 -1 0 0
1982 3 68.45742899071637 13.787412228775251 1.5620871777770378 -1 0 0
1997 4 71.64149545540097 13.787412228775167 1.5620871777770375 -1 0 0
2004 20 70.0494622230588 14.706573044026847 0.012069769329839166 -1 0 0
2003 18 73.2335286877431 14.70657304402694 0.012069769329802697 -1 0 0
2391 2 70.04946222305901 16.544894674530145 1.5620871777770373 -1 0 0
2397 1 73.23352868774353 16.544894674530273 1.562087177777038 -1 0 0
2368 16 68.45742899071693 17.464055489781902 0.01206976932979098 -1 0 0
2379 14 71.6414954554012 17.464055489781888 0.012069769329851465 -1 0 0
2000 14 74.82556192008524 11.94909059827189 0.01206976932985162 -1 0 0
2033 16 78.00962838476997 11.949090598271903 0.012069769329792113 -1 0 0
2006 3 74.82556192008535 13.787412228775253 1.562087177777038 -1 0 0
2021 4 78.00962838476998 13.78741222877517 1.5620871777770375 -1 0 0
2028 20 76.4175951524278 14.706573044026847 0.012069769329838389 -1 0 0
2415 2 76.417595152428 16.544894674530145 1.5620871777770373 -1 0 0
2392 16 74.82556192008593 17.4640554897819 0.012069769329790868 -1 0 0
2403 14 78.0096283847702 17.464055489781888 0.012069769329852487 -1 0 0
2024 14 81.19369484945425 11.94909059827189 0.012069769329850981 -1 0 0
2057 16 84.37776131413897 11.949090598271903 0.012069769329791175 -1 0 0
2030 3 81.19369484945436 13.787412228775253 1.5620871777770378 -1 0 0
2045 4 84.37776131413898 13.787412228775167 1.5620871777770375 -1 0 0