LAMMPS data file via write_data, version 2 Aug 2023, timestep = 0, units = metal

3456 atoms
12 atom types

0 101.890126869904 xlo xhi
0 99.26936804718 ylo yhi
0 18.127112646352 zlo zhi

Masses

1 95.95999999999999
2 95.95999999999999
3 95.95999999999999
4 95.95
5 32.06
6 32.06
7 32.06
8 32.06
9 32.06
10 32.06
11 32.06
12 32.06

Atoms # atomic

1745 8 1.5920332323420041 0.919160815251999 0 0 0 0
1750 1 0 0 1.563556323176 0 0 0
1746 2 3.184066464684001 0 1.563556323176 0 0 0
1736 6 4.776099697026005 0.919160815251999 0 0 0 0
1774 1 6.368132929369004 0 1.563556323176 0 0 0
1769 8 7.960166161711001 0.919160815251999 0 0 0 0
1770 2 9.552199394053005 0 1.563556323176 0 0 0
1760 6 11.144232626395002 0.919160815251999 0 0 0 0
1798 1 12.736265858738001 0 1.563556323176 0 0 0
1793 8 14.328299091080005 0.919160815251999 0 0 0 0
1784 6 17.512365555764 0.919160815251999 0 0 0 0
1794 2 15.92033232342201 0 1.563556323176 0 0 0
1822 1 19.104398788106998 0 1.563556323176 0 0 0
1817 8 20.696432020449002 0.919160815251999 0 0 0 0
1818 2 22.288465252791006 0 1.563556323176 0 0 0
1808 6 23.880498485132996 0.919160815251999 0 0 0 0
1846 1 25.47253171747601 0 1.563556323176 0 0 0
1841 8 27.064564949818 0.919160815251999 0 0 0 0
1842 2 28.656598182160003 0 1.563556323176 0 0 0
1832 6 30.248631414502007 0.919160815251999 0 0 0 0
1870 1 31.840664646845006 0 1.563556323176 0 0 0
1865 8 33.432697879186996 0.919160815251999 0 0 0 0
1866 2 35.024731111529 0 1.563556323176 0 0 0
1856 6 36.616764343871004 0.919160815251999 0 0 0 0
1894 1 38.208797576214 0 1.563556323176 0 0 0
1889 8 39.80083080855601 0.919160815251999 0 0 0 0
1890 2 41.392864040898 0 1.563556323176 0 0 0
1880 6 42.98489727324 0.919160815251999 0 0 0 0
1918 1 44.576930505583 0 1.563556323176 0 0 0
1913 8 46.168963737925004 0.919160815251999 0 0 0 0
1914 2 47.76099697026701 0 1.563556323176 0 0 0
1904 6 49.353030202609 0.919160815251999 0 0 0 0
1553 8 52.537096667293994 0.919160815251999 0 -1 0 0
1558 1 50.945063434952 0 1.563556323176 -1 0 0
1554 2 54.129129899636 0 1.563556323176 -1 0 0
1544 6 55.721163131977995 0.919160815251999 0 -1 0 0
1582 1 57.313196364320994 0 1.563556323176 -1 0 0
1577 8 58.905229596663 0.919160815251999 0 -1 0 0
1578 2 60.497262829004995 0 1.563556323176 -1 0 0
1568 6 62.089296061347 0.919160815251999 0 -1 0 0
1606 1 63.68132929369 0 1.563556323176 -1 0 0
1601 8 65.273362526032 0.919160815251999 0 -1 0 0
1592 6 68.457428990716 0.919160815251999 0 -1 0 0
1602 2 66.865395758374 0 1.563556323176 -1 0 0
1630 1 70.049462223059 0 1.563556323176 -1 0 0
1625 8 71.641495455401 0.919160815251999 0 -1 0 0
1626 2 73.23352868774299 0 1.563556323176 -1 0 0
1616 6 74.825561920085 0.919160815251999 0 -1 0 0
1654 1 76.41759515242799 0 1.563556323176 -1 0 0
1649 8 78.00962838477 0.919160815251999 0 -1 0 0
1650 2 79.601661617112 0 1.563556323176 -1 0 0
1640 6 81.193694849454 0.919160815251999 0 -1 0 0
1678 1 82.785728081797 0 1.563556323176 -1 0 0
1673 8 84.37776131413901 0.919160815251999 0 -1 0 0
1674 2 85.969794546481 0 1.563556323176 -1 0 0
1664 6 87.56182777882299 0.919160815251999 0 -1 0 0
1702 1 89.153861011166 0 1.563556323176 -1 0 0
1697 8 90.74589424350799 0.919160815251999 0 -1 0 0
1698 2 92.33792747585 0 1.563556323176 -1 0 0
1688 6 93.929960708192 0.919160815251999 0 -1 0 0
1726 1 95.521993940535 0 1.563556323176 -1 0 0
1721 8 97.114027172877 0.919160815251999 0 -1 0 0
1722 2 98.706060405219 0 1.563556323176 -1 0 0
1712 6 100.298093637561 0.919160815251999 0 -1 0 0
1733 4 1.5920332323420041 2.7574824457550022 1.563556323176 0 0 0
1742 3 4.776099697026005 2.7574824457550022 1.563556323176 0 0 0
1757 4 7.960166161711001 2.7574824457550022 1.563556323176 0 0 0
1766 3 11.144232626395002 2.7574824457550022 1.563556323176 0 0 0
1781 4 14.328299091080005 2.7574824457550022 1.563556323176 0 0 0
1790 3 17.512365555764 2.7574824457550022 1.563556323176 0 0 0
1805 4 20.696432020449002 2.7574824457550022 1.563556323176 0 0 0
1814 3 23.880498485132996 2.7574824457550022 1.563556323176 0 0 0
1829 4 27.064564949818 2.7574824457550022 1.563556323176 0 0 0
1838 3 30.248631414502007 2.7574824457550022 1.563556323176 0 0 0
1853 4 33.432697879186996 2.7574824457550022 1.563556323176 0 0 0
1862 3 36.616764343871004 2.7574824457550022 1.563556323176 0 0 0
1877 4 39.80083080855601 2.7574824457550022 1.563556323176 0 0 0
1886 3 42.98489727324 2.7574824457550022 1.563556323176 0 0 0
1901 4 46.168963737925004 2.7574824457550022 1.563556323176 0 0 0
1910 3 49.353030202609 2.7574824457550022 1.563556323176 0 0 0
1541 4 52.537096667293994 2.7574824457550022 1.563556323176 -1 0 0
1550 3 55.721163131977995 2.7574824457550022 1.563556323176 -1 0 0
1565 4 58.905229596663 2.7574824457550022 1.563556323176 -1 0 0
1574 3 62.089296061347 2.7574824457550022 1.563556323176 -1 0 0
1589 4 65.273362526032 2.7574824457550022 1.563556323176 -1 0 0
1598 3 68.457428990716 2.7574824457550022 1.563556323176 -1 0 0
1613 4 71.641495455401 2.7574824457550022 1.563556323176 -1 0 0
1622 3 74.825561920085 2.7574824457550022 1.563556323176 -1 0 0
1637 4 78.00962838477 2.7574824457550022 1.563556323176 -1 0 0
1646 3 81.193694849454 2.7574824457550022 1.563556323176 -1 0 0
1661 4 84.37776131413901 2.7574824457550022 1.563556323176 -1 0 0
1670 3 87.56182777882299 2.7574824457550022 1.563556323176 -1 0 0
1685 4 90.74589424350799 2.7574824457550022 1.563556323176 -1 0 0
1694 3 93.929960708192 2.7574824457550022 1.563556323176 -1 0 0
1709 4 97.114027172877 2.7574824457550022 1.563556323176 -1 0 0
1718 3 100.298093637561 2.7574824457550022 1.563556323176 -1 0 0
1740 12 0 3.6766432610070012 0 0 0 0
1739 10 3.184066464684001 3.6766432610070012 0 0 0 0
1764 12 6.368132929369004 3.6766432610070012 0 0 0 0
1763 10 9.552199394053005 3.6766432610070012 0 0 0 0
1788 12 12.736265858738001 3.6766432610070012 0 0 0 0
1787 10 15.92033232342201 3.6766432610070012 0 0 0 0
1812 12 19.104398788106998 3.6766432610070012 0 0 0 0
1811 10 22.288465252791006 3.6766432610070012 0 0 0 0
1836 12 25.47253171747601 3.6766432610070012 0 0 0 0
1835 10 28.656598182160003 3.6766432610070012 0 0 0 0
1860 12 31.840664646845006 3.6766432610070012 0 0 0 0
1859 10 35.024731111529 3.6766432610070012 0 0 0 0
1884 12 38.208797576214 3.6766432610070012 0 0 0 0
1883 10 41.392864040898 3.6766432610070012 0 0 0 0
1908 12 44.576930505583 3.6766432610070012 0 0 0 0
1907 10 47.76099697026701 3.6766432610070012 0 0 0 0
1548 12 50.945063434952 3.6766432610070012 0 -1 0 0
1547 10 54.129129899636 3.6766432610070012 0 -1 0 0
1572 12 57.313196364320994 3.6766432610070012 0 -1 0 0
1571 10 60.497262829004995 3.6766432610070012 0 -1 0 0
1596 12 63.68132929369 3.6766432610070012 0 -1 0 0
1595 10 66.865395758374 3.6766432610070012 0 -1 0 0
1620 12 70.049462223059 3.6766432610070012 0 -1 0 0
1619 10 73.23352868774299 3.6766432610070012 0 -1 0 0
1644 12 76.41759515242799 3.6766432610070012 0 -1 0 0
1643 10 79.601661617112 3.6766432610070012 0 -1 0 0
1668 12 82.785728081797 3.6766432610070012 0 -1 0 0
1667 10 85.969794546481 3.6766432610070012 0 -1 0 0
1692 12 89.153861011166 3.6766432610070012 0 -1 0 0
1691 10 92.33792747585 3.6766432610070012 0 -1 0 0
1716 12 95.521993940535 3.6766432610070012 0 -1 0 0
1715 10 98.706060405219 3.6766432610070012 0 -1 0 0
2115 6 1.5920332323420041 6.4341257067620035 0 0 0 0
2127 2 0 5.5149648915100045 1.563556323176 0 0 0
2133 1 3.184066464685003 5.5149648915100045 1.563556323176 0 0 0
2128 8 4.776099697027 6.4341257067620035 0 0 0 0
2151 2 6.368132929369004 5.5149648915100045 1.563556323176 0 0 0
2139 6 7.960166161711001 6.4341257067620035 0 0 0 0
2157 1 9.552199394054 5.5149648915100045 1.563556323176 0 0 0
2152 8 11.144232626396004 6.4341257067620035 0 0 0 0
2175 2 12.736265858738001 5.5149648915100045 1.563556323176 0 0 0
2163 6 14.328299091080005 6.4341257067620035 0 0 0 0
2176 8 17.512365555765008 6.4341257067620035 0 0 0 0
2181 1 15.920332323423004 5.5149648915100045 1.563556323176 0 0 0
2199 2 19.104398788106998 5.5149648915100045 1.563556323176 0 0 0
2187 6 20.696432020449002 6.4341257067620035 0 0 0 0
2205 1 22.288465252792 5.5149648915100045 1.563556323176 0 0 0
2200 8 23.880498485134005 6.4341257067620035 0 0 0 0
2223 2 25.47253171747601 5.5149648915100045 1.563556323176 0 0 0
2211 6 27.064564949818 6.4341257067620035 0 0 0 0
2229 1 28.656598182160998 5.5149648915100045 1.563556323176 0 0 0
2224 8 30.248631414503002 6.4341257067620035 0 0 0 0
2247 2 31.840664646845006 5.5149648915100045 1.563556323176 0 0 0
2235 6 33.432697879186996 6.4341257067620035 0 0 0 0
2253 1 35.02473111153001 5.5149648915100045 1.563556323176 0 0 0
2248 8 36.616764343872 6.4341257067620035 0 0 0 0
2271 2 38.208797576214 5.5149648915100045 1.563556323176 0 0 0
2259 6 39.80083080855601 6.4341257067620035 0 0 0 0
2277 1 41.392864040899006 5.5149648915100045 1.563556323176 0 0 0
2272 8 42.984897273240996 6.4341257067620035 0 0 0 0
2295 2 44.576930505583 5.5149648915100045 1.563556323176 0 0 0
2283 6 46.168963737925004 6.4341257067620035 0 0 0 0
2301 1 47.760996970268 5.5149648915100045 1.563556323176 0 0 0
2296 8 49.35303020261001 6.4341257067620035 0 0 0 0
1923 6 52.537096667293994 6.4341257067620035 0 -1 0 0
1935 2 50.945063434952 5.5149648915100045 1.563556323176 -1 0 0
1941 1 54.129129899637 5.5149648915100045 1.563556323176 -1 0 0
1936 8 55.721163131979 6.4341257067620035 0 -1 0 0
1959 2 57.313196364320994 5.5149648915100045 1.563556323176 -1 0 0
1947 6 58.905229596663 6.4341257067620035 0 -1 0 0
1965 1 60.497262829006 5.5149648915100045 1.563556323176 -1 0 0
1960 8 62.089296061347994 6.4341257067620035 0 -1 0 0
1983 2 63.68132929369 5.5149648915100045 1.563556323176 -1 0 0
1971 6 65.273362526032 6.4341257067620035 0 -1 0 0
1984 8 68.457428990717 6.4341257067620035 0 -1 0 0
1989 1 66.865395758375 5.5149648915100045 1.563556323176 -1 0 0
2007 2 70.049462223059 5.5149648915100045 1.563556323176 -1 0 0
1995 6 71.641495455401 6.4341257067620035 0 -1 0 0
2013 1 73.233528687744 5.5149648915100045 1.563556323176 -1 0 0
2008 8 74.825561920086 6.4341257067620035 0 -1 0 0
2031 2 76.41759515242799 5.5149648915100045 1.563556323176 -1 0 0
2019 6 78.00962838477 6.4341257067620035 0 -1 0 0
2037 1 79.601661617113 5.5149648915100045 1.563556323176 -1 0 0
2032 8 81.193694849455 6.4341257067620035 0 -1 0 0
2055 2 82.785728081797 5.5149648915100045 1.563556323176 -1 0 0
2043 6 84.37776131413901 6.4341257067620035 0 -1 0 0
2061 1 85.969794546482 5.5149648915100045 1.563556323176 -1 0 0
2056 8 87.561827778824 6.4341257067620035 0 -1 0 0
2079 2 89.153861011166 5.5149648915100045 1.563556323176 -1 0 0
2067 6 90.74589424350799 6.4341257067620035 0 -1 0 0
2085 1 92.33792747585099 5.5149648915100045 1.563556323176 -1 0 0
2080 8 93.929960708193 6.4341257067620035 0 -1 0 0
2103 2 95.521993940535 5.5149648915100045 1.563556323176 -1 0 0
2091 6 97.114027172877 6.4341257067620035 0 -1 0 0
2109 1 98.70606040522 5.5149648915100045 1.563556323176 -1 0 0
2104 8 100.298093637562 6.4341257067620035 0 -1 0 0
2122 3 1.5920332323420041 8.272447337265 1.563556323176 0 0 0
2114 4 4.776099697027 8.272447337265 1.563556323176 0 0 0
2146 3 7.960166161711001 8.272447337265 1.563556323176 0 0 0
2138 4 11.144232626396004 8.272447337265 1.563556323176 0 0 0
2170 3 14.328299091080005 8.272447337265 1.563556323176 0 0 0
2162 4 17.512365555765008 8.272447337265 1.563556323176 0 0 0
2194 3 20.696432020449002 8.272447337265 1.563556323176 0 0 0
2186 4 23.880498485134005 8.272447337265 1.563556323176 0 0 0
2218 3 27.064564949818 8.272447337265 1.563556323176 0 0 0
2210 4 30.248631414503002 8.272447337265 1.563556323176 0 0 0
2242 3 33.432697879186996 8.272447337265 1.563556323176 0 0 0
2234 4 36.616764343872 8.272447337265 1.563556323176 0 0 0
2266 3 39.80083080855601 8.272447337265 1.563556323176 0 0 0
2258 4 42.984897273240996 8.272447337265 1.563556323176 0 0 0
2290 3 46.168963737925004 8.272447337265 1.563556323176 0 0 0
2282 4 49.35303020261001 8.272447337265 1.563556323176 0 0 0
1930 3 52.537096667293994 8.272447337265 1.563556323176 -1 0 0
1922 4 55.721163131979 8.272447337265 1.563556323176 -1 0 0
1954 3 58.905229596663 8.272447337265 1.563556323176 -1 0 0
1946 4 62.089296061347994 8.272447337265 1.563556323176 -1 0 0
1978 3 65.273362526032 8.272447337265 1.563556323176 -1 0 0
1970 4 68.457428990717 8.272447337265 1.563556323176 -1 0 0
2002 3 71.641495455401 8.272447337265 1.563556323176 -1 0 0
1994 4 74.825561920086 8.272447337265 1.563556323176 -1 0 0
2026 3 78.00962838477 8.272447337265 1.563556323176 -1 0 0
2018 4 81.193694849455 8.272447337265 1.563556323176 -1 0 0
2050 3 84.37776131413901 8.272447337265 1.563556323176 -1 0 0
2042 4 87.561827778824 8.272447337265 1.563556323176 -1 0 0
2074 3 90.74589424350799 8.272447337265 1.563556323176 -1 0 0
2066 4 93.929960708193 8.272447337265 1.563556323176 -1 0 0
2098 3 97.114027172877 8.272447337265 1.563556323176 -1 0 0
2090 4 100.298093637562 8.272447337265 1.563556323176 -1 0 0
2118 10 0 9.191608152517006 0 0 0 0
2119 12 3.184066464685003 9.191608152517006 0 0 0 0
2142 10 6.368132929369004 9.191608152517006 0 0 0 0
2143 12 9.552199394054 9.191608152517006 0 0 0 0
2166 10 12.736265858738001 9.191608152517006 0 0 0 0
2167 12 15.920332323423004 9.191608152517006 0 0 0 0
2190 10 19.104398788106998 9.191608152517006 0 0 0 0
2191 12 22.288465252792 9.191608152517006 0 0 0 0
2214 10 25.47253171747601 9.191608152517006 0 0 0 0
2215 12 28.656598182160998 9.191608152517006 0 0 0 0
2238 10 31.840664646845006 9.191608152517006 0 0 0 0
2239 12 35.02473111153001 9.191608152517006 0 0 0 0
2262 10 38.208797576214 9.191608152517006 0 0 0 0
2263 12 41.392864040899006 9.191608152517006 0 0 0 0
2286 10 44.576930505583 9.191608152517006 0 0 0 0
2287 12 47.760996970268 9.191608152517006 0 0 0 0
1926 10 50.945063434952 9.191608152517006 0 -1 0 0
1927 12 54.129129899637 9.191608152517006 0 -1 0 0
1950 10 57.313196364320994 9.191608152517006 0 -1 0 0
1951 12 60.497262829006 9.191608152517006 0 -1 0 0
1974 10 63.68132929369 9.191608152517006 0 -1 0 0
1975 12 66.865395758375 9.191608152517006 0 -1 0 0
1998 10 70.049462223059 9.191608152517006 0 -1 0 0
1999 12 73.233528687744 9.191608152517006 0 -1 0 0
2022 10 76.41759515242799 9.191608152517006 0 -1 0 0
2023 12 79.601661617113 9.191608152517006 0 -1 0 0
2046 10 82.785728081797 9.191608152517006 0 -1 0 0
2047 12 85.969794546482 9.191608152517006 0 -1 0 0
2070 10 89.153861011166 9.191608152517006 0 -1 0 0
2071 12 92.33792747585099 9.191608152517006 0 -1 0 0
2094 10 95.521993940535 9.191608152517006 0 -1 0 0
2095 12 98.70606040522 9.191608152517006 0 -1 0 0
2129 8 1.5920332323420041 11.949090598272 0 0 0 0
2134 1 0 11.029929783020002 1.563556323176 0 0 0
2130 2 3.184066464684001 11.029929783020002 1.563556323176 0 0 0
2120 6 4.776099697026005 11.949090598272 0 0 0 0
2158 1 6.368132929369004 11.029929783020002 1.563556323176 0 0 0
2153 8 7.960166161711001 11.949090598272 0 0 0 0
2154 2 9.552199394053005 11.029929783020002 1.563556323176 0 0 0
2144 6 11.144232626395002 11.949090598272 0 0 0 0
2182 1 12.736265858738001 11.029929783020002 1.563556323176 0 0 0
2177 8 14.328299091080005 11.949090598272 0 0 0 0
2168 6 17.512365555764 11.949090598272 0 0 0 0
2178 2 15.92033232342201 11.029929783020002 1.563556323176 0 0 0
2206 1 19.104398788106998 11.029929783020002 1.563556323176 0 0 0
2201 8 20.696432020449002 11.949090598272 0 0 0 0
2202 2 22.288465252791006 11.029929783020002 1.563556323176 0 0 0
2192 6 23.880498485132996 11.949090598272 0 0 0 0
2230 1 25.47253171747601 11.029929783020002 1.563556323176 0 0 0
2225 8 27.064564949818 11.949090598272 0 0 0 0
2226 2 28.656598182160003 11.029929783020002 1.563556323176 0 0 0
2216 6 30.248631414502007 11.949090598272 0 0 0 0
2254 1 31.840664646845006 11.029929783020002 1.563556323176 0 0 0
2249 8 33.432697879186996 11.949090598272 0 0 0 0
2250 2 35.024731111529 11.029929783020002 1.563556323176 0 0 0
2240 6 36.616764343871004 11.949090598272 0 0 0 0
2278 1 38.208797576214 11.029929783020002 1.563556323176 0 0 0
2273 8 39.80083080855601 11.949090598272 0 0 0 0
2274 2 41.392864040898 11.029929783020002 1.563556323176 0 0 0
2264 6 42.98489727324 11.949090598272 0 0 0 0
2302 1 44.576930505583 11.029929783020002 1.563556323176 0 0 0
2297 8 46.168963737925004 11.949090598272 0 0 0 0
2298 2 47.76099697026701 11.029929783020002 1.563556323176 0 0 0
2288 6 49.353030202609 11.949090598272 0 0 0 0
1937 8 52.537096667293994 11.949090598272 0 -1 0 0
1942 1 50.945063434952 11.029929783020002 1.563556323176 -1 0 0
1938 2 54.129129899636 11.029929783020002 1.563556323176 -1 0 0
1928 6 55.721163131977995 11.949090598272 0 -1 0 0
1966 1 57.313196364320994 11.029929783020002 1.563556323176 -1 0 0
1961 8 58.905229596663 11.949090598272 0 -1 0 0
1962 2 60.497262829004995 11.029929783020002 1.563556323176 -1 0 0
1952 6 62.089296061347 11.949090598272 0 -1 0 0
1990 1 63.68132929369 11.029929783020002 1.563556323176 -1 0 0
1985 8 65.273362526032 11.949090598272 0 -1 0 0
1976 6 68.457428990716 11.949090598272 0 -1 0 0
1986 2 66.865395758374 11.029929783020002 1.563556323176 -1 0 0
2014 1 70.049462223059 11.029929783020002 1.563556323176 -1 0 0
2009 8 71.641495455401 11.949090598272 0 -1 0 0
2010 2 73.23352868774299 11.029929783020002 1.563556323176 -1 0 0
2000 6 74.825561920085 11.949090598272 0 -1 0 0
2038 1 76.41759515242799 11.029929783020002 1.563556323176 -1 0 0
2033 8 78.00962838477 11.949090598272 0 -1 0 0
2034 2 79.601661617112 11.029929783020002 1.563556323176 -1 0 0
2024 6 81.193694849454 11.949090598272 0 -1 0 0
2062 1 82.785728081797 11.029929783020002 1.563556323176 -1 0 0
2057 8 84.37776131413901 11.949090598272 0 -1 0 0
2058 2 85.969794546481 11.029929783020002 1.563556323176 -1 0 0
2048 6 87.56182777882299 11.949090598272 0 -1 0 0
2086 1 89.153861011166 11.029929783020002 1.563556323176 -1 0 0
2081 8 90.74589424350799 11.949090598272 0 -1 0 0
2082 2 92.33792747585 11.029929783020002 1.563556323176 -1 0 0
2072 6 93.929960708192 11.949090598272 0 -1 0 0
2110 1 95.521993940535 11.029929783020002 1.563556323176 -1 0 0
2105 8 97.114027172877 11.949090598272 0 -1 0 0
2106 2 98.706060405219 11.029929783020002 1.563556323176 -1 0 0
2096 6 100.298093637561 11.949090598272 0 -1 0 0
2117 4 1.5920332323420041 13.787412228775004 1.563556323176 0 0 0
2126 3 4.776099697026005 13.787412228775004 1.563556323176 0 0 0
2141 4 7.960166161711001 13.787412228775004 1.563556323176 0 0 0
2150 3 11.144232626395002 13.787412228775004 1.563556323176 0 0 0
2165 4 14.328299091080005 13.787412228775004 1.563556323176 0 0 0
2174 3 17.512365555764 13.787412228775004 1.563556323176 0 0 0
2189 4 20.696432020449002 13.787412228775004 1.563556323176 0 0 0
2198 3 23.880498485132996 13.787412228775004 1.563556323176 0 0 0
2213 4 27.064564949818 13.787412228775004 1.563556323176 0 0 0
2222 3 30.248631414502007 13.787412228775004 1.563556323176 0 0 0
2237 4 33.432697879186996 13.787412228775004 1.563556323176 0 0 0
2246 3 36.616764343871004 13.787412228775004 1.563556323176 0 0 0
2261 4 39.80083080855601 13.787412228775004 1.563556323176 0 0 0
2270 3 42.98489727324 13.787412228775004 1.563556323176 0 0 0
2285 4 46.168963737925004 13.787412228775004 1.563556323176 0 0 0
2294 3 49.353030202609 13.787412228775004 1.563556323176 0 0 0
1925 4 52.537096667293994 13.787412228775004 1.563556323176 -1 0 0
1934 3 55.721163131977995 13.787412228775004 1.563556323176 -1 0 0
1949 4 58.905229596663 13.787412228775004 1.563556323176 -1 0 0
1958 3 62.089296061347 13.787412228775004 1.563556323176 -1 0 0
1973 4 65.273362526032 13.787412228775004 1.563556323176 -1 0 0
1982 3 68.457428990716 13.787412228775004 1.563556323176 -1 0 0
1997 4 71.641495455401 13.787412228775004 1.563556323176 -1 0 0
2006 3 74.825561920085 13.787412228775004 1.563556323176 -1 0 0
2021 4 78.00962838477 13.787412228775004 1.563556323176 -1 0 0
2030 3 81.193694849454 13.787412228775004 1.563556323176 -1 0 0
2045 4 84.37776131413901 13.787412228775004 1.563556323176 -1 0 0
2054 3 87.56182777882299 13.787412228775004 1.563556323176 -1 0 0
2069 4 90.74589424350799 13.787412228775004 1.563556323176 -1 0 0
2078 3 93.929960708192 13.787412228775004 1.563556323176 -1 0 0
2093 4 97.114027172877 13.787412228775004 1.563556323176 -1 0 0
2102 3 100.298093637561 13.787412228775004 1.563556323176 -1 0 0
2124 12 0 14.706573044026996 0 0 0 0
2123 10 3.184066464684001 14.706573044026996 0 0 0 0
2148 12 6.368132929369004 14.706573044026996 0 0 0 0
2147 10 9.552199394053005 14.706573044026996 0 0 0 0
2172 12 12.736265858738001 14.706573044026996 0 0 0 0
2171 10 15.92033232342201 14.706573044026996 0 0 0 0
2196 12 19.104398788106998 14.706573044026996 0 0 0 0
2195 10 22.288465252791006 14.706573044026996 0 0 0 0
2220 12 25.47253171747601 14.706573044026996 0 0 0 0
2219 10 28.656598182160003 14.706573044026996 0 0 0 0
2244 12 31.840664646845006 14.706573044026996 0 0 0 0
2243 10 35.024731111529 14.706573044026996 0 0 0 0
2268 12 38.208797576214 14.706573044026996 0 0 0 0
2267 10 41.392864040898 14.706573044026996 0 0 0 0
2292 12 44.576930505583 14.706573044026996 0 0 0 0
2291 10 47.76099697026701 14.706573044026996 0 0 0 0
1932 12 50.945063434952 14.706573044026996 0 -1 0 0
1931 10 54.129129899636 14.706573044026996 0 -1 0 0
1956 12 57.313196364320994 14.706573044026996 0 -1 0 0
1955 10 60.497262829004995 14.706573044026996 0 -1 0 0
1980 12 63.68132929369 14.706573044026996 0 -1 0 0
1979 10 66.865395758374 14.706573044026996 0 -1 0 0
2004 12 70.049462223059 14.706573044026996 0 -1 0 0
2003 10 73.23352868774299 14.706573044026996 0 -1 0 0
2028 12 76.41759515242799 14.706573044026996 0 -1 0 0
2027 10 79.601661617112 14.706573044026996 0 -1 0 0
2052 12 82.785728081797 14.706573044026996 0 -1 0 0
2051 10 85.969794546481 14.706573044026996 0 -1 0 0
2076 12 89.153861011166 14.706573044026996 0 -1 0 0
2075 10 92.33792747585 14.706573044026996 0 -1 0 0
2100 12 95.521993940535 14.706573044026996 0 -1 0 0
2099 10 98.706060405219 14.706573044026996 0 -1 0 0
2511 2 0 16.54489467453 1.563556323176 0 0 0
2517 1 3.184066464685003 16.54489467453 1.563556323176 0 0 0
2535 2 6.368132929369004 16.54489467453 1.563556323176 0 0 0
2541 1 9.552199394054 16.54489467453 1.563556323176 0 0 0
2559 2 12.736265858738001 16.54489467453 1.563556323176 0 0 0
2565 1 15.920332323423004 16.54489467453 1.563556323176 0 0 0
2583 2 19.104398788106998 16.54489467453 1.563556323176 0 0 0
2589 1 22.288465252792 16.54489467453 1.563556323176 0 0 0
2607 2 25.47253171747601 16.54489467453 1.563556323176 0 0 0
2613 1 28.656598182160998 16.54489467453 1.563556323176 0 0 0
2631 2 31.840664646845006 16.54489467453 1.563556323176 0 0 0
2637 1 35.02473111153001 16.54489467453 1.563556323176 0 0 0
2655 2 38.208797576214 16.54489467453 1.563556323176 0 0 0
2661 1 41.392864040899006 16.54489467453 1.563556323176 0 0 0
2679 2 44.576930505583 16.54489467453 1.563556323176 0 0 0
2685 1 47.760996970268 16.54489467453 1.563556323176 0 0 0
2319 2 50.945063434952 16.54489467453 1.563556323176 -1 0 0
2325 1 54.129129899637 16.54489467453 1.563556323176 -1 0 0
2343 2 57.313196364320994 16.54489467453 1.563556323176 -1 0 0
2349 1 60.497262829006 16.54489467453 1.563556323176 -1 0 0
2367 2 63.68132929369 16.54489467453 1.563556323176 -1 0 0
2373 1 66.865395758375 16.54489467453 1.563556323176 -1 0 0
2391 2 70.049462223059 16.54489467453 1.563556323176 -1 0 0
2397 1 73.233528687744 16.54489467453 1.563556323176 -1 0 0
2415 2 76.41759515242799 16.54489467453 1.563556323176 -1 0 0
2421 1 79.601661617113 16.54489467453 1.563556323176 -1 0 0
2439 2 82.785728081797 16.54489467453 1.563556323176 -1 0 0
2445 1 85.969794546482 16.54489467453 1.563556323176 -1 0 0
2463 2 89.153861011166 16.54489467453 1.563556323176 -1 0 0
2469 1 92.33792747585099 16.54489467453 1.563556323176 -1 0 0
2487 2 95.521993940535 16.54489467453 1.563556323176 -1 0 0
2493 1 98.70606040522 16.54489467453 1.563556323176 -1 0 0
2499 6 1.5920332323420041 17.464055489781998 0 0 0 0
2512 8 4.776099697027 17.464055489781998 0 0 0 0
2523 6 7.960166161711001 17.464055489781998 0 0 0 0
2536 8 11.144232626396004 17.464055489781998 0 0 0 0
2547 6 14.328299091080005 17.464055489781998 0 0 0 0
2560 8 17.512365555765008 17.464055489781998 0 0 0 0
2571 6 20.696432020449002 17.464055489781998 0 0 0 0
2584 8 23.880498485134005 17.464055489781998 0 0 0 0
2595 6 27.064564949818 17.464055489781998 0 0 0 0
2608 8 30.248631414503002 17.464055489781998 0 0 0 0
2619 6 33.432697879186996 17.464055489781998 0 0 0 0
2632 8 36.616764343872 17.464055489781998 0 0 0 0
2643 6 39.80083080855601 17.464055489781998 0 0 0 0
2656 8 42.984897273240996 17.464055489781998 0 0 0 0
2667 6 46.168963737925004 17.464055489781998 0 0 0 0
2680 8 49.35303020261001 17.464055489781998 0 0 0 0
2307 6 52.537096667293994 17.464055489781998 0 -1 0 0
2320 8 55.721163131979 17.464055489781998 0 -1 0 0
2331 6 58.905229596663 17.464055489781998 0 -1 0 0
2344 8 62.089296061347994 17.464055489781998 0 -1 0 0
2355 6 65.273362526032 17.464055489781998 0 -1 0 0
2368 8 68.457428990717 17.464055489781998 0 -1 0 0
2379 6 71.641495455401 17.464055489781998 0 -1 0 0
2392 8 74.825561920086 17.464055489781998 0 -1 0 0
2403 6 78.00962838477 17.464055489781998 0 -1 0 0
2416 8 81.193694849455 17.464055489781998 0 -1 0 0
2427 6 84.37776131413901 17.464055489781998 0 -1 0 0
2440 8 87.561827778824 17.464055489781998 0 -1 0 0
2451 6 90.74589424350799 17.464055489781998 0 -1 0 0
2464 8 93.929960708193 17.464055489781998 0 -1 0 0
2475 6 97.114027172877 17.464055489781998 0 -1 0 0
2488 8 100.298093637562 17.464055489781998 0 -1 0 0
2502 10 0 20.221537935537 0 0 0 0
2506 3 1.5920332323420041 19.302377120285 1.563556323176 0 0 0
2503 12 3.184066464685003 20.221537935537 0 0 0 0
2498 4 4.776099697027 19.302377120285 1.563556323176 0 0 0
2526 10 6.368132929369004 20.221537935537 0 0 0 0
2530 3 7.960166161711001 19.302377120285 1.563556323176 0 0 0
2527 12 9.552199394054 20.221537935537 0 0 0 0
2522 4 11.144232626396004 19.302377120285 1.563556323176 0 0 0
2550 10 12.736265858738001 20.221537935537 0 0 0 0
2554 3 14.328299091080005 19.302377120285 1.563556323176 0 0 0
2551 12 15.920332323423004 20.221537935537 0 0 0 0
2546 4 17.512365555765008 19.302377120285 1.563556323176 0 0 0
2574 10 19.104398788106998 20.221537935537 0 0 0 0
2578 3 20.696432020449002 19.302377120285 1.563556323176 0 0 0
2575 12 22.288465252792 20.221537935537 0 0 0 0
2570 4 23.880498485134005 19.302377120285 1.563556323176 0 0 0
2598 10 25.47253171747601 20.221537935537 0 0 0 0
2602 3 27.064564949818 19.302377120285 1.563556323176 0 0 0
2599 12 28.656598182160998 20.221537935537 0 0 0 0
2594 4 30.248631414503002 19.302377120285 1.563556323176 0 0 0
2622 10 31.840664646845006 20.221537935537 0 0 0 0
2623 12 35.02473111153001 20.221537935537 0 0 0 0
2626 3 33.432697879186996 19.302377120285 1.563556323176 0 0 0
2618 4 36.616764343872 19.302377120285 1.563556323176 0 0 0
2646 10 38.208797576214 20.221537935537 0 0 0 0
2650 3 39.80083080855601 19.302377120285 1.563556323176 0 0 0
2647 12 41.392864040899006 20.221537935537 0 0 0 0
2642 4 42.984897273240996 19.302377120285 1.563556323176 0 0 0
2670 10 44.576930505583 20.221537935537 0 0 0 0
2674 3 46.168963737925004 19.302377120285 1.563556323176 0 0 0
2671 12 47.760996970268 20.221537935537 0 0 0 0
2666 4 49.35303020261001 19.302377120285 1.563556323176 0 0 0
2310 10 50.945063434952 20.221537935537 0 -1 0 0
2314 3 52.537096667293994 19.302377120285 1.563556323176 -1 0 0
2311 12 54.129129899637 20.221537935537 0 -1 0 0
2306 4 55.721163131979 19.302377120285 1.563556323176 -1 0 0
2334 10 57.313196364320994 20.221537935537 0 -1 0 0
2338 3 58.905229596663 19.302377120285 1.563556323176 -1 0 0
2335 12 60.497262829006 20.221537935537 0 -1 0 0
2330 4 62.089296061347994 19.302377120285 1.563556323176 -1 0 0
2358 10 63.68132929369 20.221537935537 0 -1 0 0
2362 3 65.273362526032 19.302377120285 1.563556323176 -1 0 0
2359 12 66.865395758375 20.221537935537 0 -1 0 0
2354 4 68.457428990717 19.302377120285 1.563556323176 -1 0 0
2382 10 70.049462223059 20.221537935537 0 -1 0 0
2386 3 71.641495455401 19.302377120285 1.563556323176 -1 0 0
2383 12 73.233528687744 20.221537935537 0 -1 0 0
2378 4 74.825561920086 19.302377120285 1.563556323176 -1 0 0
2406 10 76.41759515242799 20.221537935537 0 -1 0 0
2410 3 78.00962838477 19.302377120285 1.563556323176 -1 0 0
2407 12 79.601661617113 20.221537935537 0 -1 0 0
2402 4 81.193694849455 19.302377120285 1.563556323176 -1 0 0
2430 10 82.785728081797 20.221537935537 0 -1 0 0
2431 12 85.969794546482 20.221537935537 0 -1 0 0
2434 3 84.37776131413901 19.302377120285 1.563556323176 -1 0 0
2426 4 87.561827778824 19.302377120285 1.563556323176 -1 0 0
2454 10 89.153861011166 20.221537935537 0 -1 0 0
2458 3 90.74589424350799 19.302377120285 1.563556323176 -1 0 0
2455 12 92.33792747585099 20.221537935537 0 -1 0 0
2450 4 93.929960708193 19.302377120285 1.563556323176 -1 0 0
2478 10 95.521993940535 20.221537935537 0 -1 0 0
2482 3 97.114027172877 19.302377120285 1.563556323176 -1 0 0
2479 12 98.70606040522 20.221537935537 0 -1 0 0
2474 4 100.298093637562 19.302377120285 1.563556323176 -1 0 0
2518 1 0 22.059859566040004 1.563556323176 0 0 0
2514 2 3.184066464684001 22.059859566040004 1.563556323176 0 0 0
2542 1 6.368132929369004 22.059859566040004 1.563556323176 0 0 0
2538 2 9.552199394053005 22.059859566040004 1.563556323176 0 0 0
2566 1 12.736265858738001 22.059859566040004 1.563556323176 0 0 0
2562 2 15.92033232342201 22.059859566040004 1.563556323176 0 0 0
2590 1 19.104398788106998 22.059859566040004 1.563556323176 0 0 0
2586 2 22.288465252791006 22.059859566040004 1.563556323176 0 0 0
2614 1 25.47253171747601 22.059859566040004 1.563556323176 0 0 0
2610 2 28.656598182160003 22.059859566040004 1.563556323176 0 0 0
2638 1 31.840664646845006 22.059859566040004 1.563556323176 0 0 0
2634 2 35.024731111529 22.059859566040004 1.563556323176 0 0 0
2662 1 38.208797576214 22.059859566040004 1.563556323176 0 0 0
2658 2 41.392864040898 22.059859566040004 1.563556323176 0 0 0
2686 1 44.576930505583 22.059859566040004 1.563556323176 0 0 0