LAMMPS data file via write_data, version 2 Aug 2023, timestep = 2, units = metal

6912 atoms
24 atom types

0 101.890126869904 xlo xhi
0 99.26936804718 ylo yhi
-50 50 zlo zhi

Masses

1 95.95
2 95.95
3 95.95
4 95.95
5 95.95
6 95.95
7 95.95
8 95.95
9 32.06
10 32.06
11 32.06
12 32.06
13 32.06
14 32.06
15 32.06
16 32.06
17 32.06
18 32.06
19 32.06
20 32.06
21 32.06
22 32.06
23 32.06
24 32.06

Atoms # atomic

1745 12 1.592033232341969 0.9191608152519014 0.011983376894901409 0 0 0
1746 2 3.1840664646841543 1.4808847032388235e-13 1.5621983160328472 0 0 0
1736 10 4.776099697026234 0.9191608152518873 0.011983376894964922 0 0 0
1733 4 1.5920332323419821 2.7574824457551705 1.5621983160328476 0 0 0
1742 3 4.776099697026362 2.7574824457552527 1.5621983160328479 0 0 0
1739 14 3.1840664646841144 3.6766432610069417 0.011983376894913848 0 0 0
2127 2 2.2391008031522893e-14 5.514964891510149 1.562198316032847 0 0 0
2133 1 3.1840664646845416 5.514964891510275 1.562198316032848 0 0 0
1774 1 6.368132929368676 2.728771154433908e-13 1.5621983160328483 0 0 0
1769 12 7.960166161710968 0.9191608152519015 0.011983376894901377 0 0 0
1770 2 9.552199394053154 1.4821632042378984e-13 1.5621983160328474 0 0 0
1760 10 11.144232626395233 0.9191608152518875 0.011983376894964471 0 0 0
1757 4 7.960166161710983 2.757482445755171 1.5621983160328474 0 0 0
1766 3 11.144232626395361 2.7574824457552523 1.5621983160328476 0 0 0
1764 16 6.368132929368803 3.6766432610068516 0.01198337689495204 0 0 0
1763 14 9.552199394053117 3.6766432610069417 0.011983376894913982 0 0 0
2151 2 6.368132929369018 5.514964891510151 1.5621983160328474 0 0 0
2157 1 9.552199394053542 5.514964891510276 1.5621983160328479 0 0 0
1798 1 12.736265858737678 2.7378479296050494e-13 1.5621983160328488 0 0 0
1793 12 14.328299091079971 0.9191608152519012 0.011983376894901544 0 0 0
1794 2 15.920332323422155 1.4747977625511977e-13 1.5621983160328474 0 0 0
1781 4 14.328299091079984 2.7574824457551714 1.5621983160328479 0 0 0
1788 16 12.736265858737802 3.676643261006851 0.0119833768949522 0 0 0
1787 14 15.920332323422118 3.676643261006942 0.011983376894913559 0 0 0
2175 2 12.73626585873802 5.514964891510151 1.5621983160328472 0 0 0
2181 1 15.920332323422546 5.514964891510276 1.562198316032848 0 0 0
1784 10 17.512365555764234 0.9191608152518879 0.011983376894963949 0 0 0
1822 1 19.104398788106675 2.736535585538148e-13 1.5621983160328485 0 0 0
1817 12 20.696432020448967 0.9191608152519011 0.0119833768949018 0 0 0
1818 2 22.288465252791152 1.4722065811647712e-13 1.5621983160328474 0 0 0
1790 3 17.51236555576436 2.7574824457552514 1.5621983160328479 0 0 0
1805 4 20.696432020448984 2.7574824457551714 1.5621983160328474 0 0 0
1812 16 19.1043987881068 3.6766432610068507 0.011983376894952382 0 0 0
1811 14 22.288465252791116 3.676643261006942 0.011983376894913408 0 0 0
2199 2 19.10439878810702 5.51496489151015 1.5621983160328472 0 0 0
2205 1 22.288465252791543 5.514964891510276 1.562198316032848 0 0 0
1808 10 23.88049848513323 0.9191608152518871 0.011983376894965104 0 0 0
1846 1 25.472531717475675 2.7392782359193673e-13 1.5621983160328483 0 0 0
1841 12 27.06456494981797 0.9191608152519019 0.01198337689490098 0 0 0
1814 3 23.880498485133362 2.757482445755253 1.5621983160328479 0 0 0
1829 4 27.064564949817985 2.7574824457551697 1.5621983160328474 0 0 0
1836 16 25.472531717475803 3.6766432610068507 0.01198337689495239 0 0 0
2223 2 25.47253171747602 5.51496489151015 1.5621983160328472 0 0 0
1842 2 28.656598182160156 1.4883309843051448e-13 1.5621983160328472 0 0 0
1832 10 30.24863141450224 0.9191608152518872 0.011983376894964865 0 0 0
1870 1 31.840664646844676 2.71392590107389e-13 1.5621983160328483 0 0 0
1865 12 33.43269787918697 0.9191608152519014 0.011983376894901133 0 0 0
1838 3 30.248631414502366 2.757482445755253 1.5621983160328479 0 0 0
1853 4 33.43269787918698 2.75748244575517 1.5621983160328476 0 0 0
1835 14 28.656598182160117 3.6766432610069413 0.011983376894914279 0 0 0
1860 16 31.840664646844804 3.676643261006852 0.011983376894951443 0 0 0
2229 1 28.65659818216054 5.514964891510276 1.562198316032848 0 0 0
2247 2 31.840664646845017 5.514964891510151 1.5621983160328474 0 0 0
1866 2 35.02473111152915 1.487017766887977e-13 1.5621983160328474 0 0 0
1856 10 36.61676434387123 0.9191608152518876 0.011983376894964546 0 0 0
1894 1 38.20879757621368 2.7463475859632187e-13 1.5621983160328485 0 0 0
1862 3 36.61676434387136 2.7574824457552527 1.5621983160328476 0 0 0
1859 14 35.024731111529114 3.6766432610069413 0.01198337689491412 0 0 0
1884 16 38.208797576213804 3.676643261006851 0.0119833768949528 0 0 0
2253 1 35.02473111152954 5.514964891510276 1.5621983160328479 0 0 0
2271 2 38.20879757621402 5.514964891510152 1.5621983160328474 0 0 0
1889 12 39.80083080855597 0.9191608152519015 0.011983376894900836 0 0 0
1890 2 41.392864040898154 1.4669638022450864e-13 1.5621983160328472 0 0 0
1880 10 42.98489727324023 0.9191608152518875 0.011983376894965099 0 0 0
1918 1 44.57693050558267 2.7412553577455063e-13 1.5621983160328485 0 0 0
1877 4 39.800830808555986 2.7574824457551697 1.5621983160328474 0 0 0
1886 3 42.98489727324036 2.757482445755253 1.5621983160328476 0 0 0
1883 14 41.39286404089811 3.676643261006942 0.01198337689491316 0 0 0
1908 16 44.5769305055828 3.676643261006851 0.011983376894952463 0 0 0
2277 1 41.392864040898544 5.5149648915102745 1.5621983160328479 0 0 0
2295 2 44.576930505583015 5.514964891510153 1.5621983160328474 0 0 0
1913 12 46.16896373792497 0.919160815251901 0.011983376894901905 0 0 0
1914 2 47.76099697026716 1.475623752195664e-13 1.5621983160328474 0 0 0
1904 10 49.35303020260923 0.919160815251888 0.011983376894964044 0 0 0
1901 4 46.16896373792498 2.757482445755171 1.5621983160328476 0 0 0
1910 3 49.35303020260936 2.7574824457552523 1.5621983160328479 0 0 0
1907 14 47.760996970267115 3.676643261006942 0.01198337689491373 0 0 0
2301 1 47.76099697026754 5.514964891510276 1.562198316032848 0 0 0
1558 1 50.94506343495167 2.7258375741161486e-13 1.5621983160328483 -1 0 0
1548 16 50.9450634349518 3.676643261006851 0.01198337689495195 -1 0 0
1553 12 52.53709666729396 0.9191608152519014 0.011983376894901174 -1 0 0
1554 2 54.12912989963615 1.4860106158370794e-13 1.5621983160328472 -1 0 0
1544 10 55.72116313197823 0.9191608152518878 0.011983376894964566 -1 0 0
1541 4 52.53709666729398 2.7574824457551705 1.5621983160328476 -1 0 0
1550 3 55.72116313197836 2.7574824457552523 1.5621983160328476 -1 0 0
1547 14 54.12912989963611 3.6766432610069417 0.011983376894913834 -1 0 0
1935 2 50.94506343495201 5.514964891510149 1.5621983160328474 -1 0 0
1941 1 54.12912989963654 5.514964891510277 1.5621983160328479 -1 0 0
1582 1 57.31319636432067 2.7363651134486953e-13 1.5621983160328483 -1 0 0
1577 12 58.90522959666296 0.9191608152519012 0.011983376894901634 -1 0 0
1578 2 60.49726282900515 1.4770860790243147e-13 1.5621983160328472 -1 0 0
1568 10 62.08929606134723 0.9191608152518875 0.011983376894964735 -1 0 0
1565 4 58.90522959666298 2.7574824457551705 1.5621983160328474 -1 0 0
1574 3 62.089296061347355 2.757482445755253 1.5621983160328479 -1 0 0
1572 16 57.313196364320795 3.676643261006851 0.01198337689495229 -1 0 0
1571 14 60.49726282900511 3.6766432610069417 0.011983376894913637 -1 0 0
1959 2 57.313196364321016 5.514964891510151 1.5621983160328472 -1 0 0
1965 1 60.497262829005535 5.514964891510275 1.5621983160328479 -1 0 0
1606 1 63.68132929368967 2.7423612051314086e-13 1.5621983160328485 -1 0 0
1601 12 65.27336252603197 0.9191608152519012 0.011983376894901294 -1 0 0
1602 2 66.86539575837415 1.4770440150538125e-13 1.5621983160328474 -1 0 0
1589 4 65.27336252603199 2.7574824457551714 1.5621983160328474 -1 0 0
1596 16 63.6813292936898 3.676643261006851 0.011983376894952344 -1 0 0
1595 14 66.86539575837412 3.6766432610069417 0.011983376894914298 -1 0 0
1983 2 63.68132929369002 5.514964891510152 1.5621983160328474 -1 0 0
1989 1 66.86539575837455 5.514964891510276 1.562198316032848 -1 0 0
1592 10 68.45742899071622 0.9191608152518879 0.011983376894964313 -1 0 0
1630 1 70.04946222305867 2.7376028545204065e-13 1.5621983160328485 -1 0 0
1625 12 71.64149545540097 0.9191608152519015 0.011983376894900923 -1 0 0
1626 2 73.23352868774315 1.4742713126510937e-13 1.5621983160328472 -1 0 0
1598 3 68.45742899071637 2.7574824457552505 1.5621983160328479 -1 0 0
1613 4 71.64149545540097 2.7574824457551705 1.5621983160328476 -1 0 0
1620 16 70.0494622230588 3.6766432610068507 0.011983376894952076 -1 0 0
1619 14 73.2335286877431 3.6766432610069426 0.011983376894913245 -1 0 0
2007 2 70.04946222305902 5.51496489151015 1.5621983160328472 -1 0 0
2013 1 73.23352868774354 5.514964891510276 1.5621983160328479 -1 0 0
1616 10 74.82556192008522 0.9191608152518874 0.011983376894965028 -1 0 0
1654 1 76.41759515242767 2.7320966292500797e-13 1.5621983160328485 -1 0 0
1649 12 78.00962838476997 0.9191608152519007 0.011983376894901986 -1 0 0
1622 3 74.82556192008535 2.7574824457552527 1.5621983160328476 -1 0 0
1637 4 78.00962838476997 2.757482445755172 1.5621983160328476 -1 0 0
1644 16 76.4175951524278 3.676643261006851 0.01198337689495227 -1 0 0
2031 2 76.41759515242802 5.51496489151015 1.5621983160328472 -1 0 0
1650 2 79.60166161711216 1.49105219914533e-13 1.5621983160328474 -1 0 0
1640 10 81.19369484945423 0.9191608152518875 0.011983376894964553 -1 0 0
1678 1 82.78572808179668 2.739956438571164e-13 1.5621983160328483 -1 0 0
1673 12 84.37776131413898 0.9191608152519014 0.011983376894901187 -1 0 0
1646 3 81.19369484945436 2.7574824457552527 1.5621983160328476 -1 0 0
1661 4 84.37776131413898 2.7574824457551705 1.5621983160328474 -1 0 0
1643 14 79.60166161711211 3.6766432610069413 0.011983376894914237 -1 0 0
1668 16 82.7857280817968 3.676643261006851 0.011983376894952795 -1 0 0
2037 1 79.60166161711254 5.514964891510275 1.5621983160328479 -1 0 0
2055 2 82.78572808179702 5.514964891510152 1.5621983160328474 -1 0 0
1674 2 85.96979454648115 1.4540437714016852e-13 1.5621983160328474 -1 0 0
1664 10 87.56182777882323 0.9191608152518878 0.011983376894964363 -1 0 0
1702 1 89.15386101116566 2.7356110508381754e-13 1.5621983160328485 -1 0 0
1670 3 87.56182777882336 2.757482445755253 1.5621983160328479 -1 0 0
1667 14 85.96979454648111 3.676643261006943 0.01198337689491263 -1 0 0
1692 16 89.1538610111658 3.676643261006851 0.011983376894951768 -1 0 0
2061 1 85.96979454648154 5.514964891510274 1.5621983160328479 -1 0 0
2079 2 89.15386101116601 5.514964891510151 1.5621983160328474 -1 0 0
1697 12 90.74589424350796 0.9191608152519014 0.01198337689490167 -1 0 0
1698 2 92.33792747585015 1.4935559698008858e-13 1.5621983160328474 -1 0 0
1688 10 93.92996070819223 0.9191608152518875 0.01198337689496455 -1 0 0
1726 1 95.52199394053467 2.736514850201526e-13 1.5621983160328485 -1 0 0
1685 4 90.74589424350798 2.7574824457551697 1.5621983160328476 -1 0 0
1694 3 93.92996070819235 2.7574824457552527 1.5621983160328476 -1 0 0
1691 14 92.33792747585011 3.676643261006941 0.011983376894914593 -1 0 0
1716 16 95.5219939405348 3.676643261006851 0.011983376894952404 -1 0 0
2085 1 92.33792747585053 5.514964891510276 1.5621983160328479 -1 0 0
2103 2 95.52199394053501 5.514964891510152 1.5621983160328474 -1 0 0
1750 1 101.89012686990367 2.7332285056343846e-13 1.5621983160328483 -1 0 0
1740 16 101.8901268699038 3.6766432610068516 0.011983376894951369 -1 0 0
1721 12 97.11402717287697 0.9191608152519012 0.011983376894901367 -1 0 0
1722 2 98.70606040521915 1.477046047861507e-13 1.5621983160328474 -1 0 0
1712 10 100.29809363756122 0.9191608152518878 0.011983376894964351 -1 0 0
1709 4 97.11402717287697 2.7574824457551723 1.5621983160328474 -1 0 0
1718 3 100.29809363756137 2.757482445755251 1.5621983160328485 -1 0 0
1715 14 98.70606040521912 3.6766432610069417 0.011983376894914225 -1 0 0
2109 1 98.70606040521955 5.514964891510276 1.562198316032848 -1 0 0
2115 10 1.592033232342206 6.434125706761891 0.011983376894964438 0 0 0
2128 12 4.77609969702694 6.434125706761904 0.011983376894900949 0 0 0
2122 3 1.5920332323423327 8.272447337265255 1.5621983160328479 0 0 0
2114 4 4.776099697026953 8.272447337265174 1.5621983160328474 0 0 0
2118 14 3.571169140203542e-14 9.191608152516944 0.0119833768949132 0 0 0
2119 16 3.184066464684722 9.191608152516853 0.011983376894951893 0 0 0
2130 2 3.1840664646841543 11.029929783020151 1.5621983160328472 0 0 0
2139 10 7.960166161711204 6.434125706761891 0.011983376894964122 0 0 0
2152 12 11.14423262639594 6.434125706761904 0.011983376894900857 0 0 0
2146 3 7.9601661617113315 8.272447337265255 1.5621983160328479 0 0 0
2138 4 11.144232626395953 8.272447337265172 1.5621983160328474 0 0 0
2142 14 6.368132929369035 9.191608152516944 0.011983376894913803 0 0 0
2143 16 9.552199394053721 9.191608152516853 0.011983376894952429 0 0 0
2158 1 6.368132929368676 11.029929783020275 1.5621983160328479 0 0 0
2154 2 9.552199394053153 11.029929783020151 1.5621983160328472 0 0 0
2163 10 14.328299091080208 6.434125706761891 0.011983376894964651 0 0 0
2170 3 14.328299091080334 8.272447337265255 1.5621983160328479 0 0 0
2166 14 12.736265858738035 9.191608152516944 0.011983376894913878 0 0 0
2167 16 15.920332323422723 9.191608152516853 0.011983376894952122 0 0 0
2182 1 12.736265858737678 11.029929783020277 1.5621983160328479 0 0 0
2178 2 15.920332323422155 11.029929783020151 1.5621983160328472 0 0 0
2176 12 17.512365555764944 6.434125706761905 0.011983376894900545 0 0 0
2187 10 20.696432020449205 6.434125706761891 0.011983376894964507 0 0 0
2162 4 17.512365555764955 8.272447337265172 1.5621983160328474 0 0 0
2194 3 20.696432020449333 8.272447337265255 1.5621983160328479 0 0 0
2190 14 19.104398788107034 9.191608152516944 0.011983376894913621 0 0 0
2191 16 22.28846525279172 9.191608152516853 0.011983376894951946 0 0 0
2206 1 19.104398788106675 11.029929783020275 1.5621983160328479 0 0 0
2202 2 22.288465252791152 11.029929783020151 1.5621983160328474 0 0 0
2200 12 23.88049848513394 6.434125706761904 0.011983376894901374 0 0 0
2211 10 27.064564949818205 6.434125706761891 0.0119833768949635 0 0 0
2186 4 23.880498485133955 8.272447337265174 1.5621983160328474 0 0 0
2218 3 27.064564949818333 8.272447337265254 1.5621983160328479 0 0 0
2214 14 25.472531717476038 9.191608152516944 0.011983376894913661 0 0 0
2230 1 25.472531717475675 11.029929783020277 1.5621983160328479 0 0 0
2224 12 30.24863141450294 6.434125706761904 0.011983376894901308 0 0 0
2235 10 33.4326978791872 6.434125706761891 0.011983376894964549 0 0 0
2210 4 30.248631414502952 8.272447337265174 1.5621983160328474 0 0 0
2242 3 33.43269787918733 8.272447337265255 1.5621983160328479 0 0 0
2215 16 28.656598182160717 9.191608152516853 0.011983376894952314 0 0 0
2238 14 31.840664646845035 9.191608152516944 0.011983376894913536 0 0 0
2226 2 28.656598182160156 11.029929783020151 1.5621983160328474 0 0 0
2254 1 31.840664646844676 11.029929783020275 1.5621983160328479 0 0 0
2248 12 36.61676434387194 6.434125706761905 0.01198337689490056 0 0 0
2234 4 36.61676434387195 8.272447337265172 1.5621983160328474 0 0 0
2239 16 35.024731111529725 9.191608152516853 0.011983376894952269 0 0 0
2262 14 38.20879757621404 9.191608152516944 0.011983376894914528 0 0 0
2250 2 35.02473111152915 11.029929783020151 1.5621983160328474 0 0 0
2278 1 38.20879757621368 11.029929783020277 1.5621983160328479 0 0 0
2259 10 39.800830808556206 6.434125706761891 0.011983376894964542 0 0 0
2272 12 42.98489727324094 6.434125706761905 0.011983376894900435 0 0 0
2266 3 39.800830808556334 8.272447337265255 1.5621983160328476 0 0 0
2258 4 42.98489727324095 8.272447337265172 1.5621983160328474 0 0 0
2263 16 41.39286404089872 9.191608152516853 0.011983376894951218 0 0 0
2286 14 44.576930505583036 9.191608152516944 0.011983376894914617 0 0 0
2274 2 41.392864040898154 11.02992978302015 1.5621983160328474 0 0 0
2302 1 44.57693050558267 11.029929783020277 1.5621983160328479 0 0 0
2283 10 46.1689637379252 6.434125706761891 0.01198337689496413 0 0 0
2296 12 49.35303020260994 6.434125706761905 0.01198337689490071 0 0 0
2290 3 46.16896373792533 8.272447337265255 1.5621983160328479 0 0 0
2282 4 49.35303020260995 8.272447337265172 1.5621983160328474 0 0 0
2287 16 47.760996970267726 9.191608152516853 0.0119833768949522 0 0 0
2298 2 47.76099697026716 11.029929783020151 1.5621983160328474 0 0 0
1942 1 50.94506343495167 11.029929783020275 1.5621983160328479 -1 0 0
1923 10 52.5370966672942 6.434125706761891 0.011983376894964674 -1 0 0
1936 12 55.72116313197894 6.434125706761905 0.011983376894900434 -1 0 0
1930 3 52.53709666729433 8.272447337265255 1.5621983160328476 -1 0 0
1922 4 55.72116313197895 8.272447337265172 1.5621983160328474 -1 0 0
1926 14 50.94506343495203 9.191608152516945 0.011983376894913512 -1 0 0
1927 16 54.12912989963672 9.191608152516853 0.011983376894952246 -1 0 0
1938 2 54.12912989963615 11.029929783020151 1.5621983160328474 -1 0 0
1947 10 58.9052295966632 6.434125706761891 0.01198337689496457 -1 0 0
1960 12 62.08929606134794 6.434125706761904 0.011983376894901065 -1 0 0
1954 3 58.905229596663325 8.272447337265255 1.5621983160328479 -1 0 0
1946 4 62.089296061347945 8.272447337265174 1.5621983160328474 -1 0 0
1950 14 57.31319636432103 9.191608152516944 0.011983376894913928 -1 0 0
1951 16 60.49726282900572 9.191608152516853 0.0119833768949518 -1 0 0
1966 1 57.31319636432067 11.029929783020275 1.562198316032848 -1 0 0
1962 2 60.49726282900515 11.029929783020151 1.5621983160328474 -1 0 0
1971 10 65.2733625260322 6.434125706761891 0.011983376894964095 -1 0 0
1978 3 65.27336252603233 8.272447337265255 1.5621983160328465 -1 0 0
1974 14 63.681329293690034 9.191608152516944 0.011983376894914235 -1 0 0
1975 16 66.86539575837473 9.191608152516853 0.011983376894952713 -1 0 0
1990 1 63.68132929368967 11.029929783020277 1.5621983160328479 -1 0 0
1986 2 66.86539575837415 11.029929783020151 1.5621983160328474 -1 0 0
1984 12 68.45742899071695 6.434125706761905 0.0119833768949007 -1 0 0
1995 10 71.6414954554012 6.434125706761891 0.011983376894964558 -1 0 0
1970 4 68.45742899071695 8.272447337265172 1.5621983160328488 -1 0 0
2002 3 71.64149545540133 8.272447337265255 1.5621983160328476 -1 0 0
1998 14 70.04946222305902 9.191608152516944 0.011983376894913429 -1 0 0
1999 16 73.23352868774371 9.191608152516853 0.011983376894952703 -1 0 0
2014 1 70.04946222305867 11.029929783020275 1.5621983160328479 -1 0 0
2010 2 73.23352868774315 11.029929783020151 1.5621983160328474 -1 0 0
2008 12 74.82556192008595 6.434125706761905 0.011983376894900505 -1 0 0
2019 10 78.0096283847702 6.434125706761891 0.011983376894964402 -1 0 0
1994 4 74.82556192008595 8.272447337265172 1.5621983160328474 -1 0 0
2026 3 78.00962838477032 8.272447337265257 1.5621983160328479 -1 0 0
2022 14 76.41759515242802 9.191608152516944 0.011983376894913036 -1 0 0
2038 1 76.41759515242767 11.029929783020275 1.5621983160328479 -1 0 0
2032 12 81.19369484945494 6.434125706761904 0.011983376894901846 -1 0 0
2043 10 84.3777613141392 6.434125706761891 0.011983376894964527 -1 0 0
2018 4 81.19369484945496 8.272447337265174 1.5621983160328474 -1 0 0
2050 3 84.37776131413933 8.272447337265255 1.5621983160328479 -1 0 0
2023 16 79.60166161711273 9.191608152516853 0.011983376894952286 -1 0 0
2046 14 82.78572808179703 9.191608152516944 0.011983376894914383 -1 0 0
2034 2 79.60166161711216 11.029929783020153 1.5621983160328472 -1 0 0
2062 1 82.78572808179668 11.029929783020277 1.5621983160328479 -1 0 0
2056 12 87.56182777882394 6.434125706761904 0.011983376894900855 -1 0 0
2042 4 87.56182777882395 8.272447337265172 1.5621983160328476 -1 0 0
2047 16 85.96979454648172 9.191608152516853 0.011983376894951053 -1 0 0
2070 14 89.15386101116603 9.191608152516944 0.011983376894913257 -1 0 0
2058 2 85.96979454648115 11.02992978302015 1.5621983160328474 -1 0 0
2086 1 89.15386101116566 11.029929783020275 1.5621983160328479 -1 0 0
2067 10 90.7458942435082 6.4341257067618915 0.011983376894962702 -1 0 0
2080 12 93.92996070819294 6.434125706761904 0.01198337689490181 -1 0 0
2074 3 90.74589424350832 8.272447337265254 1.5621983160328479 -1 0 0
2066 4 93.92996070819295 8.272447337265174 1.5621983160328474 -1 0 0
2071 16 92.33792747585072 9.191608152516853 0.011983376894952848 -1 0 0
2094 14 95.52199394053503 9.191608152516944 0.01198337689491424 -1 0 0
2082 2 92.33792747585015 11.029929783020153 1.5621983160328474 -1 0 0
2110 1 95.52199394053467 11.029929783020275 1.5621983160328479 -1 0 0
2134 1 101.89012686990367 11.029929783020275 1.5621983160328479 -1 0 0
2091 10 97.1140271728772 6.434125706761891 0.011983376894964022 -1 0 0
2104 12 100.29809363756195 6.434125706761905 0.011983376894900878 -1 0 0
2098 3 97.11402717287733 8.272447337265255 1.5621983160328465 -1 0 0
2090 4 100.29809363756195 8.272447337265172 1.562198316032849 -1 0 0
2095 16 98.70606040521973 9.191608152516853 0.01198337689495272 -1 0 0
2106 2 98.70606040521915 11.029929783020151 1.5621983160328474 -1 0 0
2129 12 1.5920332323419688 11.949090598271903 0.011983376894901237 0 0 0
2120 10 4.776099697026234 11.949090598271889 0.011983376894965 0 0 0
2117 4 1.5920332323419821 13.78741222877517 1.5621983160328476 0 0 0
2126 3 4.776099697026362 13.787412228775253 1.5621983160328479 0 0 0
2123 14 3.184066464684115 14.706573044026937 0.011983376894913304 0 0 0
2511 2 2.233707402021199e-14 16.544894674530145 1.5621983160328472 0 0 0
2517 1 3.1840664646845416 16.544894674530273 1.5621983160328476 0 0 0
2499 10 1.592033232342206 17.464055489781888 0.01198337689496519 0 0 0
2512 12 4.77609969702694 17.464055489781902 0.01198337689490123 0 0 0
2153 12 7.960166161710968 11.949090598271903 0.011983376894901289 0 0 0
2144 10 11.144232626395233 11.949090598271889 0.011983376894964462 0 0 0
2141 4 7.960166161710983 13.78741222877517 1.5621983160328474 0 0 0
2150 3 11.144232626395361 13.787412228775251 1.5621983160328476 0 0 0
2148 16 6.3681329293688025 14.706573044026847 0.011983376894951485 0 0 0
2147 14 9.552199394053117 14.706573044026937 0.01198337689491346 0 0 0
2535 2 6.368132929369018 16.54489467453015 1.5621983160328474 0 0 0
2541 1 9.552199394053542 16.544894674530273 1.5621983160328479 0 0 0
2523 10 7.960166161711204 17.464055489781888 0.011983376894964445 0 0 0
2536 12 11.14423262639594 17.464055489781902 0.011983376894901336 0 0 0
2177 12 14.328299091079971 11.949090598271903 0.011983376894901528 0 0 0
2165 4 14.328299091079984 13.787412228775171 1.5621983160328474 0 0 0
2172 16 12.736265858737802 14.706573044026847 0.011983376894951913 0 0 0
2171 14 15.920332323422118 14.706573044026939 0.011983376894912965 0 0 0
2559 2 12.73626585873802 16.54489467453015 1.5621983160328472 0 0 0
2565 1 15.920332323422546 16.544894674530273 1.5621983160328479 0 0 0
2547 10 14.328299091080208 17.464055489781888 0.011983376894965102 0 0 0
2168 10 17.512365555764234 11.949090598271889 0.011983376894963996 0 0 0
2201 12 20.696432020448967 11.949090598271903 0.011983376894901726 0 0 0
2174 3 17.51236555576436 13.787412228775251 1.5621983160328476 0 0 0
2189 4 20.696432020448984 13.78741222877517 1.5621983160328474 0 0 0
2196 16 19.1043987881068 14.706573044026847 0.011983376894951818 0 0 0
2195 14 22.288465252791116 14.706573044026939 0.011983376894912873 0 0 0
2583 2 19.10439878810702 16.544894674530145 1.5621983160328474 0 0 0
2589 1 22.288465252791543 16.544894674530273 1.562198316032848 0 0 0
2560 12 17.512365555764944 17.464055489781902 0.011983376894901173 0 0 0
2571 10 20.696432020449205 17.464055489781888 0.011983376894965012 0 0 0
2192 10 23.88049848513323 11.949090598271889 0.011983376894965009 0 0 0
2225 12 27.06456494981797 11.949090598271903 0.011983376894900796 0 0 0
2198 3 23.880498485133362 13.787412228775253 1.5621983160328476 0 0 0
2213 4 27.064564949817985 13.78741222877517 1.5621983160328474 0 0 0
2220 16 25.472531717475803 14.706573044026847 0.01198337689495178 0 0 0
2607 2 25.47253171747602 16.544894674530145 1.5621983160328474 0 0 0
2584 12 23.88049848513394 17.464055489781902 0.011983376894901714 0 0 0
2595 10 27.064564949818205 17.464055489781888 0.011983376894964074 0 0 0
2216 10 30.24863141450224 11.949090598271889 0.011983376894964915 0 0 0
2249 12 33.43269787918697 11.949090598271903 0.01198337689490113 0 0 0
2222 3 30.248631414502366 13.787412228775253 1.5621983160328479 0 0 0
2237 4 33.43269787918698 13.78741222877517 1.5621983160328476 0 0 0
2219 14 28.656598182160117 14.706573044026937 0.0119833768949137 0 0 0
2244 16 31.840664646844804 14.706573044026849 0.011983376894950791 0 0 0
2613 1 28.65659818216054 16.544894674530273 1.562198316032848 0 0 0
2631 2 31.840664646845017 16.544894674530145 1.5621983160328474 0 0 0
2608 12 30.24863141450294 17.464055489781902 0.011983376894901669 0 0 0
2619 10 33.4326978791872 17.464055489781888 0.011983376894965163 0 0 0
2240 10 36.61676434387123 11.949090598271889 0.011983376894964624 0 0 0
2246 3 36.61676434387136 13.787412228775253 1.5621983160328476 0 0 0
2243 14 35.024731111529114 14.706573044026937 0.011983376894913422 0 0 0
2268 16 38.208797576213804 14.706573044026847 0.01198337689495221 0 0 0
2637 1 35.02473111152954 16.544894674530273 1.562198316032848 0 0 0
2655 2 38.20879757621402 16.54489467453015 1.5621983160328472 0 0 0
2632 12 36.61676434387194 17.464055489781902 0.011983376894901136 0 0 0
2273 12 39.80083080855597 11.949090598271903 0.011983376894900822 0 0 0
2264 10 42.98489727324023 11.949090598271889 0.011983376894964948 0 0 0
2261 4 39.800830808555986 13.78741222877517 1.5621983160328474 0 0 0
2270 3 42.984897273240364 13.787412228775253 1.5621983160328479 0 0 0
2267 14 41.39286404089811 14.706573044026939 0.011983376894913125 0 0 0
2292 16 44.5769305055828 14.706573044026847 0.011983376894951598 0 0 0
2661 1 41.392864040898544 16.54489467453027 1.5621983160328479 0 0 0
2679 2 44.576930505583015 16.54489467453015 1.5621983160328474 0 0 0
2643 10 39.800830808556206 17.464055489781888 0.011983376894965135 0 0 0
2656 12 42.98489727324094 17.464055489781902 0.0119833768949008 0 0 0
2297 12 46.16896373792497 11.949090598271903 0.01198337689490183 0 0 0
2288 10 49.35303020260923 11.949090598271889 0.011983376894963885 0 0 0
2285 4 46.16896373792498 13.78741222877517 1.5621983160328474 0 0 0
2294 3 49.35303020260936 13.787412228775251 1.5621983160328476 0 0 0
2291 14 47.760996970267115 14.706573044026939 0.01198337689491315 0 0 0
2685 1 47.76099697026754 16.544894674530273 1.5621983160328479 0 0 0
2667 10 46.1689637379252 17.464055489781888 0.011983376894964821 0 0 0
2680 12 49.35303020260994 17.464055489781902 0.01198337689490125 0 0 0
1932 16 50.9450634349518 14.706573044026847 0.011983376894951412 -1 0 0
1937 12 52.53709666729396 11.949090598271903 0.011983376894901022 -1 0 0
1928 10 55.72116313197823 11.949090598271889 0.01198337689496432 -1 0 0
1925 4 52.53709666729398 13.78741222877517 1.5621983160328474 -1 0 0
1934 3 55.72116313197836 13.787412228775251 1.5621983160328476 -1 0 0
1931 14 54.12912989963611 14.706573044026937 0.011983376894913318 -1 0 0
2319 2 50.94506343495201 16.544894674530145 1.5621983160328474 -1 0 0
2325 1 54.12912989963654 16.544894674530273 1.5621983160328479 -1 0 0
2307 10 52.5370966672942 17.464055489781888 0.011983376894965213 -1 0 0
2320 12 55.72116313197893 17.464055489781902 0.011983376894900878 -1 0 0
1961 12 58.90522959666296 11.949090598271903 0.01198337689490138 -1 0 0
1952 10 62.08929606134723 11.949090598271889 0.011983376894964672 -1 0 0
1949 4 58.90522959666298 13.78741222877517 1.5621983160328476 -1 0 0
1958 3 62.089296061347355 13.787412228775253 1.5621983160328479 -1 0 0
1956 16 57.313196364320795 14.706573044026847 0.011983376894951837 -1 0 0
1955 14 60.49726282900511 14.706573044026937 0.011983376894913108 -1 0 0
2343 2 57.313196364321016 16.54489467453015 1.5621983160328472 -1 0 0
2349 1 60.497262829005535 16.544894674530273 1.5621983160328476 -1 0 0
2331 10 58.9052295966632 17.464055489781888 0.01198337689496495 -1 0 0
2344 12 62.08929606134794 17.464055489781902 0.011983376894901338 -1 0 0
1985 12 65.27336252603197 11.949090598271903 0.011983376894901233 -1 0 0
1973 4 65.27336252603199 13.787412228775171 1.5621983160328474 -1 0 0
1980 16 63.6813292936898 14.706573044026847 0.011983376894951978 -1 0 0
1979 14 66.86539575837412 14.706573044026939 0.011983376894913744 -1 0 0
2367 2 63.68132929369002 16.54489467453015 1.5621983160328474 -1 0 0
2373 1 66.86539575837455 16.544894674530273 1.5621983160328479 -1 0 0
2355 10 65.2733625260322 17.464055489781888 0.011983376894964605 -1 0 0
1976 10 68.45742899071622 11.949090598271889 0.011983376894964358 -1 0 0
2009 12 71.64149545540097 11.949090598271903 0.0119833768949009 -1 0 0
1982 3 68.45742899071637 13.78741222877525 1.5621983160328476 -1 0 0
1997 4 71.64149545540097 13.787412228775171 1.5621983160328474 -1 0 0
2004 16 70.0494622230588 14.706573044026847 0.011983376894951355 -1 0 0
2003 14 73.2335286877431 14.706573044026939 0.01198337689491258 -1 0 0
2391 2 70.04946222305902 16.544894674530145 1.5621983160328474 -1 0 0
2397 1 73.23352868774354 16.544894674530273 1.5621983160328479 -1 0 0
2368 12 68.45742899071695 17.464055489781902 0.011983376894901265 -1 0 0
2379 10 71.6414954554012 17.464055489781888 0.011983376894965213 -1 0 0
2000 10 74.82556192008522 11.949090598271889 0.011983376894964887 -1 0 0
2033 12 78.00962838476997 11.949090598271901 0.011983376894901978 -1 0 0
2006 3 74.82556192008535 13.787412228775253 1.5621983160328479 -1 0 0
2021 4 78.00962838476997 13.787412228775171 1.5621983160328474 -1 0 0
2028 16 76.4175951524278 14.706573044026847 0.011983376894951778 -1 0 0
2415 2 76.41759515242802 16.544894674530145 1.5621983160328474 -1 0 0
2392 12 74.82556192008595 17.464055489781902 0.01198337689490107 -1 0 0
2403 10 78.0096283847702 17.464055489781888 0.011983376894964884 -1 0 0
2024 10 81.19369484945423 11.949090598271889 0.011983376894964546 -1 0 0
2057 12 84.37776131413898 11.949090598271903 0.011983376894901112 -1 0 0
2030 3 81.19369484945436 13.787412228775253 1.5621983160328476 -1 0 0
2045 4 84.37776131413898 13.787412228775171 1.5621983160328474 -1 0 0
2027 14 79.60166161711211 14.706573044026937 0.01198337689491358 -1 0 0