LAMMPS data file via write_data, version 2 Aug 2023, timestep = 0, units = metal

505 atoms
3 atom types

-20 20 xlo xhi
-20 20 ylo yhi
-3 12 zlo zhi

Masses

1 28.085
2 28.085
3 28.085

Atoms # atomic

1 2 7.662199999999999 18.549599999999998 11.774799999999999 0 0 0
2 2 2.218499999999999 18.549599999999998 11.774799999999999 0 0 0
3 2 -3.225200000000001 18.549599999999998 11.774799999999999 0 0 0
4 2 -8.6689 18.549599999999998 11.774799999999999 0 0 0
5 2 18.549599999999998 7.662199999999999 11.774799999999999 0 0 0
6 2 13.105899999999998 13.105899999999998 11.774799999999999 0 0 0
7 2 10.384050000000002 15.827750000000002 11.774799999999999 0 0 0
8 2 7.662199999999999 13.105899999999998 11.774799999999999 0 0 0
9 2 15.827750000000002 10.384050000000002 11.774799999999999 0 0 0
10 2 13.105899999999998 7.662199999999999 11.774799999999999 0 0 0
11 2 10.384050000000002 10.384050000000002 11.774799999999999 0 0 0
12 2 7.662199999999999 7.662199999999999 11.774799999999999 0 0 0
13 2 4.940349999999999 15.827750000000002 11.774799999999999 0 0 0
14 2 2.218499999999999 13.105899999999998 11.774799999999999 0 0 0
15 2 -0.5033500000000011 15.827750000000002 11.774799999999999 0 0 0
16 2 -3.225200000000001 13.105899999999998 11.774799999999999 0 0 0
17 2 4.940349999999999 10.384050000000002 11.774799999999999 0 0 0
18 2 2.218499999999999 7.662199999999999 11.774799999999999 0 0 0
19 2 -0.5033500000000011 10.384050000000002 11.774799999999999 0 0 0
20 2 -3.225200000000001 7.662199999999999 11.774799999999999 0 0 0
21 2 -5.947050000000001 15.827750000000002 11.774799999999999 0 0 0
22 2 -8.6689 13.105899999999998 11.774799999999999 0 0 0
23 2 -11.39075 15.827750000000002 11.774799999999999 0 0 0
24 2 -14.1126 13.105899999999998 11.774799999999999 0 0 0
25 2 -5.947050000000001 10.384050000000002 11.774799999999999 0 0 0
26 2 -8.6689 7.662199999999999 11.774799999999999 0 0 0
27 2 -11.39075 10.384050000000002 11.774799999999999 0 0 0
28 2 -14.1126 7.662199999999999 11.774799999999999 0 0 0
29 2 -16.83445 10.384050000000002 11.774799999999999 0 0 0
30 2 -19.5563 7.662199999999999 11.774799999999999 0 0 0
31 2 18.549599999999998 2.218499999999999 11.774799999999999 0 0 0
32 2 18.549599999999998 -3.225200000000001 11.774799999999999 0 0 0
33 2 15.827750000000002 4.940349999999999 11.774799999999999 0 0 0
34 2 13.105899999999998 2.218499999999999 11.774799999999999 0 0 0
35 2 10.384050000000002 4.940349999999999 11.774799999999999 0 0 0
36 2 7.662199999999999 2.218499999999999 11.774799999999999 0 0 0
37 2 15.827750000000002 -0.5033500000000011 11.774799999999999 0 0 0
38 2 13.105899999999998 -3.225200000000001 11.774799999999999 0 0 0
39 2 10.384050000000002 -0.5033500000000011 11.774799999999999 0 0 0
40 2 7.662199999999999 -3.225200000000001 11.774799999999999 0 0 0
41 2 4.940349999999999 4.940349999999999 11.774799999999999 0 0 0
42 2 2.218499999999999 2.218499999999999 11.774799999999999 0 0 0
43 2 -0.5033500000000011 4.940349999999999 11.774799999999999 0 0 0
44 2 -3.225200000000001 2.218499999999999 11.774799999999999 0 0 0
45 2 4.940349999999999 -0.5033500000000011 11.774799999999999 0 0 0
46 2 2.218499999999999 -3.225200000000001 11.774799999999999 0 0 0
47 2 -0.5033500000000011 -0.5033500000000011 11.774799999999999 0 0 0
48 2 -3.225200000000001 -3.225200000000001 11.774799999999999 0 0 0
49 2 -5.947050000000001 4.940349999999999 11.774799999999999 0 0 0
50 2 -8.6689 2.218499999999999 11.774799999999999 0 0 0
51 2 -11.39075 4.940349999999999 11.774799999999999 0 0 0
52 2 -14.1126 2.218499999999999 11.774799999999999 0 0 0
53 2 -5.947050000000001 -0.5033500000000011 11.774799999999999 0 0 0
54 2 -8.6689 -3.225200000000001 11.774799999999999 0 0 0
55 2 -11.39075 -0.5033500000000011 11.774799999999999 0 0 0
56 2 -14.1126 -3.225200000000001 11.774799999999999 0 0 0
57 2 -16.83445 4.940349999999999 11.774799999999999 0 0 0
58 2 -19.5563 2.218499999999999 11.774799999999999 0 0 0
59 2 -16.83445 -0.5033500000000011 11.774799999999999 0 0 0
60 2 -19.5563 -3.225200000000001 11.774799999999999 0 0 0
61 2 18.549599999999998 -8.6689 11.774799999999999 0 0 0
62 2 15.827750000000002 -5.947050000000001 11.774799999999999 0 0 0
63 2 13.105899999999998 -8.6689 11.774799999999999 0 0 0
64 2 10.384050000000002 -5.947050000000001 11.774799999999999 0 0 0
65 2 7.662199999999999 -8.6689 11.774799999999999 0 0 0
66 2 15.827750000000002 -11.39075 11.774799999999999 0 0 0
67 2 13.105899999999998 -14.1126 11.774799999999999 0 0 0
68 2 10.384050000000002 -11.39075 11.774799999999999 0 0 0
69 2 7.662199999999999 -14.1126 11.774799999999999 0 0 0
70 2 4.940349999999999 -5.947050000000001 11.774799999999999 0 0 0
71 2 2.218499999999999 -8.6689 11.774799999999999 0 0 0
72 2 -0.5033500000000011 -5.947050000000001 11.774799999999999 0 0 0
73 2 -3.225200000000001 -8.6689 11.774799999999999 0 0 0
74 2 4.940349999999999 -11.39075 11.774799999999999 0 0 0
75 2 2.218499999999999 -14.1126 11.774799999999999 0 0 0
76 2 -0.5033500000000011 -11.39075 11.774799999999999 0 0 0
77 2 -3.225200000000001 -14.1126 11.774799999999999 0 0 0
78 2 -5.947050000000001 -5.947050000000001 11.774799999999999 0 0 0
79 2 -8.6689 -8.6689 11.774799999999999 0 0 0
80 2 -11.39075 -5.947050000000001 11.774799999999999 0 0 0
81 2 -14.1126 -8.6689 11.774799999999999 0 0 0
82 2 -5.947050000000001 -11.39075 11.774799999999999 0 0 0
83 2 -8.6689 -14.1126 11.774799999999999 0 0 0
84 2 -11.39075 -11.39075 11.774799999999999 0 0 0
85 2 -14.1126 -14.1126 11.774799999999999 0 0 0
86 2 -16.83445 -5.947050000000001 11.774799999999999 0 0 0
87 2 -16.83445 -11.39075 11.774799999999999 0 0 0
88 2 10.384050000000002 -16.83445 11.774799999999999 0 0 0
89 2 7.662199999999999 -19.5563 11.774799999999999 0 0 0
90 2 4.940349999999999 -16.83445 11.774799999999999 0 0 0
91 2 2.218499999999999 -19.5563 11.774799999999999 0 0 0
92 2 -0.5033500000000011 -16.83445 11.774799999999999 0 0 0
93 2 -3.225200000000001 -19.5563 11.774799999999999 0 0 0
94 2 -5.947050000000001 -16.83445 11.774799999999999 0 0 0
95 2 -11.39075 -16.83445 11.774799999999999 0 0 0
96 2 4.940349999999999 18.549599999999998 9.05295 0 0 0
97 2 -0.5033500000000011 18.549599999999998 9.05295 0 0 0
98 2 0.8575750000000006 19.910525 10.413875 0 0 0
99 2 10.384050000000002 13.105899999999998 9.05295 0 0 0
100 3 9.023125 14.466825 7.692025000000001 0 0 0
101 2 9.023125 17.188675000000003 10.413875 0 0 0
102 1 7.662199999999999 13.105899999999998 6.331099999999999 0 0 0
103 2 11.744974999999997 14.466825 10.413875 0 0 0
104 2 15.827750000000002 7.662199999999999 9.05295 0 0 0
105 3 14.466825 9.023125 7.692025000000001 0 0 0
106 2 14.466825 11.744974999999997 10.413875 0 0 0
107 1 13.105899999999998 7.662199999999999 6.331099999999999 0 0 0
108 2 17.188675000000003 9.023125 10.413875 0 0 0
109 2 13.105899999999998 10.384050000000002 9.05295 0 0 0
110 2 10.384050000000002 7.662199999999999 9.05295 0 0 0
111 3 9.023125 9.023125 7.692025000000001 0 0 0
112 1 10.384050000000002 10.384050000000002 6.331099999999999 0 0 0
113 2 9.023125 11.744974999999997 10.413875 0 0 0
114 1 7.662199999999999 7.662199999999999 6.331099999999999 0 0 0
115 2 11.744974999999997 9.023125 10.413875 0 0 0
116 2 7.662199999999999 10.384050000000002 9.05295 0 0 0
117 3 11.744974999999997 11.744974999999997 7.692025000000001 0 0 0
118 2 4.940349999999999 13.105899999999998 9.05295 0 0 0
119 3 3.5794250000000005 14.466825 7.692025000000001 0 0 0
120 1 4.940349999999999 15.827750000000002 6.331099999999999 0 0 0
121 2 3.5794250000000005 17.188675000000003 10.413875 0 0 0
122 1 2.218499999999999 13.105899999999998 6.331099999999999 0 0 0
123 2 6.301275 14.466825 10.413875 0 0 0
124 2 2.218499999999999 15.827750000000002 9.05295 0 0 0
125 2 -0.5033500000000011 13.105899999999998 9.05295 0 0 0
126 3 -1.8642749999999992 14.466825 7.692025000000001 0 0 0
127 1 -0.5033500000000011 15.827750000000002 6.331099999999999 0 0 0
128 2 -1.8642749999999992 17.188675000000003 10.413875 0 0 0
129 1 -3.225200000000001 13.105899999999998 6.331099999999999 0 0 0
130 2 0.8575750000000006 14.466825 10.413875 0 0 0
131 2 7.662199999999999 15.827750000000002 9.05295 0 0 0
132 3 0.8575750000000006 17.188675000000003 7.692025000000001 0 0 0
133 2 4.940349999999999 7.662199999999999 9.05295 0 0 0
134 3 3.5794250000000005 9.023125 7.692025000000001 0 0 0
135 1 4.940349999999999 10.384050000000002 6.331099999999999 0 0 0
136 2 3.5794250000000005 11.744974999999997 10.413875 0 0 0
137 1 2.218499999999999 7.662199999999999 6.331099999999999 0 0 0
138 2 6.301275 9.023125 10.413875 0 0 0
139 2 2.218499999999999 10.384050000000002 9.05295 0 0 0
140 3 6.301275 11.744974999999997 7.692025000000001 0 0 0
141 2 -0.5033500000000011 7.662199999999999 9.05295 0 0 0
142 3 -1.8642749999999992 9.023125 7.692025000000001 0 0 0
143 1 -0.5033500000000011 10.384050000000002 6.331099999999999 0 0 0
144 2 -1.8642749999999992 11.744974999999997 10.413875 0 0 0
145 1 -3.225200000000001 7.662199999999999 6.331099999999999 0 0 0
146 2 0.8575750000000006 9.023125 10.413875 0 0 0
147 2 -3.225200000000001 10.384050000000002 9.05295 0 0 0
148 3 0.8575750000000006 11.744974999999997 7.692025000000001 0 0 0
149 2 -5.947050000000001 13.105899999999998 9.05295 0 0 0
150 3 -7.307974999999999 14.466825 7.692025000000001 0 0 0
151 2 -7.307974999999999 17.188675000000003 10.413875 0 0 0
152 1 -8.6689 13.105899999999998 6.331099999999999 0 0 0
153 2 -4.586124999999999 14.466825 10.413875 0 0 0
154 2 -8.6689 15.827750000000002 9.05295 0 0 0
155 3 -4.586124999999999 17.188675000000003 7.692025000000001 0 0 0
156 2 -11.39075 13.105899999999998 9.05295 0 0 0
157 2 -10.029825 14.466825 10.413875 0 0 0
158 2 -3.225200000000001 15.827750000000002 9.05295 0 0 0
159 2 -5.947050000000001 7.662199999999999 9.05295 0 0 0
160 3 -7.307974999999999 9.023125 7.692025000000001 0 0 0
161 1 -5.947050000000001 10.384050000000002 6.331099999999999 0 0 0
162 2 -7.307974999999999 11.744974999999997 10.413875 0 0 0
163 1 -8.6689 7.662199999999999 6.331099999999999 0 0 0
164 2 -4.586124999999999 9.023125 10.413875 0 0 0
165 2 -8.6689 10.384050000000002 9.05295 0 0 0
166 3 -4.586124999999999 11.744974999999997 7.692025000000001 0 0 0
167 2 -11.39075 7.662199999999999 9.05295 0 0 0
168 3 -12.751675 9.023125 7.692025000000001 0 0 0
169 1 -11.39075 10.384050000000002 6.331099999999999 0 0 0
170 2 -12.751675 11.744974999999997 10.413875 0 0 0
171 1 -14.1126 7.662199999999999 6.331099999999999 0 0 0
172 2 -10.029825 9.023125 10.413875 0 0 0
173 2 -14.1126 10.384050000000002 9.05295 0 0 0
174 3 -10.029825 11.744974999999997 7.692025000000001 0 0 0
175 2 -16.83445 7.662199999999999 9.05295 0 0 0
176 2 -15.473525 9.023125 10.413875 0 0 0
177 2 19.910525 0.8575750000000006 10.413875 0 0 0
178 2 18.549599999999998 -0.5033500000000011 9.05295 0 0 0
179 2 15.827750000000002 2.218499999999999 9.05295 0 0 0
180 3 14.466825 3.5794250000000005 7.692025000000001 0 0 0
181 1 15.827750000000002 4.940349999999999 6.331099999999999 0 0 0
182 2 14.466825 6.301275 10.413875 0 0 0
183 1 13.105899999999998 2.218499999999999 6.331099999999999 0 0 0
184 2 17.188675000000003 3.5794250000000005 10.413875 0 0 0
185 2 13.105899999999998 4.940349999999999 9.05295 0 0 0
186 2 10.384050000000002 2.218499999999999 9.05295 0 0 0
187 3 9.023125 3.5794250000000005 7.692025000000001 0 0 0
188 1 10.384050000000002 4.940349999999999 6.331099999999999 0 0 0
189 2 9.023125 6.301275 10.413875 0 0 0
190 1 7.662199999999999 2.218499999999999 6.331099999999999 0 0 0
191 2 11.744974999999997 3.5794250000000005 10.413875 0 0 0
192 2 18.549599999999998 4.940349999999999 9.05295 0 0 0
193 3 11.744974999999997 6.301275 7.692025000000001 0 0 0
194 2 15.827750000000002 -3.225200000000001 9.05295 0 0 0
195 3 14.466825 -1.8642749999999992 7.692025000000001 0 0 0
196 1 15.827750000000002 -0.5033500000000011 6.331099999999999 0 0 0
197 2 14.466825 0.8575750000000006 10.413875 0 0 0
198 1 13.105899999999998 -3.225200000000001 6.331099999999999 0 0 0
199 2 17.188675000000003 -1.8642749999999992 10.413875 0 0 0
200 2 13.105899999999998 -0.5033500000000011 9.05295 0 0 0
201 3 17.188675000000003 0.8575750000000006 7.692025000000001 0 0 0
202 2 10.384050000000002 -3.225200000000001 9.05295 0 0 0
203 3 9.023125 -1.8642749999999992 7.692025000000001 0 0 0
204 1 10.384050000000002 -0.5033500000000011 6.331099999999999 0 0 0
205 2 9.023125 0.8575750000000006 10.413875 0 0 0
206 1 7.662199999999999 -3.225200000000001 6.331099999999999 0 0 0
207 2 11.744974999999997 -1.8642749999999992 10.413875 0 0 0
208 2 7.662199999999999 -0.5033500000000011 9.05295 0 0 0
209 3 11.744974999999997 0.8575750000000006 7.692025000000001 0 0 0
210 2 4.940349999999999 2.218499999999999 9.05295 0 0 0
211 3 3.5794250000000005 3.5794250000000005 7.692025000000001 0 0 0
212 1 4.940349999999999 4.940349999999999 6.331099999999999 0 0 0
213 2 3.5794250000000005 6.301275 10.413875 0 0 0
214 1 2.218499999999999 2.218499999999999 6.331099999999999 0 0 0
215 2 6.301275 3.5794250000000005 10.413875 0 0 0
216 2 2.218499999999999 4.940349999999999 9.05295 0 0 0
217 3 6.301275 6.301275 7.692025000000001 0 0 0
218 2 -0.5033500000000011 2.218499999999999 9.05295 0 0 0
219 3 -1.8642749999999992 3.5794250000000005 7.692025000000001 0 0 0
220 1 -0.5033500000000011 4.940349999999999 6.331099999999999 0 0 0
221 2 -1.8642749999999992 6.301275 10.413875 0 0 0
222 1 -3.225200000000001 2.218499999999999 6.331099999999999 0 0 0
223 2 0.8575750000000006 3.5794250000000005 10.413875 0 0 0
224 2 7.662199999999999 4.940349999999999 9.05295 0 0 0
225 3 0.8575750000000006 6.301275 7.692025000000001 0 0 0
226 2 4.940349999999999 -3.225200000000001 9.05295 0 0 0
227 3 3.5794250000000005 -1.8642749999999992 7.692025000000001 0 0 0
228 1 4.940349999999999 -0.5033500000000011 6.331099999999999 0 0 0
229 2 3.5794250000000005 0.8575750000000006 10.413875 0 0 0
230 1 2.218499999999999 -3.225200000000001 6.331099999999999 0 0 0
231 2 6.301275 -1.8642749999999992 10.413875 0 0 0
232 2 2.218499999999999 -0.5033500000000011 9.05295 0 0 0
233 3 6.301275 0.8575750000000006 7.692025000000001 0 0 0
234 2 -0.5033500000000011 -3.225200000000001 9.05295 0 0 0
235 3 -1.8642749999999992 -1.8642749999999992 7.692025000000001 0 0 0
236 1 -0.5033500000000011 -0.5033500000000011 6.331099999999999 0 0 0
237 2 -1.8642749999999992 0.8575750000000006 10.413875 0 0 0
238 1 -3.225200000000001 -3.225200000000001 6.331099999999999 0 0 0
239 2 0.8575750000000006 -1.8642749999999992 10.413875 0 0 0
240 2 -3.225200000000001 -0.5033500000000011 9.05295 0 0 0
241 3 0.8575750000000006 0.8575750000000006 7.692025000000001 0 0 0
242 2 -5.947050000000001 2.218499999999999 9.05295 0 0 0
243 3 -7.307974999999999 3.5794250000000005 7.692025000000001 0 0 0
244 1 -5.947050000000001 4.940349999999999 6.331099999999999 0 0 0
245 2 -7.307974999999999 6.301275 10.413875 0 0 0
246 1 -8.6689 2.218499999999999 6.331099999999999 0 0 0
247 2 -4.586124999999999 3.5794250000000005 10.413875 0 0 0
248 2 -8.6689 4.940349999999999 9.05295 0 0 0
249 3 -4.586124999999999 6.301275 7.692025000000001 0 0 0
250 2 -11.39075 2.218499999999999 9.05295 0 0 0
251 3 -12.751675 3.5794250000000005 7.692025000000001 0 0 0
252 1 -11.39075 4.940349999999999 6.331099999999999 0 0 0
253 2 -12.751675 6.301275 10.413875 0 0 0
254 1 -14.1126 2.218499999999999 6.331099999999999 0 0 0
255 2 -10.029825 3.5794250000000005 10.413875 0 0 0
256 2 -3.225200000000001 4.940349999999999 9.05295 0 0 0
257 3 -10.029825 6.301275 7.692025000000001 0 0 0
258 2 -5.947050000000001 -3.225200000000001 9.05295 0 0 0
259 3 -7.307974999999999 -1.8642749999999992 7.692025000000001 0 0 0
260 1 -5.947050000000001 -0.5033500000000011 6.331099999999999 0 0 0
261 2 -7.307974999999999 0.8575750000000006 10.413875 0 0 0
262 1 -8.6689 -3.225200000000001 6.331099999999999 0 0 0
263 2 -4.586124999999999 -1.8642749999999992 10.413875 0 0 0
264 2 -8.6689 -0.5033500000000011 9.05295 0 0 0
265 3 -4.586124999999999 0.8575750000000006 7.692025000000001 0 0 0
266 2 -11.39075 -3.225200000000001 9.05295 0 0 0
267 3 -12.751675 -1.8642749999999992 7.692025000000001 0 0 0
268 1 -11.39075 -0.5033500000000011 6.331099999999999 0 0 0
269 2 -12.751675 0.8575750000000006 10.413875 0 0 0
270 1 -14.1126 -3.225200000000001 6.331099999999999 0 0 0
271 2 -10.029825 -1.8642749999999992 10.413875 0 0 0
272 2 -14.1126 -0.5033500000000011 9.05295 0 0 0
273 3 -10.029825 0.8575750000000006 7.692025000000001 0 0 0
274 2 -16.83445 2.218499999999999 9.05295 0 0 0
275 2 -18.195375 6.301275 10.413875 0 0 0
276 2 -15.473525 3.5794250000000005 10.413875 0 0 0
277 3 -15.473525 6.301275 7.692025000000001 0 0 0
278 2 -14.1126 4.940349999999999 9.05295 0 0 0
279 2 -16.83445 -3.225200000000001 9.05295 0 0 0
280 2 -18.195375 0.8575750000000006 10.413875 0 0 0
281 2 -15.473525 -1.8642749999999992 10.413875 0 0 0
282 3 -15.473525 0.8575750000000006 7.692025000000001 0 0 0
283 2 15.827750000000002 -8.6689 9.05295 0 0 0
284 3 14.466825 -7.307974999999999 7.692025000000001 0 0 0
285 2 14.466825 -4.586124999999999 10.413875 0 0 0
286 1 13.105899999999998 -8.6689 6.331099999999999 0 0 0
287 2 17.188675000000003 -7.307974999999999 10.413875 0 0 0
288 2 13.105899999999998 -5.947050000000001 9.05295 0 0 0
289 3 17.188675000000003 -4.586124999999999 7.692025000000001 0 0 0
290 2 10.384050000000002 -8.6689 9.05295 0 0 0
291 3 9.023125 -7.307974999999999 7.692025000000001 0 0 0
292 1 10.384050000000002 -5.947050000000001 6.331099999999999 0 0 0
293 2 9.023125 -4.586124999999999 10.413875 0 0 0
294 1 7.662199999999999 -8.6689 6.331099999999999 0 0 0
295 2 11.744974999999997 -7.307974999999999 10.413875 0 0 0
296 3 11.744974999999997 -4.586124999999999 7.692025000000001 0 0 0
297 2 14.466825 -10.029825 10.413875 0 0 0
298 2 13.105899999999998 -11.39075 9.05295 0 0 0
299 2 10.384050000000002 -14.1126 9.05295 0 0 0
300 3 9.023125 -12.751675 7.692025000000001 0 0 0
301 1 10.384050000000002 -11.39075 6.331099999999999 0 0 0
302 2 9.023125 -10.029825 10.413875 0 0 0
303 1 7.662199999999999 -14.1126 6.331099999999999 0 0 0
304 2 11.744974999999997 -12.751675 10.413875 0 0 0
305 2 7.662199999999999 -11.39075 9.05295 0 0 0
306 3 11.744974999999997 -10.029825 7.692025000000001 0 0 0
307 2 4.940349999999999 -8.6689 9.05295 0 0 0
308 3 3.5794250000000005 -7.307974999999999 7.692025000000001 0 0 0
309 1 4.940349999999999 -5.947050000000001 6.331099999999999 0 0 0
310 2 3.5794250000000005 -4.586124999999999 10.413875 0 0 0
311 1 2.218499999999999 -8.6689 6.331099999999999 0 0 0
312 2 6.301275 -7.307974999999999 10.413875 0 0 0
313 2 2.218499999999999 -5.947050000000001 9.05295 0 0 0
314 3 6.301275 -4.586124999999999 7.692025000000001 0 0 0
315 2 -0.5033500000000011 -8.6689 9.05295 0 0 0
316 3 -1.8642749999999992 -7.307974999999999 7.692025000000001 0 0 0
317 1 -0.5033500000000011 -5.947050000000001 6.331099999999999 0 0 0
318 2 -1.8642749999999992 -4.586124999999999 10.413875 0 0 0
319 1 -3.225200000000001 -8.6689 6.331099999999999 0 0 0
320 2 0.8575750000000006 -7.307974999999999 10.413875 0 0 0
321 2 7.662199999999999 -5.947050000000001 9.05295 0 0 0
322 3 0.8575750000000006 -4.586124999999999 7.692025000000001 0 0 0
323 2 4.940349999999999 -14.1126 9.05295 0 0 0
324 3 3.5794250000000005 -12.751675 7.692025000000001 0 0 0
325 1 4.940349999999999 -11.39075 6.331099999999999 0 0 0
326 2 3.5794250000000005 -10.029825 10.413875 0 0 0
327 1 2.218499999999999 -14.1126 6.331099999999999 0 0 0
328 2 6.301275 -12.751675 10.413875 0 0 0
329 2 2.218499999999999 -11.39075 9.05295 0 0 0
330 3 6.301275 -10.029825 7.692025000000001 0 0 0
331 2 -0.5033500000000011 -14.1126 9.05295 0 0 0
332 3 -1.8642749999999992 -12.751675 7.692025000000001 0 0 0
333 1 -0.5033500000000011 -11.39075 6.331099999999999 0 0 0
334 2 -1.8642749999999992 -10.029825 10.413875 0 0 0
335 1 -3.225200000000001 -14.1126 6.331099999999999 0 0 0
336 2 0.8575750000000006 -12.751675 10.413875 0 0 0
337 2 -3.225200000000001 -11.39075 9.05295 0 0 0
338 3 0.8575750000000006 -10.029825 7.692025000000001 0 0 0
339 2 -5.947050000000001 -8.6689 9.05295 0 0 0
340 3 -7.307974999999999 -7.307974999999999 7.692025000000001 0 0 0
341 1 -5.947050000000001 -5.947050000000001 6.331099999999999 0 0 0
342 2 -7.307974999999999 -4.586124999999999 10.413875 0 0 0
343 1 -8.6689 -8.6689 6.331099999999999 0 0 0
344 2 -4.586124999999999 -7.307974999999999 10.413875 0 0 0
345 2 -8.6689 -5.947050000000001 9.05295 0 0 0
346 3 -4.586124999999999 -4.586124999999999 7.692025000000001 0 0 0
347 2 -11.39075 -8.6689 9.05295 0 0 0
348 3 -12.751675 -7.307974999999999 7.692025000000001 0 0 0
349 1 -11.39075 -5.947050000000001 6.331099999999999 0 0 0
350 2 -12.751675 -4.586124999999999 10.413875 0 0 0
351 1 -14.1126 -8.6689 6.331099999999999 0 0 0
352 2 -10.029825 -7.307974999999999 10.413875 0 0 0
353 2 -3.225200000000001 -5.947050000000001 9.05295 0 0 0
354 3 -10.029825 -4.586124999999999 7.692025000000001 0 0 0
355 2 -5.947050000000001 -14.1126 9.05295 0 0 0
356 3 -7.307974999999999 -12.751675 7.692025000000001 0 0 0
357 1 -5.947050000000001 -11.39075 6.331099999999999 0 0 0
358 2 -7.307974999999999 -10.029825 10.413875 0 0 0
359 1 -8.6689 -14.1126 6.331099999999999 0 0 0
360 2 -4.586124999999999 -12.751675 10.413875 0 0 0
361 2 -8.6689 -11.39075 9.05295 0 0 0
362 3 -4.586124999999999 -10.029825 7.692025000000001 0 0 0
363 2 -11.39075 -14.1126 9.05295 0 0 0
364 3 -12.751675 -12.751675 7.692025000000001 0 0 0
365 1 -11.39075 -11.39075 6.331099999999999 0 0 0
366 2 -12.751675 -10.029825 10.413875 0 0 0
367 2 -10.029825 -12.751675 10.413875 0 0 0
368 2 -14.1126 -11.39075 9.05295 0 0 0
369 3 -10.029825 -10.029825 7.692025000000001 0 0 0
370 2 -16.83445 -8.6689 9.05295 0 0 0
371 2 -18.195375 -4.586124999999999 10.413875 0 0 0
372 2 -15.473525 -7.307974999999999 10.413875 0 0 0
373 3 -15.473525 -4.586124999999999 7.692025000000001 0 0 0
374 2 -14.1126 -5.947050000000001 9.05295 0 0 0
375 2 -15.473525 -12.751675 10.413875 0 0 0
376 2 9.023125 -15.473525 10.413875 0 0 0
377 2 3.5794250000000005 -15.473525 10.413875 0 0 0
378 2 6.301275 -18.195375 10.413875 0 0 0
379 2 2.218499999999999 -16.83445 9.05295 0 0 0
380 3 6.301275 -15.473525 7.692025000000001 0 0 0
381 2 -1.8642749999999992 -15.473525 10.413875 0 0 0
382 2 0.8575750000000006 -18.195375 10.413875 0 0 0
383 2 7.662199999999999 -16.83445 9.05295 0 0 0
384 3 0.8575750000000006 -15.473525 7.692025000000001 0 0 0
385 2 -7.307974999999999 -15.473525 10.413875 0 0 0
386 2 -4.586124999999999 -18.195375 10.413875 0 0 0
387 2 -8.6689 -16.83445 9.05295 0 0 0
388 3 -4.586124999999999 -15.473525 7.692025000000001 0 0 0
389 2 -12.751675 -15.473525 10.413875 0 0 0
390 2 -3.225200000000001 -16.83445 9.05295 0 0 0
391 1 10.384050000000002 7.662199999999999 3.6092499999999994 0 0 0
392 1 9.023125 11.744974999999997 4.970174999999999 0 0 0
393 1 11.744974999999997 9.023125 4.970174999999999 0 0 0
394 1 7.662199999999999 10.384050000000002 3.6092499999999994 0 0 0
395 1 0.8575750000000006 14.466825 4.970174999999999 0 0 0
396 1 4.940349999999999 7.662199999999999 3.6092499999999994 0 0 0
397 1 3.5794250000000005 9.023125 2.2483249999999995 0 0 0
398 1 3.5794250000000005 11.744974999999997 4.970174999999999 0 0 0
399 1 6.301275 9.023125 4.970174999999999 0 0 0
400 1 2.218499999999999 10.384050000000002 3.6092499999999994 0 0 0
401 1 -0.5033500000000011 7.662199999999999 3.6092499999999994 0 0 0
402 1 -1.8642749999999992 9.023125 2.2483249999999995 0 0 0
403 1 -1.8642749999999992 11.744974999999997 4.970174999999999 0 0 0
404 1 0.8575750000000006 9.023125 4.970174999999999 0 0 0
405 1 -3.225200000000001 10.384050000000002 3.6092499999999994 0 0 0
406 1 -5.947050000000001 7.662199999999999 3.6092499999999994 0 0 0
407 1 -7.307974999999999 11.744974999999997 4.970174999999999 0 0 0
408 1 -4.586124999999999 9.023125 4.970174999999999 0 0 0
409 1 -10.029825 9.023125 4.970174999999999 0 0 0
410 1 10.384050000000002 2.218499999999999 3.6092499999999994 0 0 0
411 1 9.023125 3.5794250000000005 2.2483249999999995 0 0 0
412 1 9.023125 6.301275 4.970174999999999 0 0 0
413 1 11.744974999999997 3.5794250000000005 4.970174999999999 0 0 0
414 1 14.466825 0.8575750000000006 4.970174999999999 0 0 0
415 1 10.384050000000002 -3.225200000000001 3.6092499999999994 0 0 0
416 1 9.023125 -1.8642749999999992 2.2483249999999995 0 0 0
417 1 9.023125 0.8575750000000006 4.970174999999999 0 0 0
418 1 11.744974999999997 -1.8642749999999992 4.970174999999999 0 0 0
419 1 7.662199999999999 -0.5033500000000011 3.6092499999999994 0 0 0
420 1 4.940349999999999 2.218499999999999 3.6092499999999994 0 0 0
421 1 3.5794250000000005 3.5794250000000005 2.2483249999999995 0 0 0
422 1 3.5794250000000005 6.301275 4.970174999999999 0 0 0
423 1 2.218499999999999 2.218499999999999 0.8873999999999995 0 0 0
424 1 6.301275 3.5794250000000005 4.970174999999999 0 0 0
425 1 2.218499999999999 4.940349999999999 3.6092499999999994 0 0 0
426 1 6.301275 6.301275 2.2483249999999995 0 0 0
427 1 -0.5033500000000011 2.218499999999999 3.6092499999999994 0 0 0
428 1 -1.8642749999999992 3.5794250000000005 2.2483249999999995 0 0 0
429 1 -0.5033500000000011 4.940349999999999 0.8873999999999995 0 0 0
430 1 -1.8642749999999992 6.301275 4.970174999999999 0 0 0
431 1 -3.225200000000001 2.218499999999999 0.8873999999999995 0 0 0
432 1 0.8575750000000006 3.5794250000000005 4.970174999999999 0 0 0
433 1 7.662199999999999 4.940349999999999 3.6092499999999994 0 0 0
434 1 0.8575750000000006 6.301275 2.2483249999999995 0 0 0
435 1 4.940349999999999 -3.225200000000001 3.6092499999999994 0 0 0
436 1 3.5794250000000005 -1.8642749999999992 2.2483249999999995 0 0 0
437 1 4.940349999999999 -0.5033500000000011 0.8873999999999995 0 0 0
438 1 3.5794250000000005 0.8575750000000006 4.970174999999999 0 0 0
439 1 2.218499999999999 -3.225200000000001 0.8873999999999995 0 0 0
440 1 6.301275 -1.8642749999999992 4.970174999999999 0 0 0
441 1 2.218499999999999 -0.5033500000000011 3.6092499999999994 0 0 0
442 1 6.301275 0.8575750000000006 2.2483249999999995 0 0 0
443 1 -0.5033500000000011 -3.225200000000001 3.6092499999999994 0 0 0
444 1 -1.8642749999999992 -1.8642749999999992 2.2483249999999995 0 0 0
445 1 -0.5033500000000011 -0.5033500000000011 0.8873999999999995 0 0 0
446 1 -1.8642749999999992 0.8575750000000006 4.970174999999999 0 0 0
447 1 -3.225200000000001 -3.225200000000001 0.8873999999999995 0 0 0
448 1 0.8575750000000006 -1.8642749999999992 4.970174999999999 0 0 0
449 1 -3.225200000000001 -0.5033500000000011 3.6092499999999994 0 0 0
450 1 0.8575750000000006 0.8575750000000006 2.2483249999999995 0 0 0
451 1 -5.947050000000001 2.218499999999999 3.6092499999999994 0 0 0
452 1 -7.307974999999999 3.5794250000000005 2.2483249999999995 0 0 0
453 1 -7.307974999999999 6.301275 4.970174999999999 0 0 0
454 1 -4.586124999999999 3.5794250000000005 4.970174999999999 0 0 0
455 1 -8.6689 4.940349999999999 3.6092499999999994 0 0 0
456 1 -4.586124999999999 6.301275 2.2483249999999995 0 0 0
457 1 -11.39075 2.218499999999999 3.6092499999999994 0 0 0
458 1 -12.751675 6.301275 4.970174999999999 0 0 0
459 1 -10.029825 3.5794250000000005 4.970174999999999 0 0 0
460 1 -3.225200000000001 4.940349999999999 3.6092499999999994 0 0 0
461 1 -5.947050000000001 -3.225200000000001 3.6092499999999994 0 0 0
462 1 -7.307974999999999 -1.8642749999999992 2.2483249999999995 0 0 0
463 1 -5.947050000000001 -0.5033500000000011 0.8873999999999995 0 0 0
464 1 -7.307974999999999 0.8575750000000006 4.970174999999999 0 0 0
465 1 -4.586124999999999 -1.8642749999999992 4.970174999999999 0 0 0
466 1 -8.6689 -0.5033500000000011 3.6092499999999994 0 0 0
467 1 -4.586124999999999 0.8575750000000006 2.2483249999999995 0 0 0
468 1 -11.39075 -3.225200000000001 3.6092499999999994 0 0 0
469 1 -12.751675 0.8575750000000006 4.970174999999999 0 0 0
470 1 -10.029825 -1.8642749999999992 4.970174999999999 0 0 0
471 1 -10.029825 0.8575750000000006 2.2483249999999995 0 0 0
472 1 9.023125 -4.586124999999999 4.970174999999999 0 0 0
473 1 11.744974999999997 -7.307974999999999 4.970174999999999 0 0 0
474 1 9.023125 -10.029825 4.970174999999999 0 0 0
475 1 4.940349999999999 -8.6689 3.6092499999999994 0 0 0
476 1 3.5794250000000005 -7.307974999999999 2.2483249999999995 0 0 0
477 1 3.5794250000000005 -4.586124999999999 4.970174999999999 0 0 0
478 1 6.301275 -7.307974999999999 4.970174999999999 0 0 0
479 1 2.218499999999999 -5.947050000000001 3.6092499999999994 0 0 0
480 1 6.301275 -4.586124999999999 2.2483249999999995 0 0 0
481 1 -0.5033500000000011 -8.6689 3.6092499999999994 0 0 0
482 1 -1.8642749999999992 -7.307974999999999 2.2483249999999995 0 0 0
483 1 -0.5033500000000011 -5.947050000000001 0.8873999999999995 0 0 0
484 1 -1.8642749999999992 -4.586124999999999 4.970174999999999 0 0 0
485 1 0.8575750000000006 -7.307974999999999 4.970174999999999 0 0 0
486 1 7.662199999999999 -5.947050000000001 3.6092499999999994 0 0 0
487 1 0.8575750000000006 -4.586124999999999 2.2483249999999995 0 0 0
488 1 3.5794250000000005 -10.029825 4.970174999999999 0 0 0
489 1 6.301275 -12.751675 4.970174999999999 0 0 0
490 1 2.218499999999999 -11.39075 3.6092499999999994 0 0 0
491 1 -1.8642749999999992 -10.029825 4.970174999999999 0 0 0
492 1 0.8575750000000006 -12.751675 4.970174999999999 0 0 0
493 1 -3.225200000000001 -11.39075 3.6092499999999994 0 0 0
494 1 0.8575750000000006 -10.029825 2.2483249999999995 0 0 0
495 1 -5.947050000000001 -8.6689 3.6092499999999994 0 0 0
496 1 -7.307974999999999 -7.307974999999999 2.2483249999999995 0 0 0
497 1 -7.307974999999999 -4.586124999999999 4.970174999999999 0 0 0
498 1 -4.586124999999999 -7.307974999999999 4.970174999999999 0 0 0
499 1 -8.6689 -5.947050000000001 3.6092499999999994 0 0 0
500 1 -4.586124999999999 -4.586124999999999 2.2483249999999995 0 0 0
501 1 -12.751675 -4.586124999999999 4.970174999999999 0 0 0
502 1 -10.029825 -7.307974999999999 4.970174999999999 0 0 0
503 1 -3.225200000000001 -5.947050000000001 3.6092499999999994 0 0 0
504 1 -7.307974999999999 -10.029825 4.970174999999999 0 0 0
505 1 -4.586124999999999 -12.751675 4.970174999999999 0 0 0
