LAMMPS data file via write_data, version 29 Aug 2024, timestep = 1, units = metal

9180 atoms
36 atom types

0 100.33338683688 xlo xhi
0 98.476763428266 ylo yhi
-50 50 zlo zhi

Masses

1 92.90637
2 92.90637
3 92.90637
4 92.90637
5 92.90637
6 92.90637
7 92.90637
8 92.90637
9 92.90637
10 92.90637
11 92.90637
12 92.90637
13 32.06
14 32.06
15 32.06
16 32.06
17 32.06
18 32.06
19 32.06
20 32.06
21 32.06
22 32.06
23 32.06
24 32.06
25 32.06
26 32.06
27 32.06
28 32.06
29 32.06
30 32.06
31 32.06
32 32.06
33 32.06
34 32.06
35 32.06
36 32.06

Atoms # atomic

1536 20 1.2910559320602795e-15 0.9654582942773867 0.00035756195963746086 0 0 0
1542 16 3.3444462278960003 0.965458294277386 0.00035756195963813426 0 0 0
1711 3 2.4475888273523736e-15 2.8963752504315656 1.5608059614428587 0 0 0
1717 1 3.3444462278960003 2.896375250431567 1.5608059614428589 0 0 0
1713 18 1.6722231139480004 3.8618336892263847 0.0003575619596371052 0 0 0
1719 14 5.0166693418440005 3.8618336892263847 0.00035756195963700474 0 0 0
1714 4 1.6722231139480004 5.792750645380567 1.5608059614428587 0 0 0
1720 2 5.0166693418440005 5.792750645380567 1.5608059614428587 0 0 0
1548 20 6.688892455792001 0.965458294277386 0.0003575619596381344 0 0 0
1554 16 10.033338683688001 0.965458294277386 0.0003575619596381345 0 0 0
1723 3 6.688892455792001 2.896375250431567 1.5608059614428589 0 0 0
1729 1 10.033338683688001 2.896375250431567 1.5608059614428589 0 0 0
1725 18 8.36111556974 3.8618336892263847 0.0003575619596370048 0 0 0
1731 14 11.705561797636001 3.8618336892263847 0.00035756195963700495 0 0 0
1726 4 8.36111556974 5.792750645380567 1.5608059614428587 0 0 0
1732 2 11.705561797636001 5.792750645380567 1.5608059614428587 0 0 0
1560 20 13.377784911584001 0.9654582942773862 0.00035756195963803733 0 0 0
1566 16 16.722231139480005 0.9654582942773863 0.000357561959637926 0 0 0
1735 3 13.377784911584001 2.8963752504315665 1.5608059614428589 0 0 0
1741 1 16.722231139480005 2.8963752504315665 1.5608059614428587 0 0 0
1737 18 15.050008025532003 3.8618336892263843 0.00035756195963768935 0 0 0
1738 4 15.050008025532003 5.792750645380568 1.5608059614428587 0 0 0
1572 20 20.066677367376005 0.965458294277386 0.00035756195963822517 0 0 0
1578 16 23.411123595272 0.965458294277386 0.00035756195963822533 0 0 0
1747 3 20.066677367376002 2.896375250431567 1.5608059614428587 0 0 0
1753 1 23.411123595272002 2.896375250431567 1.5608059614428587 0 0 0
1743 14 18.394454253428005 3.8618336892263847 0.00035756195963713235 0 0 0
1749 18 21.738900481324002 3.861833689226386 0.000357561959635906 0 0 0
1744 2 18.394454253428005 5.792750645380567 1.5608059614428587 0 0 0
1750 4 21.738900481324002 5.792750645380565 1.5608059614428587 0 0 0
1584 20 26.755569823168 0.9654582942773862 0.0003575619596380238 0 0 0
1759 3 26.755569823168 2.896375250431567 1.5608059614428587 0 0 0
1755 14 25.08334670922 3.8618336892263847 0.0003575619596371321 0 0 0
1761 18 28.427792937116 3.8618336892263847 0.0003575619596371322 0 0 0
1756 2 25.08334670922 5.792750645380567 1.5608059614428587 0 0 0
1762 4 28.427792937116 5.792750645380567 1.5608059614428587 0 0 0
1590 16 30.100016051064 0.9654582942773862 0.0003575619596380238 0 0 0
1596 20 33.444462278959996 0.9654582942773862 0.0003575619596380238 0 0 0
1765 1 30.100016051064 2.896375250431567 1.5608059614428587 0 0 0
1771 3 33.44446227896 2.896375250431567 1.5608059614428587 0 0 0
1767 14 31.772239165012 3.8618336892263847 0.00035756195963713224 0 0 0
1773 18 35.116685392908 3.8618336892263847 0.00035756195963713224 0 0 0
1768 2 31.772239165012 5.792750645380567 1.5608059614428587 0 0 0
1774 4 35.116685392907996 5.792750645380567 1.5608059614428587 0 0 0
1602 16 36.788908506856 0.9654582942773862 0.00035756195963802367 0 0 0
1608 20 40.133354734752 0.9654582942773862 0.00035756195963802345 0 0 0
1777 1 36.788908506856004 2.896375250431567 1.5608059614428587 0 0 0
1783 3 40.133354734752004 2.896375250431567 1.5608059614428587 0 0 0
1779 14 38.461131620804004 3.8618336892263847 0.000357561959637132 0 0 0
1780 2 38.461131620804 5.792750645380567 1.5608059614428587 0 0 0
1614 16 43.477800962648 0.9654582942773862 0.0003575619596380238 0 0 0
1620 20 46.822247190544 0.9654582942773862 0.00035756195963802416 0 0 0
1789 1 43.477800962648004 2.896375250431567 1.5608059614428587 0 0 0
1795 3 46.822247190544005 2.896375250431567 1.5608059614428587 0 0 0
1785 18 41.805577848700004 3.8618336892263847 0.00035756195963713197 0 0 0
1791 14 45.150024076596004 3.8618336892263847 0.0003575619596371324 0 0 0
1786 4 41.8055778487 5.792750645380567 1.5608059614428587 0 0 0
1792 2 45.150024076596 5.792750645380567 1.5608059614428587 0 0 0
1446 16 50.16669341844 0.9654582942773867 0.0003575619596374618 -1 0 0
1621 1 50.16669341844 2.8963752504315656 1.5608059614428587 -1 0 0
1797 18 48.494470304492005 3.8618336892263847 0.0003575619596372344 0 0 0
1623 14 51.838916532388 3.8618336892263847 0.00035756195963710524 -1 0 0
1798 4 48.494470304492 5.792750645380567 1.5608059614428587 0 0 0
1624 2 51.838916532388 5.792750645380567 1.5608059614428587 -1 0 0
1452 20 53.511139646336 0.965458294277386 0.0003575619596381343 -1 0 0
1458 16 56.855585874232 0.965458294277386 0.0003575619596381343 -1 0 0
1627 3 53.511139646336 2.896375250431567 1.5608059614428589 -1 0 0
1633 1 56.855585874232 2.896375250431567 1.5608059614428589 -1 0 0
1629 18 55.183362760284 3.8618336892263847 0.0003575619596370048 -1 0 0
1635 14 58.52780898818 3.8618336892263847 0.00035756195963700474 -1 0 0
1630 4 55.183362760284 5.792750645380567 1.5608059614428587 -1 0 0
1636 2 58.52780898818 5.792750645380567 1.5608059614428587 -1 0 0
1464 20 60.200032102128 0.965458294277386 0.0003575619596381343 -1 0 0
1470 16 63.544478330024 0.9654582942773862 0.0003575619596380372 -1 0 0
1639 3 60.200032102128 2.896375250431567 1.5608059614428589 -1 0 0
1645 1 63.544478330024 2.8963752504315665 1.5608059614428589 -1 0 0
1641 18 61.872255216076 3.8618336892263847 0.0003575619596370048 -1 0 0
1642 4 61.872255216076 5.792750645380567 1.5608059614428587 -1 0 0
1476 20 66.88892455792 0.9654582942773862 0.00035756195963812786 -1 0 0
1482 16 70.23337078581599 0.965458294277386 0.00035756195963822555 -1 0 0
1651 3 66.88892455792 2.896375250431567 1.5608059614428587 -1 0 0
1657 1 70.23337078581599 2.896375250431567 1.5608059614428587 -1 0 0
1647 14 65.216701443972 3.8618336892263843 0.00035756195963768957 -1 0 0
1653 18 68.561147671868 3.861833689226386 0.0003575619596359065 -1 0 0
1648 2 65.216701443972 5.792750645380568 1.5608059614428587 -1 0 0
1654 4 68.561147671868 5.792750645380565 1.5608059614428587 -1 0 0
1488 20 73.577817013712 0.9654582942773862 0.000357561959638024 -1 0 0
1663 3 73.577817013712 2.896375250431567 1.5608059614428587 -1 0 0
1659 14 71.905593899764 3.8618336892263847 0.00035756195963713245 -1 0 0
1665 18 75.25004012766 3.8618336892263847 0.0003575619596371327 -1 0 0
1660 2 71.905593899764 5.792750645380567 1.5608059614428587 -1 0 0
1666 4 75.25004012766 5.792750645380567 1.5608059614428587 -1 0 0
1494 16 76.922263241608 0.9654582942773862 0.000357561959638024 -1 0 0
1500 20 80.266709469504 0.9654582942773862 0.0003575619596380238 -1 0 0
1669 1 76.922263241608 2.896375250431567 1.5608059614428587 -1 0 0
1675 3 80.266709469504 2.896375250431567 1.5608059614428587 -1 0 0
1671 14 78.594486355556 3.8618336892263847 0.00035756195963713245 -1 0 0
1677 18 81.938932583452 3.8618336892263847 0.00035756195963713235 -1 0 0
1672 2 78.594486355556 5.792750645380567 1.5608059614428587 -1 0 0
1678 4 81.938932583452 5.792750645380567 1.5608059614428587 -1 0 0
1506 16 83.6111556974 0.9654582942773862 0.0003575619596380238 -1 0 0
1512 20 86.955601925296 0.9654582942773874 0.0003575619596367902 -1 0 0
1681 1 83.6111556974 2.896375250431567 1.5608059614428587 -1 0 0
1687 3 86.955601925296 2.8963752504315643 1.5608059614428587 -1 0 0
1683 14 85.283378811348 3.8618336892263847 0.0003575619596373341 -1 0 0
1684 2 85.283378811348 5.7927506453805675 1.5608059614428587 -1 0 0
1518 16 90.300048153192 0.965458294277385 0.0003575619596392651 -1 0 0
1524 20 93.644494381088 0.9654582942773874 0.0003575619596367907 -1 0 0
1693 1 90.300048153192 2.896375250431569 1.5608059614428589 -1 0 0
1699 3 93.644494381088 2.8963752504315643 1.5608059614428587 -1 0 0
1689 18 88.62782503924399 3.8618336892263847 0.0003575619596371363 -1 0 0
1695 14 91.97227126714 3.8618336892263847 0.0003575619596371365 -1 0 0
1690 4 88.62782503924399 5.792750645380567 1.5608059614428587 -1 0 0
1696 2 91.97227126714 5.792750645380567 1.5608059614428587 -1 0 0
1530 16 96.988940608984 0.965458294277385 0.0003575619596392651 -1 0 0
1705 1 96.988940608984 2.896375250431569 1.5608059614428589 -1 0 0
1701 18 95.31671749503599 3.8618336892263847 0.0003575619596371364 -1 0 0
1707 14 98.661163722932 3.8618336892263847 0.0003575619596370366 -1 0 0
1702 4 95.31671749503599 5.792750645380567 1.5608059614428587 -1 0 0
1708 2 98.661163722932 5.792750645380567 1.5608059614428587 -1 0 0
1716 20 1.2916646335841175e-15 6.758209084175387 0.0003575619596365536 0 0 0
1722 16 3.3444462278960003 6.758209084175386 0.0003575619596372303 0 0 0
1891 3 2.551676787928662e-15 8.689126040329565 1.5608059614428587 0 0 0
1897 1 3.3444462278960003 8.689126040329567 1.5608059614428587 0 0 0
1893 18 1.6722231139480004 9.654584479124384 0.00035756195963812954 0 0 0
1899 14 5.0166693418440005 9.654584479124384 0.0003575619596380285 0 0 0
1894 4 1.6722231139480004 11.585501435278568 1.5608059614428587 0 0 0
1900 2 5.0166693418440005 11.585501435278568 1.5608059614428587 0 0 0
1728 20 6.688892455792001 6.758209084175386 0.0003575619596372304 0 0 0
1734 16 10.033338683688001 6.758209084175386 0.00035756195963723047 0 0 0
1903 3 6.688892455792001 8.689126040329567 1.5608059614428587 0 0 0
1909 1 10.033338683688001 8.689126040329567 1.5608059614428587 0 0 0
1905 18 8.36111556974 9.654584479124384 0.00035756195963802855 0 0 0
1911 14 11.705561797636001 9.654584479124384 0.0003575619596380287 0 0 0
1906 4 8.36111556974 11.585501435278568 1.5608059614428587 0 0 0
1912 2 11.705561797636001 11.585501435278568 1.5608059614428587 0 0 0
1740 20 13.377784911584001 6.758209084175386 0.0003575619596371333 0 0 0
1746 16 16.722231139480005 6.758209084175386 0.00035756195963701536 0 0 0
1915 3 13.377784911584001 8.689126040329567 1.5608059614428587 0 0 0
1921 1 16.722231139480005 8.689126040329567 1.5608059614428587 0 0 0
1917 18 15.050008025532003 9.654584479124384 0.0003575619596385969 0 0 0
1918 4 15.050008025532003 11.58550143527857 1.5608059614428587 0 0 0
1752 20 20.066677367376005 6.758209084175386 0.0003575619596373144 0 0 0
1758 16 23.411123595272 6.758209084175386 0.00035756195963731465 0 0 0
1927 3 20.066677367376002 8.689126040329567 1.5608059614428587 0 0 0
1933 1 23.411123595272002 8.689126040329567 1.5608059614428587 0 0 0
1923 14 18.394454253428005 9.654584479124384 0.0003575619596379171 0 0 0
1929 18 21.738900481324002 9.654584479124386 0.00035756195963668354 0 0 0
1924 2 18.394454253428005 11.585501435278568 1.5608059614428587 0 0 0
1930 4 21.738900481324002 11.585501435278566 1.5608059614428587 0 0 0
1764 20 26.755569823168 6.758209084175386 0.00035756195963711305 0 0 0
1939 3 26.755569823168 8.689126040329567 1.5608059614428587 0 0 0
1935 14 25.08334670922 9.654584479124384 0.00035756195963791655 0 0 0
1941 18 28.427792937116 9.654584479124384 0.0003575619596379167 0 0 0
1936 2 25.08334670922 11.585501435278568 1.5608059614428587 0 0 0
1942 4 28.427792937116 11.585501435278568 1.5608059614428587 0 0 0
1770 16 30.100016051064 6.758209084175386 0.00035756195963711305 0 0 0
1776 20 33.444462278959996 6.758209084175386 0.00035756195963711316 0 0 0
1945 1 30.100016051064 8.689126040329567 1.5608059614428587 0 0 0
1951 3 33.44446227896 8.689126040329567 1.5608059614428587 0 0 0
1947 14 31.772239165012 9.654584479124384 0.00035756195963791677 0 0 0
1953 18 35.116685392908 9.654584479124384 0.00035756195963791677 0 0 0
1948 2 31.772239165012 11.585501435278568 1.5608059614428587 0 0 0
1954 4 35.116685392907996 11.585501435278568 1.5608059614428587 0 0 0
1782 16 36.788908506856 6.758209084175386 0.000357561959637113 0 0 0
1788 20 40.133354734752 6.758209084175386 0.0003575619596371128 0 0 0
1957 1 36.788908506856004 8.689126040329567 1.5608059614428587 0 0 0
1963 3 40.133354734752004 8.689126040329567 1.5608059614428587 0 0 0
1959 14 38.461131620804004 9.654584479124384 0.00035756195963791655 0 0 0
1960 2 38.461131620804 11.585501435278568 1.5608059614428587 0 0 0
1794 16 43.477800962648 6.758209084175386 0.00035756195963711305 0 0 0
1800 20 46.822247190544 6.758209084175386 0.0003575619596371135 0 0 0
1969 1 43.477800962648004 8.689126040329567 1.5608059614428587 0 0 0
1975 3 46.822247190544005 8.689126040329567 1.5608059614428587 0 0 0
1965 18 41.805577848700004 9.654584479124384 0.0003575619596379165 0 0 0
1971 14 45.150024076596004 9.654584479124384 0.00035756195963791693 0 0 0
1966 4 41.8055778487 11.585501435278568 1.5608059614428587 0 0 0
1972 2 45.150024076596 11.585501435278568 1.5608059614428587 0 0 0
1626 16 50.16669341844 6.758209084175387 0.0003575619596365544 -1 0 0
1801 1 50.16669341844 8.689126040329565 1.5608059614428587 -1 0 0
1977 18 48.494470304492005 9.654584479124384 0.00035756195963801743 0 0 0
1803 14 51.838916532388 9.654584479124384 0.0003575619596381296 -1 0 0
1978 4 48.494470304492 11.585501435278568 1.5608059614428587 0 0 0
1804 2 51.838916532388 11.585501435278568 1.5608059614428587 -1 0 0
1632 20 53.511139646336 6.758209084175386 0.0003575619596372303 -1 0 0
1638 16 56.855585874232 6.758209084175386 0.0003575619596372303 -1 0 0
1807 3 53.511139646336 8.689126040329567 1.5608059614428587 -1 0 0
1813 1 56.855585874232 8.689126040329567 1.5608059614428587 -1 0 0
1809 18 55.183362760284 9.654584479124384 0.00035756195963802855 -1 0 0
1815 14 58.52780898818 9.654584479124384 0.0003575619596380285 -1 0 0
1810 4 55.183362760284 11.585501435278568 1.5608059614428587 -1 0 0
1816 2 58.52780898818 11.585501435278568 1.5608059614428587 -1 0 0
1644 20 60.200032102128 6.758209084175386 0.0003575619596372303 -1 0 0
1650 16 63.544478330024 6.758209084175386 0.0003575619596371332 -1 0 0
1819 3 60.200032102128 8.689126040329567 1.5608059614428587 -1 0 0
1825 1 63.544478330024 8.689126040329567 1.5608059614428587 -1 0 0
1821 18 61.872255216076 9.654584479124384 0.0003575619596380285 -1 0 0
1822 4 61.872255216076 11.585501435278568 1.5608059614428587 -1 0 0
1656 20 66.88892455792 6.758209084175386 0.00035756195963721724 -1 0 0
1662 16 70.23337078581599 6.758209084175386 0.0003575619596373149 -1 0 0
1831 3 66.88892455792 8.689126040329567 1.5608059614428587 -1 0 0
1837 1 70.23337078581599 8.689126040329567 1.5608059614428587 -1 0 0
1827 14 65.216701443972 9.654584479124384 0.0003575619596385971 -1 0 0
1833 18 68.561147671868 9.654584479124386 0.00035756195963668403 -1 0 0
1828 2 65.216701443972 11.58550143527857 1.5608059614428587 -1 0 0
1834 4 68.561147671868 11.585501435278566 1.5608059614428587 -1 0 0
1668 20 73.577817013712 6.758209084175386 0.0003575619596371133 -1 0 0
1843 3 73.577817013712 8.689126040329567 1.5608059614428587 -1 0 0
1839 14 71.905593899764 9.654584479124384 0.00035756195963791704 -1 0 0
1845 18 75.25004012766 9.654584479124384 0.00035756195963791715 -1 0 0
1840 2 71.905593899764 11.585501435278568 1.5608059614428587 -1 0 0
1846 4 75.25004012766 11.585501435278568 1.5608059614428587 -1 0 0
1674 16 76.922263241608 6.758209084175386 0.0003575619596371133 -1 0 0
1680 20 80.266709469504 6.758209084175386 0.00035756195963711316 -1 0 0
1849 1 76.922263241608 8.689126040329567 1.5608059614428587 -1 0 0
1855 3 80.266709469504 8.689126040329567 1.5608059614428587 -1 0 0
1851 14 78.594486355556 9.654584479124384 0.00035756195963791704 -1 0 0
1857 18 81.938932583452 9.654584479124384 0.0003575619596379169 -1 0 0
1852 2 78.594486355556 11.585501435278568 1.5608059614428587 -1 0 0
1858 4 81.938932583452 11.585501435278568 1.5608059614428587 -1 0 0
1686 16 83.6111556974 6.758209084175386 0.00035756195963711305 -1 0 0
1692 20 86.955601925296 6.758209084175387 0.0003575619596358796 -1 0 0
1861 1 83.6111556974 8.689126040329567 1.5608059614428587 -1 0 0
1867 3 86.955601925296 8.689126040329565 1.5608059614428587 -1 0 0
1863 14 85.283378811348 9.654584479124384 0.00035756195963811864 -1 0 0
1864 2 85.283378811348 11.585501435278568 1.5608059614428587 -1 0 0
1698 16 90.300048153192 6.758209084175385 0.00035756195963835435 -1 0 0
1704 20 93.644494381088 6.758209084175387 0.00035756195963588 -1 0 0
1873 1 90.300048153192 8.689126040329569 1.5608059614428589 -1 0 0
1879 3 93.644494381088 8.689126040329565 1.5608059614428587 -1 0 0
1869 18 88.62782503924399 9.654584479124384 0.00035756195963792083 -1 0 0
1875 14 91.97227126714 9.654584479124384 0.00035756195963792105 -1 0 0
1870 4 88.62782503924399 11.585501435278568 1.5608059614428587 -1 0 0
1876 2 91.97227126714 11.585501435278568 1.5608059614428587 -1 0 0
1710 16 96.988940608984 6.758209084175385 0.00035756195963835446 -1 0 0
1885 1 96.988940608984 8.689126040329569 1.5608059614428589 -1 0 0
1881 18 95.31671749503599 9.654584479124384 0.00035756195963792105 -1 0 0
1887 14 98.661163722932 9.654584479124384 0.0003575619596378206 -1 0 0
1882 4 95.31671749503599 11.585501435278568 1.5608059614428587 -1 0 0
1888 2 98.661163722932 11.585501435278568 1.5608059614428587 -1 0 0
1896 20 1.2916646335841175e-15 12.550959874073387 0.00035756195963632716 0 0 0
1902 16 3.3444462278960003 12.550959874073387 0.0003575619596370038 0 0 0
2071 3 2.453067141066915e-15 14.48187683022757 1.5608059614428587 0 0 0
2077 1 3.3444462278960003 14.48187683022757 1.5608059614428587 0 0 0
2073 18 1.6722231139480004 15.447335269022387 0.0003575619596375324 0 0 0
2079 14 5.0166693418440005 15.447335269022387 0.00035756195963743137 0 0 0
2074 4 1.6722231139480004 17.378252225176567 1.5608059614428587 0 0 0
2080 2 5.0166693418440005 17.378252225176567 1.5608059614428587 0 0 0
1908 20 6.688892455792001 12.550959874073387 0.0003575619596370038 0 0 0
1914 16 10.033338683688001 12.550959874073387 0.000357561959637004 0 0 0
2083 3 6.688892455792001 14.48187683022757 1.5608059614428587 0 0 0
2089 1 10.033338683688001 14.48187683022757 1.5608059614428587 0 0 0
2085 18 8.36111556974 15.447335269022387 0.00035756195963743186 0 0 0
2091 14 11.705561797636001 15.447335269022387 0.0003575619596374316 0 0 0
2086 4 8.36111556974 17.378252225176567 1.5608059614428587 0 0 0
2092 2 11.705561797636001 17.378252225176567 1.5608059614428587 0 0 0
1920 20 13.377784911584001 12.550959874073387 0.0003575619596369067 0 0 0
1926 16 16.722231139480005 12.550959874073387 0.00035756195963678887 0 0 0
2095 3 13.377784911584001 14.48187683022757 1.5608059614428587 0 0 0
2101 1 16.722231139480005 14.48187683022757 1.5608059614428589 0 0 0
2097 18 15.050008025532003 15.447335269022387 0.00035756195963801933 0 0 0
2098 4 15.050008025532003 17.37825222517657 1.5608059614428587 0 0 0
1932 20 20.066677367376005 12.550959874073387 0.0003575619596370879 0 0 0
1938 16 23.411123595272 12.550959874073387 0.0003575619596370881 0 0 0
2107 3 20.066677367376002 14.481876830227572 1.5608059614428589 0 0 0
2113 1 23.411123595272002 14.481876830227572 1.5608059614428589 0 0 0
2103 14 18.394454253428005 15.447335269022387 0.0003575619596373516 0 0 0
2109 18 21.738900481324002 15.447335269022389 0.0003575619596361107 0 0 0
2104 2 18.394454253428005 17.378252225176567 1.5608059614428587 0 0 0
2110 4 21.738900481324002 17.378252225176567 1.5608059614428587 0 0 0
1944 20 26.755569823168 12.550959874073387 0.0003575619596368865 0 0 0
2119 3 26.755569823168 14.48187683022757 1.5608059614428589 0 0 0
2115 14 25.08334670922 15.447335269022387 0.0003575619596373515 0 0 0
2121 18 28.427792937116 15.447335269022387 0.0003575619596373517 0 0 0
2116 2 25.08334670922 17.378252225176567 1.5608059614428587 0 0 0
2122 4 28.427792937116 17.378252225176567 1.5608059614428587 0 0 0
1950 16 30.100016051064 12.550959874073387 0.0003575619596368864 0 0 0
1956 20 33.444462278959996 12.550959874073387 0.00035756195963688656 0 0 0
2125 1 30.100016051064 14.48187683022757 1.5608059614428589 0 0 0
2131 3 33.44446227896 14.48187683022757 1.5608059614428589 0 0 0
2127 14 31.772239165012 15.447335269022387 0.0003575619596373515 0 0 0
2133 18 35.116685392908 15.447335269022387 0.00035756195963735173 0 0 0
2128 2 31.772239165012 17.378252225176567 1.5608059614428587 0 0 0
2134 4 35.116685392907996 17.378252225176567 1.5608059614428587 0 0 0
1962 16 36.788908506856 12.550959874073387 0.0003575619596368864 0 0 0
1968 20 40.133354734752 12.550959874073387 0.0003575619596368861 0 0 0
2137 1 36.788908506856004 14.48187683022757 1.5608059614428589 0 0 0
2143 3 40.133354734752004 14.48187683022757 1.5608059614428589 0 0 0
2139 14 38.461131620804004 15.447335269022387 0.00035756195963735135 0 0 0
2140 2 38.461131620804 17.378252225176567 1.5608059614428587 0 0 0
1974 16 43.477800962648 12.550959874073387 0.0003575619596368865 0 0 0
1980 20 46.822247190544 12.550959874073387 0.00035756195963688694 0 0 0
2149 1 43.477800962648004 14.48187683022757 1.5608059614428589 0 0 0
2155 3 46.822247190544005 14.48187683022757 1.5608059614428589 0 0 0
2145 18 41.805577848700004 15.447335269022387 0.0003575619596373513 0 0 0
2151 14 45.150024076596004 15.447335269022387 0.00035756195963735184 0 0 0
2146 4 41.8055778487 17.378252225176567 1.5608059614428587 0 0 0
2152 2 45.150024076596 17.378252225176567 1.5608059614428587 0 0 0
1806 16 50.16669341844 12.550959874073387 0.00035756195963632787 -1 0 0
1981 1 50.16669341844 14.48187683022757 1.5608059614428587 -1 0 0
2157 18 48.494470304492005 15.447335269022387 0.0003575619596374525 0 0 0
1983 14 51.838916532388 15.447335269022387 0.00035756195963753247 -1 0 0
2158 4 48.494470304492 17.378252225176567 1.5608059614428587 0 0 0
1984 2 51.838916532388 17.378252225176567 1.5608059614428587 -1 0 0
1812 20 53.511139646336 12.550959874073387 0.00035756195963700365 -1 0 0
1818 16 56.855585874232 12.550959874073387 0.00035756195963700365 -1 0 0
1987 3 53.511139646336 14.48187683022757 1.5608059614428587 -1 0 0
1993 1 56.855585874232 14.48187683022757 1.5608059614428587 -1 0 0
1989 18 55.183362760284 15.447335269022387 0.00035756195963743164 -1 0 0
1995 14 58.52780898818 15.447335269022387 0.00035756195963743137 -1 0 0
1990 4 55.183362760284 17.378252225176567 1.5608059614428587 -1 0 0
1996 2 58.52780898818 17.378252225176567 1.5608059614428587 -1 0 0
1824 20 60.200032102128 12.550959874073387 0.00035756195963700365 -1 0 0
1830 16 63.544478330024 12.550959874073387 0.00035756195963690656 -1 0 0
1999 3 60.200032102128 14.48187683022757 1.5608059614428587 -1 0 0
2005 1 63.544478330024 14.48187683022757 1.5608059614428587 -1 0 0
2001 18 61.872255216076 15.447335269022387 0.00035756195963743164 -1 0 0
2002 4 61.872255216076 17.378252225176567 1.5608059614428587 -1 0 0
1836 20 66.88892455792 12.550959874073387 0.00035756195963699075 -1 0 0
1842 16 70.23337078581599 12.550959874073387 0.00035756195963708844 -1 0 0
2011 3 66.88892455792 14.481876830227572 1.5608059614428589 -1 0 0
2017 1 70.23337078581599 14.481876830227572 1.5608059614428589 -1 0 0
2007 14 65.216701443972 15.447335269022387 0.00035756195963801933 -1 0 0
2013 18 68.561147671868 15.447335269022389 0.0003575619596361111 -1 0 0
2008 2 65.216701443972 17.37825222517657 1.5608059614428587 -1 0 0
2014 4 68.561147671868 17.378252225176567 1.5608059614428587 -1 0 0
1848 20 73.577817013712 12.550959874073387 0.0003575619596368868 -1 0 0
2023 3 73.577817013712 14.48187683022757 1.5608059614428589 -1 0 0
2019 14 71.905593899764 15.447335269022387 0.00035756195963735173 -1 0 0
2025 18 75.25004012766 15.447335269022387 0.00035756195963735217 -1 0 0
2020 2 71.905593899764 17.378252225176567 1.5608059614428587 -1 0 0
2026 4 75.25004012766 17.378252225176567 1.5608059614428587 -1 0 0
1854 16 76.922263241608 12.550959874073387 0.0003575619596368868 -1 0 0
1860 20 80.266709469504 12.550959874073387 0.0003575619596368866 -1 0 0
2029 1 76.922263241608 14.48187683022757 1.5608059614428589 -1 0 0
2035 3 80.266709469504 14.48187683022757 1.5608059614428589 -1 0 0
2031 14 78.594486355556 15.447335269022387 0.00035756195963735184 -1 0 0
2037 18 81.938932583452 15.447335269022387 0.00035756195963735184 -1 0 0
2032 2 78.594486355556 17.378252225176567 1.5608059614428587 -1 0 0
2038 4 81.938932583452 17.378252225176567 1.5608059614428587 -1 0 0
1866 16 83.6111556974 12.550959874073387 0.00035756195963688656 -1 0 0
1872 20 86.955601925296 12.550959874073389 0.0003575619596356531 -1 0 0
2041 1 83.6111556974 14.48187683022757 1.5608059614428589 -1 0 0
2047 3 86.955601925296 14.481876830227568 1.5608059614428589 -1 0 0
2043 14 85.283378811348 15.447335269022387 0.0003575619596375526 -1 0 0
2044 2 85.283378811348 17.378252225176567 1.5608059614428587 -1 0 0
1878 16 90.300048153192 12.550959874073385 0.0003575619596381282 -1 0 0
1884 20 93.644494381088 12.550959874073389 0.0003575619596356535 -1 0 0
2053 1 90.300048153192 14.481876830227574 1.5608059614428589 -1 0 0
2059 3 93.644494381088 14.481876830227568 1.5608059614428589 -1 0 0
2049 18 88.62782503924399 15.447335269022387 0.00035756195963735444 -1 0 0
2055 14 91.97227126714 15.447335269022387 0.00035756195963735493 -1 0 0
2050 4 88.62782503924399 17.378252225176567 1.5608059614428587 -1 0 0
2056 2 91.97227126714 17.378252225176567 1.5608059614428587 -1 0 0
1890 16 96.988940608984 12.550959874073385 0.00035756195963812824 -1 0 0
2065 1 96.988940608984 14.481876830227574 1.5608059614428589 -1 0 0
2061 18 95.31671749503599 15.447335269022387 0.00035756195963735455 -1 0 0
2067 14 98.661163722932 15.447335269022387 0.00035756195963725513 -1 0 0
2062 4 95.31671749503599 17.378252225176567 1.5608059614428587 -1 0 0
2068 2 98.661163722932 17.378252225176567 1.5608059614428587 -1 0 0
2076 20 1.2922733351079554e-15 18.343710663971383 0.00035756195963747577 0 0 0
2082 16 3.3444462278960003 18.343710663971383 0.0003575619596381484 0 0 0
2253 18 1.6722231139480004 21.240086058920387 0.0003575619596380068 0 0 0
2251 3 2.551676787928662e-15 20.274627620125564 1.5608059614428587 0 0 0
2257 1 3.3444462278960003 20.274627620125568 1.5608059614428587 0 0 0
2259 14 5.0166693418440005 21.240086058920387 0.00035756195963790603 0 0 0
2254 4 1.6722231139480004 23.17100301507457 1.5608059614428587 0 0 0
2260 2 5.0166693418440005 23.17100301507457 1.5608059614428587 0 0 0
2088 20 6.688892455792001 18.343710663971383 0.00035756195963814846 0 0 0
2094 16 10.033338683688001 18.343710663971383 0.0003575619596381486 0 0 0
2263 3 6.688892455792001 20.274627620125568 1.5608059614428587 0 0 0
2265 18 8.36111556974 21.240086058920387 0.0003575619596379062 0 0 0
2269 1 10.033338683688001 20.274627620125568 1.5608059614428587 0 0 0
2271 14 11.705561797636001 21.240086058920387 0.0003575619596379063 0 0 0
2266 4 8.36111556974 23.17100301507457 1.5608059614428587 0 0 0
2272 2 11.705561797636001 23.17100301507457 1.5608059614428587 0 0 0
2100 20 13.377784911584001 18.343710663971383 0.00035756195963805137 0 0 0
2106 16 16.722231139480005 18.343710663971383 0.0003575619596379414 0 0 0
2275 3 13.377784911584001 20.274627620125568 1.5608059614428587 0 0 0
2277 18 15.050008025532003 21.240086058920387 0.0003575619596384758 0 0 0
2281 1 16.722231139480005 20.274627620125568 1.5608059614428587 0 0 0
2278 4 15.050008025532003 23.17100301507457 1.5608059614428587 0 0 0
2112 20 20.066677367376005 18.343710663971383 0.0003575619596382399 0 0 0
2118 16 23.411123595272 18.343710663971383 0.0003575619596382398 0 0 0
2283 14 18.394454253428005 21.240086058920387 0.00035756195963779723 0 0 0
2289 18 21.738900481324002 21.240086058920387 0.0003575619596365636 0 0 0
2287 3 20.066677367376002 20.274627620125568 1.5608059614428587 0 0 0
2293 1 23.411123595272002 20.274627620125568 1.5608059614428587 0 0 0
2284 2 18.394454253428005 23.17100301507457 1.5608059614428587 0 0 0
2290 4 21.738900481324002 23.171003015074568 1.5608059614428587 0 0 0
2124 20 26.755569823168 18.343710663971383 0.00035756195963803836 0 0 0
2295 14 25.08334670922 21.240086058920387 0.00035756195963779675 0 0 0
2299 3 26.755569823168 20.274627620125568 1.5608059614428587 0 0 0
2301 18 28.427792937116 21.240086058920387 0.0003575619596377968 0 0 0
2296 2 25.08334670922 23.17100301507457 1.5608059614428587 0 0 0
2302 4 28.427792937116 23.17100301507457 1.5608059614428587 0 0 0
2130 16 30.100016051064 18.343710663971383 0.00035756195963803836 0 0 0
2136 20 33.444462278959996 18.343710663971383 0.00035756195963803847 0 0 0
2305 1 30.100016051064 20.274627620125568 1.5608059614428587 0 0 0
2307 14 31.772239165012 21.240086058920387 0.0003575619596377968 0 0 0
2311 3 33.44446227896 20.274627620125568 1.5608059614428587 0 0 0
2313 18 35.116685392908 21.240086058920387 0.0003575619596377968 0 0 0
2308 2 31.772239165012 23.17100301507457 1.5608059614428587 0 0 0
2314 4 35.116685392907996 23.17100301507457 1.5608059614428587 0 0 0
2142 16 36.788908506856 18.343710663971383 0.0003575619596380383 0 0 0
2148 20 40.133354734752 18.343710663971383 0.0003575619596380381 0 0 0
2317 1 36.788908506856004 20.274627620125568 1.5608059614428587 0 0 0
2319 14 38.461131620804004 21.240086058920387 0.0003575619596377966 0 0 0
2323 3 40.133354734752004 20.274627620125568 1.5608059614428587 0 0 0
2320 2 38.461131620804 23.17100301507457 1.5608059614428587 0 0 0
2154 16 43.477800962648 18.343710663971383 0.00035756195963803847 0 0 0
2160 20 46.822247190544 18.343710663971383 0.00035756195963803874 0 0 0
2325 18 41.805577848700004 21.240086058920387 0.0003575619596377966 0 0 0
2329 1 43.477800962648004 20.274627620125568 1.5608059614428587 0 0 0
2331 14 45.150024076596004 21.240086058920387 0.000357561959637797 0 0 0
2335 3 46.822247190544005 20.274627620125568 1.5608059614428587 0 0 0
2326 4 41.8055778487 23.17100301507457 1.5608059614428587 0 0 0
2332 2 45.150024076596 23.17100301507457 1.5608059614428587 0 0 0
1986 16 50.16669341844 18.343710663971383 0.0003575619596374764 -1 0 0