LAMMPS data file via write_data, version 29 Aug 2024, timestep = 1, units = metal

6120 atoms
24 atom types

0 100.33338683688 xlo xhi
0 98.476763428266 ylo yhi
-50 50 zlo zhi

Masses

1 92.90637
2 92.90637
3 92.90637
4 92.90637
5 92.90637
6 92.90637
7 92.90637
8 92.90637
9 32.06
10 32.06
11 32.06
12 32.06
13 32.06
14 32.06
15 32.06
16 32.06
17 32.06
18 32.06
19 32.06
20 32.06
21 32.06
22 32.06
23 32.06
24 32.06

Atoms # atomic

1536 16 1.1065540692674952e-15 0.9654583186725373 0.0003064635943546547 0 0 0
1542 12 3.3444462278960003 0.9654583186725368 0.00030646359435523184 0 0 0
1711 3 2.0978094825669957e-15 2.8963752710842234 1.5607619109723037 0 0 0
1717 1 3.3444462278960003 2.8963752710842248 1.5607619109723039 0 0 0
1713 14 1.6722231139480002 3.8618337136215355 0.00030646359435434984 0 0 0
1719 10 5.0166693418440005 3.8618337136215355 0.00030646359435426376 0 0 0
1714 4 1.6722231139480004 5.792750666033224 1.5607619109723037 0 0 0
1720 2 5.0166693418440005 5.792750666033224 1.5607619109723037 0 0 0
1548 16 6.688892455792001 0.9654583186725368 0.000306463594355232 0 0 0
1554 12 10.033338683688001 0.9654583186725368 0.00030646359435523206 0 0 0
1723 3 6.688892455792001 2.8963752710842248 1.5607619109723039 0 0 0
1729 1 10.033338683688001 2.8963752710842248 1.5607619109723039 0 0 0
1725 14 8.36111556974 3.8618337136215355 0.0003064635943542638 0 0 0
1731 10 11.705561797636001 3.8618337136215355 0.000306463594354264 0 0 0
1726 4 8.36111556974 5.792750666033224 1.5607619109723037 0 0 0
1732 2 11.705561797636001 5.792750666033224 1.5607619109723037 0 0 0
1560 16 13.377784911584001 0.9654583186725368 0.0003064635943551488 0 0 0
1566 12 16.722231139480005 0.965458318672537 0.0003064635943550534 0 0 0
1735 3 13.377784911584001 2.8963752710842243 1.5607619109723039 0 0 0
1741 1 16.722231139480005 2.8963752710842243 1.5607619109723037 0 0 0
1737 14 15.050008025532003 3.8618337136215346 0.00030646359435485053 0 0 0
1738 4 15.050008025532003 5.792750666033225 1.5607619109723037 0 0 0
1572 16 20.066677367376005 0.9654583186725367 0.0003064635943553098 0 0 0
1578 12 23.411123595272 0.9654583186725367 0.0003064635943553099 0 0 0
1747 3 20.066677367376005 2.8963752710842248 1.5607619109723037 0 0 0
1753 1 23.411123595272 2.8963752710842248 1.5607619109723037 0 0 0
1743 10 18.394454253428005 3.861833713621535 0.0003064635943543731 0 0 0
1749 14 21.738900481324002 3.8618337136215364 0.0003064635943533221 0 0 0
1744 2 18.394454253428005 5.792750666033224 1.5607619109723037 0 0 0
1750 4 21.738900481324002 5.792750666033222 1.5607619109723037 0 0 0
1584 16 26.755569823168 0.9654583186725368 0.0003064635943551372 0 0 0
1759 3 26.755569823168 2.8963752710842248 1.5607619109723037 0 0 0
1755 10 25.08334670922 3.861833713621535 0.00030646359435437294 0 0 0
1761 14 28.427792937116 3.861833713621535 0.000306463594354373 0 0 0
1756 2 25.08334670922 5.792750666033224 1.5607619109723037 0 0 0
1762 4 28.427792937116 5.792750666033224 1.5607619109723037 0 0 0
1590 12 30.100016051064 0.9654583186725368 0.0003064635943551372 0 0 0
1596 16 33.444462278959996 0.9654583186725368 0.0003064635943551372 0 0 0
1765 1 30.100016051064 2.8963752710842248 1.5607619109723037 0 0 0
1771 3 33.44446227896 2.8963752710842248 1.5607619109723037 0 0 0
1767 10 31.772239165012 3.861833713621535 0.00030646359435437305 0 0 0
1773 14 35.116685392908 3.861833713621535 0.00030646359435437305 0 0 0
1768 2 31.772239165012 5.792750666033224 1.5607619109723037 0 0 0
1774 4 35.116685392907996 5.792750666033224 1.5607619109723037 0 0 0
1602 12 36.788908506856 0.9654583186725368 0.0003064635943551371 0 0 0
1608 16 40.133354734752 0.9654583186725368 0.0003064635943551369 0 0 0
1777 1 36.788908506856004 2.8963752710842248 1.5607619109723037 0 0 0
1783 3 40.133354734752004 2.8963752710842248 1.5607619109723037 0 0 0
1779 10 38.461131620804004 3.861833713621535 0.0003064635943543729 0 0 0
1780 2 38.461131620804 5.792750666033224 1.5607619109723037 0 0 0
1614 12 43.477800962648 0.9654583186725368 0.0003064635943551372 0 0 0
1620 16 46.822247190544 0.9654583186725368 0.0003064635943551375 0 0 0
1789 1 43.477800962648004 2.8963752710842248 1.5607619109723037 0 0 0
1795 3 46.822247190544005 2.8963752710842248 1.5607619109723037 0 0 0
1785 14 41.805577848700004 3.861833713621535 0.0003064635943543728 0 0 0
1791 10 45.150024076596004 3.861833713621535 0.0003064635943543732 0 0 0
1786 4 41.8055778487 5.792750666033224 1.5607619109723037 0 0 0
1792 2 45.150024076596 5.792750666033224 1.5607619109723037 0 0 0
1446 12 50.16669341844 0.9654583186725373 0.0003064635943546555 -1 0 0
1621 1 50.16669341844 2.8963752710842234 1.5607619109723037 -1 0 0
1797 14 48.494470304492005 3.861833713621535 0.00030646359435446065 0 0 0
1623 10 51.838916532388 3.8618337136215355 0.0003064635943543499 -1 0 0
1798 4 48.494470304492 5.792750666033224 1.5607619109723037 0 0 0
1624 2 51.838916532388 5.792750666033224 1.5607619109723037 -1 0 0
1452 16 53.511139646336 0.9654583186725368 0.00030646359435523195 -1 0 0
1458 12 56.855585874232 0.9654583186725368 0.00030646359435523195 -1 0 0
1627 3 53.511139646336 2.8963752710842248 1.5607619109723039 -1 0 0
1633 1 56.855585874232 2.8963752710842248 1.5607619109723039 -1 0 0
1629 14 55.183362760284 3.8618337136215355 0.0003064635943542638 -1 0 0
1635 10 58.52780898818 3.8618337136215355 0.00030646359435426376 -1 0 0
1630 4 55.183362760284 5.792750666033224 1.5607619109723037 -1 0 0
1636 2 58.52780898818 5.792750666033224 1.5607619109723037 -1 0 0
1464 16 60.200032102128 0.9654583186725368 0.00030646359435523195 -1 0 0
1470 12 63.544478330024 0.9654583186725368 0.00030646359435514874 -1 0 0
1639 3 60.200032102128 2.8963752710842248 1.5607619109723039 -1 0 0
1645 1 63.544478330024 2.8963752710842243 1.5607619109723039 -1 0 0
1641 14 61.872255216076 3.8618337136215355 0.0003064635943542638 -1 0 0
1642 4 61.872255216076 5.792750666033224 1.5607619109723037 -1 0 0
1476 16 66.88892455792 0.9654583186725368 0.00030646359435522637 -1 0 0
1482 12 70.23337078581599 0.9654583186725367 0.0003064635943553101 -1 0 0
1651 3 66.88892455792 2.8963752710842248 1.5607619109723037 -1 0 0
1657 1 70.23337078581599 2.8963752710842248 1.5607619109723037 -1 0 0
1647 10 65.216701443972 3.8618337136215346 0.00030646359435485075 -1 0 0
1653 14 68.561147671868 3.8618337136215364 0.00030646359435332245 -1 0 0
1648 2 65.216701443972 5.792750666033225 1.5607619109723037 -1 0 0
1654 4 68.561147671868 5.792750666033222 1.5607619109723037 -1 0 0
1488 16 73.577817013712 0.9654583186725368 0.00030646359435513736 -1 0 0
1663 3 73.577817013712 2.8963752710842248 1.5607619109723037 -1 0 0
1659 10 71.905593899764 3.861833713621535 0.00030646359435437326 -1 0 0
1665 14 75.25004012766 3.861833713621535 0.0003064635943543734 -1 0 0
1660 2 71.905593899764 5.792750666033224 1.5607619109723037 -1 0 0
1666 4 75.25004012766 5.792750666033224 1.5607619109723037 -1 0 0
1494 12 76.922263241608 0.9654583186725368 0.00030646359435513736 -1 0 0
1500 16 80.266709469504 0.9654583186725368 0.0003064635943551372 -1 0 0
1669 1 76.922263241608 2.8963752710842248 1.5607619109723037 -1 0 0
1675 3 80.266709469504 2.8963752710842248 1.5607619109723037 -1 0 0
1671 10 78.594486355556 3.861833713621535 0.00030646359435437326 -1 0 0
1677 14 81.938932583452 3.861833713621535 0.0003064635943543731 -1 0 0
1672 2 78.594486355556 5.792750666033224 1.5607619109723037 -1 0 0
1678 4 81.938932583452 5.792750666033224 1.5607619109723037 -1 0 0
1506 12 83.6111556974 0.9654583186725368 0.0003064635943551372 -1 0 0
1512 16 86.955601925296 0.9654583186725378 0.00030646359435407993 -1 0 0
1681 1 83.6111556974 2.8963752710842248 1.5607619109723037 -1 0 0
1687 3 86.955601925296 2.8963752710842225 1.5607619109723037 -1 0 0
1683 10 85.283378811348 3.861833713621535 0.0003064635943545461 -1 0 0
1684 2 85.283378811348 5.792750666033225 1.5607619109723037 -1 0 0
1518 12 90.300048153192 0.9654583186725358 0.00030646359435620107 -1 0 0
1524 16 93.644494381088 0.9654583186725378 0.0003064635943540803 -1 0 0
1693 1 90.300048153192 2.8963752710842265 1.5607619109723039 -1 0 0
1699 3 93.644494381088 2.8963752710842225 1.5607619109723037 -1 0 0
1689 14 88.62782503924399 3.861833713621535 0.0003064635943543765 -1 0 0
1695 10 91.97227126714 3.861833713621535 0.00030646359435437673 -1 0 0
1690 4 88.62782503924399 5.792750666033224 1.5607619109723037 -1 0 0
1696 2 91.97227126714 5.792750666033224 1.5607619109723037 -1 0 0
1530 12 96.988940608984 0.9654583186725358 0.00030646359435620107 -1 0 0
1705 1 96.988940608984 2.8963752710842265 1.5607619109723039 -1 0 0
1701 14 95.31671749503599 3.861833713621535 0.0003064635943543766 -1 0 0
1707 10 98.661163722932 3.8618337136215355 0.0003064635943542911 -1 0 0
1702 4 95.31671749503599 5.792750666033224 1.5607619109723037 -1 0 0
1708 2 98.661163722932 5.792750666033224 1.5607619109723037 -1 0 0
1716 16 1.107075782642916e-15 6.758209108570537 0.0003064635943538771 0 0 0
1722 12 3.3444462278960003 6.7582091085705365 0.0003064635943544571 0 0 0
1891 3 2.187022469763951e-15 8.689126060982224 1.5607619109723037 0 0 0
1897 1 3.3444462278960003 8.689126060982224 1.5607619109723037 0 0 0
1893 14 1.6722231139480002 9.654584503519535 0.00030646359435522783 0 0 0
1899 10 5.0166693418440005 9.654584503519535 0.0003064635943551412 0 0 0
1894 4 1.6722231139480004 11.585501455931226 1.5607619109723037 0 0 0
1900 2 5.0166693418440005 11.585501455931226 1.5607619109723037 0 0 0
1728 16 6.688892455792001 6.7582091085705365 0.0003064635943544572 0 0 0
1734 12 10.033338683688001 6.7582091085705365 0.00030646359435445724 0 0 0
1903 3 6.688892455792001 8.689126060982224 1.5607619109723037 0 0 0
1909 1 10.033338683688001 8.689126060982224 1.5607619109723037 0 0 0
1905 14 8.36111556974 9.654584503519535 0.00030646359435514126 0 0 0
1911 10 11.705561797636001 9.654584503519535 0.0003064635943551414 0 0 0
1906 4 8.36111556974 11.585501455931226 1.5607619109723037 0 0 0
1912 2 11.705561797636001 11.585501455931226 1.5607619109723037 0 0 0
1740 16 13.377784911584001 6.7582091085705365 0.00030646359435437397 0 0 0
1746 12 16.722231139480005 6.7582091085705365 0.00030646359435427287 0 0 0
1915 3 13.377784911584001 8.689126060982224 1.5607619109723037 0 0 0
1921 1 16.722231139480005 8.689126060982224 1.5607619109723037 0 0 0
1917 14 15.050008025532003 9.654584503519535 0.0003064635943556284 0 0 0
1918 4 15.050008025532003 11.585501455931226 1.5607619109723037 0 0 0
1752 16 20.066677367376005 6.7582091085705365 0.00030646359435452917 0 0 0
1758 12 23.411123595272 6.7582091085705365 0.0003064635943545294 0 0 0
1927 3 20.066677367376005 8.689126060982224 1.5607619109723037 0 0 0
1933 1 23.411123595272 8.689126060982224 1.5607619109723037 0 0 0
1923 10 18.394454253428005 9.654584503519535 0.00030646359435504574 0 0 0
1929 14 21.738900481324002 9.654584503519537 0.0003064635943539885 0 0 0
1924 2 18.394454253428005 11.585501455931224 1.5607619109723037 0 0 0
1930 4 21.738900481324002 11.585501455931222 1.5607619109723037 0 0 0
1764 16 26.755569823168 6.7582091085705365 0.0003064635943543566 0 0 0
1939 3 26.755569823168 8.689126060982224 1.5607619109723037 0 0 0
1935 10 25.08334670922 9.654584503519535 0.0003064635943550453 0 0 0
1941 14 28.427792937116 9.654584503519535 0.0003064635943550454 0 0 0
1936 2 25.08334670922 11.585501455931224 1.5607619109723037 0 0 0
1942 4 28.427792937116 11.585501455931224 1.5607619109723037 0 0 0
1770 12 30.100016051064 6.7582091085705365 0.0003064635943543566 0 0 0
1776 16 33.444462278959996 6.7582091085705365 0.0003064635943543567 0 0 0
1945 1 30.100016051064 8.689126060982224 1.5607619109723037 0 0 0
1951 3 33.44446227896 8.689126060982224 1.5607619109723037 0 0 0
1947 10 31.772239165012 9.654584503519535 0.00030646359435504547 0 0 0
1953 14 35.116685392908 9.654584503519535 0.00030646359435504547 0 0 0
1948 2 31.772239165012 11.585501455931224 1.5607619109723037 0 0 0
1954 4 35.116685392907996 11.585501455931224 1.5607619109723037 0 0 0
1782 12 36.788908506856 6.7582091085705365 0.00030646359435435657 0 0 0
1788 16 40.133354734752 6.7582091085705365 0.00030646359435435635 0 0 0
1957 1 36.788908506856004 8.689126060982224 1.5607619109723037 0 0 0
1963 3 40.133354734752004 8.689126060982224 1.5607619109723037 0 0 0
1959 10 38.461131620804004 9.654584503519535 0.0003064635943550453 0 0 0
1960 2 38.461131620804 11.585501455931224 1.5607619109723037 0 0 0
1794 12 43.477800962648 6.7582091085705365 0.0003064635943543566 0 0 0
1800 16 46.822247190544 6.7582091085705365 0.00030646359435435695 0 0 0
1969 1 43.477800962648004 8.689126060982224 1.5607619109723037 0 0 0
1975 3 46.822247190544005 8.689126060982224 1.5607619109723037 0 0 0
1965 14 41.805577848700004 9.654584503519535 0.0003064635943550452 0 0 0
1971 10 45.150024076596004 9.654584503519535 0.00030646359435504563 0 0 0
1966 4 41.8055778487 11.585501455931224 1.5607619109723037 0 0 0
1972 2 45.150024076596 11.585501455931224 1.5607619109723037 0 0 0
1626 12 50.16669341844 6.758209108570537 0.00030646359435387784 -1 0 0
1801 1 50.16669341844 8.689126060982224 1.5607619109723037 -1 0 0
1977 14 48.494470304492005 9.654584503519535 0.00030646359435513177 0 0 0
1803 10 51.838916532388 9.654584503519535 0.0003064635943552279 -1 0 0
1978 4 48.494470304492 11.585501455931226 1.5607619109723037 0 0 0
1804 2 51.838916532388 11.585501455931226 1.5607619109723037 -1 0 0
1632 16 53.511139646336 6.7582091085705365 0.0003064635943544571 -1 0 0
1638 12 56.855585874232 6.7582091085705365 0.0003064635943544571 -1 0 0
1807 3 53.511139646336 8.689126060982224 1.5607619109723037 -1 0 0
1813 1 56.855585874232 8.689126060982224 1.5607619109723037 -1 0 0
1809 14 55.183362760284 9.654584503519535 0.00030646359435514126 -1 0 0
1815 10 58.52780898818 9.654584503519535 0.0003064635943551412 -1 0 0
1810 4 55.183362760284 11.585501455931226 1.5607619109723037 -1 0 0
1816 2 58.52780898818 11.585501455931226 1.5607619109723037 -1 0 0
1644 16 60.200032102128 6.7582091085705365 0.0003064635943544571 -1 0 0
1650 12 63.544478330024 6.7582091085705365 0.0003064635943543739 -1 0 0
1819 3 60.200032102128 8.689126060982224 1.5607619109723037 -1 0 0
1825 1 63.544478330024 8.689126060982224 1.5607619109723037 -1 0 0
1821 14 61.872255216076 9.654584503519535 0.0003064635943551412 -1 0 0
1822 4 61.872255216076 11.585501455931226 1.5607619109723037 -1 0 0
1656 16 66.88892455792 6.7582091085705365 0.0003064635943544459 -1 0 0
1662 12 70.23337078581599 6.7582091085705365 0.00030646359435452966 -1 0 0
1831 3 66.88892455792 8.689126060982224 1.5607619109723037 -1 0 0
1837 1 70.23337078581599 8.689126060982224 1.5607619109723037 -1 0 0
1827 10 65.216701443972 9.654584503519535 0.00030646359435562855 -1 0 0
1833 14 68.561147671868 9.654584503519537 0.00030646359435398886 -1 0 0
1828 2 65.216701443972 11.585501455931226 1.5607619109723037 -1 0 0
1834 4 68.561147671868 11.585501455931222 1.5607619109723037 -1 0 0
1668 16 73.577817013712 6.7582091085705365 0.00030646359435435684 -1 0 0
1843 3 73.577817013712 8.689126060982224 1.5607619109723037 -1 0 0
1839 10 71.905593899764 9.654584503519535 0.0003064635943550457 -1 0 0
1845 14 75.25004012766 9.654584503519535 0.0003064635943550458 -1 0 0
1840 2 71.905593899764 11.585501455931224 1.5607619109723037 -1 0 0
1846 4 75.25004012766 11.585501455931224 1.5607619109723037 -1 0 0
1674 12 76.922263241608 6.7582091085705365 0.00030646359435435684 -1 0 0
1680 16 80.266709469504 6.7582091085705365 0.0003064635943543567 -1 0 0
1849 1 76.922263241608 8.689126060982224 1.5607619109723037 -1 0 0
1855 3 80.266709469504 8.689126060982224 1.5607619109723037 -1 0 0
1851 10 78.594486355556 9.654584503519535 0.0003064635943550457 -1 0 0
1857 14 81.938932583452 9.654584503519535 0.0003064635943550455 -1 0 0
1852 2 78.594486355556 11.585501455931224 1.5607619109723037 -1 0 0
1858 4 81.938932583452 11.585501455931224 1.5607619109723037 -1 0 0
1686 12 83.6111556974 6.7582091085705365 0.0003064635943543566 -1 0 0
1692 16 86.955601925296 6.758209108570537 0.0003064635943532994 -1 0 0
1861 1 83.6111556974 8.689126060982224 1.5607619109723037 -1 0 0
1867 3 86.955601925296 8.689126060982222 1.5607619109723037 -1 0 0
1863 10 85.283378811348 9.654584503519535 0.0003064635943552185 -1 0 0
1864 2 85.283378811348 11.585501455931226 1.5607619109723037 -1 0 0
1698 12 90.300048153192 6.758209108570536 0.00030646359435542055 -1 0 0
1704 16 93.644494381088 6.758209108570537 0.00030646359435329974 -1 0 0
1873 1 90.300048153192 8.689126060982225 1.5607619109723039 -1 0 0
1879 3 93.644494381088 8.689126060982222 1.5607619109723037 -1 0 0
1869 14 88.62782503924399 9.654584503519535 0.00030646359435504894 -1 0 0
1875 10 91.97227126714 9.654584503519535 0.00030646359435504916 -1 0 0
1870 4 88.62782503924399 11.585501455931224 1.5607619109723037 -1 0 0
1876 2 91.97227126714 11.585501455931224 1.5607619109723037 -1 0 0
1710 12 96.988940608984 6.758209108570536 0.0003064635943554206 -1 0 0
1885 1 96.988940608984 8.689126060982225 1.5607619109723039 -1 0 0
1881 14 95.31671749503599 9.654584503519535 0.00030646359435504916 -1 0 0
1887 10 98.661163722932 9.654584503519535 0.00030646359435496307 -1 0 0
1882 4 95.31671749503599 11.585501455931224 1.5607619109723037 -1 0 0
1888 2 98.661163722932 11.585501455931224 1.5607619109723037 -1 0 0
1896 16 1.107075782642916e-15 12.550959898468538 0.000306463594353683 0 0 0
1902 12 3.3444462278960003 12.550959898468538 0.000306463594354263 0 0 0
2071 3 2.102504902945783e-15 14.481876850880226 1.5607619109723037 0 0 0
2077 1 3.3444462278960003 14.481876850880226 1.5607619109723037 0 0 0
2073 14 1.6722231139480002 15.44733529341754 0.00030646359435471603 0 0 0
2079 10 5.0166693418440005 15.44733529341754 0.0003064635943546294 0 0 0
2074 4 1.6722231139480004 17.378252245829223 1.5607619109723037 0 0 0
2080 2 5.0166693418440005 17.378252245829223 1.5607619109723037 0 0 0
1908 16 6.688892455792001 12.550959898468538 0.000306463594354263 0 0 0
1914 12 10.033338683688001 12.550959898468538 0.0003064635943542631 0 0 0
2083 3 6.688892455792001 14.481876850880226 1.5607619109723037 0 0 0
2089 1 10.033338683688001 14.481876850880226 1.5607619109723037 0 0 0
2085 14 8.36111556974 15.44733529341754 0.0003064635943546299 0 0 0
2091 10 11.705561797636001 15.44733529341754 0.0003064635943546296 0 0 0
2086 4 8.36111556974 17.378252245829223 1.5607619109723037 0 0 0
2092 2 11.705561797636001 17.378252245829223 1.5607619109723037 0 0 0
1920 16 13.377784911584001 12.550959898468538 0.0003064635943541798 0 0 0
1926 12 16.722231139480005 12.550959898468538 0.00030646359435407874 0 0 0
2095 3 13.377784911584001 14.481876850880226 1.5607619109723037 0 0 0
2101 1 16.722231139480005 14.481876850880226 1.5607619109723039 0 0 0
2097 14 15.050008025532003 15.447335293417538 0.0003064635943551334 0 0 0
2098 4 15.050008025532003 17.378252245829227 1.5607619109723037 0 0 0
1932 16 20.066677367376005 12.550959898468538 0.00030646359435433505 0 0 0
1938 12 23.411123595272 12.550959898468538 0.0003064635943543352 0 0 0
2107 3 20.066677367376005 14.481876850880228 1.5607619109723039 0 0 0
2113 1 23.411123595272 14.481876850880228 1.5607619109723039 0 0 0
2103 10 18.394454253428005 15.44733529341754 0.00030646359435456105 0 0 0
2109 14 21.738900481324002 15.44733529341754 0.0003064635943534975 0 0 0
2104 2 18.394454253428005 17.378252245829223 1.5607619109723037 0 0 0
2110 4 21.738900481324002 17.378252245829223 1.5607619109723037 0 0 0
1944 16 26.755569823168 12.550959898468538 0.00030646359435416244 0 0 0
2119 3 26.755569823168 14.481876850880226 1.5607619109723039 0 0 0
2115 10 25.08334670922 15.44733529341754 0.000306463594354561 0 0 0
2121 14 28.427792937116 15.44733529341754 0.00030646359435456116 0 0 0
2116 2 25.08334670922 17.378252245829223 1.5607619109723037 0 0 0
2122 4 28.427792937116 17.378252245829223 1.5607619109723037 0 0 0
1950 12 30.100016051064 12.550959898468538 0.00030646359435416233 0 0 0
1956 16 33.444462278959996 12.550959898468538 0.0003064635943541625 0 0 0
2125 1 30.100016051064 14.481876850880226 1.5607619109723039 0 0 0
2131 3 33.44446227896 14.481876850880226 1.5607619109723039 0 0 0
2127 10 31.772239165012 15.44733529341754 0.000306463594354561 0 0 0
2133 14 35.116685392908 15.44733529341754 0.0003064635943545612 0 0 0
2128 2 31.772239165012 17.378252245829223 1.5607619109723037 0 0 0
2134 4 35.116685392907996 17.378252245829223 1.5607619109723037 0 0 0
1962 12 36.788908506856 12.550959898468538 0.00030646359435416233 0 0 0
1968 16 40.133354734752 12.550959898468538 0.0003064635943541621 0 0 0
2137 1 36.788908506856004 14.481876850880226 1.5607619109723039 0 0 0
2143 3 40.133354734752004 14.481876850880226 1.5607619109723039 0 0 0
2139 10 38.461131620804004 15.44733529341754 0.0003064635943545609 0 0 0
2140 2 38.461131620804 17.378252245829223 1.5607619109723037 0 0 0
1974 12 43.477800962648 12.550959898468538 0.00030646359435416244 0 0 0
1980 16 46.822247190544 12.550959898468538 0.0003064635943541628 0 0 0
2149 1 43.477800962648004 14.481876850880226 1.5607619109723039 0 0 0
2155 3 46.822247190544005 14.481876850880226 1.5607619109723039 0 0 0
2145 14 41.805577848700004 15.44733529341754 0.00030646359435456083 0 0 0
2151 10 45.150024076596004 15.44733529341754 0.00030646359435456126 0 0 0
2146 4 41.8055778487 17.378252245829223 1.5607619109723037 0 0 0
2152 2 45.150024076596 17.378252245829223 1.5607619109723037 0 0 0
1806 12 50.16669341844 12.550959898468538 0.0003064635943536836 -1 0 0
1981 1 50.16669341844 14.481876850880226 1.5607619109723037 -1 0 0
2157 14 48.494470304492005 15.44733529341754 0.00030646359435464757 0 0 0
1983 10 51.838916532388 15.44733529341754 0.0003064635943547161 -1 0 0
2158 4 48.494470304492 17.378252245829223 1.5607619109723037 0 0 0
1984 2 51.838916532388 17.378252245829223 1.5607619109723037 -1 0 0
1812 16 53.511139646336 12.550959898468538 0.00030646359435426284 -1 0 0
1818 12 56.855585874232 12.550959898468538 0.00030646359435426284 -1 0 0
1987 3 53.511139646336 14.481876850880226 1.5607619109723037 -1 0 0
1993 1 56.855585874232 14.481876850880226 1.5607619109723037 -1 0 0
1989 14 55.183362760284 15.44733529341754 0.0003064635943546297 -1 0 0
1995 10 58.52780898818 15.44733529341754 0.0003064635943546294 -1 0 0
1990 4 55.183362760284 17.378252245829223 1.5607619109723037 -1 0 0
1996 2 58.52780898818 17.378252245829223 1.5607619109723037 -1 0 0
1824 16 60.200032102128 12.550959898468538 0.00030646359435426284 -1 0 0
1830 12 63.544478330024 12.550959898468538 0.0003064635943541796 -1 0 0
1999 3 60.200032102128 14.481876850880226 1.5607619109723037 -1 0 0
2005 1 63.544478330024 14.481876850880226 1.5607619109723037 -1 0 0
2001 14 61.872255216076 15.44733529341754 0.0003064635943546297 -1 0 0
2002 4 61.872255216076 17.378252245829223 1.5607619109723037 -1 0 0
1836 16 66.88892455792 12.550959898468538 0.0003064635943542518 -1 0 0
1842 12 70.23337078581599 12.550959898468538 0.0003064635943543355 -1 0 0
2011 3 66.88892455792 14.481876850880228 1.5607619109723039 -1 0 0
2017 1 70.23337078581599 14.481876850880228 1.5607619109723039 -1 0 0
2007 10 65.216701443972 15.447335293417538 0.0003064635943551334 -1 0 0
2013 14 68.561147671868 15.44733529341754 0.0003064635943534978 -1 0 0
2008 2 65.216701443972 17.378252245829227 1.5607619109723037 -1 0 0
2014 4 68.561147671868 17.378252245829223 1.5607619109723037 -1 0 0
1848 16 73.577817013712 12.550959898468538 0.00030646359435416266 -1 0 0
2023 3 73.577817013712 14.481876850880226 1.5607619109723039 -1 0 0
2019 10 71.905593899764 15.44733529341754 0.0003064635943545612 -1 0 0
2025 14 75.25004012766 15.44733529341754 0.00030646359435456154 -1 0 0
2020 2 71.905593899764 17.378252245829223 1.5607619109723037 -1 0 0
2026 4 75.25004012766 17.378252245829223 1.5607619109723037 -1 0 0
1854 12 76.922263241608 12.550959898468538 0.00030646359435416266 -1 0 0
1860 16 80.266709469504 12.550959898468538 0.00030646359435416255 -1 0 0
2029 1 76.922263241608 14.481876850880226 1.5607619109723039 -1 0 0
2035 3 80.266709469504 14.481876850880226 1.5607619109723039 -1 0 0
2031 10 78.594486355556 15.44733529341754 0.00030646359435456126 -1 0 0
2037 14 81.938932583452 15.44733529341754 0.00030646359435456126 -1 0 0
2032 2 78.594486355556 17.378252245829223 1.5607619109723037 -1 0 0
2038 4 81.938932583452 17.378252245829223 1.5607619109723037 -1 0 0
1866 12 83.6111556974 12.550959898468538 0.0003064635943541625 -1 0 0
1872 16 86.955601925296 12.55095989846854 0.0003064635943531053 -1 0 0
2041 1 83.6111556974 14.481876850880226 1.5607619109723039 -1 0 0
2047 3 86.955601925296 14.481876850880225 1.5607619109723039 -1 0 0
2043 10 85.283378811348 15.44733529341754 0.00030646359435473333 -1 0 0
2044 2 85.283378811348 17.378252245829223 1.5607619109723037 -1 0 0
1878 12 90.300048153192 12.550959898468538 0.00030646359435522664 -1 0 0
1884 16 93.644494381088 12.55095989846854 0.0003064635943531056 -1 0 0
2053 1 90.300048153192 14.48187685088023 1.5607619109723039 -1 0 0
2059 3 93.644494381088 14.481876850880225 1.5607619109723039 -1 0 0
2049 14 88.62782503924399 15.44733529341754 0.0003064635943545635 -1 0 0
2055 10 91.97227126714 15.44733529341754 0.0003064635943545639 -1 0 0
2050 4 88.62782503924399 17.378252245829223 1.5607619109723037 -1 0 0
2056 2 91.97227126714 17.378252245829223 1.5607619109723037 -1 0 0
1890 12 96.988940608984 12.550959898468538 0.0003064635943552267 -1 0 0
2065 1 96.988940608984 14.48187685088023 1.5607619109723039 -1 0 0
2061 14 95.31671749503599 15.44733529341754 0.0003064635943545636 -1 0 0
2067 10 98.661163722932 15.44733529341754 0.0003064635943544784 -1 0 0
2062 4 95.31671749503599 17.378252245829223 1.5607619109723037 -1 0 0
2068 2 98.661163722932 17.378252245829223 1.5607619109723037 -1 0 0
2076 16 1.1075974960183367e-15 18.343710688366535 0.0003064635943546675 0 0 0
2082 12 3.3444462278960003 18.343710688366535 0.000306463594355244 0 0 0
2253 14 1.6722231139480002 21.240086083315536 0.0003064635943551226 0 0 0
2251 3 2.187022469763951e-15 20.274627640778224 1.5607619109723037 0 0 0
2257 1 3.3444462278960003 20.274627640778224 1.5607619109723037 0 0 0
2259 10 5.0166693418440005 21.240086083315536 0.0003064635943550363 0 0 0
2254 4 1.6722231139480004 23.171003035727228 1.5607619109723037 0 0 0
2260 2 5.0166693418440005 23.171003035727228 1.5607619109723037 0 0 0
2088 16 6.688892455792001 18.343710688366535 0.00030646359435524404 0 0 0
2094 12 10.033338683688001 18.343710688366535 0.0003064635943552442 0 0 0
2263 3 6.688892455792001 20.274627640778224 1.5607619109723037 0 0 0
2265 14 8.36111556974 21.240086083315536 0.0003064635943550364 0 0 0
2269 1 10.033338683688001 20.274627640778224 1.5607619109723037 0 0 0
2271 10 11.705561797636001 21.240086083315536 0.00030646359435503647 0 0 0
2266 4 8.36111556974 23.171003035727228 1.5607619109723037 0 0 0
2272 2 11.705561797636001 23.171003035727228 1.5607619109723037 0 0 0
2100 16 13.377784911584001 18.343710688366535 0.00030646359435516083 0 0 0
2106 12 16.722231139480005 18.343710688366535 0.00030646359435506656 0 0 0
2275 3 13.377784911584001 20.274627640778224 1.5607619109723037 0 0 0
2277 14 15.050008025532003 21.240086083315536 0.00030646359435552463 0 0 0
2281 1 16.722231139480005 20.274627640778224 1.5607619109723037 0 0 0
2278 4 15.050008025532003 23.171003035727228 1.5607619109723037 0 0 0
2112 16 20.066677367376005 18.34371068836653 0.00030646359435532243 0 0 0
2118 12 23.411123595272 18.34371068836653 0.0003064635943553223 0 0 0
2283 10 18.394454253428005 21.240086083315536 0.000306463594354943 0 0 0
2289 14 21.738900481324002 21.24008608331554 0.00030646359435388564 0 0 0
2287 3 20.066677367376005 20.274627640778224 1.5607619109723037 0 0 0
2293 1 23.411123595272 20.274627640778224 1.5607619109723037 0 0 0
2284 2 18.394454253428005 23.171003035727228 1.5607619109723037 0 0 0
2290 4 21.738900481324002 23.171003035727225 1.5607619109723037 0 0 0
2124 16 26.755569823168 18.343710688366535 0.0003064635943551497 0 0 0
2295 10 25.08334670922 21.240086083315536 0.0003064635943549426 0 0 0
2299 3 26.755569823168 20.274627640778224 1.5607619109723037 0 0 0
2301 14 28.427792937116 21.240086083315536 0.00030646359435494263 0 0 0
2296 2 25.08334670922 23.171003035727228 1.5607619109723037 0 0 0
2302 4 28.427792937116 23.171003035727228 1.5607619109723037 0 0 0
2130 12 30.100016051064 18.343710688366535 0.0003064635943551497 0 0 0
2136 16 33.444462278959996 18.343710688366535 0.00030646359435514977 0 0 0
2305 1 30.100016051064 20.274627640778224 1.5607619109723037 0 0 0
2307 10 31.772239165012 21.240086083315536 0.00030646359435494263 0 0 0
2311 3 33.44446227896 20.274627640778224 1.5607619109723037 0 0 0
2313 14 35.116685392908 21.240086083315536 0.00030646359435494263 0 0 0
2308 2 31.772239165012 23.171003035727228 1.5607619109723037 0 0 0
2314 4 35.116685392907996 23.171003035727228 1.5607619109723037 0 0 0
2142 12 36.788908506856 18.343710688366535 0.0003064635943551496 0 0 0
2148 16 40.133354734752 18.343710688366535 0.00030646359435514944 0 0 0
2317 1 36.788908506856004 20.274627640778224 1.5607619109723037 0 0 0
2319 10 38.461131620804004 21.240086083315536 0.0003064635943549424 0 0 0
2323 3 40.133354734752004 20.274627640778224 1.5607619109723037 0 0 0
2320 2 38.461131620804 23.171003035727228 1.5607619109723037 0 0 0
2154 12 43.477800962648 18.343710688366535 0.00030646359435514977 0 0 0
2160 16 46.822247190544 18.343710688366535 0.00030646359435515004 0 0 0
2325 14 41.805577848700004 21.240086083315536 0.0003064635943549424 0 0 0
2329 1 43.477800962648004 20.274627640778224 1.5607619109723037 0 0 0
2331 10 45.150024076596004 21.240086083315536 0.00030646359435494285 0 0 0
2335 3 46.822247190544005 20.274627640778224 1.5607619109723037 0 0 0
2326 4 41.8055778487 23.171003035727228 1.5607619109723037 0 0 0
2332 2 45.150024076596 23.171003035727228 1.5607619109723037 0 0 0
1986 12 50.16669341844 18.343710688366535 0.000306463594354668 -1 0 0
2337 14 48.494470304492005 21.240086083315536 0.00030646359435502893 0 0 0