LAMMPS data file via write_data, version 29 Aug 2024, timestep = 39, units = metal

15048 atoms
36 atom types

0 100.112067213014 xlo xhi
0 100.389002921108 ylo yhi
-50 50 zlo zhi

Masses

1 51.9961
2 51.9961
3 51.9961
4 51.9961
5 51.9961
6 51.9961
7 51.9961
8 51.9961
9 51.9961
10 51.9961
11 51.9961
12 51.9961
13 15.999
14 15.999
15 15.999
16 15.999
17 15.999
18 15.999
19 15.999
20 15.999
21 15.999
22 15.999
23 15.999
24 15.999
25 15.999
26 15.999
27 15.999
28 15.999
29 15.999
30 15.999
31 15.999
32 15.999
33 15.999
34 15.999
35 15.999
36 15.999

Atoms # atomic

2625 14 1.3167822864892549 0.7603929039749422 0.059568940479580376 0 0 0
2629 17 3.269102963129205 0.31043758609201944 1.1911558647148461 0 0 0
2631 2 3.9946290586471878 0.7358503436077242 0.058884162749355144 0 0 0
2635 19 5.224378647058207 0.02463530629493861 1.2906514000500202 0 0 0
2626 20 1.245413184935879 2.2797674332226565 1.1502677516366053 0 0 0
2632 18 3.800146683456101 2.6412235274356655 1.179323271585787 0 0 0
2634 4 2.570233994049009 2.2353013749196577 -0.1842222995539241 0 0 0
2640 16 5.2686170235074865 3.0420343555993106 0.06061296034024007 0 0 0
2853 14 1.3167822864892549 5.323529400388938 0.059568940479580335 0 0 0
2857 17 3.269102963129205 4.873574082506033 1.191155864714803 0 0 0
2859 2 3.9946290586471873 5.298986840021721 0.05888416274935568 0 0 0
2863 19 5.224378647058208 4.587771802708934 1.2906514000500195 0 0 0
2630 1 4.211934723620253 0.5502491971835809 2.7970853650935914 0 0 0
2633 3 2.3709910614800176 3.4764127152455337 2.0663184535498695 0 0 0
2639 15 4.965819361169716 3.4241207572153334 2.46759911486069 0 0 0
2858 1 4.211934723620274 5.113385693597593 2.797085365093539 0 0 0
2637 14 6.5858384555952485 0.7603929039749422 0.059568940479580404 0 0 0
2641 17 8.538159132235219 0.3104375860919476 1.1911558647147458 0 0 0
2643 2 9.263685227753184 0.7358503436077225 0.058884162749357594 0 0 0
2647 19 10.49343481616421 0.024635306294940238 1.2906514000500173 0 0 0
2638 20 6.514469354041897 2.2797674332226423 1.1502677516366226 0 0 0
2644 18 9.069202852562125 2.6412235274356495 1.1793232715857969 0 0 0
2646 4 7.839290163155033 2.2353013749196253 -0.18422229955390784 0 0 0
2652 16 10.537673192613488 3.0420343555993106 0.06061296034024011 0 0 0
2865 14 6.5858384555952485 5.323529400388938 0.059568940479580404 0 0 0
2869 17 8.538159132235238 4.873574082506026 1.191155864714769 0 0 0
2871 2 9.263685227753188 5.29898684002172 0.05888416274935532 0 0 0
2875 19 10.493434816164209 4.587771802708934 1.2906514000500202 0 0 0
2642 1 9.480990892726238 0.5502491971836116 2.79708536509349 0 0 0
2645 3 7.6400472305860285 3.476412715245532 2.0663184535498464 0 0 0
2651 15 10.234875530275717 3.424120757215337 2.467599114860701 0 0 0
2870 1 9.480990892726256 5.113385693597597 2.7970853650935315 0 0 0
2649 14 11.854894624701249 0.7603929039749422 0.059568940479580335 0 0 0
2653 17 13.807215301341266 0.3104375860920395 1.1911558647148013 0 0 0
2655 2 14.532741396859185 0.7358503436077246 0.05888416274935495 0 0 0
2661 14 17.12395079380724 0.7603929039749423 0.05956894047958014 0 0 0
2659 19 15.762490985270203 0.024635306294938458 1.2906514000500195 0 0 0
2650 20 11.783525523147889 2.2797674332226103 1.1502677516365947 0 0 0
2656 18 14.338259021668081 2.6412235274356424 1.1793232715857687 0 0 0
2662 20 17.052581692253895 2.2797674332226583 1.1502677516366149 0 0 0
2658 4 13.108346332260991 2.2353013749197337 -0.18422229955393785 0 0 0
2664 16 15.806729361719482 3.0420343555993106 0.06061296034024 0 0 0
2877 14 11.854894624701249 5.323529400388938 0.059568940479580404 0 0 0
2881 17 13.807215301341255 4.873574082506043 1.191155864714777 0 0 0
2883 2 14.532741396859187 5.298986840021721 0.05888416274935401 0 0 0
2889 14 17.12395079380724 5.323529400388938 0.05956894047958023 0 0 0
2887 19 15.762490985270201 4.587771802708932 1.2906514000500207 0 0 0
2654 1 14.750047061832344 0.5502491971835763 2.797085365093582 0 0 0
2657 3 12.909103399692011 3.4764127152455604 2.0663184535498216 0 0 0
2663 15 15.503931699381743 3.4241207572152983 2.4675991148607137 0 0 0
2882 1 14.750047061832316 5.113385693597578 2.7970853650935377 0 0 0
2665 17 19.07627147044721 0.31043758609201416 1.1911558647148237 0 0 0
2667 2 19.80179756596519 0.7358503436077249 0.05888416274935324 0 0 0
2671 19 21.031547154376213 0.024635306294937643 1.2906514000500209 0 0 0
2673 14 22.393006962913233 0.7603929039749423 0.059568940479580355 0 0 0
2668 18 19.607315190774095 2.6412235274356335 1.1793232715857644 0 0 0
2674 20 22.3216378613599 2.2797674332225726 1.150267751636598 0 0 0
2670 4 18.37740250136698 2.235301374919791 -0.18422229955395503 0 0 0
2676 16 21.07578553082549 3.0420343555993106 0.06061296034024012 0 0 0
2893 17 19.076271470447235 4.873574082506012 1.1911558647147775 0 0 0
2895 2 19.801797565965185 5.29898684002172 0.05888416274935614 0 0 0
2899 19 21.03154715437621 4.587771802708936 1.2906514000500193 0 0 0
2901 14 22.393006962913233 5.323529400388938 0.05956894047958042 0 0 0
2666 1 20.019103230938274 0.5502491971836109 2.7970853650935803 0 0 0
2669 3 18.178159568798023 3.476412715245512 2.066318453549868 0 0 0
2675 15 20.7729878684877 3.4241207572153587 2.467599114860693 0 0 0
2894 1 20.019103230938235 5.113385693597602 2.797085365093538 0 0 0
2681 3 23.447215737904028 3.476412715245571 2.066318453549822 0 0 0
2677 17 24.34532763955327 0.3104375860920625 1.1911558647148537 0 0 0
2679 2 25.070853735071193 0.735850343607725 0.05888416274935347 0 0 0
2683 19 26.300603323482207 0.024635306294937605 1.2906514000500218 0 0 0
2685 14 27.66206313201924 0.7603929039749423 0.05956894047958039 0 0 0
2680 18 24.87637135988009 2.6412235274356153 1.179323271585771 0 0 0
2686 20 27.590694030465894 2.2797674332226623 1.1502677516366229 0 0 0
2682 4 23.646458670472988 2.235301374919755 -0.18422229955394062 0 0 0
2688 16 26.344841699931486 3.0420343555993106 0.06061296034024015 0 0 0
2694 4 28.915514839579036 2.2353013749196573 -0.18422229955392094 0 0 0
2905 17 24.34532763955327 4.873574082506042 1.1911558647147775 0 0 0
2907 2 25.070853735071193 5.298986840021721 0.05888416274935418 0 0 0
2911 19 26.300603323482207 4.587771802708936 1.290651400050022 0 0 0
2913 14 27.66206313201924 5.323529400388938 0.05956894047958039 0 0 0
2678 1 25.288159400044414 0.550249197183534 2.7970853650935985 0 0 0
2687 15 26.042044037593755 3.4241207572152703 2.4675991148607186 0 0 0
2693 3 28.716271907010043 3.476412715245505 2.0663184535498864 0 0 0
2906 1 25.288159400044353 5.113385693597567 2.7970853650935372 0 0 0
2689 17 29.614383808659174 0.3104375860919446 1.191155864714774 0 0 0
2917 17 29.614383808659184 4.87357408250601 1.1911558647147735 0 0 0
2691 2 30.339909904177187 0.7358503436077252 0.05888416274935331 0 0 0
2695 19 31.5696594925882 0.02463530629493747 1.290651400050021 0 0 0
2697 14 32.93111930112524 0.7603929039749423 0.0595689404795803 0 0 0
2701 17 34.883439977765306 0.310437586092085 1.191155864714818 0 0 0
2692 18 30.145427528986126 2.6412235274356584 1.1793232715857862 0 0 0
2698 20 32.85975019957187 2.279767433222529 1.1502677516365658 0 0 0
2700 16 31.61389786903748 3.0420343555993106 0.06061296034024003 0 0 0
2706 4 34.184571008685005 2.2353013749197657 -0.18422229955394565 0 0 0
2919 2 30.339909904177187 5.298986840021721 0.05888416274935414 0 0 0
2923 19 31.5696594925882 4.587771802708936 1.290651400050022 0 0 0
2925 14 32.93111930112524 5.323529400388938 0.05956894047958032 0 0 0
2929 17 34.88343997776522 4.873574082506063 1.191155864714813 0 0 0
2690 1 30.55721556915015 0.5502491971836404 2.7970853650935323 0 0 0
2699 15 31.31110020669967 3.424120757215382 2.467599114860673 0 0 0
2705 3 33.98532807611611 3.476412715245624 2.0663184535498056 0 0 0
2918 1 30.557215569150195 5.113385693597635 2.7970853650935252 0 0 0
2703 2 35.608966073283185 0.73585034360772 0.058884162749361604 0 0 0
2707 19 36.83871566169422 0.02463530629494291 1.2906514000500136 0 0 0
2709 14 38.20017547023125 0.7603929039749422 0.05956894047958033 0 0 0
2713 17 40.15249614687121 0.3104375860920294 1.1911558647148222 0 0 0
2715 2 40.87802224238919 0.7358503436077259 0.058884162749354575 0 0 0
2704 18 35.414483698092056 2.6412235274356397 1.1793232715857178 0 0 0
2710 20 38.128806368677886 2.2797674332226605 1.1502677516365967 0 0 0
2716 18 40.6835398671981 2.641223527435634 1.1793232715857673 0 0 0
2712 16 36.88295403814348 3.0420343555993106 0.06061296034024003 0 0 0
2718 4 39.45362717779101 2.235301374919735 -0.18422229955394612 0 0 0
2931 2 35.608966073283185 5.298986840021719 0.058884162749360085 0 0 0
2935 19 36.838715661694216 4.5877718027089385 1.2906514000500149 0 0 0
2937 14 38.20017547023125 5.323529400388938 0.059568940479580355 0 0 0
2941 17 40.15249614687117 4.873574082506009 1.1911558647147802 0 0 0
2943 2 40.878022242389186 5.298986840021722 0.05888416274935404 0 0 0
2702 1 35.82627173825639 0.5502491971835426 2.797085365093625 0 0 0
2714 1 41.09532790736223 0.5502491971835994 2.7970853650936047 0 0 0
2711 15 36.58015637580573 3.424120757215267 2.4675991148606835 0 0 0
2717 3 39.25438424522205 3.4764127152455058 2.0663184535498975 0 0 0
2930 1 35.82627173825635 5.113385693597585 2.7970853650935457 0 0 0
2942 1 41.095327907362204 5.1133856935976505 2.7970853650935186 0 0 0
2719 19 42.10777183080021 0.024635306294937 1.2906514000500195 0 0 0
2721 14 43.469231639337245 0.7603929039749423 0.05956894047958019 0 0 0
2725 17 45.42155231597727 0.31043758609208527 1.1911558647148275 0 0 0
2727 2 46.14707841149517 0.7358503436077196 0.05888416274936177 0 0 0
2722 20 43.39786253778387 2.279767433222536 1.150267751636562 0 0 0
2728 18 45.95259603630405 2.6412235274356384 1.1793232715856883 0 0 0
2724 16 42.152010207249475 3.0420343555993106 0.060612960340239976 0 0 0
2730 4 44.722683346897 2.235301374919794 -0.18422229955396408 0 0 0
2947 19 42.1077718308002 4.587771802708935 1.290651400050021 0 0 0
2949 14 43.469231639337245 5.323529400388938 0.05956894047958024 0 0 0
2953 17 45.4215523159772 4.873574082506051 1.1911558647148142 0 0 0
2955 2 46.14707841149519 5.298986840021719 0.05888416274936022 0 0 0
2726 1 46.364384076468305 0.5502491971835889 2.7970853650936593 0 0 0
2723 15 41.849212544911666 3.4241207572153862 2.4675991148606764 0 0 0
2729 3 44.52344041432812 3.476412715245606 2.0663184535498256 0 0 0
2954 1 46.36438407646831 5.113385693597605 2.797085365093558 0 0 0
2731 19 47.376827999906205 0.024635306294942802 1.2906514000500129 0 0 0
2733 14 48.73828780844325 0.7603929039749421 0.059568940479580244 0 0 0
2511 2 51.416134580601195 0.7358503436077255 0.058884162749354686 -1 0 0
2509 17 50.690608485083295 0.31043758609207545 1.191155864714861 -1 0 0
2515 19 52.64588416901221 0.02463530629493696 1.2906514000500204 -1 0 0
2734 20 48.66691870688988 2.279767433222593 1.1502677516365865 0 0 0
2512 18 51.22165220541007 2.6412235274356113 1.1793232715857462 -1 0 0
2736 16 47.42106637635548 3.0420343555993106 0.06061296034023997 0 0 0
2514 4 49.99173951600298 2.235301374919812 -0.1842222995539636 -1 0 0
2520 16 52.69012254546148 3.0420343555993106 0.06061296034024007 -1 0 0
2959 19 47.37682799990622 4.5877718027089385 1.2906514000500149 0 0 0
2961 14 48.73828780844325 5.323529400388938 0.05956894047958027 0 0 0
2739 2 51.416134580601195 5.298986840021724 0.05888416274935152 -1 0 0
2737 17 50.69060848508322 4.873574082506024 1.1911558647148062 -1 0 0
2743 19 52.64588416901221 4.587771802708932 1.2906514000500235 -1 0 0
2510 1 51.633440245574405 0.5502491971835096 2.797085365093644 -1 0 0
2735 15 47.1182687140177 3.424120757215297 2.467599114860679 0 0 0
2513 3 49.79249658343405 3.476412715245548 2.0663184535498633 -1 0 0
2519 15 52.38732488312371 3.424120757215321 2.4675991148606977 -1 0 0
2738 1 51.633440245574285 5.113385693597593 2.797085365093564 -1 0 0
2517 14 54.00734397754925 0.7603929039749421 0.05956894047958044 -1 0 0
2521 17 55.9596646541892 0.3104375860919948 1.191155864714804 -1 0 0
2523 2 56.68519074970719 0.7358503436077257 0.058884162749354665 -1 0 0
2527 19 57.91494033811821 0.02463530629493705 1.2906514000500204 -1 0 0
2518 20 53.93597487599588 2.2797674332226054 1.1502677516366064 -1 0 0
2524 18 56.49070837451612 2.6412235274356397 1.1793232715857713 -1 0 0
2526 4 55.26079568510905 2.2353013749196236 -0.1842222995539095 -1 0 0
2532 16 57.95917871456748 3.0420343555993106 0.06061296034024002 -1 0 0
2745 14 54.00734397754925 5.323529400388938 0.059568940479580314 -1 0 0
2749 17 55.95966465418919 4.8735740825060345 1.1911558647147864 -1 0 0
2751 2 56.685190749707196 5.298986840021723 0.058884162749354964 -1 0 0
2755 19 57.914940338118214 4.587771802708933 1.29065140005002 -1 0 0
2522 1 56.90249641468021 0.5502491971836179 2.797085365093553 -1 0 0
2525 3 55.06155275254008 3.4764127152455573 2.0663184535498704 -1 0 0
2531 15 57.656381052229676 3.4241207572153347 2.467599114860668 -1 0 0
2750 1 56.90249641468026 5.113385693597632 2.797085365093522 -1 0 0
2529 14 59.27640014665525 0.7603929039749421 0.059568940479580265 -1 0 0
2533 17 61.228720823295276 0.3104375860920549 1.1911558647147906 -1 0 0
2535 2 61.95424691881318 0.7358503436077276 0.058884162749351696 -1 0 0
2539 19 63.1839965072242 0.024635306294935298 1.2906514000500235 -1 0 0
2541 14 64.54545631576126 0.7603929039749421 0.05956894047958036 -1 0 0
2530 20 59.20503104510189 2.2797674332225517 1.1502677516365873 -1 0 0
2536 18 61.75976454362209 2.6412235274356255 1.1793232715857669 -1 0 0
2542 20 64.47408721420787 2.2797674332226734 1.1502677516366266 -1 0 0
2538 4 60.52985185421503 2.235301374919675 -0.18422229955391423 -1 0 0
2544 16 63.22823488367348 3.0420343555993106 0.06061296034024004 -1 0 0
2757 14 59.27640014665525 5.323529400388938 0.059568940479580244 -1 0 0
2761 17 61.22872082329521 4.873574082506049 1.191155864714809 -1 0 0
2763 2 61.95424691881319 5.298986840021722 0.058884162749354554 -1 0 0
2767 19 63.18399650722421 4.587771802708933 1.2906514000500202 -1 0 0
2769 14 64.54545631576126 5.323529400388938 0.05956894047958034 -1 0 0
2534 1 62.171552583786394 0.5502491971835743 2.797085365093544 -1 0 0
2537 3 60.33060892164608 3.4764127152455857 2.0663184535498362 -1 0 0
2543 15 62.92543722133572 3.424120757215287 2.46759911486069 -1 0 0
2762 1 62.17155258378632 5.113385693597595 2.7970853650935417 -1 0 0
2547 2 67.22330308791918 0.7358503436077322 0.05888416274934431 -1 0 0
2545 17 66.49777699240111 0.3104375860919406 1.1911558647147469 -1 0 0
2551 19 68.45305267633017 0.024635306294930777 1.290651400050031 -1 0 0
2553 14 69.81451248486725 0.7603929039749423 0.059568940479579974 -1 0 0
2548 18 67.02882071272809 2.6412235274356055 1.1793232715857902 -1 0 0
2554 20 69.74314338331392 2.2797674332225286 1.150267751636576 -1 0 0
2550 4 65.79890802332098 2.2353013749197053 -0.18422229955391642 -1 0 0
2556 16 68.4972910527795 3.0420343555993106 0.06061296034023987 -1 0 0
2775 2 67.22330308791925 5.2989868400217235 0.05888416274935337 -1 0 0
2773 17 66.49777699240116 4.873574082505982 1.1911558647147547 -1 0 0
2779 19 68.45305267633026 4.587771802708933 1.2906514000500215 -1 0 0
2781 14 69.81451248486725 5.323529400388938 0.05956894047958009 -1 0 0
2546 1 67.4406087528922 0.5502491971837222 2.797085365093458 -1 0 0
2549 3 65.59966509075203 3.476412715245476 2.0663184535499335 -1 0 0
2555 15 68.19449339044168 3.424120757215369 2.467599114860662 -1 0 0
2774 1 67.44060875289223 5.113385693597653 2.7970853650934857 -1 0 0
2557 17 71.76683316150724 0.310437586092004 1.1911558647148086 -1 0 0
2559 2 72.49235925702517 0.7358503436077319 0.058884162749344104 -1 0 0
2563 19 73.72210884543617 0.024635306294930652 1.2906514000500315 -1 0 0
2565 14 75.08356865397326 0.7603929039749423 0.0595689404795802 -1 0 0
2560 18 72.29787688183407 2.641223527435601 1.179323271585748 -1 0 0
2566 20 75.01219955241991 2.279767433222662 1.1502677516365996 -1 0 0
2562 4 71.067964192427 2.2353013749198962 -0.18422229955395686 -1 0 0
2568 16 73.7663472218855 3.0420343555993106 0.060612960340239976 -1 0 0
2574 4 76.33702036153295 2.2353013749198367 -0.18422229955395564 -1 0 0
2785 17 71.76683316150721 4.873574082506033 1.1911558647147693 -1 0 0
2787 2 72.49235925702524 5.2989868400217235 0.05888416274935346 -1 0 0
2791 19 73.72210884543625 4.587771802708933 1.2906514000500213 -1 0 0
2793 14 75.08356865397326 5.323529400388938 0.05956894047958033 -1 0 0
2558 1 72.70966492199845 0.5502491971835966 2.7970853650935665 -1 0 0
2561 3 70.86872125985806 3.4764127152455657 2.0663184535498695 -1 0 0
2567 15 73.4635495595477 3.424120757215273 2.467599114860683 -1 0 0
2573 3 76.137777428964 3.4764127152454796 2.0663184535499095 -1 0 0
2786 1 72.70966492199834 5.113385693597598 2.7970853650935106 -1 0 0
2569 17 77.03588933061316 0.3104375860920067 1.1911558647148401 -1 0 0
2797 17 77.03588933061323 4.873574082505994 1.1911558647147655 -1 0 0
2571 2 77.76141542613121 0.7358503436077208 0.058884162749360654 -1 0 0
2575 19 78.99116501454223 0.024635306294941966 1.2906514000500156 -1 0 0
2577 14 80.35262482307925 0.7603929039749422 0.059568940479580335 -1 0 0
2581 17 82.30494549971922 0.3104375860920054 1.1911558647148026 -1 0 0
2572 18 77.56693305094008 2.6412235274356033 1.1793232715857878 -1 0 0
2578 20 80.2812557215259 2.2797674332226743 1.1502677516366042 -1 0 0
2580 16 79.03540339099149 3.0420343555993106 0.06061296034024008 -1 0 0
2586 4 81.60607653063899 2.235301374919831 -0.1842222995539433 -1 0 0
2799 2 77.76141542613121 5.298986840021717 0.05888416274936048 -1 0 0
2803 19 78.99116501454223 4.5877718027089385 1.2906514000500149 -1 0 0
2805 14 80.35262482307925 5.323529400388938 0.05956894047958043 -1 0 0
2809 17 82.30494549971924 4.873574082505981 1.1911558647147256 -1 0 0
2570 1 77.97872109110433 0.5502491971836297 2.7970853650935545 -1 0 0
2579 15 78.73260572865375 3.424120757215329 2.4675991148606986 -1 0 0
2585 3 81.40683359807 3.47641271524548 2.066318453549908 -1 0 0
2798 1 77.9787210911043 5.113385693597598 2.797085365093501 -1 0 0
2583 2 83.03047159523723 0.735850343607729 0.05888416274934829 -1 0 0
2587 19 84.26022118364823 0.02463530629493352 1.290651400050028 -1 0 0
2589 14 85.62168099218525 0.7603929039749422 0.059568940479580425 -1 0 0
2593 17 87.57400166882519 0.310437586091972 1.1911558647147855 -1 0 0
2595 2 88.29952776434321 0.7358503436077214 0.058884162749360265 -1 0 0
2584 18 82.8359892200461 2.6412235274355953 1.1793232715858109 -1 0 0
2590 20 85.55031189063189 2.2797674332226707 1.150267751636613 -1 0 0
2596 18 88.1050453891521 2.6412235274356073 1.1793232715858262 -1 0 0
2592 16 84.30445956009748 3.0420343555993106 0.06061296034024012 -1 0 0
2598 4 86.875132699745 2.235301374919764 -0.18422229955392666 -1 0 0
2811 2 83.03047159523722 5.29898684002172 0.05888416274935257 -1 0 0
2815 19 84.26022118364823 4.587771802708935 1.2906514000500235 -1 0 0
2817 14 85.62168099218525 5.323529400388938 0.05956894047958044 -1 0 0
2821 17 87.57400166882522 4.8735740825059715 1.191155864714729 -1 0 0
2823 2 88.29952776434321 5.298986840021717 0.058884162749360494 -1 0 0
2582 1 83.2477772602104 0.550249197183617 2.7970853650935075 -1 0 0
2591 15 84.00166189775973 3.4241207572153183 2.467599114860704 -1 0 0
2597 3 86.67588976717602 3.4764127152454862 2.0663184535498917 -1 0 0
2810 1 83.24777726021031 5.113385693597599 2.797085365093463 -1 0 0
2594 1 88.51683342931636 0.5502491971836387 2.7970853650934684 -1 0 0
2822 1 88.51683342931629 5.11338569359761 2.7970853650934604 -1 0 0
2599 19 89.52927735275424 0.024635306294941733 1.2906514000500149 -1 0 0
2601 14 90.89073716129126 0.7603929039749422 0.0595689404795802 -1 0 0
2605 17 92.8430578379311 0.31043758609193495 1.1911558647147729 -1 0 0
2607 2 93.56858393344918 0.7358503436077323 0.05888416274934419 -1 0 0
2602 20 90.81936805973788 2.279767433222687 1.1502677516366184 -1 0 0
2608 18 93.3741015582581 2.641223527435585 1.179323271585784 -1 0 0
2604 16 89.57351572920349 3.0420343555993106 0.060612960340240024 -1 0 0
2610 4 92.14418886885099 2.2353013749197577 -0.1842222995539318 -1 0 0
2827 19 89.52927735275424 4.5877718027089385 1.2906514000500149 -1 0 0
2829 14 90.89073716129126 5.323529400388938 0.05956894047958026 -1 0 0
2833 17 92.84305783793117 4.873574082505972 1.1911558647147265 -1 0 0
2835 2 93.56858393344922 5.298986840021726 0.05888416274935072 -1 0 0
2606 1 93.7858895984222 0.5502491971837181 2.7970853650934817 -1 0 0
2603 15 89.27071806686574 3.4241207572153436 2.4675991148606946 -1 0 0
2609 3 91.94494593628202 3.4764127152454547 2.0663184535499273 -1 0 0
2834 1 93.7858895984222 5.113385693597666 2.7970853650934706 -1 0 0
2623 19 100.06738969096617 0.02463530629493089 1.2906514000500315 -1 0 0
2628 16 100.1116280674155 3.0420343555993106 0.06061296034024008 -1 0 0
2851 19 100.06738969096621 4.587771802708937 1.2906514000500184 -1 0 0
2627 15 99.80883040507774 3.4241207572152437 2.4675991148606937 -1 0 0
2611 19 94.79833352186017 0.024635306294930666 1.290651400050031 -1 0 0
2613 14 96.15979333039726 0.7603929039749423 0.05956894047958006 -1 0 0
2617 17 98.11211400703728 0.31043758609201444 1.1911558647148333 -1 0 0
2619 2 98.83764010255517 0.7358503436077319 0.0588841627493444 -1 0 0
2614 20 96.08842422884389 2.279767433222466 1.1502677516366078 -1 0 0
2620 18 98.64315772736404 2.64122352743557 1.1793232715857513 -1 0 0
2616 16 94.8425718983095 3.0420343555993106 0.06061296034023992 -1 0 0
2622 4 97.41324503795697 2.235301374919891 -0.18422229955395783 -1 0 0
2839 19 94.79833352186023 4.587771802708933 1.2906514000500235 -1 0 0
2841 14 96.15979333039726 5.323529400388938 0.05956894047958014 -1 0 0
2845 17 98.11211400703723 4.873574082506041 1.1911558647147937 -1 0 0
2847 2 98.8376401025552 5.2989868400217235 0.058884162749356914 -1 0 0
2618 1 99.05494576752851 0.5502491971834946 2.7970853650935785 -1 0 0
2615 15 94.53977423597168 3.4241207572153907 2.4675991148606577 -1 0 0
2621 3 97.21400210538806 3.4764127152455933 2.066318453549837 -1 0 0
2846 1 99.05494576752837 5.113385693597571 2.7970853650935283 -1 0 0
2854 20 1.2454131849358918 6.842903929636599 1.150267751636612 0 0 0
2860 18 3.800146683456109 7.204360023849594 1.1793232715858113 0 0 0
2862 4 2.5702339940490235 6.79843787133364 -0.18422229955389458 0 0 0
2868 16 5.2686170235074865 7.605170852013304 0.06061296034024008 0 0 0
3081 14 1.3167822864892549 9.88666589680294 0.059568940479580286 0 0 0
3085 17 3.269102963129225 9.436710578920023 1.191155864714813 0 0 0
3087 2 3.994629058647186 9.862123336435726 0.05888416274935554 0 0 0
3091 19 5.224378647058206 9.150908299122937 1.2906514000500198 0 0 0
3082 20 1.245413184935903 11.406040426050634 1.1502677516366195 0 0 0
3088 18 3.8001466834561017 11.767496520263625 1.1793232715857977 0 0 0
2861 3 2.3709910614800234 8.039549211659535 2.0663184535498855 0 0 0
2867 15 4.965819361169724 7.987257253629293 2.4675991148607 0 0 0
3086 1 4.211934723620321 9.676522190011582 2.797085365093553 0 0 0
3090 4 2.570233994048986 11.36157436774772 -0.18422229955392533 0 0 0
2866 20 6.514469354041897 6.842903929636633 1.150267751636618 0 0 0
2872 18 9.06920285256212 7.20436002384959 1.179323271585814 0 0 0
2874 4 7.839290163155024 6.798437871333646 -0.1842222995538983 0 0 0
2880 16 10.537673192613488 7.605170852013304 0.0606129603402401 0 0 0
3093 14 6.5858384555952485 9.88666589680294 0.05956894047958037 0 0 0
3097 17 8.538159132235238 9.436710578920007 1.1911558647147804 0 0 0
3099 2 9.263685227753188 9.86212333643572 0.05888416274935554 0 0 0
3103 19 10.493434816164212 9.150908299122936 1.2906514000500193 0 0 0
3094 20 6.514469354041909 11.406040426050662 1.150267751636634 0 0 0
3100 18 9.06920285256212 11.767496520263625 1.1793232715858115 0 0 0
2873 3 7.640047230586018 8.039549211659514 2.066318453549885 0 0 0
2879 15 10.234875530275714 7.98725725362932 2.4675991148606995 0 0 0
3098 1 9.480990892726284 9.676522190011596 2.7970853650935394 0 0 0
3102 4 7.839290163154996 11.361574367747705 -0.18422229955391567 0 0 0
2878 20 11.783525523147892 6.842903929636594 1.1502677516366169 0 0 0
2884 18 14.338259021668103 7.204360023849592 1.1793232715858077 0 0 0
2890 20 17.0525816922539 6.84290392963667 1.1502677516366313 0 0 0
2886 4 13.108346332261009 6.798437871333662 -0.18422229955389713 0 0 0
2892 16 15.806729361719482 7.605170852013304 0.06061296034024004 0 0 0
3105 14 11.854894624701249 9.88666589680294 0.05956894047958034 0 0 0
3109 17 13.807215301341271 9.436710578920023 1.1911558647147906 0 0 0
3111 2 14.532741396859183 9.862123336435722 0.05888416274935535 0 0 0
3117 14 17.12395079380724 9.88666589680294 0.059568940479580224 0 0 0
3115 19 15.762490985270201 9.150908299122937 1.29065140005002 0 0 0
3106 20 11.783525523147897 11.406040426050648 1.1502677516366229 0 0 0
3112 18 14.338259021668097 11.76749652026364 1.1793232715858073 0 0 0
3118 20 17.052581692253913 11.406040426050717 1.1502677516366473 0 0 0
2885 3 12.90910339969202 8.03954921165955 2.0663184535498496 0 0 0
2891 15 15.503931699381758 7.987257253629267 2.467599114860723 0 0 0
3110 1 14.750047061832356 9.67652219001156 2.7970853650935417 0 0 0
3114 4 13.108346332260977 11.361574367747721 -0.18422229955392802 0 0 0
2896 18 19.607315190774123 7.204360023849599 1.1793232715858222 0 0 0
2902 20 22.321637861359896 6.842903929636571 1.1502677516366044 0 0 0
2898 4 18.37740250136701 6.7984378713336815 -0.18422229955390876 0 0 0
2904 16 21.07578553082549 7.605170852013304 0.06061296034024012 0 0 0
3121 17 19.076271470447235 9.436710578919989 1.1911558647147689 0 0 0
3123 2 19.801797565965177 9.862123336435719 0.058884162749359 0 0 0
3127 19 21.031547154376206 9.150908299122941 1.2906514000500158 0 0 0
3129 14 22.393006962913233 9.88666589680294 0.059568940479580355 0 0 0
3124 18 19.607315190774127 11.767496520263627 1.1793232715858346 0 0 0
3130 20 22.321637861359896 11.406040426050604 1.1502677516366149 0 0 0
2897 3 18.178159568797994 8.03954921165948 2.066318453549902 0 0 0
2903 15 20.772987868487714 7.987257253629352 2.4675991148607057 0 0 0
3122 1 20.019103230938253 9.6765221900116 2.7970853650935212 0 0 0
2909 3 23.447215737904035 8.039549211659562 2.066318453549834 0 0 0
3126 4 18.377402501366994 11.361574367747712 -0.18422229955392258 0 0 0
2908 18 24.8763713598801 7.204360023849601 1.179323271585781 0 0 0
2914 20 27.590694030465908 6.842903929636632 1.1502677516366329 0 0 0
2910 4 23.646458670473017 6.798437871333684 -0.1842222995539126 0 0 0
2916 16 26.344841699931486 7.605170852013304 0.060612960340240093 0 0 0
2922 4 28.915514839579046 6.798437871333664 -0.18422229955389927 0 0 0
3133 17 24.34532763955327 9.43671057892004 1.191155864714792 0 0 0
3135 2 25.07085373507118 9.862123336435728 0.0588841627493542 0 0 0
3139 19 26.3006033234822 9.150908299122941 1.2906514000500213 0 0 0
3141 14 27.66206313201924 9.88666589680294 0.059568940479580314 0 0 0
3136 18 24.876371359880096 11.76749652026363 1.1793232715857913 0 0 0
3142 20 27.59069403046591 11.406040426050696 1.150267751636636 0 0 0
2915 15 26.042044037593737 7.987257253629276 2.4675991148607137 0 0 0
2921 3 28.716271907010054 8.039549211659478 2.066318453549935 0 0 0
3134 1 25.288159400044353 9.676522190011578 2.79708536509355 0 0 0
3138 4 23.646458670472995 11.361574367747698 -0.1842222995539167 0 0 0
3150 4 28.915514839579004 11.361574367747751 -0.18422229955393848 0 0 0
3145 17 29.614383808659202 9.436710578919989 1.1911558647147769 0 0 0
2920 18 30.145427528986136 7.2043600238495555 1.1793232715858133 0 0 0
2926 20 32.8597501995719 6.842903929636457 1.1502677516365862 0 0 0
2928 16 31.61389786903748 7.605170852013304 0.06061296034024 0 0 0
2934 4 34.184571008685054 6.7984378713336575 -0.18422229955388764 0 0 0
3147 2 30.33990990417718 9.862123336435728 0.05888416274935448 0 0 0
3151 19 31.569659492588197 9.150908299122941 1.290651400050021 0 0 0
3153 14 32.93111930112524 9.88666589680294 0.05956894047958021 0 0 0
3157 17 34.88343997776522 9.436710578920046 1.1911558647148124 0 0 0
3148 18 30.145427528986122 11.767496520263608 1.1793232715858006 0 0 0
3154 20 32.85975019957192 11.4060404260505 1.1502677516365876 0 0 0
2927 15 31.311100206699663 7.987257253629368 2.4675991148606706 0 0 0
2933 3 33.98532807611611 8.039549211659603 2.06631845354987 0 0 0
3146 1 30.55721556915023 9.676522190011651 2.7970853650935332 0 0 0
3162 4 34.184571008685005 11.361574367747757 -0.18422229955391767 0 0 0
2932 18 35.414483698092106 7.2043600238495396 1.179323271585774 0 0 0
2938 20 38.128806368677914 6.842903929636603 1.1502677516366273 0 0 0
2944 18 40.683539867198135 7.204360023849536 1.1793232715858097 0 0 0
2940 16 36.88295403814348 7.605170852013304 0.06061296034024006 0 0 0
2946 4 39.453627177791034 6.798437871333657 -0.18422229955389924 0 0 0
3159 2 35.60896607328316 9.862123336435713 0.058884162749361646 0 0 0
3163 19 36.8387156616942 9.150908299122944 1.2906514000500127 0 0 0
3165 14 38.20017547023125 9.88666589680294 0.05956894047958027 0 0 0
3169 17 40.15249614687119 9.436710578919996 1.1911558647148157 0 0 0
3171 2 40.87802224238918 9.862123336435722 0.05888416274935326 0 0 0
3160 18 35.414483698092084 11.767496520263581 1.1793232715857729 0 0 0
3166 20 38.128806368677914 11.406040426050708 1.1502677516366213 0 0 0
3172 18 40.683539867198114 11.7674965202636 1.179323271585793 0 0 0
2939 15 36.58015637580572 7.987257253629233 2.467599114860681 0 0 0
2945 3 39.25438424522204 8.039549211659471 2.066318453549962 0 0 0
3158 1 35.826271738256416 9.676522190011614 2.7970853650935323 0 0 0
3170 1 41.095327907362254 9.676522190011637 2.797085365093566 0 0 0
3174 4 39.45362717779097 11.361574367747808 -0.18422229955396013 0 0 0
2950 20 43.397862537783894 6.84290392963647 1.1502677516365847 0 0 0
2956 18 45.952596036304094 7.204360023849537 1.179323271585775 0 0 0
2952 16 42.152010207249475 7.605170852013304 0.060612960340239955 0 0 0
2958 4 44.72268334689706 6.79843787133366 -0.18422229955389008 0 0 0
3175 19 42.1077718308002 9.15090829912294 1.2906514000500222 0 0 0
3177 14 43.469231639337245 9.88666589680294 0.05956894047958014 0 0 0
3181 17 45.421552315977195 9.43671057892004 1.191155864714822 0 0 0