LAMMPS data file via write_data, version 29 Aug 2024, timestep = 0, units = metal

5016 atoms
12 atom types

0 100.112067213014 xlo xhi
0 100.389002921108 ylo yhi
0 17.33687946384 zlo zhi

Masses

1 15.999
2 15.999
3 15.999
4 51.9961
5 15.999
6 15.999
7 15.999
8 15.999
9 51.9961
10 51.9961
11 51.9961
12 15.999

Atoms # atomic

2625 6 1.317264042277003 0.7605227494019999 0 0 0 0
2623 11 0 0 1.1684397319199995 0 0 0
2629 9 2.634528084552997 0 1.1684397319199995 0 0 0
2631 2 3.95179212683 0.7605227494019999 0 0 0 0
2635 11 5.269056169106001 0 1.1684397319199995 0 0 0
2637 6 6.586320211382997 0.7605227494019999 0 0 0 0
2641 9 7.903584253658998 0 1.1684397319199995 0 0 0
2643 2 9.220848295936001 0.7605227494019999 0 0 0 0
2647 11 10.538112338212002 0 1.1684397319199995 0 0 0
2649 6 11.855376380488998 0.7605227494019999 0 0 0 0
2653 9 13.172640422765 0 1.1684397319199995 0 0 0
2655 2 14.489904465042002 0.7605227494019999 0 0 0 0
2661 6 17.124432549595 0.7605227494019999 0 0 0 0
2659 11 15.807168507317996 0 1.1684397319199995 0 0 0
2665 9 18.441696591870993 0 1.1684397319199995 0 0 0
2667 2 19.758960634147996 0.7605227494019999 0 0 0 0
2671 11 21.076224676424005 0 1.1684397319199995 0 0 0
2673 6 22.393488718700993 0.7605227494019999 0 0 0 0
2677 9 23.710752760977 0 1.1684397319199995 0 0 0
2679 2 25.028016803254005 0.7605227494019999 0 0 0 0
2683 11 26.34528084553 0 1.1684397319199995 0 0 0
2685 6 27.662544887807 0.7605227494019999 0 0 0 0
2689 9 28.979808930082996 0 1.1684397319199995 0 0 0
2691 2 30.29707297236 0.7605227494019999 0 0 0 0
2695 11 31.614337014635993 0 1.1684397319199995 0 0 0
2697 6 32.931601056912996 0.7605227494019999 0 0 0 0
2701 9 34.248865099189004 0 1.1684397319199995 0 0 0
2703 2 35.56612914146599 0.7605227494019999 0 0 0 0
2707 11 36.883393183742 0 1.1684397319199995 0 0 0
2709 6 38.200657226019004 0.7605227494019999 0 0 0 0
2713 9 39.517921268295 0 1.1684397319199995 0 0 0
2715 2 40.835185310572 0.7605227494019999 0 0 0 0
2719 11 42.152449352847995 0 1.1684397319199995 0 0 0
2721 6 43.469713395125 0.7605227494019999 0 0 0 0
2725 9 44.786977437401006 0 1.1684397319199995 0 0 0
2727 2 46.104241479677995 0.7605227494019999 0 0 0 0
2731 11 47.421505521954 0 1.1684397319199995 0 0 0
2733 6 48.738769564231006 0.7605227494019999 0 0 0 0
2511 2 51.373297648784 0.7605227494019999 0 -1 0 0
2509 9 50.056033606507 0 1.1684397319199995 -1 0 0
2515 11 52.69056169106 0 1.1684397319199995 -1 0 0
2517 6 54.007825733337 0.7605227494019999 0 -1 0 0
2521 9 55.325089775613 0 1.1684397319199995 -1 0 0
2523 2 56.64235381789 0.7605227494019999 0 -1 0 0
2527 11 57.959617860166 0 1.1684397319199995 -1 0 0
2529 6 59.276881902443 0.7605227494019999 0 -1 0 0
2533 9 60.594145944719 0 1.1684397319199995 -1 0 0
2535 2 61.911409986996 0.7605227494019999 0 -1 0 0
2539 11 63.228674029272 0 1.1684397319199995 -1 0 0
2541 6 64.545938071549 0.7605227494019999 0 -1 0 0
2547 2 67.180466156102 0.7605227494019999 0 -1 0 0
2545 9 65.863202113825 0 1.1684397319199995 -1 0 0
2551 11 68.49773019837801 0 1.1684397319199995 -1 0 0
2553 6 69.814994240655 0.7605227494019999 0 -1 0 0
2557 9 71.132258282931 0 1.1684397319199995 -1 0 0
2559 2 72.449522325208 0.7605227494019999 0 -1 0 0
2563 11 73.766786367484 0 1.1684397319199995 -1 0 0
2565 6 75.084050409761 0.7605227494019999 0 -1 0 0
2569 9 76.401314452037 0 1.1684397319199995 -1 0 0
2571 2 77.718578494314 0.7605227494019999 0 -1 0 0
2575 11 79.03584253659 0 1.1684397319199995 -1 0 0
2577 6 80.353106578867 0.7605227494019999 0 -1 0 0
2581 9 81.67037062114301 0 1.1684397319199995 -1 0 0
2583 2 82.98763466342001 0.7605227494019999 0 -1 0 0
2587 11 84.30489870569599 0 1.1684397319199995 -1 0 0
2589 6 85.622162747973 0.7605227494019999 0 -1 0 0
2593 9 86.939426790249 0 1.1684397319199995 -1 0 0
2595 2 88.256690832526 0.7605227494019999 0 -1 0 0
2599 11 89.573954874802 0 1.1684397319199995 -1 0 0
2601 6 90.891218917079 0.7605227494019999 0 -1 0 0
2605 9 92.208482959355 0 1.1684397319199995 -1 0 0
2607 2 93.525747001632 0.7605227494019999 0 -1 0 0
2611 11 94.843011043908 0 1.1684397319199995 -1 0 0
2613 6 96.16027508618501 0.7605227494019999 0 -1 0 0
2617 9 97.477539128461 0 1.1684397319199995 -1 0 0
2619 2 98.79480317073799 0.7605227494019999 0 -1 0 0
2626 12 1.3172640422760011 2.2815682482070017 1.1684397319199995 0 0 0
2632 10 3.951792126828998 2.2815682482070017 1.1684397319199995 0 0 0
2638 12 6.586320211382002 2.2815682482070017 1.1684397319199995 0 0 0
2644 10 9.220848295935 2.2815682482070017 1.1684397319199995 0 0 0
2650 12 11.855376380487996 2.2815682482070017 1.1684397319199995 0 0 0
2656 10 14.489904465040993 2.2815682482070017 1.1684397319199995 0 0 0
2662 12 17.124432549594005 2.2815682482070017 1.1684397319199995 0 0 0
2668 10 19.758960634147 2.2815682482070017 1.1684397319199995 0 0 0
2674 12 22.3934887187 2.2815682482070017 1.1684397319199995 0 0 0
2680 10 25.028016803252996 2.2815682482070017 1.1684397319199995 0 0 0
2686 12 27.662544887805993 2.2815682482070017 1.1684397319199995 0 0 0
2692 10 30.297072972359004 2.2815682482070017 1.1684397319199995 0 0 0
2698 12 32.931601056912 2.2815682482070017 1.1684397319199995 0 0 0
2704 10 35.566129141465 2.2815682482070017 1.1684397319199995 0 0 0
2710 12 38.200657226017995 2.2815682482070017 1.1684397319199995 0 0 0
2716 10 40.835185310571006 2.2815682482070017 1.1684397319199995 0 0 0
2722 12 43.469713395124 2.2815682482070017 1.1684397319199995 0 0 0
2728 10 46.104241479677 2.2815682482070017 1.1684397319199995 0 0 0
2734 12 48.73876956423 2.2815682482070017 1.1684397319199995 0 0 0
2512 10 51.373297648783 2.2815682482070017 1.1684397319199995 -1 0 0
2518 12 54.007825733336 2.2815682482070017 1.1684397319199995 -1 0 0
2524 10 56.642353817889 2.2815682482070017 1.1684397319199995 -1 0 0
2530 12 59.276881902442 2.2815682482070017 1.1684397319199995 -1 0 0
2536 10 61.911409986995 2.2815682482070017 1.1684397319199995 -1 0 0
2542 12 64.545938071548 2.2815682482070017 1.1684397319199995 -1 0 0
2548 10 67.180466156101 2.2815682482070017 1.1684397319199995 -1 0 0
2554 12 69.814994240654 2.2815682482070017 1.1684397319199995 -1 0 0
2560 10 72.449522325207 2.2815682482070017 1.1684397319199995 -1 0 0
2566 12 75.08405040976 2.2815682482070017 1.1684397319199995 -1 0 0
2572 10 77.718578494313 2.2815682482070017 1.1684397319199995 -1 0 0
2578 12 80.353106578866 2.2815682482070017 1.1684397319199995 -1 0 0
2584 10 82.987634663419 2.2815682482070017 1.1684397319199995 -1 0 0
2590 12 85.622162747972 2.2815682482070017 1.1684397319199995 -1 0 0
2596 10 88.25669083252501 2.2815682482070017 1.1684397319199995 -1 0 0
2602 12 90.89121891707799 2.2815682482070017 1.1684397319199995 -1 0 0
2608 10 93.525747001631 2.2815682482070017 1.1684397319199995 -1 0 0
2614 12 96.160275086184 2.2815682482070017 1.1684397319199995 -1 0 0
2620 10 98.794803170737 2.2815682482070017 1.1684397319199995 -1 0 0
2628 8 0 3.0420909976090016 0 0 0 0
2634 4 2.634528084552997 3.0420909976090016 0 0 0 0
2640 8 5.269056169106001 3.0420909976090016 0 0 0 0
2646 4 7.903584253658998 3.0420909976090016 0 0 0 0
2652 8 10.538112338212002 3.0420909976090016 0 0 0 0
2658 4 13.172640422765 3.0420909976090016 0 0 0 0
2664 8 15.807168507317996 3.0420909976090016 0 0 0 0
2670 4 18.441696591870993 3.0420909976090016 0 0 0 0
2676 8 21.076224676424005 3.0420909976090016 0 0 0 0
2682 4 23.710752760977 3.0420909976090016 0 0 0 0
2688 8 26.34528084553 3.0420909976090016 0 0 0 0
2694 4 28.979808930082996 3.0420909976090016 0 0 0 0
2700 8 31.614337014635993 3.0420909976090016 0 0 0 0
2706 4 34.248865099189004 3.0420909976090016 0 0 0 0
2712 8 36.883393183742 3.0420909976090016 0 0 0 0
2718 4 39.517921268295 3.0420909976090016 0 0 0 0
2724 8 42.152449352847995 3.0420909976090016 0 0 0 0
2730 4 44.786977437401006 3.0420909976090016 0 0 0 0
2736 8 47.421505521954 3.0420909976090016 0 0 0 0
2514 4 50.056033606507 3.0420909976090016 0 -1 0 0
2520 8 52.69056169106 3.0420909976090016 0 -1 0 0
2526 4 55.325089775613 3.0420909976090016 0 -1 0 0
2532 8 57.959617860166 3.0420909976090016 0 -1 0 0
2538 4 60.594145944719 3.0420909976090016 0 -1 0 0
2544 8 63.228674029272 3.0420909976090016 0 -1 0 0
2550 4 65.863202113825 3.0420909976090016 0 -1 0 0
2556 8 68.49773019837801 3.0420909976090016 0 -1 0 0
2562 4 71.132258282931 3.0420909976090016 0 -1 0 0
2568 8 73.766786367484 3.0420909976090016 0 -1 0 0
2574 4 76.401314452037 3.0420909976090016 0 -1 0 0
2580 8 79.03584253659 3.0420909976090016 0 -1 0 0
2586 4 81.67037062114301 3.0420909976090016 0 -1 0 0
2592 8 84.30489870569599 3.0420909976090016 0 -1 0 0
2598 4 86.939426790249 3.0420909976090016 0 -1 0 0
2604 8 89.573954874802 3.0420909976090016 0 -1 0 0
2610 4 92.208482959355 3.0420909976090016 0 -1 0 0
2616 8 94.843011043908 3.0420909976090016 0 -1 0 0
2622 4 97.477539128461 3.0420909976090016 0 -1 0 0
2853 6 1.317264042277003 5.323659245815996 0 0 0 0
2851 11 0 4.563136496413996 1.1684397319199995 0 0 0
2857 9 2.634528084552997 4.563136496413996 1.1684397319199995 0 0 0
2859 2 3.95179212683 5.323659245815996 0 0 0 0
2863 11 5.269056169106001 4.563136496413996 1.1684397319199995 0 0 0
2865 6 6.586320211382997 5.323659245815996 0 0 0 0
2869 9 7.903584253658998 4.563136496413996 1.1684397319199995 0 0 0
2871 2 9.220848295936001 5.323659245815996 0 0 0 0
2875 11 10.538112338212002 4.563136496413996 1.1684397319199995 0 0 0
2877 6 11.855376380488998 5.323659245815996 0 0 0 0
2881 9 13.172640422765 4.563136496413996 1.1684397319199995 0 0 0
2883 2 14.489904465042002 5.323659245815996 0 0 0 0
2889 6 17.124432549595 5.323659245815996 0 0 0 0
2887 11 15.807168507317996 4.563136496413996 1.1684397319199995 0 0 0
2893 9 18.441696591870993 4.563136496413996 1.1684397319199995 0 0 0
2895 2 19.758960634147996 5.323659245815996 0 0 0 0
2899 11 21.076224676424005 4.563136496413996 1.1684397319199995 0 0 0
2901 6 22.393488718700993 5.323659245815996 0 0 0 0
2905 9 23.710752760977 4.563136496413996 1.1684397319199995 0 0 0
2907 2 25.028016803254005 5.323659245815996 0 0 0 0
2911 11 26.34528084553 4.563136496413996 1.1684397319199995 0 0 0
2913 6 27.662544887807 5.323659245815996 0 0 0 0
2917 9 28.979808930082996 4.563136496413996 1.1684397319199995 0 0 0
2919 2 30.29707297236 5.323659245815996 0 0 0 0
2923 11 31.614337014635993 4.563136496413996 1.1684397319199995 0 0 0
2925 6 32.931601056912996 5.323659245815996 0 0 0 0
2929 9 34.248865099189004 4.563136496413996 1.1684397319199995 0 0 0
2931 2 35.56612914146599 5.323659245815996 0 0 0 0
2935 11 36.883393183742 4.563136496413996 1.1684397319199995 0 0 0
2937 6 38.200657226019004 5.323659245815996 0 0 0 0
2941 9 39.517921268295 4.563136496413996 1.1684397319199995 0 0 0
2943 2 40.835185310572 5.323659245815996 0 0 0 0
2947 11 42.152449352847995 4.563136496413996 1.1684397319199995 0 0 0
2949 6 43.469713395125 5.323659245815996 0 0 0 0
2953 9 44.786977437401006 4.563136496413996 1.1684397319199995 0 0 0
2955 2 46.104241479677995 5.323659245815996 0 0 0 0
2959 11 47.421505521954 4.563136496413996 1.1684397319199995 0 0 0
2961 6 48.738769564231006 5.323659245815996 0 0 0 0
2739 2 51.373297648784 5.323659245815996 0 -1 0 0
2737 9 50.056033606507 4.563136496413996 1.1684397319199995 -1 0 0
2743 11 52.69056169106 4.563136496413996 1.1684397319199995 -1 0 0
2745 6 54.007825733337 5.323659245815996 0 -1 0 0
2749 9 55.325089775613 4.563136496413996 1.1684397319199995 -1 0 0
2751 2 56.64235381789 5.323659245815996 0 -1 0 0
2755 11 57.959617860166 4.563136496413996 1.1684397319199995 -1 0 0
2757 6 59.276881902443 5.323659245815996 0 -1 0 0
2761 9 60.594145944719 4.563136496413996 1.1684397319199995 -1 0 0
2763 2 61.911409986996 5.323659245815996 0 -1 0 0
2767 11 63.228674029272 4.563136496413996 1.1684397319199995 -1 0 0
2769 6 64.545938071549 5.323659245815996 0 -1 0 0
2775 2 67.180466156102 5.323659245815996 0 -1 0 0
2773 9 65.863202113825 4.563136496413996 1.1684397319199995 -1 0 0
2779 11 68.49773019837801 4.563136496413996 1.1684397319199995 -1 0 0
2781 6 69.814994240655 5.323659245815996 0 -1 0 0
2785 9 71.132258282931 4.563136496413996 1.1684397319199995 -1 0 0
2787 2 72.449522325208 5.323659245815996 0 -1 0 0
2791 11 73.766786367484 4.563136496413996 1.1684397319199995 -1 0 0
2793 6 75.084050409761 5.323659245815996 0 -1 0 0
2797 9 76.401314452037 4.563136496413996 1.1684397319199995 -1 0 0
2799 2 77.718578494314 5.323659245815996 0 -1 0 0
2803 11 79.03584253659 4.563136496413996 1.1684397319199995 -1 0 0
2805 6 80.353106578867 5.323659245815996 0 -1 0 0
2809 9 81.67037062114301 4.563136496413996 1.1684397319199995 -1 0 0
2811 2 82.98763466342001 5.323659245815996 0 -1 0 0
2815 11 84.30489870569599 4.563136496413996 1.1684397319199995 -1 0 0
2817 6 85.622162747973 5.323659245815996 0 -1 0 0
2821 9 86.939426790249 4.563136496413996 1.1684397319199995 -1 0 0
2823 2 88.256690832526 5.323659245815996 0 -1 0 0
2827 11 89.573954874802 4.563136496413996 1.1684397319199995 -1 0 0
2829 6 90.891218917079 5.323659245815996 0 -1 0 0
2833 9 92.208482959355 4.563136496413996 1.1684397319199995 -1 0 0
2835 2 93.525747001632 5.323659245815996 0 -1 0 0
2839 11 94.843011043908 4.563136496413996 1.1684397319199995 -1 0 0
2841 6 96.16027508618501 5.323659245815996 0 -1 0 0
2845 9 97.477539128461 4.563136496413996 1.1684397319199995 -1 0 0
2847 2 98.79480317073799 5.323659245815996 0 -1 0 0
2854 12 1.3172640422760011 6.844704744620998 1.1684397319199995 0 0 0
2860 10 3.951792126828998 6.844704744620998 1.1684397319199995 0 0 0
2866 12 6.586320211382002 6.844704744620998 1.1684397319199995 0 0 0
2872 10 9.220848295935 6.844704744620998 1.1684397319199995 0 0 0
2878 12 11.855376380487996 6.844704744620998 1.1684397319199995 0 0 0
2884 10 14.489904465040993 6.844704744620998 1.1684397319199995 0 0 0
2890 12 17.124432549594005 6.844704744620998 1.1684397319199995 0 0 0
2896 10 19.758960634147 6.844704744620998 1.1684397319199995 0 0 0
2902 12 22.3934887187 6.844704744620998 1.1684397319199995 0 0 0
2908 10 25.028016803252996 6.844704744620998 1.1684397319199995 0 0 0
2914 12 27.662544887805993 6.844704744620998 1.1684397319199995 0 0 0
2920 10 30.297072972359004 6.844704744620998 1.1684397319199995 0 0 0
2926 12 32.931601056912 6.844704744620998 1.1684397319199995 0 0 0
2932 10 35.566129141465 6.844704744620998 1.1684397319199995 0 0 0
2938 12 38.200657226017995 6.844704744620998 1.1684397319199995 0 0 0
2944 10 40.835185310571006 6.844704744620998 1.1684397319199995 0 0 0
2950 12 43.469713395124 6.844704744620998 1.1684397319199995 0 0 0
2956 10 46.104241479677 6.844704744620998 1.1684397319199995 0 0 0
2962 12 48.73876956423 6.844704744620998 1.1684397319199995 0 0 0
2740 10 51.373297648783 6.844704744620998 1.1684397319199995 -1 0 0
2746 12 54.007825733336 6.844704744620998 1.1684397319199995 -1 0 0
2752 10 56.642353817889 6.844704744620998 1.1684397319199995 -1 0 0
2758 12 59.276881902442 6.844704744620998 1.1684397319199995 -1 0 0
2764 10 61.911409986995 6.844704744620998 1.1684397319199995 -1 0 0
2770 12 64.545938071548 6.844704744620998 1.1684397319199995 -1 0 0
2776 10 67.180466156101 6.844704744620998 1.1684397319199995 -1 0 0
2782 12 69.814994240654 6.844704744620998 1.1684397319199995 -1 0 0
2788 10 72.449522325207 6.844704744620998 1.1684397319199995 -1 0 0
2794 12 75.08405040976 6.844704744620998 1.1684397319199995 -1 0 0
2800 10 77.718578494313 6.844704744620998 1.1684397319199995 -1 0 0
2806 12 80.353106578866 6.844704744620998 1.1684397319199995 -1 0 0
2812 10 82.987634663419 6.844704744620998 1.1684397319199995 -1 0 0
2818 12 85.622162747972 6.844704744620998 1.1684397319199995 -1 0 0
2824 10 88.25669083252501 6.844704744620998 1.1684397319199995 -1 0 0
2830 12 90.89121891707799 6.844704744620998 1.1684397319199995 -1 0 0
2836 10 93.525747001631 6.844704744620998 1.1684397319199995 -1 0 0
2842 12 96.160275086184 6.844704744620998 1.1684397319199995 -1 0 0
2848 10 98.794803170737 6.844704744620998 1.1684397319199995 -1 0 0
2856 8 0 7.605227494022998 0 0 0 0
2862 4 2.634528084552997 7.605227494022998 0 0 0 0
2868 8 5.269056169106001 7.605227494022998 0 0 0 0
2874 4 7.903584253658998 7.605227494022998 0 0 0 0
2880 8 10.538112338212002 7.605227494022998 0 0 0 0
2886 4 13.172640422765 7.605227494022998 0 0 0 0
2892 8 15.807168507317996 7.605227494022998 0 0 0 0
2898 4 18.441696591870993 7.605227494022998 0 0 0 0
2904 8 21.076224676424005 7.605227494022998 0 0 0 0
2910 4 23.710752760977 7.605227494022998 0 0 0 0
2916 8 26.34528084553 7.605227494022998 0 0 0 0
2922 4 28.979808930082996 7.605227494022998 0 0 0 0
2928 8 31.614337014635993 7.605227494022998 0 0 0 0
2934 4 34.248865099189004 7.605227494022998 0 0 0 0
2940 8 36.883393183742 7.605227494022998 0 0 0 0
2946 4 39.517921268295 7.605227494022998 0 0 0 0
2952 8 42.152449352847995 7.605227494022998 0 0 0 0
2958 4 44.786977437401006 7.605227494022998 0 0 0 0
2964 8 47.421505521954 7.605227494022998 0 0 0 0
2742 4 50.056033606507 7.605227494022998 0 -1 0 0
2748 8 52.69056169106 7.605227494022998 0 -1 0 0
2754 4 55.325089775613 7.605227494022998 0 -1 0 0
2760 8 57.959617860166 7.605227494022998 0 -1 0 0
2766 4 60.594145944719 7.605227494022998 0 -1 0 0
2772 8 63.228674029272 7.605227494022998 0 -1 0 0
2778 4 65.863202113825 7.605227494022998 0 -1 0 0
2784 8 68.49773019837801 7.605227494022998 0 -1 0 0
2790 4 71.132258282931 7.605227494022998 0 -1 0 0
2796 8 73.766786367484 7.605227494022998 0 -1 0 0
2802 4 76.401314452037 7.605227494022998 0 -1 0 0
2808 8 79.03584253659 7.605227494022998 0 -1 0 0
2814 4 81.67037062114301 7.605227494022998 0 -1 0 0
2820 8 84.30489870569599 7.605227494022998 0 -1 0 0
2826 4 86.939426790249 7.605227494022998 0 -1 0 0
2832 8 89.573954874802 7.605227494022998 0 -1 0 0
2838 4 92.208482959355 7.605227494022998 0 -1 0 0
2844 8 94.843011043908 7.605227494022998 0 -1 0 0
2850 4 97.477539128461 7.605227494022998 0 -1 0 0
3081 6 1.317264042277003 9.88679574223 0 0 0 0
3079 11 0 9.126272992828 1.1684397319199995 0 0 0
3085 9 2.634528084552997 9.126272992828 1.1684397319199995 0 0 0
3087 2 3.95179212683 9.88679574223 0 0 0 0
3091 11 5.269056169106001 9.126272992828 1.1684397319199995 0 0 0
3093 6 6.586320211382997 9.88679574223 0 0 0 0
3097 9 7.903584253658998 9.126272992828 1.1684397319199995 0 0 0
3099 2 9.220848295936001 9.88679574223 0 0 0 0
3103 11 10.538112338212002 9.126272992828 1.1684397319199995 0 0 0
3105 6 11.855376380488998 9.88679574223 0 0 0 0
3109 9 13.172640422765 9.126272992828 1.1684397319199995 0 0 0
3111 2 14.489904465042002 9.88679574223 0 0 0 0
3117 6 17.124432549595 9.88679574223 0 0 0 0
3115 11 15.807168507317996 9.126272992828 1.1684397319199995 0 0 0
3121 9 18.441696591870993 9.126272992828 1.1684397319199995 0 0 0
3123 2 19.758960634147996 9.88679574223 0 0 0 0
3127 11 21.076224676424005 9.126272992828 1.1684397319199995 0 0 0
3129 6 22.393488718700993 9.88679574223 0 0 0 0
3133 9 23.710752760977 9.126272992828 1.1684397319199995 0 0 0
3135 2 25.028016803254005 9.88679574223 0 0 0 0
3139 11 26.34528084553 9.126272992828 1.1684397319199995 0 0 0
3141 6 27.662544887807 9.88679574223 0 0 0 0
3145 9 28.979808930082996 9.126272992828 1.1684397319199995 0 0 0
3147 2 30.29707297236 9.88679574223 0 0 0 0
3151 11 31.614337014635993 9.126272992828 1.1684397319199995 0 0 0
3153 6 32.931601056912996 9.88679574223 0 0 0 0
3157 9 34.248865099189004 9.126272992828 1.1684397319199995 0 0 0
3159 2 35.56612914146599 9.88679574223 0 0 0 0
3163 11 36.883393183742 9.126272992828 1.1684397319199995 0 0 0
3165 6 38.200657226019004 9.88679574223 0 0 0 0
3169 9 39.517921268295 9.126272992828 1.1684397319199995 0 0 0
3171 2 40.835185310572 9.88679574223 0 0 0 0
3175 11 42.152449352847995 9.126272992828 1.1684397319199995 0 0 0
3177 6 43.469713395125 9.88679574223 0 0 0 0
3181 9 44.786977437401006 9.126272992828 1.1684397319199995 0 0 0
3183 2 46.104241479677995 9.88679574223 0 0 0 0
3187 11 47.421505521954 9.126272992828 1.1684397319199995 0 0 0
3189 6 48.738769564231006 9.88679574223 0 0 0 0
2967 2 51.373297648784 9.88679574223 0 -1 0 0
2965 9 50.056033606507 9.126272992828 1.1684397319199995 -1 0 0
2971 11 52.69056169106 9.126272992828 1.1684397319199995 -1 0 0
2973 6 54.007825733337 9.88679574223 0 -1 0 0
2977 9 55.325089775613 9.126272992828 1.1684397319199995 -1 0 0
2979 2 56.64235381789 9.88679574223 0 -1 0 0
2983 11 57.959617860166 9.126272992828 1.1684397319199995 -1 0 0
2985 6 59.276881902443 9.88679574223 0 -1 0 0
2989 9 60.594145944719 9.126272992828 1.1684397319199995 -1 0 0
2991 2 61.911409986996 9.88679574223 0 -1 0 0
2995 11 63.228674029272 9.126272992828 1.1684397319199995 -1 0 0
2997 6 64.545938071549 9.88679574223 0 -1 0 0
3003 2 67.180466156102 9.88679574223 0 -1 0 0
3001 9 65.863202113825 9.126272992828 1.1684397319199995 -1 0 0
3007 11 68.49773019837801 9.126272992828 1.1684397319199995 -1 0 0
3009 6 69.814994240655 9.88679574223 0 -1 0 0
3013 9 71.132258282931 9.126272992828 1.1684397319199995 -1 0 0
3015 2 72.449522325208 9.88679574223 0 -1 0 0
3019 11 73.766786367484 9.126272992828 1.1684397319199995 -1 0 0
3021 6 75.084050409761 9.88679574223 0 -1 0 0
3025 9 76.401314452037 9.126272992828 1.1684397319199995 -1 0 0
3027 2 77.718578494314 9.88679574223 0 -1 0 0
3031 11 79.03584253659 9.126272992828 1.1684397319199995 -1 0 0
3033 6 80.353106578867 9.88679574223 0 -1 0 0
3037 9 81.67037062114301 9.126272992828 1.1684397319199995 -1 0 0
3039 2 82.98763466342001 9.88679574223 0 -1 0 0
3043 11 84.30489870569599 9.126272992828 1.1684397319199995 -1 0 0
3045 6 85.622162747973 9.88679574223 0 -1 0 0
3049 9 86.939426790249 9.126272992828 1.1684397319199995 -1 0 0
3051 2 88.256690832526 9.88679574223 0 -1 0 0
3055 11 89.573954874802 9.126272992828 1.1684397319199995 -1 0 0
3057 6 90.891218917079 9.88679574223 0 -1 0 0
3061 9 92.208482959355 9.126272992828 1.1684397319199995 -1 0 0
3063 2 93.525747001632 9.88679574223 0 -1 0 0
3067 11 94.843011043908 9.126272992828 1.1684397319199995 -1 0 0
3069 6 96.16027508618501 9.88679574223 0 -1 0 0
3073 9 97.477539128461 9.126272992828 1.1684397319199995 -1 0 0
3075 2 98.79480317073799 9.88679574223 0 -1 0 0
3082 12 1.3172640422760011 11.407841241035001 1.1684397319199995 0 0 0
3088 10 3.951792126828998 11.407841241035001 1.1684397319199995 0 0 0
3094 12 6.586320211382002 11.407841241035001 1.1684397319199995 0 0 0
3100 10 9.220848295935 11.407841241035001 1.1684397319199995 0 0 0
3106 12 11.855376380487996 11.407841241035001 1.1684397319199995 0 0 0
3112 10 14.489904465040993 11.407841241035001 1.1684397319199995 0 0 0
3118 12 17.124432549594005 11.407841241035001 1.1684397319199995 0 0 0
3124 10 19.758960634147 11.407841241035001 1.1684397319199995 0 0 0
3130 12 22.3934887187 11.407841241035001 1.1684397319199995 0 0 0
3136 10 25.028016803252996 11.407841241035001 1.1684397319199995 0 0 0
3142 12 27.662544887805993 11.407841241035001 1.1684397319199995 0 0 0
3148 10 30.297072972359004 11.407841241035001 1.1684397319199995 0 0 0
3154 12 32.931601056912 11.407841241035001 1.1684397319199995 0 0 0
3160 10 35.566129141465 11.407841241035001 1.1684397319199995 0 0 0
3166 12 38.200657226017995 11.407841241035001 1.1684397319199995 0 0 0
3172 10 40.835185310571006 11.407841241035001 1.1684397319199995 0 0 0
3178 12 43.469713395124 11.407841241035001 1.1684397319199995 0 0 0
3184 10 46.104241479677 11.407841241035001 1.1684397319199995 0 0 0
3190 12 48.73876956423 11.407841241035001 1.1684397319199995 0 0 0
2968 10 51.373297648783 11.407841241035001 1.1684397319199995 -1 0 0
2974 12 54.007825733336 11.407841241035001 1.1684397319199995 -1 0 0
2980 10 56.642353817889 11.407841241035001 1.1684397319199995 -1 0 0
2986 12 59.276881902442 11.407841241035001 1.1684397319199995 -1 0 0
2992 10 61.911409986995 11.407841241035001 1.1684397319199995 -1 0 0
2998 12 64.545938071548 11.407841241035001 1.1684397319199995 -1 0 0
3004 10 67.180466156101 11.407841241035001 1.1684397319199995 -1 0 0
3010 12 69.814994240654 11.407841241035001 1.1684397319199995 -1 0 0
3016 10 72.449522325207 11.407841241035001 1.1684397319199995 -1 0 0
3022 12 75.08405040976 11.407841241035001 1.1684397319199995 -1 0 0
3028 10 77.718578494313 11.407841241035001 1.1684397319199995 -1 0 0
3034 12 80.353106578866 11.407841241035001 1.1684397319199995 -1 0 0
3040 10 82.987634663419 11.407841241035001 1.1684397319199995 -1 0 0
3046 12 85.622162747972 11.407841241035001 1.1684397319199995 -1 0 0
3052 10 88.25669083252501 11.407841241035001 1.1684397319199995 -1 0 0
3058 12 90.89121891707799 11.407841241035001 1.1684397319199995 -1 0 0
3064 10 93.525747001631 11.407841241035001 1.1684397319199995 -1 0 0
3070 12 96.160275086184 11.407841241035001 1.1684397319199995 -1 0 0
3076 10 98.794803170737 11.407841241035001 1.1684397319199995 -1 0 0
3084 8 0 12.168363990437001 0 0 0 0
3090 4 2.634528084552997 12.168363990437001 0 0 0 0
3096 8 5.269056169106001 12.168363990437001 0 0 0 0
3102 4 7.903584253658998 12.168363990437001 0 0 0 0
3108 8 10.538112338212002 12.168363990437001 0 0 0 0
3114 4 13.172640422765 12.168363990437001 0 0 0 0
3120 8 15.807168507317996 12.168363990437001 0 0 0 0
3126 4 18.441696591870993 12.168363990437001 0 0 0 0
3132 8 21.076224676424005 12.168363990437001 0 0 0 0
3138 4 23.710752760977 12.168363990437001 0 0 0 0
3144 8 26.34528084553 12.168363990437001 0 0 0 0
3150 4 28.979808930082996 12.168363990437001 0 0 0 0
3156 8 31.614337014635993 12.168363990437001 0 0 0 0
3162 4 34.248865099189004 12.168363990437001 0 0 0 0
3168 8 36.883393183742 12.168363990437001 0 0 0 0
3174 4 39.517921268295 12.168363990437001 0 0 0 0
3180 8 42.152449352847995 12.168363990437001 0 0 0 0
3186 4 44.786977437401006 12.168363990437001 0 0 0 0
3192 8 47.421505521954 12.168363990437001 0 0 0 0
2970 4 50.056033606507 12.168363990437001 0 -1 0 0
2976 8 52.69056169106 12.168363990437001 0 -1 0 0
2982 4 55.325089775613 12.168363990437001 0 -1 0 0
2988 8 57.959617860166 12.168363990437001 0 -1 0 0
2994 4 60.594145944719 12.168363990437001 0 -1 0 0
3000 8 63.228674029272 12.168363990437001 0 -1 0 0
3006 4 65.863202113825 12.168363990437001 0 -1 0 0
3012 8 68.49773019837801 12.168363990437001 0 -1 0 0
3018 4 71.132258282931 12.168363990437001 0 -1 0 0
3024 8 73.766786367484 12.168363990437001 0 -1 0 0
3030 4 76.401314452037 12.168363990437001 0 -1 0 0
3036 8 79.03584253659 12.168363990437001 0 -1 0 0
3042 4 81.67037062114301 12.168363990437001 0 -1 0 0
3048 8 84.30489870569599 12.168363990437001 0 -1 0 0
3054 4 86.939426790249 12.168363990437001 0 -1 0 0
3060 8 89.573954874802 12.168363990437001 0 -1 0 0
3066 4 92.208482959355 12.168363990437001 0 -1 0 0
3072 8 94.843011043908 12.168363990437001 0 -1 0 0
3078 4 97.477539128461 12.168363990437001 0 -1 0 0
3307 11 0 13.689409489241996 1.1684397319199995 0 0 0
3313 9 2.634528084552997 13.689409489241996 1.1684397319199995 0 0 0
3319 11 5.269056169106001 13.689409489241996 1.1684397319199995 0 0 0
3325 9 7.903584253658998 13.689409489241996 1.1684397319199995 0 0 0
3331 11 10.538112338212002 13.689409489241996 1.1684397319199995 0 0 0
3337 9 13.172640422765 13.689409489241996 1.1684397319199995 0 0 0
3343 11 15.807168507317996 13.689409489241996 1.1684397319199995 0 0 0
3349 9 18.441696591870993 13.689409489241996 1.1684397319199995 0 0 0
3355 11 21.076224676424005 13.689409489241996 1.1684397319199995 0 0 0
3361 9 23.710752760977 13.689409489241996 1.1684397319199995 0 0 0
3367 11 26.34528084553 13.689409489241996 1.1684397319199995 0 0 0
3373 9 28.979808930082996 13.689409489241996 1.1684397319199995 0 0 0
3379 11 31.614337014635993 13.689409489241996 1.1684397319199995 0 0 0
3385 9 34.248865099189004 13.689409489241996 1.1684397319199995 0 0 0
3391 11 36.883393183742 13.689409489241996 1.1684397319199995 0 0 0
3397 9 39.517921268295 13.689409489241996 1.1684397319199995 0 0 0
3403 11 42.152449352847995 13.689409489241996 1.1684397319199995 0 0 0
3409 9 44.786977437401006 13.689409489241996 1.1684397319199995 0 0 0
3415 11 47.421505521954 13.689409489241996 1.1684397319199995 0 0 0
3193 9 50.056033606507 13.689409489241996 1.1684397319199995 -1 0 0
3199 11 52.69056169106 13.689409489241996 1.1684397319199995 -1 0 0
3205 9 55.325089775613 13.689409489241996 1.1684397319199995 -1 0 0
3211 11 57.959617860166 13.689409489241996 1.1684397319199995 -1 0 0
3217 9 60.594145944719 13.689409489241996 1.1684397319199995 -1 0 0
3223 11 63.228674029272 13.689409489241996 1.1684397319199995 -1 0 0
3229 9 65.863202113825 13.689409489241996 1.1684397319199995 -1 0 0
3235 11 68.49773019837801 13.689409489241996 1.1684397319199995 -1 0 0
3241 9 71.132258282931 13.689409489241996 1.1684397319199995 -1 0 0
3247 11 73.766786367484 13.689409489241996 1.1684397319199995 -1 0 0
3253 9 76.401314452037 13.689409489241996 1.1684397319199995 -1 0 0
3259 11 79.03584253659 13.689409489241996 1.1684397319199995 -1 0 0
3265 9 81.67037062114301 13.689409489241996 1.1684397319199995 -1 0 0
3271 11 84.30489870569599 13.689409489241996 1.1684397319199995 -1 0 0
3277 9 86.939426790249 13.689409489241996 1.1684397319199995 -1 0 0
3283 11 89.573954874802 13.689409489241996 1.1684397319199995 -1 0 0
3289 9 92.208482959355 13.689409489241996 1.1684397319199995 -1 0 0
3295 11 94.843011043908 13.689409489241996 1.1684397319199995 -1 0 0
3301 9 97.477539128461 13.689409489241996 1.1684397319199995 -1 0 0
3309 6 1.317264042277003 14.449932238644003 0 0 0 0
3315 2 3.95179212683 14.449932238644003 0 0 0 0
3321 6 6.586320211382997 14.449932238644003 0 0 0 0
3327 2 9.220848295936001 14.449932238644003 0 0 0 0
3333 6 11.855376380488998 14.449932238644003 0 0 0 0
3339 2 14.489904465042002 14.449932238644003 0 0 0 0
3345 6 17.124432549595 14.449932238644003 0 0 0 0
3351 2 19.758960634147996 14.449932238644003 0 0 0 0
3357 6 22.393488718700993 14.449932238644003 0 0 0 0
3363 2 25.028016803254005 14.449932238644003 0 0 0 0
3369 6 27.662544887807 14.449932238644003 0 0 0 0
3375 2 30.29707297236 14.449932238644003 0 0 0 0
3381 6 32.931601056912996 14.449932238644003 0 0 0 0
3387 2 35.56612914146599 14.449932238644003 0 0 0 0
3393 6 38.200657226019004 14.449932238644003 0 0 0 0