LAMMPS data file via write_data, version 29 Aug 2024, timestep = 40, units = metal

10032 atoms
24 atom types

0 100.112067213014 xlo xhi
0 100.389002921108 ylo yhi
-50 50 zlo zhi

Masses

1 51.9961
2 51.9961
3 51.9961
4 51.9961
5 51.9961
6 51.9961
7 51.9961
8 51.9961
9 15.999
10 15.999
11 15.999
12 15.999
13 15.999
14 15.999
15 15.999
16 15.999
17 15.999
18 15.999
19 15.999
20 15.999
21 15.999
22 15.999
23 15.999
24 15.999

Atoms # atomic

2625 10 1.3167576791557558 0.7603932558947577 0.06442649417491154 0 0 0
2629 13 3.263098707143316 0.2824118981836618 1.17459061058858 0 0 0
2631 2 3.9970464636109106 0.7344578119155529 0.06295454118142292 0 0 0
2635 15 5.22183386487003 0.02605594949190647 1.3013160300926316 0 0 0
2626 16 1.2424738604228007 2.2902127815552364 1.1437491589846005 0 0 0
2632 14 3.7984858089008573 2.613573365519043 1.2028529961758225 0 0 0
2634 4 2.576351470535706 2.244115159887543 -0.17969402938969642 0 0 0
2640 12 5.268579299283107 3.0420108466859386 0.06556784738799326 0 0 0
2853 10 1.3167576791557556 5.323529752308753 0.06442649417491207 0 0 0
2857 13 3.2630987071432163 4.845548394597679 1.174590610588482 0 0 0
2859 2 3.99704646361091 5.297594308329551 0.06295454118142288 0 0 0
2863 15 5.221833864870026 4.589192445905902 1.3013160300926332 0 0 0
2624 9 1.3827483692167746 0.25784091298540535 2.926018006183558 0 0 0
2630 1 4.218238786845022 0.5547715133200192 2.7673577273709666 0 0 0
2633 3 2.369710437152685 3.463244725743012 2.0827603281719718 0 0 0
2639 11 4.987766358329822 3.4358311783331033 2.4357932724479965 0 0 0
2852 9 1.3827483692165792 4.820977409398983 2.9260180061834298 0 0 0
2858 1 4.2182387868450855 5.117908009734192 2.767357727370485 0 0 0
2637 10 6.585813848261748 0.7603932558947577 0.06442649417491161 0 0 0
2641 13 8.532154876249292 0.28241189818366397 1.1745906105885457 0 0 0
2643 2 9.26610263271691 0.7344578119155529 0.06295454118142296 0 0 0
2647 15 10.49089003397603 0.02605594949190656 1.3013160300926314 0 0 0
2638 16 6.511530029528785 2.2902127815552054 1.1437491589846271 0 0 0
2644 14 9.067541978006853 2.6135733655190903 1.2028529961758692 0 0 0
2646 4 7.845407639641728 2.244115159887542 -0.1796940293896418 0 0 0
2652 12 10.537635468389102 3.0420108466859386 0.06556784738799332 0 0 0
2865 10 6.585813848261748 5.323529752308753 0.06442649417491216 0 0 0
2869 13 8.532154876249177 4.84554839459772 1.1745906105884403 0 0 0
2871 2 9.266102632716908 5.297594308329548 0.06295454118142252 0 0 0
2875 15 10.490890033976026 4.589192445905904 1.301316030092634 0 0 0
2636 9 6.651804538322756 0.25784091298532846 2.9260180061835377 0 0 0
2642 1 9.487294955951002 0.5547715133200319 2.7673577273709102 0 0 0
2645 3 7.63876660625865 3.4632447257429955 2.082760328171972 0 0 0
2651 11 10.256822527435776 3.435831178333142 2.4357932724480054 0 0 0
2864 9 6.65180453832256 4.820977409398852 2.926018006183426 0 0 0
2870 1 9.487294955951084 5.1179080097342595 2.7673577273704266 0 0 0
2649 10 11.854870017367745 0.7603932558947577 0.06442649417491167 0 0 0
2653 13 13.80121104535535 0.28241189818368156 1.1745906105885293 0 0 0
2655 2 14.535158801822908 0.7344578119155535 0.06295454118142157 0 0 0
2661 10 17.123926186473756 0.7603932558947577 0.0644264941749117 0 0 0
2659 15 15.759946203082023 0.026055949491905813 1.3013160300926343 0 0 0
2650 16 11.780586198634794 2.2902127815552085 1.1437491589846438 0 0 0
2656 14 14.33659814711288 2.613573365519102 1.202852996175881 0 0 0
2662 16 17.049642367740788 2.290212781555216 1.1437491589846571 0 0 0
2658 4 13.114463808747727 2.244115159887411 -0.17969402938959683 0 0 0
2664 12 15.806691637495096 3.0420108466859386 0.06556784738799332 0 0 0
2877 10 11.854870017367745 5.323529752308753 0.0644264941749121 0 0 0
2881 13 13.80121104535523 4.845548394597751 1.17459061058845 0 0 0
2883 2 14.535158801822908 5.297594308329552 0.06295454118142113 0 0 0
2889 10 17.123926186473756 5.323529752308753 0.06442649417491197 0 0 0
2887 15 15.759946203082023 4.589192445905903 1.3013160300926347 0 0 0
2648 9 11.920860707428773 0.25784091298524864 2.926018006183599 0 0 0
2654 1 14.756351125057117 0.5547715133199995 2.76735772737077 0 0 0
2660 9 17.189916876534554 0.25784091298503264 2.926018006183401 0 0 0
2657 3 12.90782277536468 3.4632447257430403 2.0827603281719287 0 0 0
2663 11 15.52587869654183 3.435831178333089 2.435793272447984 0 0 0
2876 9 11.920860707428595 4.820977409398875 2.9260180061834924 0 0 0
2882 1 14.756351125057147 5.1179080097342196 2.7673577273704186 0 0 0
2888 9 17.189916876534497 4.820977409398796 2.926018006183393 0 0 0
2665 13 19.07026721446116 0.2824118981836751 1.174590610588461 0 0 0
2667 2 19.80421497092891 0.7344578119155534 0.06295454118142288 0 0 0
2671 15 21.029002372188028 0.026055949491905726 1.3013160300926325 0 0 0
2673 10 22.39298235557975 0.7603932558947577 0.06442649417491175 0 0 0
2668 14 19.605654316218903 2.6135733655191022 1.2028529961759657 0 0 0
2674 16 22.3186985368468 2.290212781555189 1.1437491589846611 0 0 0
2670 4 18.383519977853823 2.24411515988727 -0.1796940293895147 0 0 0
2676 12 21.075747806601107 3.0420108466859386 0.06556784738799333 0 0 0
2893 13 19.07026721446116 4.845548394597754 1.1745906105884287 0 0 0
2895 2 19.80421497092891 5.2975943083295505 0.06295454118142277 0 0 0
2899 15 21.029002372188028 4.589192445905903 1.301316030092633 0 0 0
2901 10 22.39298235557975 5.323529752308753 0.0644264941749121 0 0 0
2666 1 20.025407294163017 0.5547715133202236 2.767357727370624 0 0 0
2672 9 22.45897304564073 0.2578409129851303 2.9260180061835843 0 0 0
2669 3 18.17687894447064 3.4632447257429946 2.0827603281719824 0 0 0
2675 11 20.794934865647736 3.4358311783331557 2.4357932724479867 0 0 0
2894 1 20.025407294163088 5.11790800973428 2.7673577273704217 0 0 0
2900 9 22.458973045640594 4.820977409398889 2.926018006183482 0 0 0
2681 3 23.445935113576684 3.4632447257430505 2.0827603281719074 0 0 0
2677 13 24.3393233835673 0.2824118981836967 1.174590610588497 0 0 0
2679 2 25.07327114003491 0.7344578119155544 0.06295454118142015 0 0 0
2683 15 26.298058541294022 0.026055949491905255 1.3013160300926352 0 0 0
2685 10 27.66203852468576 0.7603932558947577 0.06442649417491168 0 0 0
2680 14 24.874710485324904 2.613573365519075 1.2028529961759242 0 0 0
2686 16 27.587754705952776 2.290212781555226 1.14374915898465 0 0 0
2682 4 23.65257614695978 2.2441151598872584 -0.17969402938954795 0 0 0
2688 12 26.3448039757071 3.0420108466859386 0.06556784738799333 0 0 0
2694 4 28.921632316065807 2.2441151598873286 -0.1796940293895316 0 0 0
2905 13 24.339323383567248 4.845548394597761 1.174590610588453 0 0 0
2907 2 25.073271140034915 5.297594308329548 0.06295454118142464 0 0 0
2911 15 26.298058541294036 4.589192445905906 1.3013160300926323 0 0 0
2913 10 27.66203852468576 5.323529752308753 0.06442649417491207 0 0 0
2678 1 25.29446346326916 0.5547715133201049 2.7673577273706735 0 0 0
2684 9 27.728029214746602 0.257840912985089 2.926018006183425 0 0 0
2687 11 26.06399103475385 3.435831178333072 2.435793272448001 0 0 0
2693 3 28.714991282682654 3.463244725743009 2.0827603281719904 0 0 0
2906 1 25.29446346326916 5.117908009734195 2.7673577273704537 0 0 0
2912 9 27.728029214746506 4.820977409398827 2.926018006183388 0 0 0
2689 13 29.608379552673163 0.2824118981836712 1.1745906105884725 0 0 0
2917 13 29.608379552673153 4.845548394597728 1.1745906105884294 0 0 0
2691 2 30.342327309140906 0.7344578119155545 0.06295454118141995 0 0 0
2695 15 31.567114710400016 0.026055949491905137 1.3013160300926345 0 0 0
2697 10 32.93109469379174 0.7603932558947577 0.06442649417491153 0 0 0
2701 13 34.877435721779314 0.2824118981836599 1.1745906105884754 0 0 0
2692 14 30.143766654430884 2.613573365519089 1.202852996175963 0 0 0
2698 16 32.85681087505881 2.2902127815551676 1.1437491589846513 0 0 0
2700 12 31.613860144813096 3.0420108466859386 0.06556784738799319 0 0 0
2706 4 34.19068848517175 2.2441151598874143 -0.1796940293896079 0 0 0
2919 2 30.34232730914091 5.297594308329549 0.06295454118142234 0 0 0
2923 15 31.567114710400027 4.589192445905905 1.301316030092634 0 0 0
2925 10 32.93109469379174 5.323529752308753 0.06442649417491202 0 0 0
2929 13 34.877435721779214 4.845548394597768 1.17459061058844 0 0 0
2690 1 30.563519632375026 0.5547715133202091 2.7673577273707 0 0 0
2696 9 32.9970853838528 0.25784091298522743 2.9260180061836505 0 0 0
2699 11 31.333047203859753 3.4358311783331486 2.435793272447988 0 0 0
2705 3 33.98404745178865 3.4632447257430203 2.082760328171934 0 0 0
2918 1 30.563519632375098 5.117908009734291 2.7673577273703813 0 0 0
2924 9 32.997085383852585 4.820977409398866 2.926018006183477 0 0 0
2703 2 35.61138347824691 0.7344578119155495 0.06295454118142711 0 0 0
2707 15 36.836170879506035 0.026055949491909806 1.3013160300926276 0 0 0
2709 10 38.20015086289775 0.7603932558947577 0.06442649417491171 0 0 0
2713 13 40.146491890885194 0.2824118981836574 1.1745906105884816 0 0 0
2715 2 40.88043964735291 0.7344578119155502 0.06295454118142704 0 0 0
2704 14 35.41282282353689 2.6135733655191298 1.2028529961758623 0 0 0
2710 16 38.12586704416479 2.2902127815552284 1.1437491589846487 0 0 0
2716 14 40.681878992642886 2.6135733655190516 1.2028529961759447 0 0 0
2712 12 36.8829163139191 3.0420108466859386 0.06556784738799334 0 0 0
2718 4 39.4597446542778 2.2441151598873774 -0.17969402938956708 0 0 0
2931 2 35.61138347824691 5.2975943083295505 0.06295454118142096 0 0 0
2935 15 36.836170879506014 4.589192445905901 1.3013160300926365 0 0 0
2937 10 38.20015086289775 5.323529752308753 0.06442649417491209 0 0 0
2941 13 40.1464918908852 4.845548394597725 1.1745906105884398 0 0 0
2943 2 40.88043964735291 5.2975943083295505 0.06295454118141762 0 0 0
2702 1 35.832575801481134 0.5547715133200233 2.7673577273707632 0 0 0
2708 9 38.26614155295863 0.25784091298520084 2.9260180061834498 0 0 0
2714 1 41.10163197058705 0.5547715133201986 2.767357727370747 0 0 0
2711 11 36.60210337296581 3.4358311783331215 2.4357932724479756 0 0 0
2717 3 39.25310362089467 3.4632447257429986 2.082760328171968 0 0 0
2930 1 35.83257580148113 5.117908009734237 2.7673577273704297 0 0 0
2936 9 38.266141552958544 4.82097740939884 2.926018006183416 0 0 0
2942 1 41.101631970587114 5.11790800973423 2.7673577273704346 0 0 0
2719 15 42.105227048612036 0.02605594949190979 1.3013160300926276 0 0 0
2721 10 43.469207032003744 0.7603932558947577 0.06442649417491146 0 0 0
2725 13 45.41554805999128 0.2824118981836397 1.1745906105884856 0 0 0
2727 2 46.14949581645891 0.7344578119155466 0.06295454118143204 0 0 0
2722 16 43.39492321327081 2.2902127815552147 1.1437491589846425 0 0 0
2728 14 45.95093516174888 2.613573365519151 1.2028529961758676 0 0 0
2724 12 42.15197248302509 3.0420108466859386 0.0655678473879932 0 0 0
2730 4 44.728800823383715 2.2441151598875244 -0.179694029389635 0 0 0
2947 15 42.10522704861201 4.589192445905897 1.301316030092638 0 0 0
2949 10 43.469207032003744 5.323529752308753 0.064426494174912 0 0 0
2953 13 45.41554805999118 4.845548394597761 1.1745906105884278 0 0 0
2955 2 46.14949581645891 5.297594308329551 0.06295454118142053 0 0 0
2720 9 43.53519772206483 0.2578409129852955 2.926018006183625 0 0 0
2726 1 46.37068813969306 0.5547715133200641 2.7673577273708663 0 0 0
2723 11 41.87115954207182 3.43583117833311 2.4357932724480222 0 0 0
2729 3 44.52215979000063 3.4632447257430115 2.0827603281719598 0 0 0
2948 9 43.53519772206457 4.820977409398857 2.9260180061834613 0 0 0
2954 1 46.370688139693115 5.1179080097342595 2.767357727370395 0 0 0
2731 15 47.37428321771805 0.02605594949191278 1.3013160300926223 0 0 0
2733 10 48.73826320110975 0.7603932558947577 0.0644264941749115 0 0 0
2511 2 51.41855198556491 0.7344578119155499 0.06295454118142718 -1 0 0
2509 13 50.68460422909732 0.28241189818367307 1.1745906105885504 -1 0 0
2515 15 52.64333938682404 0.026055949491909848 1.3013160300926274 -1 0 0
2734 16 48.663979382376795 2.2902127815552342 1.14374915898465 0 0 0
2512 14 51.21999133085486 2.613573365519092 1.2028529961758971 -1 0 0
2736 12 47.4210286521311 3.0420108466859386 0.06556784738799326 0 0 0
2514 4 49.99785699248973 2.2441151598875972 -0.17969402938961615 -1 0 0
2520 12 52.69008482123709 3.0420108466859386 0.06556784738799327 -1 0 0
2959 15 47.374283217718016 4.5891924459059 1.301316030092636 0 0 0
2961 10 48.73826320110975 5.323529752308753 0.06442649417491207 0 0 0
2739 2 51.41855198556491 5.2975943083295505 0.06295454118141783 -1 0 0
2737 13 50.6846042290972 4.845548394597721 1.1745906105884354 -1 0 0
2743 15 52.64333938682401 4.589192445905898 1.3013160300926383 -1 0 0
2732 9 48.80425389117075 0.2578409129853167 2.926018006183553 0 0 0
2510 1 51.639744308799045 0.5547715133200143 2.7673577273709498 -1 0 0
2735 11 47.14021571117779 3.4358311783331312 2.435793272447975 0 0 0
2513 3 49.79121595910668 3.463244725742994 2.0827603281719855 -1 0 0
2519 11 52.40927188028382 3.435831178333103 2.4357932724480102 -1 0 0
2960 9 48.804253891170546 4.820977409398821 2.9260180061834284 0 0 0
2738 1 51.639744308799145 5.1179080097342435 2.767357727370378 -1 0 0
2517 10 54.00731937021575 0.7603932558947577 0.06442649417491156 -1 0 0
2521 13 55.95366039820333 0.2824118981836747 1.1745906105885386 -1 0 0
2523 2 56.687608154670905 0.7344578119155526 0.06295454118142199 -1 0 0
2527 15 57.91239555593002 0.026055949491906753 1.3013160300926325 -1 0 0
2518 16 53.93303555148278 2.2902127815552173 1.1437491589846538 -1 0 0
2524 14 56.48904749996084 2.6135733655190894 1.2028529961759211 -1 0 0
2526 4 55.266913161595745 2.244115159887553 -0.17969402938959547 -1 0 0
2532 12 57.959140990343094 3.0420108466859386 0.06556784738799332 -1 0 0
2745 10 54.00731937021575 5.323529752308753 0.0644264941749121 -1 0 0
2749 13 55.95366039820318 4.845548394597724 1.1745906105884116 -1 0 0
2751 2 56.68760815467091 5.297594308329548 0.06295454118142273 -1 0 0
2755 15 57.912395555930026 4.589192445905901 1.3013160300926334 -1 0 0
2516 9 54.073310060276754 0.2578409129852921 2.926018006183568 -1 0 0
2522 1 56.908800477905054 0.5547715133200104 2.7673577273708942 -1 0 0
2525 3 55.060272128212674 3.463244725742997 2.0827603281719624 -1 0 0
2531 11 57.67832804938979 3.4358311783331197 2.4357932724480116 -1 0 0
2744 9 54.07331006027657 4.820977409398848 2.926018006183431 -1 0 0
2750 1 56.90880047790513 5.1179080097342755 2.7673577273703676 -1 0 0
2529 10 59.27637553932175 0.7603932558947577 0.06442649417491167 -1 0 0
2533 13 61.222716567309305 0.28241189818371715 1.1745906105885102 -1 0 0
2535 2 61.95666432377691 0.7344578119155523 0.06295454118142223 -1 0 0
2539 15 63.18145172503603 0.026055949491906875 1.301316030092633 -1 0 0
2541 10 64.54543170842777 0.7603932558947577 0.06442649417491159 -1 0 0
2530 16 59.20209172058876 2.290212781555194 1.143749158984619 -1 0 0
2536 14 61.758103669066855 2.613573365519073 1.202852996175916 -1 0 0
2542 16 64.47114788969475 2.2902127815551316 1.14374915898456 -1 0 0
2538 4 60.53596933070178 2.2441151598873965 -0.1796940293895778 -1 0 0
2544 12 63.228197159449095 3.0420108466859386 0.0655678473879932 -1 0 0
2757 10 59.27637553932175 5.323529752308753 0.06442649417491202 -1 0 0
2761 13 61.22271656730919 4.84554839459773 1.1745906105884487 -1 0 0
2763 2 61.95666432377691 5.297594308329548 0.06295454118142248 -1 0 0
2767 15 63.18145172503603 4.589192445905901 1.3013160300926332 -1 0 0
2769 10 64.54543170842777 5.323529752308753 0.06442649417491182 -1 0 0
2528 9 59.34236622938269 0.25784091298522727 2.9260180061835235 -1 0 0
2534 1 62.177856647011126 0.5547715133200786 2.7673577273707606 -1 0 0
2540 9 64.61142239848863 0.2578409129851986 2.9260180061834378 -1 0 0
2537 3 60.329328297318675 3.463244725743022 2.0827603281719544 -1 0 0
2543 11 62.9473842184958 3.435831178333104 2.4357932724479885 -1 0 0
2756 9 59.342366229382556 4.820977409398859 2.9260180061834595 -1 0 0
2762 1 62.17785664701117 5.117908009734253 2.767357727370413 -1 0 0
2768 9 64.61142239848854 4.820977409398933 2.926018006183422 -1 0 0
2547 2 67.22572049288291 0.7344578119155557 0.06295454118141637 -1 0 0
2545 13 66.49177273641513 0.2824118981836602 1.1745906105884791 -1 0 0
2551 15 68.450507894142 0.02605594949190356 1.301316030092638 -1 0 0
2553 10 69.81448787753376 0.7603932558947577 0.06442649417491117 -1 0 0
2548 14 67.02715983817285 2.6135733655190796 1.2028529961758911 -1 0 0
2554 16 69.7402040588008 2.2902127815550744 1.143749158984485 -1 0 0
2550 4 65.80502549980783 2.244115159887226 -0.17969402938961523 -1 0 0
2556 12 68.49725332855512 3.0420108466859386 0.06556784738799278 -1 0 0
2775 2 67.22572049288289 5.297594308329545 0.06295454118142671 -1 0 0
2773 13 66.49177273641519 4.845548394597759 1.174590610588479 -1 0 0
2779 15 68.45050789414202 4.589192445905906 1.3013160300926285 -1 0 0
2781 10 69.81448787753376 5.323529752308753 0.0644264941749114 -1 0 0
2546 1 67.44691281611696 0.5547715133202443 2.767357727370787 -1 0 0
2552 9 69.88047856759496 0.25784091298541606 2.926018006183795 -1 0 0
2549 3 65.59838446642458 3.4632447257429906 2.0827603281719282 -1 0 0
2555 11 68.21644038760172 3.4358311783331734 2.435793272447987 -1 0 0
2774 1 67.4469128161171 5.117908009734272 2.7673577273705545 -1 0 0
2780 9 69.88047856759472 4.820977409399112 2.926018006183592 -1 0 0
2557 13 71.76082890552136 0.28241189818367535 1.1745906105885384 -1 0 0
2559 2 72.4947766619889 0.7344578119155497 0.06295454118142636 -1 0 0
2563 15 73.71956406324803 0.0260559494919097 1.3013160300926288 -1 0 0
2565 10 75.08354404663977 0.7603932558947576 0.06442649417491174 -1 0 0
2560 14 72.29621600727884 2.6135733655190254 1.2028529961757986 -1 0 0
2566 16 75.00926022790678 2.290212781555095 1.1437491589845614 -1 0 0
2562 4 71.07408166891379 2.244115159887386 -0.17969402938974777 -1 0 0
2568 12 73.76630949766111 3.0420108466859386 0.0655678473879931 -1 0 0
2574 4 76.34313783801987 2.2441151598870617 -0.17969402938964896 -1 0 0
2785 13 71.7608289055212 4.845548394597674 1.1745906105884598 -1 0 0
2787 2 72.49477666198891 5.297594308329546 0.06295454118142796 -1 0 0
2791 15 73.71956406324801 4.589192445905906 1.3013160300926279 -1 0 0
2793 10 75.08354404663977 5.323529752308753 0.0644264941749117 -1 0 0
2558 1 72.71596898522311 0.5547715133199529 2.767357727370855 -1 0 0
2564 9 75.1495347367006 0.2578409129851788 2.9260180061834085 -1 0 0
2561 3 70.86744063553064 3.463244725742973 2.082760328171897 -1 0 0
2567 11 73.48549655670779 3.4358311783331543 2.4357932724479467 -1 0 0
2573 3 76.13649680463665 3.4632447257429924 2.082760328171878 -1 0 0
2786 1 72.71596898522309 5.117908009734196 2.767357727370578 -1 0 0
2792 9 75.14953473670063 4.820977409399131 2.926018006183484 -1 0 0
2569 13 77.02988507462722 0.28241189818362616 1.1745906105885235 -1 0 0
2797 13 77.02988507462723 4.845548394597712 1.1745906105885044 -1 0 0
2571 2 77.76383283109492 0.7344578119155523 0.06295454118142259 -1 0 0
2575 15 78.98862023235401 0.026055949491907277 1.3013160300926345 -1 0 0
2577 10 80.35260021574577 0.7603932558947576 0.06442649417491177 -1 0 0
2581 13 82.29894124373325 0.2824118981837041 1.174590610588529 -1 0 0
2572 14 77.56527217638487 2.6135733655189903 1.2028529961758514 -1 0 0
2578 16 80.2783163970128 2.290212781555112 1.143749158984592 -1 0 0
2580 12 79.0353656667671 3.0420108466859386 0.06556784738799327 -1 0 0
2586 4 81.61219400712582 2.244115159887008 -0.1796940293896174 -1 0 0
2799 2 77.76383283109492 5.297594308329549 0.06295454118142206 -1 0 0
2803 15 78.98862023235401 4.589192445905904 1.3013160300926347 -1 0 0
2805 10 80.35260021574577 5.323529752308753 0.06442649417491189 -1 0 0
2809 13 82.29894124373327 4.8455483945977385 1.1745906105885133 -1 0 0
2570 1 77.985025154329 0.5547715133201697 2.7673577273707015 -1 0 0
2576 9 80.41859090580668 0.2578409129851409 2.926018006183569 -1 0 0
2579 11 78.75455272581377 3.4358311783331343 2.435793272447976 -1 0 0
2585 3 81.40555297374269 3.463244725743073 2.082760328171858 -1 0 0
2798 1 77.98502515432905 5.117908009734168 2.767357727370672 -1 0 0
2804 9 80.41859090580665 4.8209774093990845 2.926018006183524 -1 0 0
2583 2 83.03288900020092 0.7344578119155525 0.06295454118142194 -1 0 0
2587 15 84.25767640146002 0.026055949491907066 1.3013160300926339 -1 0 0
2589 10 85.62165638485176 0.7603932558947577 0.06442649417491189 -1 0 0
2593 13 87.56799741283922 0.2824118981837154 1.1745906105884751 -1 0 0
2595 2 88.30194516930689 0.7344578119155528 0.06295454118142142 -1 0 0
2584 14 82.83432834549093 2.613573365519015 1.2028529961758512 -1 0 0
2590 16 85.5473725661188 2.2902127815552187 1.1437491589846043 -1 0 0
2596 14 88.10338451459691 2.613573365519065 1.202852996175891 -1 0 0
2592 12 84.3044218358731 3.0420108466859386 0.06556784738799341 -1 0 0
2598 4 86.88125017623184 2.2441151598871625 -0.17969402938957751 -1 0 0
2811 2 83.03288900020091 5.29759430832955 0.06295454118141715 -1 0 0
2815 15 84.25767640146002 4.5891924459058995 1.3013160300926403 -1 0 0
2817 10 85.62165638485176 5.323529752308753 0.06442649417491209 -1 0 0
2821 13 87.56799741283925 4.845548394597756 1.1745906105885078 -1 0 0
2823 2 88.30194516930689 5.2975943083295505 0.06295454118142181 -1 0 0
2582 1 83.25408132343509 0.5547715133201374 2.7673577273706327 -1 0 0
2588 9 85.6876470749126 0.25784091298504447 2.926018006183472 -1 0 0
2591 11 84.02360889491985 3.4358311783330846 2.4357932724479765 -1 0 0
2597 3 86.67460914284868 3.463244725743029 2.0827603281719433 -1 0 0
2810 1 83.25408132343512 5.117908009734125 2.767357727370633 -1 0 0
2816 9 85.68764707491253 4.820977409398936 2.9260180061834093 -1 0 0
2594 1 88.52313749254111 0.5547715133202028 2.7673577273706034 -1 0 0
2822 1 88.52313749254115 5.11790800973421 2.767357727370513 -1 0 0
2599 15 89.52673257056601 0.02605594949190665 1.3013160300926345 -1 0 0
2601 10 90.89071255395777 0.7603932558947577 0.06442649417491153 -1 0 0
2605 13 92.83705358194516 0.2824118981837135 1.1745906105884865 -1 0 0
2607 2 93.5710013384129 0.73445781191555 0.06295454118142609 -1 0 0
2602 16 90.81642873522475 2.2902127815551414 1.1437491589845814 -1 0 0
2608 14 93.37244068370283 2.613573365519082 1.2028529961758834 -1 0 0
2604 12 89.57347800497911 3.0420108466859386 0.06556784738799312 -1 0 0
2610 4 92.15030634533785 2.244115159887287 -0.17969402938963533 -1 0 0
2827 15 89.52673257056601 4.589192445905902 1.3013160300926343 -1 0 0
2829 10 90.89071255395777 5.323529752308753 0.06442649417491174 -1 0 0
2833 13 92.83705358194517 4.845548394597741 1.1745906105884698 -1 0 0
2835 2 93.57100133841291 5.297594308329546 0.0629545411814278 -1 0 0
2600 9 90.95670324401864 0.2578409129851135 2.9260180061834995 -1 0 0
2606 1 93.79219366164705 0.5547715133202394 2.7673577273707584 -1 0 0
2603 11 89.29266506402581 3.435831178333105 2.435793272447959 -1 0 0
2609 3 91.94366531195462 3.463244725742958 2.082760328171929 -1 0 0
2828 9 90.95670324401856 4.820977409398931 2.9260180061833942 -1 0 0
2834 1 93.79219366164708 5.11790800973429 2.7673577273705456 -1 0 0
2623 15 100.06484490877803 0.02605594949190959 1.3013160300926283 -1 0 0
2628 12 100.11159034319111 3.0420108466859386 0.06556784738799319 -1 0 0
2851 15 100.06484490877801 4.5891924459059075 1.3013160300926294 -1 0 0
2627 11 99.83077740223784 3.4358311783331272 2.4357932724479348 -1 0 0
2611 15 94.79578873967203 0.02605594949190961 1.3013160300926283 -1 0 0
2613 10 96.15976872306378 0.7603932558947577 0.0644264941749112 -1 0 0
2617 13 98.10610975105129 0.2824118981836769 1.1745906105885473 -1 0 0
2619 2 98.84005750751889 0.7344578119155499 0.06295454118142609 -1 0 0
2614 16 96.08548490433084 2.2902127815551325 1.1437491589845001 -1 0 0
2620 14 98.64149685280891 2.6135733655190396 1.2028529961757854 -1 0 0
2616 12 94.84253417408512 3.0420108466859386 0.06556784738799293 -1 0 0
2622 4 97.41936251444379 2.2441151598873565 -0.1796940293897465 -1 0 0
2839 15 94.79578873967203 4.589192445905906 1.3013160300926279 -1 0 0
2841 10 96.15976872306378 5.323529752308753 0.06442649417491154 -1 0 0
2845 13 98.10610975105124 4.845548394597693 1.174590610588458 -1 0 0
2847 2 98.8400575075189 5.297594308329545 0.0629545411814272 -1 0 0
2612 9 96.22575941312489 0.257840912985457 2.926018006183712 -1 0 0
2618 1 99.06124983075306 0.5547715133200477 2.767357727370948 -1 0 0
2615 11 94.56172123313173 3.4358311783332045 2.435793272447989 -1 0 0
2621 3 97.21272148106061 3.463244725743019 2.082760328171912 -1 0 0
2840 9 96.22575941312479 4.820977409399095 2.926018006183636 -1 0 0
2846 1 99.06124983075308 5.117908009734158 2.767357727370552 -1 0 0
2854 16 1.2424738604227936 6.853349277969212 1.1437491589846436 0 0 0
2860 14 3.7984858089009133 7.1767098619329674 1.2028529961759433 0 0 0
2862 4 2.576351470535837 6.8072516563010765 -0.17969402938952844 0 0 0
2868 12 5.268579299283107 7.605147343099933 0.06556784738799341 0 0 0
3081 10 1.3167576791557556 9.88666624872276 0.06442649417491202 0 0 0
3085 13 3.2630987071432305 9.40868489101169 1.174590610588477 0 0 0
3087 2 3.9970464636109098 9.860730804743552 0.06295454118142248 0 0 0
3091 15 5.221833864870029 9.15232894231991 1.3013160300926339 0 0 0
3082 16 1.2424738604227843 11.416485774383302 1.143749158984706 0 0 0
3088 14 3.798485808900915 11.739846358347085 1.2028529961760128 0 0 0
2861 3 2.369710437152704 8.026381222157015 2.0827603281719793 0 0 0
2867 11 4.98776635832979 7.998967674747096 2.4357932724479716 0 0 0
3080 9 1.382748369216533 9.384113905812997 2.9260180061833845 0 0 0
3086 1 4.218238786845092 9.681044506148169 2.7673577273705527 0 0 0
3090 4 2.5763514705357813 11.37038815271529 -0.17969402938946316 0 0 0
2866 16 6.511530029528779 6.853349277969148 1.14374915898465 0 0 0
2872 14 9.067541978006918 7.176709861932985 1.2028529961759953 0 0 0
2874 4 7.8454076396418975 6.807251656300971 -0.17969402938946985 0 0 0
2880 12 10.537635468389102 7.605147343099933 0.06556784738799339 0 0 0
3093 10 6.585813848261748 9.88666624872276 0.06442649417491204 0 0 0
3097 13 8.532154876249209 9.408684891011728 1.174590610588439 0 0 0
3099 2 9.26610263271691 9.86073080474355 0.06295454118142246 0 0 0
3103 15 10.49089003397603 9.152328942319901 1.3013160300926336 0 0 0
3094 16 6.511530029528756 11.416485774383228 1.143749158984709 0 0 0
3100 14 9.067541978006881 11.739846358347053 1.2028529961760634 0 0 0
2873 3 7.638766606258672 8.026381222157 2.0827603281719416 0 0 0
2879 11 10.256822527435764 7.998967674747128 2.435793272447994 0 0 0
3092 9 6.6518045383225655 9.384113905812908 2.9260180061834276 0 0 0
3098 1 9.487294955951088 9.68104450614821 2.767357727370537 0 0 0
3102 4 7.845407639641843 11.370388152715249 -0.17969402938942736 0 0 0
2878 16 11.780586198634806 6.853349277969157 1.1437491589846513 0 0 0
2884 14 14.336598147112957 7.176709861933019 1.2028529961759429 0 0 0
2890 16 17.049642367740788 6.853349277969204 1.1437491589846704 0 0 0
2886 4 13.114463808747859 6.8072516563008945 -0.17969402938948453 0 0 0
2892 12 15.806691637495096 7.605147343099933 0.06556784738799334 0 0 0
3105 10 11.854870017367745 9.88666624872276 0.06442649417491196 0 0 0
3109 13 13.801211045355275 9.40868489101177 1.1745906105884734 0 0 0
3111 2 14.535158801822908 9.860730804743548 0.06295454118142316 0 0 0
3117 10 17.123926186473756 9.88666624872276 0.06442649417491186 0 0 0
3115 15 15.759946203082027 9.152328942319905 1.3013160300926325 0 0 0
3106 16 11.780586198634806 11.416485774383224 1.1437491589847057 0 0 0
3112 14 14.336598147112943 11.739846358347062 1.2028529961759868 0 0 0
3118 16 17.04964236774078 11.41648577438327 1.1437491589847293 0 0 0
2885 3 12.907822775364686 8.026381222157063 2.0827603281718887 0 0 0
2891 11 15.52587869654183 7.998967674747066 2.435793272447961 0 0 0
3104 9 11.920860707428616 9.384113905812965 2.9260180061835093 0 0 0
3110 1 14.756351125057138 9.681044506148142 2.7673577273705594 0 0 0
3116 9 17.189916876534515 9.384113905812873 2.9260180061833934 0 0 0
3114 4 13.1144638087478 11.37038815271514 -0.1796940293894586 0 0 0
2896 14 19.605654316218935 7.176709861932992 1.2028529961760368 0 0 0
2902 16 22.318698536846778 6.853349277969175 1.1437491589846749 0 0 0
2898 4 18.383519977853897 6.807251656300977 -0.1796940293894308 0 0 0
2904 12 21.075747806601107 7.605147343099933 0.06556784738799341 0 0 0
3121 13 19.07026721446121 9.408684891011728 1.1745906105884434 0 0 0
3123 2 19.80421497092891 9.860730804743556 0.06295454118142356 0 0 0
3127 15 21.029002372188028 9.152328942319906 1.3013160300926316 0 0 0
3129 10 22.39298235557975 9.88666624872276 0.0644264941749121 0 0 0
3124 14 19.605654316218907 11.739846358347066 1.2028529961760706 0 0 0
3130 16 22.318698536846785 11.416485774383252 1.1437491589847284 0 0 0
2897 3 18.176878944470676 8.026381222157013 2.0827603281719713 0 0 0
2903 11 20.794934865647782 7.9989676747471155 2.435793272447988 0 0 0
3122 1 20.025407294163095 9.681044506148206 2.767357727370497 0 0 0
3128 9 22.45897304564055 9.384113905812892 2.9260180061834413 0 0 0
2909 3 23.44593511357668 8.026381222157037 2.08276032817192 0 0 0
3126 4 18.38351997785384 11.370388152715236 -0.17969402938941129 0 0 0
2908 14 24.874710485324915 7.176709861933027 1.2028529961759817 0 0 0
2914 16 27.587754705952772 6.853349277969148 1.143749158984667 0 0 0
2910 4 23.652576146959845 6.807251656301022 -0.17969402938946558 0 0 0
2916 12 26.3448039757071 7.605147343099933 0.06556784738799341 0 0 0
2922 4 28.921632316065903 6.807251656300944 -0.17969402938944246 0 0 0
3133 13 24.339323383567244 9.408684891011763 1.1745906105884478 0 0 0
3135 2 25.07327114003492 9.860730804743554 0.06295454118142053 0 0 0
3139 15 26.29805854129403 9.152328942319906 1.301316030092636 0 0 0
3141 10 27.66203852468576 9.88666624872276 0.06442649417491202 0 0 0
3136 14 24.874710485324933 11.739846358347085 1.2028529961760435 0 0 0
3142 16 27.587754705952765 11.416485774383235 1.1437491589847086 0 0 0
2915 11 26.0639910347538 7.998967674747089 2.4357932724479876 0 0 0
2921 3 28.714991282682668 8.026381222157003 2.0827603281719536 0 0 0
3134 1 25.294463463269143 9.6810445061482 2.767357727370502 0 0 0
3140 9 27.728029214746552 9.384113905812903 2.926018006183416 0 0 0
3138 4 23.652576146959827 11.370388152715153 -0.17969402938941448 0 0 0