LAMMPS data file via write_data, version 29 Aug 2024, timestep = 0, units = metal

2240 atoms
8 atom types

0 95.5611038966 xlo xhi
0 100.9874026581 ylo yhi
0 17.10979291 zlo zhi

Masses

1 28.085
2 28.085
3 28.085
4 28.085
5 78.95999999999999
6 78.95999999999999
7 78.95999999999999
8 78.971

Atoms # atomic

1163 5 0 1.8033414505610068 0.1325905006000001 0 0 0
1162 2 3.081246660779996 7.105427357601002e-15 0 0 0 0
1167 7 4.778055194829996 1.8033414505610068 0.1325905006000001 0 0 0
1166 4 7.859301855609999 7.105427357601002e-15 0 0 0 0
1171 5 9.556110389659999 1.8033414505610068 0.1325905006000001 0 0 0
1170 2 12.637357050440002 7.105427357601002e-15 0 0 0 0
1175 7 14.334165584490002 1.8033414505610068 0.1325905006000001 0 0 0
1174 4 17.415412245270005 7.105427357601002e-15 0 0 0 0
1179 5 19.112220779319998 1.8033414505610068 0.1325905006000001 0 0 0
1178 2 22.193467440099994 7.105427357601002e-15 0 0 0 0
1183 7 23.89027597415 1.8033414505610068 0.1325905006000001 0 0 0
1182 4 26.971522634929997 7.105427357601002e-15 0 0 0 0
1187 5 28.668331168980004 1.8033414505610068 0.1325905006000001 0 0 0
1186 2 31.74957782976 7.105427357601002e-15 0 0 0 0
1191 7 33.44638636380999 1.8033414505610068 0.1325905006000001 0 0 0
1190 4 36.52763302459 7.105427357601002e-15 0 0 0 0
1195 5 38.224441558639995 1.8033414505610068 0.1325905006000001 0 0 0
1194 2 41.305688219420006 7.105427357601002e-15 0 0 0 0
1199 7 43.00249675347 1.8033414505610068 0.1325905006000001 0 0 0
1198 4 46.083743414249994 7.105427357601002e-15 0 0 0 0
1123 5 47.7805519483 1.8033414505610068 0.1325905006000001 -1 0 0
1122 2 50.861798609080004 7.105427357601002e-15 0 -1 0 0
1127 7 52.558607143130004 1.8033414505610068 0.1325905006000001 -1 0 0
1126 4 55.63985380391 7.105427357601002e-15 0 -1 0 0
1131 5 57.33666233796 1.8033414505610068 0.1325905006000001 -1 0 0
1130 2 60.41790899874 7.105427357601002e-15 0 -1 0 0
1135 7 62.11471753279 1.8033414505610068 0.1325905006000001 -1 0 0
1134 4 65.19596419357 7.105427357601002e-15 0 -1 0 0
1139 5 66.89277272762 1.8033414505610068 0.1325905006000001 -1 0 0
1138 2 69.9740193884 7.105427357601002e-15 0 -1 0 0
1143 7 71.67082792245 1.8033414505610068 0.1325905006000001 -1 0 0
1142 4 74.75207458323 7.105427357601002e-15 0 -1 0 0
1147 5 76.44888311728 1.8033414505610068 0.1325905006000001 -1 0 0
1146 2 79.53012977806 7.105427357601002e-15 0 -1 0 0
1151 7 81.22693831211001 1.8033414505610068 0.1325905006000001 -1 0 0
1150 4 84.30818497289 7.105427357601002e-15 0 -1 0 0
1155 5 86.00499350694 1.8033414505610068 0.1325905006000001 -1 0 0
1154 2 89.08624016772 7.105427357601002e-15 0 -1 0 0
1159 7 90.78304870177 1.8033414505610068 0.1325905006000001 -1 0 0
1158 4 93.86429536255 7.105427357601002e-15 0 -1 0 0
1242 2 3.081246660779996 3.606692952075001 0 0 0 0
1246 4 7.859301855609999 3.606692952075001 0 0 0 0
1250 2 12.637357050440002 3.606692952075001 0 0 0 0
1254 4 17.415412245270005 3.606692952075001 0 0 0 0
1258 2 22.193467440099994 3.606692952075001 0 0 0 0
1262 4 26.971522634929997 3.606692952075001 0 0 0 0
1266 2 31.74957782976 3.606692952075001 0 0 0 0
1270 4 36.52763302459 3.606692952075001 0 0 0 0
1274 2 41.305688219420006 3.606692952075001 0 0 0 0
1278 4 46.083743414249994 3.606692952075001 0 0 0 0
1202 2 50.861798609080004 3.606692952075001 0 -1 0 0
1206 4 55.63985380391 3.606692952075001 0 -1 0 0
1210 2 60.41790899874 3.606692952075001 0 -1 0 0
1214 4 65.19596419357 3.606692952075001 0 -1 0 0
1218 2 69.9740193884 3.606692952075001 0 -1 0 0
1222 4 74.75207458323 3.606692952075001 0 -1 0 0
1226 2 79.53012977806 3.606692952075001 0 -1 0 0
1230 4 84.30818497289 3.606692952075001 0 -1 0 0
1234 2 89.08624016772 3.606692952075001 0 -1 0 0
1238 4 93.86429536255 3.606692952075001 0 -1 0 0
1243 5 0 5.4100344026360006 0.1325905006000001 0 0 0
1247 7 4.778055194829996 5.4100344026360006 0.1325905006000001 0 0 0
1251 5 9.556110389659999 5.4100344026360006 0.1325905006000001 0 0 0
1255 7 14.334165584490002 5.4100344026360006 0.1325905006000001 0 0 0
1259 5 19.112220779319998 5.4100344026360006 0.1325905006000001 0 0 0
1263 7 23.89027597415 5.4100344026360006 0.1325905006000001 0 0 0
1267 5 28.668331168980004 5.4100344026360006 0.1325905006000001 0 0 0
1271 7 33.44638636380999 5.4100344026360006 0.1325905006000001 0 0 0
1275 5 38.224441558639995 5.4100344026360006 0.1325905006000001 0 0 0
1279 7 43.00249675347 5.4100344026360006 0.1325905006000001 0 0 0
1203 5 47.7805519483 5.4100344026360006 0.1325905006000001 -1 0 0
1207 7 52.558607143130004 5.4100344026360006 0.1325905006000001 -1 0 0
1211 5 57.33666233796 5.4100344026360006 0.1325905006000001 -1 0 0
1215 7 62.11471753279 5.4100344026360006 0.1325905006000001 -1 0 0
1219 5 66.89277272762 5.4100344026360006 0.1325905006000001 -1 0 0
1223 7 71.67082792245 5.4100344026360006 0.1325905006000001 -1 0 0
1227 5 76.44888311728 5.4100344026360006 0.1325905006000001 -1 0 0
1231 7 81.22693831211001 5.4100344026360006 0.1325905006000001 -1 0 0
1235 5 86.00499350694 5.4100344026360006 0.1325905006000001 -1 0 0
1239 7 90.78304870177 5.4100344026360006 0.1325905006000001 -1 0 0
1322 2 3.081246660779996 7.213385904150002 0 0 0 0
1326 4 7.859301855609999 7.213385904150002 0 0 0 0
1330 2 12.637357050440002 7.213385904150002 0 0 0 0
1334 4 17.415412245270005 7.213385904150002 0 0 0 0
1338 2 22.193467440099994 7.213385904150002 0 0 0 0
1342 4 26.971522634929997 7.213385904150002 0 0 0 0
1346 2 31.74957782976 7.213385904150002 0 0 0 0
1350 4 36.52763302459 7.213385904150002 0 0 0 0
1354 2 41.305688219420006 7.213385904150002 0 0 0 0
1358 4 46.083743414249994 7.213385904150002 0 0 0 0
1282 2 50.861798609080004 7.213385904150002 0 -1 0 0
1286 4 55.63985380391 7.213385904150002 0 -1 0 0
1290 2 60.41790899874 7.213385904150002 0 -1 0 0
1294 4 65.19596419357 7.213385904150002 0 -1 0 0
1298 2 69.9740193884 7.213385904150002 0 -1 0 0
1302 4 74.75207458323 7.213385904150002 0 -1 0 0
1306 2 79.53012977806 7.213385904150002 0 -1 0 0
1310 4 84.30818497289 7.213385904150002 0 -1 0 0
1314 2 89.08624016772 7.213385904150002 0 -1 0 0
1318 4 93.86429536255 7.213385904150002 0 -1 0 0
1323 5 0 9.016727354711001 0.1325905006000001 0 0 0
1327 7 4.778055194829996 9.016727354711001 0.1325905006000001 0 0 0
1331 5 9.556110389659999 9.016727354711001 0.1325905006000001 0 0 0
1335 7 14.334165584490002 9.016727354711001 0.1325905006000001 0 0 0
1339 5 19.112220779319998 9.016727354711001 0.1325905006000001 0 0 0
1343 7 23.89027597415 9.016727354711001 0.1325905006000001 0 0 0
1347 5 28.668331168980004 9.016727354711001 0.1325905006000001 0 0 0
1351 7 33.44638636380999 9.016727354711001 0.1325905006000001 0 0 0
1355 5 38.224441558639995 9.016727354711001 0.1325905006000001 0 0 0
1359 7 43.00249675347 9.016727354711001 0.1325905006000001 0 0 0
1283 5 47.7805519483 9.016727354711001 0.1325905006000001 -1 0 0
1287 7 52.558607143130004 9.016727354711001 0.1325905006000001 -1 0 0
1291 5 57.33666233796 9.016727354711001 0.1325905006000001 -1 0 0
1295 7 62.11471753279 9.016727354711001 0.1325905006000001 -1 0 0
1299 5 66.89277272762 9.016727354711001 0.1325905006000001 -1 0 0
1303 7 71.67082792245 9.016727354711001 0.1325905006000001 -1 0 0
1307 5 76.44888311728 9.016727354711001 0.1325905006000001 -1 0 0
1311 7 81.22693831211001 9.016727354711001 0.1325905006000001 -1 0 0
1315 5 86.00499350694 9.016727354711001 0.1325905006000001 -1 0 0
1319 7 90.78304870177 9.016727354711001 0.1325905006000001 -1 0 0
1402 2 3.081246660779996 10.820078856225003 0 0 0 0
1406 4 7.859301855609999 10.820078856225003 0 0 0 0
1410 2 12.637357050440002 10.820078856225003 0 0 0 0
1414 4 17.415412245270005 10.820078856225003 0 0 0 0
1418 2 22.193467440099994 10.820078856225003 0 0 0 0
1422 4 26.971522634929997 10.820078856225003 0 0 0 0
1426 2 31.74957782976 10.820078856225003 0 0 0 0
1430 4 36.52763302459 10.820078856225003 0 0 0 0
1434 2 41.305688219420006 10.820078856225003 0 0 0 0
1438 4 46.083743414249994 10.820078856225003 0 0 0 0
1362 2 50.861798609080004 10.820078856225003 0 -1 0 0
1366 4 55.63985380391 10.820078856225003 0 -1 0 0
1370 2 60.41790899874 10.820078856225003 0 -1 0 0
1374 4 65.19596419357 10.820078856225003 0 -1 0 0
1378 2 69.9740193884 10.820078856225003 0 -1 0 0
1382 4 74.75207458323 10.820078856225003 0 -1 0 0
1386 2 79.53012977806 10.820078856225003 0 -1 0 0
1390 4 84.30818497289 10.820078856225003 0 -1 0 0
1394 2 89.08624016772 10.820078856225003 0 -1 0 0
1398 4 93.86429536255 10.820078856225003 0 -1 0 0
1403 5 0 12.62342030678601 0.1325905006000001 0 0 0
1407 7 4.778055194829996 12.62342030678601 0.1325905006000001 0 0 0
1411 5 9.556110389659999 12.62342030678601 0.1325905006000001 0 0 0
1415 7 14.334165584490002 12.62342030678601 0.1325905006000001 0 0 0
1419 5 19.112220779319998 12.62342030678601 0.1325905006000001 0 0 0
1423 7 23.89027597415 12.62342030678601 0.1325905006000001 0 0 0
1427 5 28.668331168980004 12.62342030678601 0.1325905006000001 0 0 0
1431 7 33.44638636380999 12.62342030678601 0.1325905006000001 0 0 0
1435 5 38.224441558639995 12.62342030678601 0.1325905006000001 0 0 0
1439 7 43.00249675347 12.62342030678601 0.1325905006000001 0 0 0
1363 5 47.7805519483 12.62342030678601 0.1325905006000001 -1 0 0
1367 7 52.558607143130004 12.62342030678601 0.1325905006000001 -1 0 0
1371 5 57.33666233796 12.62342030678601 0.1325905006000001 -1 0 0
1375 7 62.11471753279 12.62342030678601 0.1325905006000001 -1 0 0
1379 5 66.89277272762 12.62342030678601 0.1325905006000001 -1 0 0
1383 7 71.67082792245 12.62342030678601 0.1325905006000001 -1 0 0
1387 5 76.44888311728 12.62342030678601 0.1325905006000001 -1 0 0
1391 7 81.22693831211001 12.62342030678601 0.1325905006000001 -1 0 0
1395 5 86.00499350694 12.62342030678601 0.1325905006000001 -1 0 0
1399 7 90.78304870177 12.62342030678601 0.1325905006000001 -1 0 0
1482 2 3.081246660779996 14.42677180830001 0 0 0 0
1486 4 7.859301855609999 14.42677180830001 0 0 0 0
1490 2 12.637357050440002 14.42677180830001 0 0 0 0
1494 4 17.415412245270005 14.42677180830001 0 0 0 0
1498 2 22.193467440099994 14.42677180830001 0 0 0 0
1502 4 26.971522634929997 14.42677180830001 0 0 0 0
1506 2 31.74957782976 14.42677180830001 0 0 0 0
1510 4 36.52763302459 14.42677180830001 0 0 0 0
1514 2 41.305688219420006 14.42677180830001 0 0 0 0
1518 4 46.083743414249994 14.42677180830001 0 0 0 0
1442 2 50.861798609080004 14.42677180830001 0 -1 0 0
1446 4 55.63985380391 14.42677180830001 0 -1 0 0
1450 2 60.41790899874 14.42677180830001 0 -1 0 0
1454 4 65.19596419357 14.42677180830001 0 -1 0 0
1458 2 69.9740193884 14.42677180830001 0 -1 0 0
1462 4 74.75207458323 14.42677180830001 0 -1 0 0
1466 2 79.53012977806 14.42677180830001 0 -1 0 0
1470 4 84.30818497289 14.42677180830001 0 -1 0 0
1474 2 89.08624016772 14.42677180830001 0 -1 0 0
1478 4 93.86429536255 14.42677180830001 0 -1 0 0
1483 5 0 16.230113258861003 0.1325905006000001 0 0 0
1487 7 4.778055194829996 16.230113258861003 0.1325905006000001 0 0 0
1491 5 9.556110389659999 16.230113258861003 0.1325905006000001 0 0 0
1495 7 14.334165584490002 16.230113258861003 0.1325905006000001 0 0 0
1499 5 19.112220779319998 16.230113258861003 0.1325905006000001 0 0 0
1503 7 23.89027597415 16.230113258861003 0.1325905006000001 0 0 0
1507 5 28.668331168980004 16.230113258861003 0.1325905006000001 0 0 0
1511 7 33.44638636380999 16.230113258861003 0.1325905006000001 0 0 0
1515 5 38.224441558639995 16.230113258861003 0.1325905006000001 0 0 0
1519 7 43.00249675347 16.230113258861003 0.1325905006000001 0 0 0
1443 5 47.7805519483 16.230113258861003 0.1325905006000001 -1 0 0
1447 7 52.558607143130004 16.230113258861003 0.1325905006000001 -1 0 0
1451 5 57.33666233796 16.230113258861003 0.1325905006000001 -1 0 0
1455 7 62.11471753279 16.230113258861003 0.1325905006000001 -1 0 0
1459 5 66.89277272762 16.230113258861003 0.1325905006000001 -1 0 0
1463 7 71.67082792245 16.230113258861003 0.1325905006000001 -1 0 0
1467 5 76.44888311728 16.230113258861003 0.1325905006000001 -1 0 0
1471 7 81.22693831211001 16.230113258861003 0.1325905006000001 -1 0 0
1475 5 86.00499350694 16.230113258861003 0.1325905006000001 -1 0 0
1479 7 90.78304870177 16.230113258861003 0.1325905006000001 -1 0 0
1562 2 3.081246660779996 18.033464760375004 0 0 0 0
1566 4 7.859301855609999 18.033464760375004 0 0 0 0
1570 2 12.637357050440002 18.033464760375004 0 0 0 0
1574 4 17.415412245270005 18.033464760375004 0 0 0 0
1578 2 22.193467440099994 18.033464760375004 0 0 0 0
1582 4 26.971522634929997 18.033464760375004 0 0 0 0
1586 2 31.74957782976 18.033464760375004 0 0 0 0
1590 4 36.52763302459 18.033464760375004 0 0 0 0
1594 2 41.305688219420006 18.033464760375004 0 0 0 0
1598 4 46.083743414249994 18.033464760375004 0 0 0 0
1522 2 50.861798609080004 18.033464760375004 0 -1 0 0
1526 4 55.63985380391 18.033464760375004 0 -1 0 0
1530 2 60.41790899874 18.033464760375004 0 -1 0 0
1534 4 65.19596419357 18.033464760375004 0 -1 0 0
1538 2 69.9740193884 18.033464760375004 0 -1 0 0
1542 4 74.75207458323 18.033464760375004 0 -1 0 0
1546 2 79.53012977806 18.033464760375004 0 -1 0 0
1550 4 84.30818497289 18.033464760375004 0 -1 0 0
1554 2 89.08624016772 18.033464760375004 0 -1 0 0
1558 4 93.86429536255 18.033464760375004 0 -1 0 0
1563 5 0 19.83680621093601 0.1325905006000001 0 0 0
1567 7 4.778055194829996 19.83680621093601 0.1325905006000001 0 0 0
1571 5 9.556110389659999 19.83680621093601 0.1325905006000001 0 0 0
1575 7 14.334165584490002 19.83680621093601 0.1325905006000001 0 0 0
1579 5 19.112220779319998 19.83680621093601 0.1325905006000001 0 0 0
1583 7 23.89027597415 19.83680621093601 0.1325905006000001 0 0 0
1587 5 28.668331168980004 19.83680621093601 0.1325905006000001 0 0 0
1591 7 33.44638636380999 19.83680621093601 0.1325905006000001 0 0 0
1595 5 38.224441558639995 19.83680621093601 0.1325905006000001 0 0 0
1599 7 43.00249675347 19.83680621093601 0.1325905006000001 0 0 0
1523 5 47.7805519483 19.83680621093601 0.1325905006000001 -1 0 0
1527 7 52.558607143130004 19.83680621093601 0.1325905006000001 -1 0 0
1531 5 57.33666233796 19.83680621093601 0.1325905006000001 -1 0 0
1535 7 62.11471753279 19.83680621093601 0.1325905006000001 -1 0 0
1539 5 66.89277272762 19.83680621093601 0.1325905006000001 -1 0 0
1543 7 71.67082792245 19.83680621093601 0.1325905006000001 -1 0 0
1547 5 76.44888311728 19.83680621093601 0.1325905006000001 -1 0 0
1551 7 81.22693831211001 19.83680621093601 0.1325905006000001 -1 0 0
1555 5 86.00499350694 19.83680621093601 0.1325905006000001 -1 0 0
1559 7 90.78304870177 19.83680621093601 0.1325905006000001 -1 0 0
1642 2 3.081246660779996 21.640157712449998 0 0 0 0
1646 4 7.859301855609999 21.640157712449998 0 0 0 0
1650 2 12.637357050440002 21.640157712449998 0 0 0 0
1654 4 17.415412245270005 21.640157712449998 0 0 0 0
1658 2 22.193467440099994 21.640157712449998 0 0 0 0
1662 4 26.971522634929997 21.640157712449998 0 0 0 0
1666 2 31.74957782976 21.640157712449998 0 0 0 0
1670 4 36.52763302459 21.640157712449998 0 0 0 0
1674 2 41.305688219420006 21.640157712449998 0 0 0 0
1678 4 46.083743414249994 21.640157712449998 0 0 0 0
1602 2 50.861798609080004 21.640157712449998 0 -1 0 0
1606 4 55.63985380391 21.640157712449998 0 -1 0 0
1610 2 60.41790899874 21.640157712449998 0 -1 0 0
1614 4 65.19596419357 21.640157712449998 0 -1 0 0
1618 2 69.9740193884 21.640157712449998 0 -1 0 0
1622 4 74.75207458323 21.640157712449998 0 -1 0 0
1626 2 79.53012977806 21.640157712449998 0 -1 0 0
1630 4 84.30818497289 21.640157712449998 0 -1 0 0
1634 2 89.08624016772 21.640157712449998 0 -1 0 0
1638 4 93.86429536255 21.640157712449998 0 -1 0 0
1643 5 0 23.443499163011005 0.1325905006000001 0 0 0
1647 7 4.778055194829996 23.443499163011005 0.1325905006000001 0 0 0
1651 5 9.556110389659999 23.443499163011005 0.1325905006000001 0 0 0
1655 7 14.334165584490002 23.443499163011005 0.1325905006000001 0 0 0
1659 5 19.112220779319998 23.443499163011005 0.1325905006000001 0 0 0
1663 7 23.89027597415 23.443499163011005 0.1325905006000001 0 0 0
1667 5 28.668331168980004 23.443499163011005 0.1325905006000001 0 0 0
1671 7 33.44638636380999 23.443499163011005 0.1325905006000001 0 0 0
1675 5 38.224441558639995 23.443499163011005 0.1325905006000001 0 0 0
1679 7 43.00249675347 23.443499163011005 0.1325905006000001 0 0 0
1603 5 47.7805519483 23.443499163011005 0.1325905006000001 -1 0 0
1607 7 52.558607143130004 23.443499163011005 0.1325905006000001 -1 0 0
1611 5 57.33666233796 23.443499163011005 0.1325905006000001 -1 0 0
1615 7 62.11471753279 23.443499163011005 0.1325905006000001 -1 0 0
1619 5 66.89277272762 23.443499163011005 0.1325905006000001 -1 0 0
1623 7 71.67082792245 23.443499163011005 0.1325905006000001 -1 0 0
1627 5 76.44888311728 23.443499163011005 0.1325905006000001 -1 0 0
1631 7 81.22693831211001 23.443499163011005 0.1325905006000001 -1 0 0
1635 5 86.00499350694 23.443499163011005 0.1325905006000001 -1 0 0
1639 7 90.78304870177 23.443499163011005 0.1325905006000001 -1 0 0
1722 2 3.081246660779996 25.246850664525006 0 0 0 0
1726 4 7.859301855609999 25.246850664525006 0 0 0 0
1730 2 12.637357050440002 25.246850664525006 0 0 0 0
1734 4 17.415412245270005 25.246850664525006 0 0 0 0
1738 2 22.193467440099994 25.246850664525006 0 0 0 0
1742 4 26.971522634929997 25.246850664525006 0 0 0 0
1746 2 31.74957782976 25.246850664525006 0 0 0 0
1750 4 36.52763302459 25.246850664525006 0 0 0 0
1754 2 41.305688219420006 25.246850664525006 0 0 0 0
1758 4 46.083743414249994 25.246850664525006 0 0 0 0
1682 2 50.861798609080004 25.246850664525006 0 -1 0 0
1686 4 55.63985380391 25.246850664525006 0 -1 0 0
1690 2 60.41790899874 25.246850664525006 0 -1 0 0
1694 4 65.19596419357 25.246850664525006 0 -1 0 0
1698 2 69.9740193884 25.246850664525006 0 -1 0 0
1702 4 74.75207458323 25.246850664525006 0 -1 0 0
1706 2 79.53012977806 25.246850664525006 0 -1 0 0
1710 4 84.30818497289 25.246850664525006 0 -1 0 0
1714 2 89.08624016772 25.246850664525006 0 -1 0 0
1718 4 93.86429536255 25.246850664525006 0 -1 0 0
1723 5 0 27.050192115086 0.1325905006000001 0 0 0
1727 7 4.778055194829996 27.050192115086 0.1325905006000001 0 0 0
1731 5 9.556110389659999 27.050192115086 0.1325905006000001 0 0 0
1735 7 14.334165584490002 27.050192115086 0.1325905006000001 0 0 0
1739 5 19.112220779319998 27.050192115086 0.1325905006000001 0 0 0
1743 7 23.89027597415 27.050192115086 0.1325905006000001 0 0 0
1747 5 28.668331168980004 27.050192115086 0.1325905006000001 0 0 0
1751 7 33.44638636380999 27.050192115086 0.1325905006000001 0 0 0
1755 5 38.224441558639995 27.050192115086 0.1325905006000001 0 0 0
1759 7 43.00249675347 27.050192115086 0.1325905006000001 0 0 0
1683 5 47.7805519483 27.050192115086 0.1325905006000001 -1 0 0
1687 7 52.558607143130004 27.050192115086 0.1325905006000001 -1 0 0
1691 5 57.33666233796 27.050192115086 0.1325905006000001 -1 0 0
1695 7 62.11471753279 27.050192115086 0.1325905006000001 -1 0 0
1699 5 66.89277272762 27.050192115086 0.1325905006000001 -1 0 0
1703 7 71.67082792245 27.050192115086 0.1325905006000001 -1 0 0
1707 5 76.44888311728 27.050192115086 0.1325905006000001 -1 0 0
1711 7 81.22693831211001 27.050192115086 0.1325905006000001 -1 0 0
1715 5 86.00499350694 27.050192115086 0.1325905006000001 -1 0 0
1719 7 90.78304870177 27.050192115086 0.1325905006000001 -1 0 0
1802 2 3.081246660779996 28.8535436166 0 0 0 0
1806 4 7.859301855609999 28.8535436166 0 0 0 0
1810 2 12.637357050440002 28.8535436166 0 0 0 0
1814 4 17.415412245270005 28.8535436166 0 0 0 0
1818 2 22.193467440099994 28.8535436166 0 0 0 0
1822 4 26.971522634929997 28.8535436166 0 0 0 0
1826 2 31.74957782976 28.8535436166 0 0 0 0
1830 4 36.52763302459 28.8535436166 0 0 0 0
1834 2 41.305688219420006 28.8535436166 0 0 0 0
1838 4 46.083743414249994 28.8535436166 0 0 0 0
1762 2 50.861798609080004 28.8535436166 0 -1 0 0
1766 4 55.63985380391 28.8535436166 0 -1 0 0
1770 2 60.41790899874 28.8535436166 0 -1 0 0
1774 4 65.19596419357 28.8535436166 0 -1 0 0
1778 2 69.9740193884 28.8535436166 0 -1 0 0
1782 4 74.75207458323 28.8535436166 0 -1 0 0
1786 2 79.53012977806 28.8535436166 0 -1 0 0
1790 4 84.30818497289 28.8535436166 0 -1 0 0
1794 2 89.08624016772 28.8535436166 0 -1 0 0
1798 4 93.86429536255 28.8535436166 0 -1 0 0
1803 5 0 30.656885067161006 0.1325905006000001 0 0 0
1807 7 4.778055194829996 30.656885067161006 0.1325905006000001 0 0 0
1811 5 9.556110389659999 30.656885067161006 0.1325905006000001 0 0 0
1815 7 14.334165584490002 30.656885067161006 0.1325905006000001 0 0 0
1819 5 19.112220779319998 30.656885067161006 0.1325905006000001 0 0 0
1823 7 23.89027597415 30.656885067161006 0.1325905006000001 0 0 0
1827 5 28.668331168980004 30.656885067161006 0.1325905006000001 0 0 0
1831 7 33.44638636380999 30.656885067161006 0.1325905006000001 0 0 0
1835 5 38.224441558639995 30.656885067161006 0.1325905006000001 0 0 0
1839 7 43.00249675347 30.656885067161006 0.1325905006000001 0 0 0
1763 5 47.7805519483 30.656885067161006 0.1325905006000001 -1 0 0
1767 7 52.558607143130004 30.656885067161006 0.1325905006000001 -1 0 0
1771 5 57.33666233796 30.656885067161006 0.1325905006000001 -1 0 0
1775 7 62.11471753279 30.656885067161006 0.1325905006000001 -1 0 0
1779 5 66.89277272762 30.656885067161006 0.1325905006000001 -1 0 0
1783 7 71.67082792245 30.656885067161006 0.1325905006000001 -1 0 0
1787 5 76.44888311728 30.656885067161006 0.1325905006000001 -1 0 0
1791 7 81.22693831211001 30.656885067161006 0.1325905006000001 -1 0 0
1795 5 86.00499350694 30.656885067161006 0.1325905006000001 -1 0 0
1799 7 90.78304870177 30.656885067161006 0.1325905006000001 -1 0 0
1883 5 0 34.263578019236 0.1325905006000001 0 0 0
1882 2 3.081246660779996 32.46023656867501 0 0 0 0
1887 7 4.778055194829996 34.263578019236 0.1325905006000001 0 0 0
1886 4 7.859301855609999 32.46023656867501 0 0 0 0
1891 5 9.556110389659999 34.263578019236 0.1325905006000001 0 0 0
1890 2 12.637357050440002 32.46023656867501 0 0 0 0
1895 7 14.334165584490002 34.263578019236 0.1325905006000001 0 0 0
1894 4 17.415412245270005 32.46023656867501 0 0 0 0
1899 5 19.112220779319998 34.263578019236 0.1325905006000001 0 0 0
1898 2 22.193467440099994 32.46023656867501 0 0 0 0
1903 7 23.89027597415 34.263578019236 0.1325905006000001 0 0 0
1902 4 26.971522634929997 32.46023656867501 0 0 0 0
1907 5 28.668331168980004 34.263578019236 0.1325905006000001 0 0 0
1906 2 31.74957782976 32.46023656867501 0 0 0 0
1911 7 33.44638636380999 34.263578019236 0.1325905006000001 0 0 0
1910 4 36.52763302459 32.46023656867501 0 0 0 0
1915 5 38.224441558639995 34.263578019236 0.1325905006000001 0 0 0
1914 2 41.305688219420006 32.46023656867501 0 0 0 0
1919 7 43.00249675347 34.263578019236 0.1325905006000001 0 0 0
1918 4 46.083743414249994 32.46023656867501 0 0 0 0
1843 5 47.7805519483 34.263578019236 0.1325905006000001 -1 0 0
1842 2 50.861798609080004 32.46023656867501 0 -1 0 0
1847 7 52.558607143130004 34.263578019236 0.1325905006000001 -1 0 0
1846 4 55.63985380391 32.46023656867501 0 -1 0 0
1851 5 57.33666233796 34.263578019236 0.1325905006000001 -1 0 0
1850 2 60.41790899874 32.46023656867501 0 -1 0 0
1855 7 62.11471753279 34.263578019236 0.1325905006000001 -1 0 0
1854 4 65.19596419357 32.46023656867501 0 -1 0 0
1859 5 66.89277272762 34.263578019236 0.1325905006000001 -1 0 0
1858 2 69.9740193884 32.46023656867501 0 -1 0 0
1863 7 71.67082792245 34.263578019236 0.1325905006000001 -1 0 0
1862 4 74.75207458323 32.46023656867501 0 -1 0 0
1867 5 76.44888311728 34.263578019236 0.1325905006000001 -1 0 0
1866 2 79.53012977806 32.46023656867501 0 -1 0 0
1871 7 81.22693831211001 34.263578019236 0.1325905006000001 -1 0 0
1870 4 84.30818497289 32.46023656867501 0 -1 0 0
1875 5 86.00499350694 34.263578019236 0.1325905006000001 -1 0 0
1874 2 89.08624016772 32.46023656867501 0 -1 0 0
1879 7 90.78304870177 34.263578019236 0.1325905006000001 -1 0 0
1878 4 93.86429536255 32.46023656867501 0 -1 0 0
1962 2 3.081246660779996 36.06692952075 0 0 0 0
1966 4 7.859301855609999 36.06692952075 0 0 0 0
1970 2 12.637357050440002 36.06692952075 0 0 0 0
1974 4 17.415412245270005 36.06692952075 0 0 0 0
1978 2 22.193467440099994 36.06692952075 0 0 0 0
1982 4 26.971522634929997 36.06692952075 0 0 0 0
1986 2 31.74957782976 36.06692952075 0 0 0 0
1990 4 36.52763302459 36.06692952075 0 0 0 0
1994 2 41.305688219420006 36.06692952075 0 0 0 0
1998 4 46.083743414249994 36.06692952075 0 0 0 0
1922 2 50.861798609080004 36.06692952075 0 -1 0 0
1926 4 55.63985380391 36.06692952075 0 -1 0 0
1930 2 60.41790899874 36.06692952075 0 -1 0 0
1934 4 65.19596419357 36.06692952075 0 -1 0 0
1938 2 69.9740193884 36.06692952075 0 -1 0 0
1942 4 74.75207458323 36.06692952075 0 -1 0 0
1946 2 79.53012977806 36.06692952075 0 -1 0 0
1950 4 84.30818497289 36.06692952075 0 -1 0 0
1954 2 89.08624016772 36.06692952075 0 -1 0 0
1958 4 93.86429536255 36.06692952075 0 -1 0 0
1963 5 0 37.87027097131101 0.1325905006000001 0 0 0
1967 7 4.778055194829996 37.87027097131101 0.1325905006000001 0 0 0
1971 5 9.556110389659999 37.87027097131101 0.1325905006000001 0 0 0
1975 7 14.334165584490002 37.87027097131101 0.1325905006000001 0 0 0
1979 5 19.112220779319998 37.87027097131101 0.1325905006000001 0 0 0
1983 7 23.89027597415 37.87027097131101 0.1325905006000001 0 0 0
1987 5 28.668331168980004 37.87027097131101 0.1325905006000001 0 0 0
1991 7 33.44638636380999 37.87027097131101 0.1325905006000001 0 0 0
1995 5 38.224441558639995 37.87027097131101 0.1325905006000001 0 0 0
1999 7 43.00249675347 37.87027097131101 0.1325905006000001 0 0 0
1923 5 47.7805519483 37.87027097131101 0.1325905006000001 -1 0 0
1927 7 52.558607143130004 37.87027097131101 0.1325905006000001 -1 0 0
1931 5 57.33666233796 37.87027097131101 0.1325905006000001 -1 0 0
1935 7 62.11471753279 37.87027097131101 0.1325905006000001 -1 0 0
1939 5 66.89277272762 37.87027097131101 0.1325905006000001 -1 0 0
1943 7 71.67082792245 37.87027097131101 0.1325905006000001 -1 0 0
1947 5 76.44888311728 37.87027097131101 0.1325905006000001 -1 0 0
1951 7 81.22693831211001 37.87027097131101 0.1325905006000001 -1 0 0
1955 5 86.00499350694 37.87027097131101 0.1325905006000001 -1 0 0
1959 7 90.78304870177 37.87027097131101 0.1325905006000001 -1 0 0
2042 2 3.081246660779996 39.67362247282501 0 0 0 0
2046 4 7.859301855609999 39.67362247282501 0 0 0 0
2050 2 12.637357050440002 39.67362247282501 0 0 0 0
2054 4 17.415412245270005 39.67362247282501 0 0 0 0
2058 2 22.193467440099994 39.67362247282501 0 0 0 0
2062 4 26.971522634929997 39.67362247282501 0 0 0 0
2066 2 31.74957782976 39.67362247282501 0 0 0 0
2070 4 36.52763302459 39.67362247282501 0 0 0 0
2074 2 41.305688219420006 39.67362247282501 0 0 0 0
2078 4 46.083743414249994 39.67362247282501 0 0 0 0
2002 2 50.861798609080004 39.67362247282501 0 -1 0 0
2006 4 55.63985380391 39.67362247282501 0 -1 0 0
2010 2 60.41790899874 39.67362247282501 0 -1 0 0
2014 4 65.19596419357 39.67362247282501 0 -1 0 0
2018 2 69.9740193884 39.67362247282501 0 -1 0 0
2022 4 74.75207458323 39.67362247282501 0 -1 0 0
2026 2 79.53012977806 39.67362247282501 0 -1 0 0
2030 4 84.30818497289 39.67362247282501 0 -1 0 0
2034 2 89.08624016772 39.67362247282501 0 -1 0 0
2038 4 93.86429536255 39.67362247282501 0 -1 0 0
2043 5 0 41.476963923386 0.1325905006000001 0 0 0
2047 7 4.778055194829996 41.476963923386 0.1325905006000001 0 0 0
2051 5 9.556110389659999 41.476963923386 0.1325905006000001 0 0 0
2055 7 14.334165584490002 41.476963923386 0.1325905006000001 0 0 0
2059 5 19.112220779319998 41.476963923386 0.1325905006000001 0 0 0
2063 7 23.89027597415 41.476963923386 0.1325905006000001 0 0 0
2067 5 28.668331168980004 41.476963923386 0.1325905006000001 0 0 0
2071 7 33.44638636380999 41.476963923386 0.1325905006000001 0 0 0
2075 5 38.224441558639995 41.476963923386 0.1325905006000001 0 0 0
2079 7 43.00249675347 41.476963923386 0.1325905006000001 0 0 0
2003 5 47.7805519483 41.476963923386 0.1325905006000001 -1 0 0
2007 7 52.558607143130004 41.476963923386 0.1325905006000001 -1 0 0
2011 5 57.33666233796 41.476963923386 0.1325905006000001 -1 0 0
2015 7 62.11471753279 41.476963923386 0.1325905006000001 -1 0 0
2019 5 66.89277272762 41.476963923386 0.1325905006000001 -1 0 0
2023 7 71.67082792245 41.476963923386 0.1325905006000001 -1 0 0
2027 5 76.44888311728 41.476963923386 0.1325905006000001 -1 0 0
2031 7 81.22693831211001 41.476963923386 0.1325905006000001 -1 0 0
2035 5 86.00499350694 41.476963923386 0.1325905006000001 -1 0 0
2039 7 90.78304870177 41.476963923386 0.1325905006000001 -1 0 0
2122 2 3.081246660779996 43.2803154249 0 0 0 0
2126 4 7.859301855609999 43.2803154249 0 0 0 0
2130 2 12.637357050440002 43.2803154249 0 0 0 0
2134 4 17.415412245270005 43.2803154249 0 0 0 0
2138 2 22.193467440099994 43.2803154249 0 0 0 0
2142 4 26.971522634929997 43.2803154249 0 0 0 0
2146 2 31.74957782976 43.2803154249 0 0 0 0
2150 4 36.52763302459 43.2803154249 0 0 0 0
2154 2 41.305688219420006 43.2803154249 0 0 0 0
2158 4 46.083743414249994 43.2803154249 0 0 0 0
2082 2 50.861798609080004 43.2803154249 0 -1 0 0
2086 4 55.63985380391 43.2803154249 0 -1 0 0
2090 2 60.41790899874 43.2803154249 0 -1 0 0
2094 4 65.19596419357 43.2803154249 0 -1 0 0
2098 2 69.9740193884 43.2803154249 0 -1 0 0
2102 4 74.75207458323 43.2803154249 0 -1 0 0
2106 2 79.53012977806 43.2803154249 0 -1 0 0
2110 4 84.30818497289 43.2803154249 0 -1 0 0
2114 2 89.08624016772 43.2803154249 0 -1 0 0
2118 4 93.86429536255 43.2803154249 0 -1 0 0
2123 5 0 45.08365687546101 0.1325905006000001 0 0 0
2127 7 4.778055194829996 45.08365687546101 0.1325905006000001 0 0 0
2131 5 9.556110389659999 45.08365687546101 0.1325905006000001 0 0 0
2135 7 14.334165584490002 45.08365687546101 0.1325905006000001 0 0 0
2139 5 19.112220779319998 45.08365687546101 0.1325905006000001 0 0 0
2143 7 23.89027597415 45.08365687546101 0.1325905006000001 0 0 0
2147 5 28.668331168980004 45.08365687546101 0.1325905006000001 0 0 0
2151 7 33.44638636380999 45.08365687546101 0.1325905006000001 0 0 0
2155 5 38.224441558639995 45.08365687546101 0.1325905006000001 0 0 0
2159 7 43.00249675347 45.08365687546101 0.1325905006000001 0 0 0
2083 5 47.7805519483 45.08365687546101 0.1325905006000001 -1 0 0