LAMMPS data file via write_data, version 29 Aug 2024, timestep = 40, units = metal

4480 atoms
16 atom types

0 95.5611038966 xlo xhi
0 100.9874026581 ylo yhi
-50 50 zlo zhi

Masses

1 28.085
2 28.085
3 28.085
4 28.085
5 28.085
6 28.085
7 28.085
8 28.085
9 78.971
10 78.971
11 78.971
12 78.971
13 78.971
14 78.971
15 78.971
16 78.971

Atoms # atomic

1167 11 3.992446013397755 1.8033405975497312 1.163649051709311 0 0 0
1242 2 3.8629358312080355 3.6066926953697607 1.134336154281631 0 0 0
1247 11 3.9924460133977564 5.410033549624719 1.1636490517093105 0 0 0
1161 1 1.6579180936598887 1.8033398257851951 1.286696277397219 0 0 0
1164 10 1.4272495486052552 6.653944282434764e-06 1.3643139622862852 0 0 0
1244 10 1.4272495486052514 3.6066996060192307 1.364313962286295 0 0 0
1241 1 1.6579180936598605 5.410032777860224 1.2866962773972264 0 0 0
1165 3 6.43597328848989 1.803339825785193 1.286696277397224 0 0 0
1245 3 6.435973288489891 5.410032777860225 1.286696277397223 0 0 0
1171 9 8.770501208227758 1.8033405975497312 1.163649051709309 0 0 0
1246 4 8.640991026038044 3.6066926953697607 1.1343361542816293 0 0 0
1251 9 8.770501208227753 5.410033549624719 1.163649051709306 0 0 0
1168 12 6.205304743435258 6.6539442841785555e-06 1.3643139622862914 0 0 0
1169 1 11.214028483319893 1.803339825785193 1.2866962773972224 0 0 0
1172 10 10.983359938265254 6.653944283604735e-06 1.3643139622862877 0 0 0
1248 12 6.205304743435258 3.60669960601923 1.3643139622862974 0 0 0
1252 10 10.983359938265256 3.606699606019229 1.3643139622862968 0 0 0
1249 1 11.214028483319888 5.410032777860227 1.286696277397224 0 0 0
1175 11 13.548556403057761 1.8033405975497312 1.1636490517093108 0 0 0
1250 2 13.419046220868042 3.606692695369761 1.1343361542816301 0 0 0
1255 11 13.54855640305776 5.410033549624719 1.1636490517093072 0 0 0
1173 3 15.992083678149898 1.803339825785193 1.2866962773972221 0 0 0
1176 12 15.761415133095262 6.653944283806652e-06 1.364313962286284 0 0 0
1256 12 15.761415133095253 3.6066996060192276 1.3643139622862939 0 0 0
1253 3 15.992083678149893 5.410032777860224 1.2866962773972221 0 0 0
1254 4 18.197101415698036 3.6066926953697607 1.1343361542816353 0 0 0
1179 9 18.32661159788775 1.80334059754973 1.163649051709318 0 0 0
1258 2 22.975156610528035 3.6066926953697607 1.1343361542816293 0 0 0
1259 9 18.32661159788775 5.410033549624719 1.1636490517093157 0 0 0
1177 1 20.770138872979885 1.8033398257851894 1.2866962773972224 0 0 0
1180 10 20.53947032792525 6.6539442848726735e-06 1.3643139622862905 0 0 0
1260 10 20.53947032792525 3.6066996060192302 1.3643139622862994 0 0 0
1257 1 20.770138872979885 5.410032777860226 1.2866962773972237 0 0 0
1183 11 23.10466679271775 1.8033405975497299 1.1636490517093108 0 0 0
1263 11 23.104666792717758 5.410033549624719 1.1636490517093026 0 0 0
1187 9 27.882721987547754 1.803340597549731 1.163649051709309 0 0 0
1262 4 27.753211805358042 3.6066926953697616 1.1343361542816288 0 0 0
1267 9 27.882721987547757 5.410033549624719 1.1636490517093043 0 0 0
1181 3 25.548194067809884 1.8033398257851885 1.286696277397223 0 0 0
1184 12 25.317525522755254 6.653944291827094e-06 1.3643139622862925 0 0 0
1264 12 25.317525522755258 3.606699606019229 1.3643139622862974 0 0 0
1261 3 25.548194067809895 5.410032777860228 1.2866962773972221 0 0 0
1185 1 30.326249262639884 1.8033398257851885 1.2866962773972261 0 0 0
1265 1 30.32624926263989 5.410032777860229 1.2866962773972301 0 0 0
1191 11 32.660777182377764 1.8033405975497308 1.1636490517093105 0 0 0
1266 2 32.53126700018803 3.6066926953697624 1.134336154281628 0 0 0
1271 11 32.66077718237776 5.410033549624719 1.163649051709315 0 0 0
1188 10 30.095580717585257 6.6539442803049925e-06 1.364313962286292 0 0 0
1189 3 35.1043044574699 1.8033398257851905 1.286696277397219 0 0 0
1192 12 34.873635912415246 6.653944287208352e-06 1.3643139622862843 0 0 0
1268 10 30.095580717585253 3.606699606019234 1.3643139622863014 0 0 0
1272 12 34.87363591241525 3.606699606019229 1.3643139622862805 0 0 0
1269 3 35.104304457469894 5.410032777860229 1.2866962773972104 0 0 0
1195 9 37.43883237720777 1.8033405975497296 1.1636490517093236 0 0 0
1270 4 37.309322195018055 3.6066926953697607 1.1343361542816384 0 0 0
1275 9 37.43883237720776 5.410033549624719 1.1636490517093152 0 0 0
1193 1 39.88235965229988 1.8033398257851851 1.2866962773972261 0 0 0
1196 10 39.651691107245256 6.653944297144492e-06 1.364313962286289 0 0 0
1276 10 39.65169110724525 3.6066996060192293 1.3643139622862943 0 0 0
1273 1 39.8823596522999 5.410032777860227 1.2866962773972166 0 0 0
1274 2 42.08737738984805 3.6066926953697607 1.1343361542816308 0 0 0
1199 11 42.216887572037756 1.8033405975497272 1.1636490517093219 0 0 0
1278 4 46.86543258467804 3.606692695369761 1.1343361542816277 0 0 0
1279 11 42.216887572037756 5.410033549624719 1.1636490517093108 0 0 0
1197 3 44.66041484712989 1.8033398257851954 1.2866962773972157 0 0 0
1200 12 44.429746302075266 6.653944293721932e-06 1.3643139622862783 0 0 0
1280 12 44.42974630207524 3.6066996060192293 1.36431396228629 0 0 0
1277 3 44.66041484712989 5.410032777860229 1.2866962773972166 0 0 0
1123 9 46.994942766867766 1.803340597549729 1.1636490517093097 -1 0 0
1203 9 46.99494276686775 5.41003354962472 1.1636490517093023 -1 0 0
1127 11 51.772997961697754 1.8033405975497334 1.1636490517093159 -1 0 0
1202 2 51.64348777950805 3.606692695369761 1.134336154281638 -1 0 0
1207 11 51.77299796169776 5.4100335496247185 1.1636490517093094 -1 0 0
1121 1 49.43847004195989 1.8033398257851967 1.2866962773972226 -1 0 0
1124 10 49.207801496905255 6.653944280693742e-06 1.3643139622862899 -1 0 0
1204 10 49.20780149690525 3.606699606019229 1.3643139622862903 -1 0 0
1201 1 49.438470041959896 5.410032777860226 1.2866962773972233 -1 0 0
1125 3 54.21652523678989 1.8033398257851887 1.286696277397225 -1 0 0
1205 3 54.216525236789884 5.410032777860225 1.2866962773972268 -1 0 0
1131 9 56.55105315652777 1.80334059754973 1.1636490517093092 -1 0 0
1206 4 56.42154297433804 3.6066926953697616 1.1343361542816277 -1 0 0
1211 9 56.551053156527736 5.41003354962472 1.1636490517093099 -1 0 0
1128 12 53.985856691735265 6.653944283997001e-06 1.3643139622862894 -1 0 0
1129 1 58.99458043161989 1.803339825785198 1.2866962773972226 -1 0 0
1132 10 58.76391188656526 6.653944283364663e-06 1.3643139622862874 -1 0 0
1208 12 53.98585669173526 3.606699606019232 1.3643139622862956 -1 0 0
1212 10 58.76391188656526 3.60669960601923 1.3643139622862916 -1 0 0
1209 1 58.99458043161988 5.410032777860224 1.2866962773972208 -1 0 0
1135 11 61.32910835135778 1.8033405975497308 1.163649051709314 -1 0 0
1210 2 61.19959816916805 3.6066926953697576 1.1343361542816284 -1 0 0
1215 11 61.32910835135779 5.410033549624719 1.163649051709301 -1 0 0
1133 3 63.772635626449905 1.8033398257851823 1.2866962773972301 -1 0 0
1136 12 63.54196708139526 6.653944290807681e-06 1.364313962286293 -1 0 0
1216 12 63.54196708139526 3.606699606019226 1.3643139622862963 -1 0 0
1213 3 63.77263562644992 5.410032777860232 1.2866962773972261 -1 0 0
1214 4 65.97765336399806 3.606692695369761 1.1343361542816408 -1 0 0
1139 9 66.10716354618775 1.8033405975497272 1.1636490517093316 -1 0 0
1218 2 70.75570855882805 3.606692695369758 1.1343361542816357 -1 0 0
1219 9 66.10716354618775 5.41003354962472 1.1636490517093288 -1 0 0
1137 1 68.5506908212799 1.8033398257851903 1.2866962773972153 -1 0 0
1140 10 68.32002227622526 6.653944294737433e-06 1.364313962286286 -1 0 0
1220 10 68.32002227622529 3.6066996060192302 1.3643139622862948 -1 0 0
1217 1 68.5506908212799 5.410032777860229 1.286696277397219 -1 0 0
1143 11 70.88521874101777 1.8033405975497325 1.1636490517093134 -1 0 0
1223 11 70.88521874101778 5.410033549624717 1.1636490517093032 -1 0 0
1147 9 75.66327393584776 1.8033405975497276 1.1636490517093179 -1 0 0
1222 4 75.53376375365801 3.6066926953697602 1.1343361542816257 -1 0 0
1227 9 75.66327393584774 5.41003354962472 1.1636490517093165 -1 0 0
1141 3 73.32874601610987 1.8033398257851943 1.2866962773972361 -1 0 0
1144 12 73.09807747105528 6.653944283147763e-06 1.3643139622862968 -1 0 0
1224 12 73.09807747105525 3.6066996060192293 1.3643139622863012 -1 0 0
1221 3 73.3287460161099 5.410032777860224 1.2866962773972292 -1 0 0
1145 1 78.10680121093989 1.8033398257851934 1.2866962773972175 -1 0 0
1225 1 78.10680121093989 5.410032777860225 1.2866962773972157 -1 0 0
1151 11 80.44132913067776 1.8033405975497314 1.1636490517093068 -1 0 0
1226 2 80.31181894848801 3.606692695369762 1.1343361542816228 -1 0 0
1231 11 80.44132913067774 5.41003354962472 1.1636490517093014 -1 0 0
1148 10 77.87613266588527 6.6539442919865695e-06 1.364313962286275 -1 0 0
1149 3 82.8848564057699 1.8033398257851956 1.286696277397218 -1 0 0
1152 12 82.65418786071523 6.653944274022548e-06 1.364313962286281 -1 0 0
1228 10 77.87613266588525 3.606699606019232 1.3643139622862877 -1 0 0
1232 12 82.65418786071528 3.606699606019234 1.3643139622862888 -1 0 0
1229 3 82.88485640576988 5.410032777860225 1.2866962773972255 -1 0 0
1155 9 85.21938432550776 1.8033405975497336 1.16364905170933 -1 0 0
1230 4 85.08987414331807 3.606692695369761 1.1343361542816426 -1 0 0
1235 9 85.21938432550775 5.410033549624718 1.1636490517093279 -1 0 0
1153 1 87.66291160059991 1.8033398257851887 1.2866962773972153 -1 0 0
1156 10 87.43224305554526 6.653944275560009e-06 1.3643139622862905 -1 0 0
1236 10 87.43224305554526 3.606699606019234 1.3643139622862959 -1 0 0
1233 1 87.6629116005999 5.410032777860221 1.2866962773972148 -1 0 0
1163 9 94.77549471516775 1.8033405975497327 1.1636490517093034 -1 0 0
1243 9 94.77549471516775 5.410033549624719 1.1636490517093034 -1 0 0
1234 2 89.86792933814802 3.6066926953697585 1.134336154281626 -1 0 0
1159 11 89.99743952033772 1.8033405975497308 1.1636490517093276 -1 0 0
1238 4 94.64598453297805 3.6066926953697642 1.1343361542816308 -1 0 0
1239 11 89.99743952033776 5.410033549624719 1.1636490517093094 -1 0 0
1157 3 92.44096679542987 1.8033398257851894 1.2866962773972184 -1 0 0
1160 12 92.21029825037526 6.6539442869876445e-06 1.3643139622862888 -1 0 0
1240 12 92.21029825037523 3.6066996060192222 1.3643139622862799 -1 0 0
1237 3 92.44096679542989 5.410032777860229 1.286696277397211 -1 0 0
1322 2 3.8629358312080315 7.213385647444759 1.134336154281637 0 0 0
1327 11 3.992446013397755 9.01672650169973 1.1636490517093103 0 0 0
1402 2 3.8629358312080235 10.820078599519762 1.1343361542816426 0 0 0
1324 10 1.4272495486052468 7.213392558094229 1.3643139622863025 0 0 0
1321 1 1.6579180936598799 9.01672572993522 1.2866962773972324 0 0 0
1404 10 1.4272495486052383 10.820085510169243 1.364313962286306 0 0 0
1325 3 6.43597328848989 9.016725729935217 1.2866962773972235 0 0 0
1326 4 8.640991026038039 7.213385647444759 1.1343361542816357 0 0 0
1331 9 8.770501208227756 9.016726501699731 1.1636490517093063 0 0 0
1406 4 8.640991026038042 10.820078599519762 1.1343361542816444 0 0 0
1328 12 6.205304743435256 7.2133925580942275 1.3643139622863025 0 0 0
1332 10 10.983359938265254 7.2133925580942275 1.364313962286301 0 0 0
1329 1 11.214028483319892 9.016725729935217 1.2866962773972253 0 0 0
1408 12 6.205304743435259 10.820085510169244 1.3643139622863028 0 0 0
1412 10 10.983359938265256 10.820085510169244 1.364313962286305 0 0 0
1330 2 13.419046220868044 7.21338564744476 1.1343361542816366 0 0 0
1335 11 13.54855640305776 9.016726501699731 1.1636490517093092 0 0 0
1410 2 13.419046220868042 10.820078599519762 1.134336154281643 0 0 0
1336 12 15.761415133095253 7.213392558094228 1.3643139622862968 0 0 0
1333 3 15.992083678149893 9.016725729935215 1.2866962773972233 0 0 0
1416 12 15.761415133095262 10.820085510169246 1.3643139622862992 0 0 0
1334 4 18.197101415698043 7.213385647444759 1.134336154281642 0 0 0
1414 4 18.197101415698047 10.820078599519766 1.1343361542816506 0 0 0
1338 2 22.97515661052804 7.213385647444759 1.1343361542816355 0 0 0
1339 9 18.326611597887755 9.01672650169973 1.1636490517093132 0 0 0
1418 2 22.97515661052804 10.82007859951976 1.1343361542816426 0 0 0
1340 10 20.53947032792525 7.2133925580942275 1.3643139622863072 0 0 0
1337 1 20.77013887297989 9.016725729935219 1.2866962773972257 0 0 0
1420 10 20.539470327925248 10.820085510169246 1.364313962286308 0 0 0
1343 11 23.104666792717758 9.01672650169973 1.1636490517093026 0 0 0
1342 4 27.753211805358042 7.21338564744476 1.1343361542816337 0 0 0
1347 9 27.882721987547754 9.016726501699731 1.1636490517093065 0 0 0
1422 4 27.75321180535804 10.820078599519762 1.1343361542816446 0 0 0
1344 12 25.31752552275525 7.213392558094227 1.364313962286301 0 0 0
1341 3 25.548194067809888 9.016725729935219 1.2866962773972264 0 0 0
1424 12 25.31752552275526 10.820085510169244 1.364313962286306 0 0 0
1345 1 30.326249262639898 9.016725729935215 1.2866962773972257 0 0 0
1346 2 32.53126700018805 7.213385647444759 1.1343361542816413 0 0 0
1351 11 32.66077718237777 9.01672650169973 1.1636490517093112 0 0 0
1426 2 32.531267000188045 10.820078599519764 1.1343361542816448 0 0 0
1348 10 30.095580717585257 7.2133925580942275 1.3643139622863025 0 0 0
1352 12 34.873635912415246 7.213392558094229 1.3643139622862843 0 0 0
1349 3 35.10430445746989 9.016725729935214 1.2866962773972181 0 0 0
1428 10 30.095580717585253 10.820085510169244 1.364313962286306 0 0 0
1432 12 34.87363591241526 10.820085510169244 1.3643139622862892 0 0 0
1350 4 37.309322195018034 7.21338564744476 1.1343361542816426 0 0 0
1355 9 37.43883237720777 9.01672650169973 1.1636490517093159 0 0 0
1430 4 37.30932219501804 10.82007859951976 1.1343361542816492 0 0 0
1356 10 39.651691107245256 7.21339255809423 1.3643139622862948 0 0 0
1353 1 39.882359652299904 9.016725729935215 1.2866962773972233 0 0 0
1436 10 39.65169110724526 10.820085510169246 1.3643139622863016 0 0 0
1354 2 42.08737738984806 7.21338564744476 1.1343361542816384 0 0 0
1434 2 42.08737738984806 10.82007859951976 1.134336154281645 0 0 0
1358 4 46.865432584678025 7.213385647444759 1.134336154281637 0 0 0
1359 11 42.21688757203775 9.016726501699727 1.1636490517093114 0 0 0
1438 4 46.86543258467804 10.820078599519766 1.1343361542816415 0 0 0
1360 12 44.42974630207525 7.2133925580942275 1.36431396228629 0 0 0
1357 3 44.660414847129886 9.016725729935215 1.2866962773972166 0 0 0
1440 12 44.429746302075245 10.820085510169246 1.3643139622862908 0 0 0
1283 9 46.994942766867766 9.01672650169973 1.163649051709304 -1 0 0
1282 2 51.64348777950805 7.21338564744476 1.1343361542816384 -1 0 0
1287 11 51.77299796169776 9.01672650169973 1.1636490517093105 -1 0 0
1362 2 51.643487779508035 10.820078599519766 1.1343361542816497 -1 0 0
1284 10 49.20780149690527 7.21339255809423 1.3643139622863023 -1 0 0
1281 1 49.438470041959896 9.016725729935215 1.2866962773972292 -1 0 0
1364 10 49.20780149690526 10.820085510169243 1.364313962286305 -1 0 0
1285 3 54.216525236789884 9.016725729935219 1.286696277397226 -1 0 0
1286 4 56.421542974338045 7.213385647444759 1.13433615428164 -1 0 0
1291 9 56.551053156527765 9.01672650169973 1.1636490517093083 -1 0 0
1366 4 56.42154297433803 10.820078599519762 1.1343361542816421 -1 0 0
1288 12 53.98585669173524 7.213392558094226 1.3643139622862988 -1 0 0
1292 10 58.763911886565246 7.213392558094228 1.3643139622862925 -1 0 0
1289 1 58.99458043161991 9.016725729935223 1.2866962773972217 -1 0 0
1368 12 53.98585669173526 10.820085510169248 1.3643139622863047 -1 0 0
1372 10 58.76391188656525 10.820085510169244 1.3643139622862959 -1 0 0
1290 2 61.199598169168034 7.21338564744476 1.1343361542816381 -1 0 0
1295 11 61.329108351357775 9.016726501699727 1.1636490517093108 -1 0 0
1370 2 61.19959816916803 10.820078599519759 1.1343361542816426 -1 0 0
1296 12 63.54196708139528 7.21339255809423 1.3643139622863072 -1 0 0
1293 3 63.772635626449926 9.016725729935212 1.2866962773972326 -1 0 0
1376 12 63.54196708139527 10.820085510169244 1.3643139622863014 -1 0 0
1294 4 65.97765336399806 7.213385647444762 1.1343361542816537 -1 0 0
1374 4 65.97765336399806 10.82007859951976 1.1343361542816655 -1 0 0
1298 2 70.75570855882802 7.213385647444761 1.1343361542816306 -1 0 0
1299 9 66.10716354618776 9.01672650169973 1.1636490517093392 -1 0 0
1378 2 70.75570855882802 10.820078599519766 1.1343361542816424 -1 0 0
1300 10 68.32002227622526 7.213392558094227 1.3643139622862912 -1 0 0
1297 1 68.55069082127989 9.016725729935219 1.2866962773972173 -1 0 0
1380 10 68.32002227622526 10.820085510169246 1.3643139622863008 -1 0 0
1303 11 70.88521874101778 9.016726501699727 1.163649051709303 -1 0 0
1302 4 75.53376375365806 7.213385647444759 1.1343361542816448 -1 0 0
1307 9 75.66327393584777 9.016726501699727 1.1636490517093065 -1 0 0
1382 4 75.53376375365802 10.820078599519766 1.1343361542816355 -1 0 0
1304 12 73.09807747105525 7.213392558094225 1.364313962286293 -1 0 0
1301 3 73.32874601610992 9.016725729935217 1.2866962773972217 -1 0 0
1384 12 73.09807747105526 10.820085510169244 1.3643139622863025 -1 0 0
1305 1 78.10680121093989 9.016725729935212 1.286696277397222 -1 0 0
1306 2 80.31181894848801 7.21338564744476 1.134336154281641 -1 0 0
1311 11 80.44132913067776 9.01672650169973 1.1636490517093132 -1 0 0
1386 2 80.31181894848804 10.820078599519759 1.134336154281644 -1 0 0
1308 10 77.87613266588524 7.213392558094224 1.364313962286295 -1 0 0
1312 12 82.65418786071524 7.2133925580942275 1.364313962286299 -1 0 0
1309 3 82.8848564057699 9.016725729935217 1.28669627739722 -1 0 0
1388 10 77.87613266588528 10.820085510169244 1.3643139622862948 -1 0 0
1392 12 82.65418786071525 10.820085510169237 1.3643139622862974 -1 0 0
1310 4 85.089874143318 7.213385647444757 1.134336154281638 -1 0 0
1315 9 85.21938432550779 9.01672650169973 1.1636490517093028 -1 0 0
1390 4 85.08987414331804 10.820078599519766 1.1343361542816432 -1 0 0
1316 10 87.43224305554527 7.213392558094229 1.3643139622862996 -1 0 0
1313 1 87.66291160059991 9.016725729935219 1.2866962773972286 -1 0 0
1396 10 87.43224305554527 10.820085510169246 1.3643139622863043 -1 0 0
1323 9 94.77549471516775 9.01672650169973 1.1636490517093023 -1 0 0
1314 2 89.86792933814804 7.213385647444763 1.1343361542816375 -1 0 0
1394 2 89.86792933814809 10.820078599519759 1.1343361542816484 -1 0 0
1318 4 94.645984532978 7.213385647444759 1.1343361542816361 -1 0 0
1319 11 89.99743952033776 9.016726501699727 1.1636490517093234 -1 0 0
1398 4 94.64598453297806 10.820078599519766 1.134336154281651 -1 0 0
1320 12 92.21029825037525 7.213392558094228 1.3643139622862874 -1 0 0
1317 3 92.44096679542989 9.016725729935217 1.2866962773972135 -1 0 0
1400 12 92.21029825037526 10.82008551016925 1.3643139622862852 -1 0 0
1407 11 3.9924460133977577 12.623419453774739 1.163649051709306 0 0 0
1482 2 3.862935831208035 14.42677155159477 1.1343361542816235 0 0 0
1487 11 3.9924460133977586 16.230112405849724 1.163649051709308 0 0 0
1401 1 1.6579180936598819 12.623418682010167 1.2866962773972253 0 0 0
1484 10 1.4272495486052512 14.426778462244254 1.364313962286293 0 0 0
1481 1 1.6579180936598796 16.230111634085237 1.2866962773972321 0 0 0
1405 3 6.435973288489891 12.623418682010174 1.2866962773972248 0 0 0
1485 3 6.435973288489893 16.23011163408523 1.2866962773972266 0 0 0
1411 9 8.770501208227754 12.62341945377474 1.1636490517093079 0 0 0
1486 4 8.640991026038042 14.42677155159477 1.1343361542816282 0 0 0
1491 9 8.770501208227754 16.230112405849724 1.16364905170931 0 0 0
1409 1 11.214028483319888 12.62341868201017 1.2866962773972233 0 0 0
1488 12 6.205304743435261 14.426778462244254 1.3643139622862976 0 0 0
1492 10 10.983359938265254 14.426778462244254 1.3643139622862945 0 0 0
1489 1 11.21402848331989 16.230111634085233 1.2866962773972266 0 0 0
1415 11 13.548556403057761 12.62341945377474 1.1636490517093083 0 0 0
1490 2 13.419046220868042 14.426771551594772 1.1343361542816253 0 0 0
1495 11 13.548556403057763 16.230112405849724 1.1636490517093092 0 0 0
1413 3 15.992083678149895 12.623418682010174 1.2866962773972226 0 0 0
1496 12 15.76141513309526 14.426778462244254 1.3643139622862914 0 0 0
1493 3 15.992083678149898 16.230111634085233 1.2866962773972237 0 0 0
1494 4 18.197101415698047 14.42677155159477 1.1343361542816317 0 0 0
1419 9 18.32661159788775 12.62341945377474 1.163649051709314 0 0 0
1498 2 22.97515661052804 14.426771551594772 1.134336154281626 0 0 0
1499 9 18.32661159788775 16.230112405849724 1.163649051709314 0 0 0
1417 1 20.770138872979885 12.623418682010174 1.286696277397224 0 0 0
1500 10 20.53947032792525 14.426778462244254 1.3643139622862963 0 0 0
1497 1 20.77013887297989 16.230111634085233 1.2866962773972264 0 0 0
1423 11 23.104666792717754 12.62341945377474 1.1636490517092999 0 0 0
1503 11 23.10466679271775 16.230112405849724 1.1636490517093094 0 0 0
1427 9 27.882721987547754 12.62341945377474 1.1636490517093063 0 0 0
1502 4 27.75321180535804 14.426771551594772 1.134336154281624 0 0 0
1507 9 27.882721987547757 16.230112405849724 1.1636490517093006 0 0 0
1421 3 25.548194067809888 12.623418682010174 1.2866962773972257 0 0 0
1504 12 25.317525522755258 14.426778462244252 1.3643139622862976 0 0 0
1501 3 25.548194067809884 16.23011163408523 1.2866962773972244 0 0 0
1425 1 30.326249262639895 12.623418682010174 1.2866962773972288 0 0 0
1505 1 30.326249262639887 16.23011163408523 1.286696277397232 0 0 0
1431 11 32.66077718237776 12.62341945377474 1.1636490517093159 0 0 0
1506 2 32.53126700018805 14.42677155159477 1.1343361542816262 0 0 0
1511 11 32.66077718237775 16.230112405849724 1.163649051709316 0 0 0
1429 3 35.104304457469894 12.623418682010174 1.2866962773972124 0 0 0
1508 10 30.095580717585257 14.426778462244252 1.3643139622862988 0 0 0
1512 12 34.873635912415246 14.426778462244252 1.3643139622862828 0 0 0
1509 3 35.104304457469894 16.23011163408523 1.2866962773972197 0 0 0
1435 9 37.43883237720776 12.62341945377474 1.16364905170931 0 0 0
1510 4 37.30932219501805 14.426771551594772 1.1343361542816308 0 0 0
1515 9 37.43883237720775 16.23011240584972 1.163649051709315 0 0 0
1433 1 39.8823596522999 12.623418682010174 1.2866962773972277 0 0 0
1516 10 39.65169110724526 14.426778462244254 1.364313962286295 0 0 0
1513 1 39.8823596522999 16.23011163408523 1.2866962773972264 0 0 0
1514 2 42.08737738984804 14.426771551594772 1.1343361542816273 0 0 0
1439 11 42.216887572037756 12.623419453774742 1.1636490517093094 0 0 0
1518 4 46.86543258467803 14.426771551594769 1.1343361542816253 0 0 0
1519 11 42.216887572037756 16.230112405849724 1.1636490517093117 0 0 0
1437 3 44.66041484712988 12.623418682010165 1.286696277397216 0 0 0
1520 12 44.42974630207526 14.426778462244249 1.3643139622862865 0 0 0
1517 3 44.66041484712989 16.230111634085237 1.2866962773972175 0 0 0
1363 9 46.994942766867766 12.62341945377474 1.1636490517093054 -1 0 0
1443 9 46.99494276686776 16.230112405849724 1.163649051709304 -1 0 0
1367 11 51.772997961697754 12.623419453774742 1.1636490517093148 -1 0 0
1442 2 51.64348777950803 14.426771551594769 1.1343361542816293 -1 0 0
1447 11 51.77299796169775 16.230112405849724 1.1636490517093159 -1 0 0
1361 1 49.4384700419599 12.62341868201017 1.2866962773972237 -1 0 0
1444 10 49.207801496905255 14.426778462244247 1.3643139622862939 -1 0 0
1441 1 49.43847004195991 16.230111634085237 1.2866962773972304 -1 0 0
1365 3 54.21652523678988 12.62341868201017 1.2866962773972266 -1 0 0
1445 3 54.216525236789884 16.23011163408523 1.2866962773972228 -1 0 0
1371 9 56.55105315652775 12.623419453774742 1.1636490517093085 -1 0 0
1446 4 56.42154297433805 14.426771551594772 1.1343361542816313 -1 0 0
1451 9 56.551053156527765 16.230112405849724 1.1636490517093114 -1 0 0
1369 1 58.99458043161987 12.62341868201017 1.286696277397222 -1 0 0
1448 12 53.98585669173526 14.426778462244242 1.3643139622862912 -1 0 0
1452 10 58.76391188656525 14.426778462244254 1.3643139622862945 -1 0 0
1449 1 58.99458043161989 16.23011163408523 1.2866962773972266 -1 0 0
1375 11 61.32910835135777 12.623419453774742 1.1636490517093023 -1 0 0
1450 2 61.19959816916804 14.426771551594774 1.134336154281625 -1 0 0
1455 11 61.32910835135778 16.230112405849724 1.1636490517093097 -1 0 0
1373 3 63.77263562644992 12.623418682010172 1.2866962773972264 -1 0 0
1456 12 63.541967081395256 14.426778462244245 1.3643139622862945 -1 0 0
1453 3 63.772635626449905 16.230111634085233 1.2866962773972261 -1 0 0
1454 4 65.97765336399804 14.426771551594767 1.1343361542816348 -1 0 0
1379 9 66.10716354618778 12.623419453774742 1.163649051709329 -1 0 0
1458 2 70.75570855882808 14.426771551594772 1.134336154281628 -1 0 0
1459 9 66.10716354618775 16.230112405849724 1.1636490517093256 -1 0 0
1377 1 68.55069082127991 12.623418682010165 1.2866962773972237 -1 0 0
1460 10 68.32002227622526 14.426778462244252 1.3643139622862956 -1 0 0
1457 1 68.5506908212799 16.230111634085244 1.2866962773972235 -1 0 0
1383 11 70.88521874101774 12.62341945377474 1.163649051709314 -1 0 0
1463 11 70.88521874101775 16.230112405849724 1.1636490517093092 -1 0 0
1387 9 75.66327393584776 12.623419453774739 1.1636490517093112 -1 0 0
1462 4 75.53376375365804 14.42677155159477 1.1343361542816268 -1 0 0
1467 9 75.66327393584776 16.230112405849724 1.1636490517093152 -1 0 0
1381 3 73.32874601610989 12.623418682010168 1.2866962773972268 -1 0 0
1464 12 73.09807747105528 14.426778462244256 1.364313962286299 -1 0 0
1461 3 73.32874601610992 16.230111634085233 1.286696277397233 -1 0 0
1385 1 78.10680121093988 12.623418682010177 1.2866962773972186 -1 0 0
1465 1 78.10680121093989 16.230111634085233 1.2866962773972193 -1 0 0
1391 11 80.44132913067776 12.62341945377474 1.163649051709304 -1 0 0
1466 2 80.31181894848802 14.426771551594767 1.134336154281618 -1 0 0
1471 11 80.44132913067777 16.230112405849724 1.1636490517092943 -1 0 0
1389 3 82.8848564057699 12.623418682010172 1.28669627739722 -1 0 0
1468 10 77.87613266588525 14.426778462244249 1.3643139622862912 -1 0 0
1472 12 82.65418786071524 14.426778462244254 1.3643139622862925 -1 0 0
1469 3 82.8848564057699 16.230111634085233 1.2866962773972306 -1 0 0
1395 9 85.21938432550776 12.62341945377474 1.1636490517093108 -1 0 0
1470 4 85.08987414331806 14.426771551594774 1.134336154281633 -1 0 0
1475 9 85.21938432550776 16.230112405849724 1.1636490517093325 -1 0 0
1393 1 87.66291160059988 12.623418682010174 1.2866962773972241 -1 0 0
1476 10 87.43224305554524 14.426778462244254 1.364313962286289 -1 0 0
1473 1 87.66291160059991 16.230111634085233 1.2866962773972166 -1 0 0
1403 9 94.77549471516774 12.623419453774742 1.1636490517093114 -1 0 0
1483 9 94.77549471516774 16.230112405849724 1.1636490517093063 -1 0 0
1474 2 89.86792933814806 14.42677155159477 1.134336154281633 -1 0 0
1399 11 89.99743952033775 12.62341945377474 1.1636490517093203 -1 0 0
1478 4 94.64598453297803 14.426771551594767 1.1343361542816253 -1 0 0
1479 11 89.99743952033775 16.23011240584972 1.1636490517093163 -1 0 0
1397 3 92.44096679542989 12.623418682010175 1.2866962773972133 -1 0 0
1480 12 92.21029825037526 14.426778462244245 1.3643139622862939 -1 0 0
1477 3 92.4409667954299 16.230111634085226 1.2866962773972124 -1 0 0
1562 2 3.862935831208027 18.03346450366978 1.1343361542816415 0 0 0
1567 11 3.9924460133977573 19.83680535792474 1.1636490517093072 0 0 0
1642 2 3.8629358312080355 21.640157455744774 1.1343361542816264 0 0 0
1647 11 3.992446013397757 23.443498309999725 1.1636490517093092 0 0 0
1564 10 1.4272495486052443 18.033471414319212 1.364313962286309 0 0 0
1561 1 1.657918093659864 19.83680458616017 1.2866962773972253 0 0 0
1644 10 1.427249548605249 21.64016436639421 1.3643139622862932 0 0 0
1641 1 1.6579180936598674 23.443497538235228 1.2866962773972241 0 0 0
1565 3 6.435973288489894 19.836804586160177 1.286696277397224 0 0 0
1645 3 6.435973288489891 23.443497538235224 1.2866962773972233 0 0 0
1566 4 8.640991026038044 18.03346450366978 1.1343361542816441 0 0 0
1571 9 8.770501208227758 19.83680535792474 1.1636490517093063 0 0 0
1646 4 8.640991026038044 21.640157455744774 1.134336154281629 0 0 0
1651 9 8.77050120822776 23.443498309999725 1.163649051709306 0 0 0
1568 12 6.205304743435259 18.033471414319205 1.3643139622863036 0 0 0
1572 10 10.983359938265254 18.033471414319212 1.3643139622863034 0 0 0
1569 1 11.21402848331989 19.836804586160177 1.2866962773972241 0 0 0
1648 12 6.20530474343526 21.640164366394206 1.3643139622862985 0 0 0
1652 10 10.983359938265252 21.64016436639421 1.364313962286297 0 0 0
1649 1 11.21402848331989 23.443497538235224 1.286696277397224 0 0 0
1570 2 13.419046220868038 18.03346450366978 1.134336154281641 0 0 0
1575 11 13.548556403057763 19.83680535792474 1.1636490517093063 0 0 0
1650 2 13.41904622086804 21.640157455744774 1.1343361542816275 0 0 0
1655 11 13.548556403057761 23.443498309999725 1.163649051709308 0 0 0
1576 12 15.761415133095262 18.033471414319212 1.3643139622862956 0 0 0
1573 3 15.9920836781499 19.836804586160177 1.2866962773972213 0 0 0
1656 12 15.761415133095262 21.640164366394206 1.364313962286292 0 0 0
1653 3 15.992083678149898 23.443497538235228 1.2866962773972248 0 0 0
1574 4 18.197101415698047 18.03346450366978 1.1343361542816517 0 0 0
1654 4 18.197101415698047 21.640157455744774 1.1343361542816328 0 0 0
1578 2 22.975156610528032 18.03346450366978 1.134336154281643 0 0 0
1579 9 18.32661159788775 19.83680535792474 1.163649051709319 0 0 0
1658 2 22.97515661052804 21.640157455744774 1.1343361542816286 0 0 0
1659 9 18.326611597887748 23.443498309999725 1.163649051709314 0 0 0
1580 10 20.53947032792525 18.033471414319212 1.3643139622863054 0 0 0
1577 1 20.77013887297988 19.836804586160167 1.2866962773972206 0 0 0
1660 10 20.53947032792525 21.64016436639421 1.364313962286299 0 0 0
1657 1 20.77013887297988 23.443497538235224 1.2866962773972237 0 0 0
1583 11 23.10466679271776 19.83680535792474 1.1636490517093034 0 0 0
1663 11 23.104666792717754 23.443498309999725 1.1636490517093026 0 0 0
1582 4 27.753211805358042 18.03346450366978 1.134336154281639 0 0 0
1587 9 27.882721987547754 19.83680535792474 1.1636490517093059 0 0 0
1662 4 27.75321180535803 21.640157455744774 1.1343361542816275 0 0 0
1667 9 27.882721987547757 23.443498309999725 1.1636490517093039 0 0 0
1584 12 25.31752552275525 18.033471414319212 1.3643139622863047 0 0 0
1581 3 25.54819406780989 19.83680458616018 1.286696277397225 0 0 0