LAMMPS data file via write_data, version 29 Aug 2024, timestep = 39, units = metal

6720 atoms
24 atom types

0 95.5611038966 xlo xhi
0 100.9874026581 ylo yhi
-50 50 zlo zhi

Masses

1 28.085
2 28.085
3 28.085
4 28.085
5 28.085
6 28.085
7 28.085
8 28.085
9 28.085
10 28.085
11 28.085
12 28.085
13 78.971
14 78.971
15 78.971
16 78.971
17 78.971
18 78.971
19 78.971
20 78.971
21 78.971
22 78.971
23 78.971
24 78.971

Atoms # atomic

1167 15 4.1008055270501504 1.8033410882411618 1.211928422842428 0 0 0
1242 2 3.742438185988416 3.6066923744637003 1.1442293602528215 0 0 0
1247 15 4.10080552705015 5.410034040316148 1.2119284228424336 0 0 0
1161 1 1.768933117565702 1.8033431622089915 1.282928865239554 0 0 0
1164 14 1.303536437930769 2.3445886965090186e-06 1.3602057501686031 0 0 0
1244 14 1.3035364379307626 3.606695296663713 1.3602057501685916 0 0 0
1241 1 1.768933117565806 5.410036114283981 1.282928865239528 0 0 0
1165 3 6.546988312395656 1.8033431622089922 1.2829288652395558 0 0 0
1245 3 6.546988312395657 5.410036114283984 1.282928865239548 0 0 0
1171 13 8.878860721880143 1.803341088241161 1.2119284228424374 0 0 0
1246 4 8.520493380818396 3.606692374463699 1.1442293602528106 0 0 0
1251 13 8.878860721880166 5.410034040316148 1.2119284228424283 0 0 0
1168 16 6.081591632760782 2.3445887009249355e-06 1.3602057501685745 0 0 0
1169 1 11.32504350722567 1.8033431622089906 1.2829288652395512 0 0 0
1172 14 10.859646827590783 2.3445886993500505e-06 1.3602057501685807 0 0 0
1248 16 6.081591632760799 3.60669529666371 1.3602057501685774 0 0 0
1252 14 10.859646827590778 3.606695296663714 1.3602057501685776 0 0 0
1249 1 11.325043507225642 5.410036114283985 1.282928865239565 0 0 0
1175 15 13.656915916710092 1.803341088241161 1.2119284228424558 0 0 0
1250 2 13.298548575648423 3.6066923744636994 1.1442293602528093 0 0 0
1255 15 13.656915916710123 5.41003404031615 1.211928422842448 0 0 0
1173 3 16.10309870205572 1.80334316220899 1.2829288652395276 0 0 0
1176 16 15.637702022420838 2.3445887015009242e-06 1.360205750168579 0 0 0
1256 16 15.637702022420779 3.6066952966637116 1.3602057501685698 0 0 0
1253 3 16.103098702055686 5.410036114283981 1.282928865239544 0 0 0
1254 4 18.076603770478425 3.6066923744637 1.1442293602528089 0 0 0
1179 13 18.434971111540143 1.8033410882411611 1.2119284228424339 0 0 0
1258 2 22.85465896530837 3.6066923744637007 1.1442293602528169 0 0 0
1259 13 18.434971111540225 5.410034040316148 1.2119284228424043 0 0 0
1177 1 20.881153896885667 1.8033431622089924 1.2829288652395563 0 0 0
1180 14 20.41575721725074 2.3445886999665757e-06 1.3602057501685696 0 0 0
1260 14 20.415757217250828 3.606695296663713 1.3602057501685834 0 0 0
1257 1 20.881153896885575 5.410036114283983 1.2829288652396005 0 0 0
1183 15 23.213026306370164 1.8033410882411616 1.2119284228424259 0 0 0
1263 15 23.213026306370097 5.410034040316148 1.2119284228424632 0 0 0
1187 13 27.991081501200078 1.8033410882411618 1.2119284228424545 0 0 0
1262 4 27.632714160138413 3.6066923744636994 1.1442293602528157 0 0 0
1267 13 27.991081501200078 5.410034040316148 1.2119284228424592 0 0 0
1181 3 25.659209091715635 1.8033431622089904 1.2829288652395567 0 0 0
1184 16 25.193812412080757 2.3445887002487503e-06 1.360205750168567 0 0 0
1264 16 25.19381241208078 3.6066952966637116 1.3602057501685676 0 0 0
1261 3 25.659209091715713 5.41003611428398 1.282928865239538 0 0 0
1185 1 30.43726428654572 1.8033431622089913 1.2829288652395285 0 0 0
1265 1 30.43726428654572 5.410036114283982 1.282928865239524 0 0 0
1191 15 32.769136696030145 1.8033410882411622 1.2119284228424267 0 0 0
1266 2 32.41076935496847 3.6066923744636976 1.1442293602528077 0 0 0
1271 15 32.769136696030245 5.410034040316148 1.2119284228423803 0 0 0
1188 14 29.971867606910788 2.3445886994427184e-06 1.3602057501685734 0 0 0
1189 3 35.21531948137567 1.803343162208992 1.282928865239554 0 0 0
1192 16 34.74992280174076 2.34458869624421e-06 1.3602057501685643 0 0 0
1268 14 29.971867606910724 3.606695296663711 1.3602057501685576 0 0 0
1272 16 34.74992280174077 3.606695296663716 1.360205750168581 0 0 0
1269 3 35.215319481375566 5.410036114283983 1.2829288652396078 0 0 0
1195 13 37.54719189086013 1.8033410882411607 1.2119284228424345 0 0 0
1270 4 37.188824549798454 3.6066923744637016 1.1442293602528097 0 0 0
1275 13 37.547191890860205 5.41003404031615 1.2119284228424207 0 0 0
1193 1 39.993374676205676 1.8033431622089917 1.2829288652395507 0 0 0
1196 14 39.52797799657077 2.3445886998529467e-06 1.3602057501685756 0 0 0
1276 14 39.527977996570705 3.6066952966637134 1.3602057501685654 0 0 0
1273 1 39.99337467620561 5.4100361142839795 1.2829288652395794 0 0 0
1274 2 41.9668797446285 3.6066923744637 1.1442293602528568 0 0 0
1199 15 42.325247085690144 1.8033410882411638 1.2119284228424472 0 0 0
1278 4 46.74493493945846 3.6066923744636976 1.1442293602528173 0 0 0
1279 15 42.32524708569016 5.410034040316148 1.2119284228424556 0 0 0
1197 3 44.771429871035664 1.8033431622089904 1.2829288652395512 0 0 0
1200 16 44.30603319140085 2.344588700498434e-06 1.3602057501685818 0 0 0
1280 16 44.30603319140074 3.6066952966637094 1.3602057501685725 0 0 0
1277 3 44.77142987103566 5.410036114283983 1.2829288652395543 0 0 0
1123 13 47.103302280520076 1.8033410882411613 1.2119284228424607 -1 0 0
1203 13 47.10330228052007 5.41003404031615 1.211928422842464 -1 0 0
1127 15 51.88135747535021 1.8033410882411598 1.2119284228424025 -1 0 0
1202 2 51.52299013428844 3.6066923744637 1.1442293602527929 -1 0 0
1207 15 51.881357475350114 5.410034040316148 1.2119284228424372 -1 0 0
1121 1 49.54948506586573 1.8033431622089935 1.2829288652395356 -1 0 0
1124 14 49.0840883862308 2.344588700380953e-06 1.3602057501685823 -1 0 0
1204 14 49.08408838623075 3.606695296663711 1.3602057501685805 -1 0 0
1201 1 49.54948506586573 5.4100361142839795 1.2829288652395425 -1 0 0
1125 3 54.32754026069562 1.8033431622089895 1.28292886523957 -1 0 0
1205 3 54.32754026069571 5.410036114283979 1.2829288652395343 -1 0 0
1131 13 56.65941267018013 1.8033410882411607 1.2119284228424232 -1 0 0
1206 4 56.30104532911842 3.606692374463701 1.1442293602527764 -1 0 0
1211 13 56.65941267018022 5.410034040316151 1.2119284228424014 -1 0 0
1128 16 53.86214358106073 2.3445886997278158e-06 1.360205750168563 -1 0 0
1129 1 59.10559545552568 1.803343162208988 1.282928865239545 -1 0 0
1132 14 58.64019877589075 2.344588700723643e-06 1.3602057501685831 -1 0 0
1208 16 53.862143581060785 3.6066952966637134 1.3602057501685725 -1 0 0
1212 14 58.6401987758908 3.6066952966637107 1.360205750168571 -1 0 0
1209 1 59.10559545552559 5.410036114283985 1.282928865239587 -1 0 0
1135 15 61.43746786501019 1.8033410882411631 1.2119284228424207 -1 0 0
1210 2 61.07910052394841 3.606692374463697 1.1442293602528066 -1 0 0
1215 15 61.43746786501009 5.410034040316143 1.2119284228424518 -1 0 0
1133 3 63.88365065035564 1.8033431622089935 1.2829288652395539 -1 0 0
1136 16 63.41825397072072 2.344588700155866e-06 1.360205750168545 -1 0 0
1216 16 63.4182539707207 3.6066952966637125 1.360205750168542 -1 0 0
1213 3 63.88365065035574 5.410036114283987 1.2829288652395234 -1 0 0
1214 4 65.85715571877856 3.6066923744636994 1.1442293602528744 -1 0 0
1139 13 66.21552305984032 1.8033410882411645 1.211928422842378 -1 0 0
1218 2 70.63521091360839 3.6066923744637016 1.1442293602528046 -1 0 0
1219 13 66.21552305984005 5.410034040316141 1.2119284228424747 -1 0 0
1137 1 68.66170584518545 1.803343162208992 1.2829288652396504 -1 0 0
1140 14 68.19630916555076 2.3445887004630454e-06 1.3602057501685931 -1 0 0
1220 14 68.19630916555079 3.6066952966637102 1.3602057501686022 -1 0 0
1217 1 68.66170584518575 5.410036114283976 1.2829288652395225 -1 0 0
1143 15 70.9935782546703 1.8033410882411611 1.2119284228423577 -1 0 0
1223 15 70.99357825467006 5.410034040316149 1.2119284228424674 -1 0 0
1147 13 75.77163344949983 1.8033410882411605 1.211928422842598 -1 0 0
1222 4 75.41326610843826 3.6066923744636923 1.1442293602528457 -1 0 0
1227 13 75.7716334495 5.41003404031615 1.211928422842522 -1 0 0
1141 3 73.43976104001548 1.8033431622089926 1.2829288652396407 -1 0 0
1144 16 72.97436436038082 2.344588705329114e-06 1.360205750168582 -1 0 0
1224 16 72.97436436038093 3.606695296663709 1.3602057501685954 -1 0 0
1221 3 73.43976104001575 5.410036114283978 1.282928865239521 -1 0 0
1145 1 78.21781623484596 1.8033431622089875 1.2829288652394342 -1 0 0
1225 1 78.21781623484586 5.410036114283984 1.2829288652394868 -1 0 0
1151 15 80.54968864433027 1.8033410882411647 1.2119284228423959 -1 0 0
1226 2 80.19132130326827 3.6066923744637074 1.1442293602528435 -1 0 0
1231 15 80.54968864432998 5.410034040316149 1.2119284228425498 -1 0 0
1148 14 77.7524195552108 2.34458869642204e-06 1.3602057501685771 -1 0 0
1149 3 82.99587142967563 1.8033431622089953 1.2829288652396016 -1 0 0
1152 16 82.53047475004075 2.344588699517816e-06 1.3602057501685716 -1 0 0
1228 14 77.75241955521093 3.6066952966637142 1.360205750168572 -1 0 0
1232 16 82.53047475004075 3.6066952966637125 1.3602057501685674 -1 0 0
1229 3 82.99587142967589 5.410036114283985 1.28292886523949 -1 0 0
1155 13 85.32774383915996 1.803341088241165 1.211928422842526 -1 0 0
1230 4 84.96937649809848 3.606692374463696 1.144229360252879 -1 0 0
1235 13 85.32774383916032 5.410034040316146 1.2119284228423763 -1 0 0
1153 1 87.77392662450583 1.8033431622089933 1.2829288652394797 -1 0 0
1156 14 87.30852994487081 2.344588699156336e-06 1.3602057501685607 -1 0 0
1236 14 87.3085299448707 3.6066952966637134 1.3602057501685594 -1 0 0
1233 1 87.77392662450545 5.410036114283975 1.2829288652396176 -1 0 0
1163 13 94.88385422882011 1.803341088241161 1.2119284228424854 -1 0 0
1243 13 94.88385422882001 5.410034040316149 1.2119284228425284 -1 0 0
1234 2 89.74743169292854 3.6066923744637 1.144229360252888 -1 0 0
1159 15 90.1057990339902 1.8033410882411633 1.2119284228424405 -1 0 0
1238 4 94.52548688775826 3.606692374463699 1.1442293602528641 -1 0 0
1239 15 90.1057990339901 5.410034040316147 1.2119284228424834 -1 0 0
1157 3 92.55198181933562 1.8033431622089922 1.2829288652395545 -1 0 0
1160 16 92.08658513970073 2.3445886968752765e-06 1.360205750168554 -1 0 0
1240 16 92.08658513970094 3.606695296663717 1.3602057501685958 -1 0 0
1237 3 92.55198181933572 5.410036114283979 1.2829288652395399 -1 0 0
1322 2 3.7424381859884113 7.213385326538699 1.1442293602528204 0 0 0
1327 15 4.100805527050124 9.016726992391144 1.211928422842448 0 0 0
1402 2 3.742438185988406 10.820078278613712 1.1442293602528333 0 0 0
1324 14 1.3035364379307728 7.2133882487387115 1.360205750168605 0 0 0
1321 1 1.7689331175656777 9.016729066359003 1.282928865239578 0 0 0
1404 14 1.3035364379307781 10.820081200813716 1.3602057501686018 0 0 0
1325 3 6.546988312395686 9.016729066358998 1.282928865239543 0 0 0
1326 4 8.520493380818415 7.213385326538698 1.144229360252821 0 0 0
1331 13 8.878860721880164 9.016726992391144 1.2119284228424323 0 0 0
1406 4 8.5204933808184 10.82007827861371 1.144229360252821 0 0 0
1328 16 6.081591632760775 7.213388248738715 1.3602057501685658 0 0 0
1332 14 10.859646827590783 7.213388248738712 1.3602057501685747 0 0 0
1329 1 11.325043507225647 9.016729066359003 1.2829288652395654 0 0 0
1408 16 6.081591632760785 10.820081200813712 1.3602057501685758 0 0 0
1412 14 10.85964682759079 10.820081200813714 1.3602057501685787 0 0 0
1330 2 13.298548575648413 7.213385326538699 1.144229360252826 0 0 0
1335 15 13.656915916710176 9.016726992391144 1.2119284228424307 0 0 0
1410 2 13.298548575648413 10.820078278613707 1.1442293602528137 0 0 0
1336 16 15.637702022420795 7.213388248738712 1.3602057501685751 0 0 0
1333 3 16.103098702055643 9.016729066359 1.2829288652395618 0 0 0
1416 16 15.637702022420799 10.820081200813716 1.3602057501685707 0 0 0
1334 4 18.076603770478396 7.213385326538699 1.1442293602528109 0 0 0
1414 4 18.076603770478396 10.820078278613709 1.1442293602528224 0 0 0
1338 2 22.854658965308385 7.213385326538698 1.144229360252818 0 0 0
1339 13 18.434971111540175 9.016726992391144 1.211928422842428 0 0 0
1418 2 22.854658965308392 10.82007827861371 1.1442293602528286 0 0 0
1340 14 20.41575721725082 7.2133882487387115 1.3602057501685871 0 0 0
1337 1 20.881153896885635 9.016729066358995 1.282928865239575 0 0 0
1420 14 20.415757217250796 10.820081200813712 1.3602057501685727 0 0 0
1343 15 23.213026306370136 9.016726992391144 1.2119284228424454 0 0 0
1342 4 27.63271416013839 7.213385326538698 1.1442293602528166 0 0 0
1347 13 27.991081501200203 9.016726992391144 1.211928422842411 0 0 0
1422 4 27.63271416013844 10.82007827861371 1.1442293602528244 0 0 0
1344 16 25.193812412080796 7.213388248738711 1.3602057501685725 0 0 0
1341 3 25.659209091715674 9.016729066358998 1.2829288652395516 0 0 0
1424 16 25.193812412080757 10.820081200813712 1.3602057501685683 0 0 0
1345 1 30.43726428654559 9.016729066359003 1.282928865239589 0 0 0
1346 2 32.41076935496846 7.213385326538703 1.144229360252804 0 0 0
1351 15 32.76913669603011 9.016726992391144 1.2119284228424463 0 0 0
1426 2 32.41076935496839 10.820078278613705 1.144229360252811 0 0 0
1348 14 29.97186760691073 7.213388248738713 1.3602057501685718 0 0 0
1352 16 34.749922801740794 7.213388248738708 1.3602057501685774 0 0 0
1349 3 35.215319481375694 9.016729066358996 1.2829288652395439 0 0 0
1428 14 29.97186760691081 10.820081200813712 1.3602057501685858 0 0 0
1432 16 34.7499228017408 10.820081200813718 1.3602057501685758 0 0 0
1350 4 37.188824549798426 7.213385326538696 1.1442293602528226 0 0 0
1355 13 37.54719189086011 9.016726992391146 1.2119284228424567 0 0 0
1430 4 37.18882454979839 10.820078278613712 1.1442293602528473 0 0 0
1356 14 39.52797799657086 7.2133882487387115 1.3602057501685807 0 0 0
1353 1 39.99337467620571 9.016729066359002 1.2829288652395423 0 0 0
1436 14 39.52797799657083 10.820081200813716 1.3602057501685958 0 0 0
1354 2 41.966879744628365 7.213385326538698 1.1442293602528393 0 0 0
1434 2 41.96687974462838 10.820078278613709 1.1442293602528313 0 0 0
1358 4 46.74493493945838 7.213385326538701 1.1442293602528284 0 0 0
1359 15 42.3252470856901 9.016726992391144 1.2119284228424698 0 0 0
1438 4 46.74493493945841 10.82007827861371 1.1442293602528273 0 0 0
1360 16 44.3060331914008 7.2133882487387115 1.3602057501685774 0 0 0
1357 3 44.7714298710357 9.016729066359 1.2829288652395394 0 0 0
1440 16 44.30603319140077 10.820081200813712 1.3602057501685714 0 0 0
1283 13 47.1033022805201 9.016726992391144 1.211928422842467 -1 0 0
1282 2 51.522990134288364 7.2133853265387 1.1442293602527909 -1 0 0
1287 15 51.88135747535022 9.016726992391147 1.211928422842409 -1 0 0
1362 2 51.52299013428846 10.820078278613712 1.1442293602528397 -1 0 0
1284 14 49.08408838623084 7.213388248738713 1.3602057501686011 -1 0 0
1281 1 49.549485065865724 9.016729066358993 1.2829288652395483 -1 0 0
1364 14 49.08408838623073 10.820081200813714 1.3602057501685731 -1 0 0
1285 3 54.3275402606956 9.016729066359007 1.2829288652395787 -1 0 0
1286 4 56.30104532911835 7.213385326538697 1.1442293602528102 -1 0 0
1291 13 56.659412670180146 9.016726992391144 1.2119284228424352 -1 0 0
1366 4 56.301045329118466 10.820078278613709 1.1442293602528344 -1 0 0
1288 16 53.86214358106084 7.213388248738711 1.3602057501685745 -1 0 0
1292 14 58.64019877589081 7.213388248738713 1.3602057501685987 -1 0 0
1289 1 59.10559545552566 9.016729066358998 1.28292886523958 -1 0 0
1368 16 53.862143581060735 10.820081200813709 1.3602057501685616 -1 0 0
1372 14 58.64019877589072 10.820081200813712 1.360205750168595 -1 0 0
1290 2 61.0791005239484 7.213385326538698 1.144229360252784 -1 0 0
1295 15 61.43746786501013 9.016726992391144 1.2119284228424336 -1 0 0
1370 2 61.07910052394847 10.82007827861371 1.144229360252792 -1 0 0
1296 16 63.418253970720855 7.213388248738713 1.3602057501686058 -1 0 0
1293 3 63.88365065035572 9.01672906635899 1.282928865239552 -1 0 0
1376 16 63.418253970720805 10.820081200813716 1.3602057501685918 -1 0 0
1294 4 65.85715571877834 7.2133853265387 1.1442293602527533 -1 0 0
1374 4 65.85715571877842 10.820078278613716 1.144229360252773 -1 0 0
1298 2 70.63521091360849 7.2133853265387 1.144229360252809 -1 0 0
1299 13 66.21552305984031 9.016726992391144 1.2119284228423595 -1 0 0
1378 2 70.63521091360849 10.820078278613705 1.1442293602528324 -1 0 0
1300 14 68.19630916555073 7.21338824873871 1.3602057501685498 -1 0 0
1297 1 68.66170584518551 9.016729066358996 1.2829288652396018 -1 0 0
1380 14 68.19630916555072 10.820081200813712 1.3602057501685345 -1 0 0
1303 15 70.99357825467014 9.016726992391146 1.2119284228424436 -1 0 0
1302 4 75.41326610843828 7.213385326538695 1.144229360252834 -1 0 0
1307 13 75.77163344950024 9.016726992391137 1.211928422842393 -1 0 0
1382 4 75.41326610843845 10.82007827861371 1.1442293602527691 -1 0 0
1304 16 72.9743643603809 7.213388248738714 1.3602057501685811 -1 0 0
1301 3 73.43976104001567 9.016729066359005 1.282928865239575 -1 0 0
1384 16 72.97436436038076 10.820081200813714 1.3602057501686065 -1 0 0
1305 1 78.21781623484557 9.016729066359 1.2829288652395814 -1 0 0
1306 2 80.1913213032683 7.213385326538701 1.1442293602528917 -1 0 0
1311 15 80.54968864433005 9.016726992391144 1.2119284228425207 -1 0 0
1386 2 80.19132130326837 10.82007827861371 1.1442293602528684 -1 0 0
1308 14 77.75241955521089 7.213388248738711 1.3602057501685854 -1 0 0
1312 16 82.53047475004072 7.213388248738713 1.3602057501685867 -1 0 0
1309 3 82.99587142967577 9.016729066358995 1.2829288652395299 -1 0 0
1388 14 77.75241955521088 10.820081200813714 1.3602057501685543 -1 0 0
1392 16 82.53047475004061 10.82008120081371 1.3602057501685503 -1 0 0
1310 4 84.96937649809848 7.213385326538698 1.144229360252823 -1 0 0
1315 13 85.32774383916029 9.016726992391147 1.2119284228424012 -1 0 0
1390 4 84.96937649809857 10.82007827861371 1.1442293602528788 -1 0 0
1316 14 87.30852994487073 7.213388248738713 1.3602057501685514 -1 0 0
1313 1 87.77392662450555 9.016729066359003 1.2829288652396036 -1 0 0
1396 14 87.30852994487088 10.820081200813712 1.3602057501686033 -1 0 0
1323 13 94.88385422882013 9.016726992391144 1.211928422842484 -1 0 0
1314 2 89.7474316929285 7.213385326538698 1.1442293602528524 -1 0 0
1394 2 89.74743169292832 10.820078278613707 1.1442293602528217 -1 0 0
1318 4 94.5254868877583 7.213385326538698 1.1442293602528844 -1 0 0
1319 15 90.1057990339902 9.016726992391142 1.2119284228424367 -1 0 0
1398 4 94.52548688775855 10.820078278613709 1.1442293602528932 -1 0 0
1320 16 92.08658513970086 7.213388248738709 1.3602057501685798 -1 0 0
1317 3 92.55198181933562 9.016729066359002 1.2829288652395734 -1 0 0
1400 16 92.08658513970072 10.820081200813716 1.3602057501685565 -1 0 0
1407 15 4.100805527050133 12.623419944466166 1.211928422842448 0 0 0
1482 2 3.742438185988418 14.426771230688717 1.1442293602528155 0 0 0
1487 15 4.100805527050162 16.230112896541154 1.211928422842434 0 0 0
1401 1 1.7689331175656013 12.623422018433958 1.2829288652395965 0 0 0
1484 14 1.3035364379307732 14.426774152888717 1.3602057501685776 0 0 0
1481 1 1.7689331175657854 16.23011497050902 1.2829288652395148 0 0 0
1405 3 6.546988312395677 12.623422018433963 1.2829288652395494 0 0 0
1485 3 6.546988312395649 16.230114970509018 1.2829288652395596 0 0 0
1411 13 8.878860721880134 12.623419944466168 1.211928422842447 0 0 0
1486 4 8.52049338081841 14.426771230688717 1.1442293602528202 0 0 0
1491 13 8.878860721880132 16.230112896541154 1.2119284228424492 0 0 0
1409 1 11.32504350722568 12.62342201843396 1.2829288652395514 0 0 0
1488 16 6.0815916327607935 14.426774152888717 1.3602057501685694 0 0 0
1492 14 10.859646827590785 14.426774152888717 1.3602057501685716 0 0 0
1489 1 11.325043507225681 16.230114970509018 1.2829288652395465 0 0 0
1415 15 13.656915916710188 12.623419944466168 1.2119284228424212 0 0 0
1490 2 13.298548575648418 14.426771230688718 1.144229360252816 0 0 0
1495 15 13.656915916710128 16.230112896541154 1.21192842284245 0 0 0
1413 3 16.10309870205563 12.623422018433962 1.2829288652395718 0 0 0
1496 16 15.63770202242077 14.426774152888717 1.3602057501685747 0 0 0
1493 3 16.103098702055682 16.230114970509018 1.2829288652395505 0 0 0
1494 4 18.076603770478425 14.426771230688715 1.1442293602528133 0 0 0
1419 13 18.434971111540122 12.623419944466166 1.2119284228424525 0 0 0
1498 2 22.854658965308413 14.426771230688718 1.1442293602528215 0 0 0
1499 13 18.434971111540147 16.230112896541154 1.2119284228424339 0 0 0
1417 1 20.88115389688568 12.623422018433965 1.2829288652395443 0 0 0
1500 14 20.41575721725078 14.42677415288872 1.3602057501685751 0 0 0
1497 1 20.881153896885653 16.230114970509014 1.282928865239562 0 0 0
1423 15 23.213026306370107 12.623419944466168 1.211928422842458 0 0 0
1503 15 23.213026306370107 16.230112896541154 1.2119284228424598 0 0 0
1427 13 27.991081501200103 12.623419944466166 1.211928422842452 0 0 0
1502 4 27.63271416013839 14.426771230688718 1.1442293602528069 0 0 0
1507 13 27.991081501200178 16.230112896541154 1.2119284228424214 0 0 0
1421 3 25.659209091715706 12.62342201843396 1.2829288652395305 0 0 0
1504 16 25.193812412080792 14.426774152888717 1.3602057501685663 0 0 0
1501 3 25.65920909171569 16.230114970509018 1.2829288652395348 0 0 0
1425 1 30.43726428654571 12.62342201843396 1.2829288652395363 0 0 0
1505 1 30.437264286545624 16.230114970509018 1.282928865239567 0 0 0
1431 15 32.769136696030166 12.623419944466166 1.2119284228424203 0 0 0
1506 2 32.41076935496841 14.42677123068872 1.1442293602528018 0 0 0
1511 15 32.76913669603012 16.230112896541154 1.2119284228424505 0 0 0
1429 3 35.21531948137562 12.623422018433962 1.2829288652395654 0 0 0
1508 14 29.971867606910802 14.426774152888717 1.3602057501685711 0 0 0
1512 16 34.74992280174078 14.426774152888717 1.3602057501685727 0 0 0
1509 3 35.215319481375715 16.230114970509018 1.2829288652395427 0 0 0
1435 13 37.54719189086017 12.623419944466166 1.211928422842439 0 0 0
1510 4 37.18882454979841 14.426771230688717 1.1442293602528273 0 0 0
1515 13 37.5471918908602 16.230112896541154 1.2119284228424192 0 0 0
1433 1 39.99337467620562 12.623422018433962 1.2829288652395823 0 0 0
1516 14 39.52797799657075 14.426774152888719 1.3602057501685854 0 0 0
1513 1 39.993374676205626 16.23011497050901 1.2829288652395738 0 0 0
1514 2 41.96687974462845 14.426771230688715 1.1442293602528102 0 0 0
1439 15 42.32524708569019 12.623419944466166 1.2119284228424345 0 0 0
1518 4 46.74493493945838 14.42677123068872 1.1442293602528277 0 0 0
1519 15 42.325247085690165 16.230112896541154 1.211928422842435 0 0 0
1437 3 44.77142987103564 12.623422018433958 1.2829288652395487 0 0 0
1520 16 44.30603319140081 14.426774152888722 1.3602057501685627 0 0 0
1517 3 44.771429871035636 16.23011497050902 1.2829288652395678 0 0 0
1363 13 47.103302280520126 12.623419944466166 1.2119284228424476 -1 0 0
1443 13 47.10330228052018 16.230112896541154 1.2119284228424332 -1 0 0
1367 15 51.88135747535013 12.623419944466166 1.2119284228424512 -1 0 0
1442 2 51.522990134288335 14.426771230688715 1.1442293602528049 -1 0 0
1447 15 51.881357475350136 16.23011289654115 1.2119284228424405 -1 0 0
1361 1 49.549485065865674 12.623422018433958 1.2829288652395603 -1 0 0
1444 14 49.08408838623086 14.426774152888717 1.3602057501685922 -1 0 0
1441 1 49.54948506586563 16.23011497050901 1.2829288652395776 -1 0 0
1365 3 54.3275402606957 12.623422018433962 1.2829288652395519 -1 0 0
1445 3 54.327540260695685 16.230114970509014 1.2829288652395536 -1 0 0
1371 13 56.65941267018015 12.623419944466166 1.211928422842426 -1 0 0
1446 4 56.30104532911838 14.42677123068872 1.144229360252803 -1 0 0
1451 13 56.659412670180174 16.23011289654115 1.2119284228424316 -1 0 0
1369 1 59.10559545552564 12.623422018433956 1.28292886523957 -1 0 0
1448 16 53.86214358106082 14.42677415288872 1.3602057501685814 -1 0 0
1452 14 58.640198775890816 14.426774152888719 1.3602057501685914 -1 0 0
1449 1 59.10559545552566 16.230114970509018 1.282928865239574 -1 0 0
1375 15 61.4374678650102 12.623419944466166 1.2119284228424012 -1 0 0
1450 2 61.07910052394838 14.426771230688717 1.144229360252762 -1 0 0
1455 15 61.4374678650101 16.230112896541158 1.2119284228424414 -1 0 0
1373 3 63.88365065035565 12.623422018433963 1.2829288652395665 -1 0 0
1456 16 63.41825397072087 14.426774152888715 1.3602057501685625 -1 0 0
1453 3 63.88365065035575 16.230114970509014 1.2829288652395057 -1 0 0
1454 4 65.85715571877837 14.426771230688713 1.1442293602528633 -1 0 0
1379 13 66.21552305984027 12.623419944466173 1.2119284228424159 -1 0 0
1458 2 70.63521091360845 14.426771230688724 1.1442293602528135 -1 0 0
1459 13 66.21552305984021 16.230112896541154 1.2119284228424516 -1 0 0
1377 1 68.66170584518555 12.623422018433965 1.2829288652395887 -1 0 0
1460 14 68.19630916555076 14.426774152888722 1.360205750168569 -1 0 0
1457 1 68.6617058451856 16.23011497050902 1.2829288652395807 -1 0 0
1383 15 70.99357825466998 12.623419944466164 1.211928422842492 -1 0 0
1463 15 70.99357825467014 16.230112896541158 1.211928422842442 -1 0 0
1387 13 75.77163344950024 12.623419944466175 1.2119284228424037 -1 0 0
1462 4 75.41326610843849 14.426771230688717 1.1442293602528535 -1 0 0
1467 13 75.7716334495003 16.23011289654115 1.2119284228423728 -1 0 0
1381 3 73.43976104001584 12.623422018433955 1.2829288652395168 -1 0 0
1464 16 72.97436436038069 14.426774152888717 1.3602057501685678 -1 0 0
1461 3 73.43976104001564 16.23011497050902 1.2829288652395896 -1 0 0
1385 1 78.2178162348456 12.623422018433967 1.282928865239577 -1 0 0
1465 1 78.21781623484549 16.230114970509014 1.2829288652396111 -1 0 0
1391 15 80.54968864432998 12.62341994446616 1.2119284228425267 -1 0 0
1466 2 80.19132130326844 14.426771230688717 1.1442293602528275 -1 0 0
1471 15 80.54968864433 16.230112896541158 1.211928422842515 -1 0 0
1389 3 82.99587142967584 12.623422018433956 1.2829288652394701 -1 0 0
1468 14 77.75241955521071 14.426774152888719 1.3602057501685718 -1 0 0
1472 16 82.53047475004077 14.426774152888722 1.3602057501685438 -1 0 0
1469 3 82.99587142967584 16.23011497050902 1.2829288652394988 -1 0 0
1395 13 85.32774383916008 12.623419944466166 1.2119284228424798 -1 0 0
1470 4 84.96937649809846 14.42677123068872 1.1442293602528681 -1 0 0
1475 13 85.32774383916004 16.230112896541154 1.211928422842507 -1 0 0
1393 1 87.7739266245057 12.623422018433965 1.282928865239537 -1 0 0
1476 14 87.3085299448707 14.426774152888717 1.360205750168574 -1 0 0
1473 1 87.77392662450573 16.230114970509018 1.2829288652395243 -1 0 0
1403 13 94.8838542288202 12.62341994446616 1.2119284228424334 -1 0 0
1483 13 94.88385422882001 16.230112896541158 1.2119284228425098 -1 0 0
1474 2 89.74743169292853 14.426771230688717 1.1442293602528741 -1 0 0
1399 15 90.10579903399007 12.623419944466168 1.2119284228424758 -1 0 0
1478 4 94.5254868877584 14.426771230688717 1.144229360252812 -1 0 0
1479 15 90.10579903399025 16.230112896541154 1.2119284228424356 -1 0 0
1397 3 92.5519818193357 12.623422018433962 1.2829288652395494 -1 0 0
1480 16 92.08658513970079 14.426774152888717 1.360205750168597 -1 0 0
1477 3 92.5519818193356 16.23011497050901 1.2829288652395945 -1 0 0
1562 2 3.7424381859884117 18.0334641827637 1.1442293602528344 0 0 0
1567 15 4.100805527050146 19.83680584861617 1.2119284228424374 0 0 0
1642 2 3.742438185988402 21.640157134838695 1.1442293602528184 0 0 0
1647 15 4.100805527050163 23.443498800691156 1.2119284228424334 0 0 0
1564 14 1.3035364379307708 18.033467104963716 1.3602057501686002 0 0 0
1561 1 1.7689331175657692 19.836807922583947 1.2829288652395372 0 0 0
1644 14 1.3035364379307774 21.64016005703873 1.360205750168599 0 0 0
1641 1 1.7689331175657304 23.44350087465901 1.2829288652395585 0 0 0
1565 3 6.546988312395662 19.836807922583947 1.2829288652395496 0 0 0
1645 3 6.546988312395647 23.44350087465901 1.282928865239563 0 0 0
1566 4 8.520493380818404 18.033464182763698 1.144229360252823 0 0 0
1571 13 8.878860721880166 19.836805848616166 1.2119284228424314 0 0 0
1646 4 8.520493380818428 21.640157134838695 1.1442293602528224 0 0 0
1651 13 8.878860721880134 23.443498800691156 1.21192842284245 0 0 0
1568 16 6.081591632760781 18.033467104963716 1.3602057501685807 0 0 0
1572 14 10.859646827590792 18.033467104963716 1.36020575016857 0 0 0
1569 1 11.325043507225647 19.836807922583947 1.2829288652395607 0 0 0
1648 16 6.081591632760765 21.640160057038727 1.36020575016857 0 0 0
1652 14 10.85964682759077 21.640160057038727 1.36020575016857 0 0 0
1649 1 11.325043507225683 23.443500874659005 1.2829288652395454 0 0 0
1570 2 13.298548575648406 18.0334641827637 1.1442293602528373 0 0 0
1575 15 13.656915916710135 19.83680584861617 1.2119284228424503 0 0 0
1650 2 13.298548575648434 21.64015713483869 1.1442293602528208 0 0 0
1655 15 13.656915916710192 23.443498800691156 1.2119284228424245 0 0 0
1576 16 15.637702022420823 18.033467104963727 1.3602057501685865 0 0 0
1573 3 16.10309870205567 19.836807922583947 1.2829288652395527 0 0 0
1656 16 15.637702022420802 21.64016005703872 1.3602057501685787 0 0 0
1653 3 16.10309870205562 23.443500874659012 1.2829288652395805 0 0 0
1574 4 18.076603770478375 18.0334641827637 1.1442293602528122 0 0 0
1654 4 18.0766037704784 21.640157134838695 1.1442293602528053 0 0 0
1578 2 22.854658965308435 18.033464182763698 1.1442293602528297 0 0 0
1579 13 18.434971111540186 19.836805848616166 1.2119284228424212 0 0 0
1658 2 22.854658965308413 21.640157134838695 1.144229360252804 0 0 0
1659 13 18.434971111540136 23.443498800691156 1.2119284228424474 0 0 0
1580 14 20.41575721725075 18.033467104963712 1.3602057501685798 0 0 0
1577 1 20.881153896885625 19.83680792258395 1.282928865239578 0 0 0
1660 14 20.41575721725078 21.640160057038727 1.3602057501685751 0 0 0
1657 1 20.881153896885674 23.44350087465901 1.2829288652395552 0 0 0
1583 15 23.21302630637014 19.83680584861617 1.2119284228424416 0 0 0
1663 15 23.213026306370157 23.443498800691156 1.2119284228424287 0 0 0
1582 4 27.63271416013843 18.0334641827637 1.1442293602528215 0 0 0
1587 13 27.991081501200153 19.836805848616166 1.2119284228424305 0 0 0
1662 4 27.63271416013841 21.640157134838695 1.1442293602528064 0 0 0
1667 13 27.991081501200167 23.443498800691156 1.211928422842424 0 0 0