LAMMPS data file via write_data, version 29 Aug 2024, timestep = 2, units = metal

7560 atoms
12 atom types

0 101.11486715988 xlo xhi
0 100.57440249642 ylo yhi
-50 50 zlo zhi

Masses

1 28.085
2 28.085
3 28.085
4 28.085
5 28.085
6 28.085
7 32.06
8 32.06
9 32.06
10 32.06
11 32.06
12 32.06

Atoms # atomic

1307 7 2.405131614326272 1.676242015003661 0.3210059933793543 0 0 0
1386 2 0.862818506632558 3.352482568268675 0.012635076503583175 0 0 0
1390 2 5.677812180912561 3.352482568268675 0.012635076503582324 0 0 0
1391 7 2.4051316143262755 5.0287220982176635 0.3210059933793546 0 0 0
1304 8 0.002099328570057849 3.3628565337169293e-06 2.1912591752204333 0 0 0
1305 1 3.273657429454647 1.6762430583420849 2.4929179666223567 0 0 0
1308 8 4.81709300285006 3.362856532720785e-06 2.1912591752204325 0 0 0
1388 8 0.002099328570057856 3.3524834460705355 2.1912591752204333 0 0 0
1392 8 4.81709300285006 3.352483446070536 2.1912591752204325 0 0 0
1389 1 3.2736574294546457 5.0287231415560845 2.492917966622358 0 0 0
1302 2 0.8628185066325594 2.4850546651578043e-06 0.0126350765035834 0 0 0
1306 2 5.677812180912562 2.4850546651578043e-06 0.012635076503582678 0 0 0
1311 7 7.220125288606274 1.6762420150036612 0.3210059933793538 0 0 0
1394 2 10.492805855192557 3.3524825682686745 0.012635076503583163 0 0 0
1395 7 7.220125288606278 5.0287220982176635 0.32100599337935415 0 0 0
1309 1 8.088651103734644 1.6762430583420846 2.492917966622357 0 0 0
1312 8 9.632086677130056 3.3628565329064175e-06 2.1912591752204333 0 0 0
1396 8 9.632086677130058 3.352483446070536 2.1912591752204333 0 0 0
1393 1 8.088651103734643 5.0287231415560845 2.4929179666223584 0 0 0
1310 2 10.49280585519256 2.4850546651578043e-06 0.012635076503583571 0 0 0
1315 7 12.035118962886273 1.676242015003661 0.3210059933793545 0 0 0
1319 7 16.850112637166273 1.6762420150036612 0.32100599337935454 0 0 0
1398 2 15.307799529472558 3.352482568268675 0.012635076503582407 0 0 0
1399 7 12.035118962886274 5.028722098217664 0.32100599337935504 0 0 0
1403 7 16.850112637166276 5.028722098217664 0.3210059933793549 0 0 0
1313 1 12.903644778014646 1.6762430583420849 2.4929179666223567 0 0 0
1316 8 14.44708035141006 3.3628565326564077e-06 2.1912591752204333 0 0 0
1317 1 17.71863845229465 1.6762430583420849 2.4929179666223553 0 0 0
1400 8 14.44708035141006 3.352483446070536 2.191259175220433 0 0 0
1397 1 12.903644778014646 5.0287231415560845 2.4929179666223584 0 0 0
1401 1 17.718638452294645 5.0287231415560845 2.492917966622357 0 0 0
1314 2 15.30779952947256 2.4850546651578043e-06 0.01263507650358257 0 0 0
1323 7 21.665106311446277 1.6762420150036614 0.32100599337935426 0 0 0
1402 2 20.12279320375256 3.352482568268675 0.012635076503583212 0 0 0
1407 7 21.66510631144628 5.028722098217664 0.3210059933793547 0 0 0
1320 8 19.26207402569006 3.3628565327574e-06 2.191259175220433 0 0 0
1321 1 22.533632126574645 1.6762430583420846 2.492917966622356 0 0 0
1404 8 19.26207402569006 3.3524834460705355 2.1912591752204325 0 0 0
1405 1 22.533632126574645 5.0287231415560845 2.4929179666223575 0 0 0
1318 2 20.122793203752565 2.4850546651578043e-06 0.012635076503583375 0 0 0
1327 7 26.480099985726273 1.6762420150036614 0.3210059933793526 0 0 0
1406 2 24.937786878032558 3.352482568268675 0.012635076503581893 0 0 0
1411 7 26.480099985726273 5.028722098217664 0.3210059933793532 0 0 0
1324 8 24.07706769997006 3.362856532622193e-06 2.1912591752204333 0 0 0
1325 1 27.34862580085464 1.6762430583420849 2.4929179666223575 0 0 0
1328 8 28.892061374250055 3.3628565326940816e-06 2.191259175220432 0 0 0
1408 8 24.07706769997006 3.3524834460705364 2.1912591752204333 0 0 0
1412 8 28.892061374250055 3.3524834460705355 2.1912591752204316 0 0 0
1409 1 27.34862580085464 5.028723141556085 2.492917966622359 0 0 0
1322 2 24.93778687803256 2.4850546651578043e-06 0.012635076503581612 0 0 0
1331 7 31.295093660006277 1.6762420150036614 0.3210059933793541 0 0 0
1410 2 29.75278055231256 3.352482568268675 0.01263507650358425 0 0 0
1414 2 34.56777422659256 3.352482568268674 0.012635076503583757 0 0 0
1415 7 31.295093660006277 5.028722098217664 0.32100599337935365 0 0 0
1329 1 32.163619475134645 1.6762430583420846 2.4929179666223584 0 0 0
1332 8 33.70705504853006 3.362856532092237e-06 2.1912591752204333 0 0 0
1416 8 33.70705504853006 3.3524834460705373 2.1912591752204333 0 0 0
1413 1 32.163619475134645 5.0287231415560845 2.4929179666223598 0 0 0
1326 2 29.75278055231256 2.4850546651578043e-06 0.012635076503584013 0 0 0
1330 2 34.56777422659256 2.4850546651578043e-06 0.012635076503584038 0 0 0
1335 7 36.11008733428628 1.6762420150036605 0.32100599337935404 0 0 0
1339 7 40.92508100856627 1.6762420150036605 0.32100599337935287 0 0 0
1418 2 39.382767900872565 3.3524825682686736 0.01263507650358327 0 0 0
1419 7 36.11008733428628 5.028722098217664 0.32100599337935454 0 0 0
1423 7 40.92508100856628 5.028722098217664 0.3210059933793546 0 0 0
1333 1 36.97861314941465 1.6762430583420846 2.492917966622356 0 0 0
1336 8 38.52204872281006 3.3628565321330103e-06 2.191259175220433 0 0 0
1420 8 38.52204872281006 3.352483446070537 2.191259175220433 0 0 0
1417 1 36.97861314941465 5.0287231415560845 2.492917966622357 0 0 0
1334 2 39.382767900872565 2.4850546651578043e-06 0.012635076503583507 0 0 0
1343 7 45.74007468284627 1.6762420150036608 0.32100599337935404 0 0 0
1422 2 44.19776157515256 3.352482568268674 0.012635076503582247 0 0 0
1427 7 45.74007468284628 5.028722098217664 0.32100599337935476 0 0 0
1337 1 41.793606823694645 1.6762430583420846 2.492917966622356 0 0 0
1340 8 43.33704239709006 3.362856533513482e-06 2.191259175220433 0 0 0
1341 1 46.60860049797464 1.6762430583420846 2.492917966622358 0 0 0
1424 8 43.33704239709006 3.3524834460705355 2.1912591752204325 0 0 0
1421 1 41.793606823694645 5.028723141556085 2.492917966622357 0 0 0
1425 1 46.60860049797464 5.0287231415560845 2.492917966622359 0 0 0
1338 2 44.19776157515256 2.4850546651578043e-06 0.012635076503582202 0 0 0
1263 7 50.555068357126274 1.6762420150036599 0.32100599337935515 -1 0 0
1426 2 49.01275524943256 3.352482568268674 0.01263507650358398 0 0 0
1347 7 50.55506835712628 5.0287220982176635 0.32100599337935704 -1 0 0
1344 8 48.152036071370055 3.3628565320182602e-06 2.191259175220433 0 0 0
1261 1 51.42359417225465 1.6762430583420849 2.492917966622355 -1 0 0
1264 8 52.967029745650066 3.362856533615204e-06 2.1912591752204333 -1 0 0
1428 8 48.152036071370055 3.352483446070537 2.191259175220433 0 0 0
1348 8 52.967029745650066 3.3524834460705355 2.191259175220433 -1 0 0
1345 1 51.423594172254646 5.028723141556084 2.4929179666223558 -1 0 0
1342 2 49.01275524943256 2.4850546651578043e-06 0.012635076503584605 0 0 0
1267 7 55.37006203140628 1.6762420150036605 0.32100599337935376 -1 0 0
1346 2 53.82774892371257 3.352482568268674 0.012635076503582943 -1 0 0
1350 2 58.642742597992566 3.3524825682686754 0.012635076503582417 -1 0 0
1351 7 55.370062031406285 5.028722098217664 0.32100599337935537 -1 0 0
1265 1 56.23858784653466 1.6762430583420849 2.492917966622356 -1 0 0
1268 8 57.78202341993007 3.3628565335849116e-06 2.191259175220433 -1 0 0
1352 8 57.78202341993007 3.3524834460705355 2.191259175220434 -1 0 0
1349 1 56.23858784653465 5.028723141556084 2.492917966622358 -1 0 0
1262 2 53.82774892371257 2.4850546651578043e-06 0.012635076503583184 -1 0 0
1266 2 58.642742597992566 2.4850546651578043e-06 0.012635076503582764 -1 0 0
1271 7 60.18505570568628 1.6762420150036625 0.3210059933793547 -1 0 0
1275 7 65.00004937996628 1.6762420150036605 0.32100599337935354 -1 0 0
1354 2 63.45773627227257 3.3524825682686736 0.012635076503583618 -1 0 0
1355 7 60.18505570568628 5.028722098217664 0.32100599337935315 -1 0 0
1359 7 65.00004937996628 5.028722098217664 0.3210059933793553 -1 0 0
1269 1 61.05358152081465 1.6762430583420846 2.4929179666223567 -1 0 0
1272 8 62.59701709421007 3.3628565321042684e-06 2.1912591752204333 -1 0 0
1356 8 62.59701709421007 3.3524834460705373 2.191259175220433 -1 0 0
1353 1 61.05358152081465 5.0287231415560845 2.4929179666223584 -1 0 0
1270 2 63.45773627227257 2.4850546651578043e-06 0.01263507650358352 -1 0 0
1279 7 69.81504305424627 1.6762420150036605 0.32100599337935304 -1 0 0
1358 2 68.27272994655256 3.3524825682686776 0.012635076503582079 -1 0 0
1363 7 69.81504305424627 5.0287220982176635 0.32100599337935126 -1 0 0
1273 1 65.86857519509465 1.676243058342085 2.492917966622357 -1 0 0
1276 8 67.41201076849006 3.3628565300708845e-06 2.191259175220434 -1 0 0
1277 1 70.68356886937465 1.6762430583420846 2.492917966622356 -1 0 0
1360 8 67.41201076849006 3.3524834460705355 2.1912591752204325 -1 0 0
1357 1 65.86857519509465 5.028723141556085 2.492917966622358 -1 0 0
1361 1 70.68356886937465 5.028723141556082 2.4929179666223598 -1 0 0
1274 2 68.27272994655256 2.4850546651578043e-06 0.012635076503581765 -1 0 0
1283 7 74.63003672852628 1.6762420150036605 0.32100599337935354 -1 0 0
1362 2 73.08772362083256 3.3524825682686776 0.012635076503582848 -1 0 0
1367 7 74.63003672852628 5.0287220982176635 0.3210059933793521 -1 0 0
1280 8 72.22700444277005 3.362856533257212e-06 2.1912591752204347 -1 0 0
1281 1 75.49856254365464 1.6762430583420846 2.492917966622358 -1 0 0
1284 8 77.04199811705006 3.3628565337288123e-06 2.191259175220432 -1 0 0
1364 8 72.22700444277005 3.3524834460705355 2.1912591752204342 -1 0 0
1368 8 77.04199811705006 3.3524834460705355 2.191259175220432 -1 0 0
1365 1 75.49856254365464 5.0287231415560845 2.4929179666223606 -1 0 0
1278 2 73.08772362083256 2.4850546651578043e-06 0.012635076503582735 -1 0 0
1287 7 79.44503040280628 1.6762420150036605 0.32100599337935354 -1 0 0
1366 2 77.90271729511257 3.3524825682686736 0.012635076503584407 -1 0 0
1370 2 82.71771096939257 3.3524825682686736 0.012635076503584405 -1 0 0
1371 7 79.44503040280628 5.028722098217664 0.321005993379355 -1 0 0
1285 1 80.31355621793465 1.6762430583420846 2.4929179666223567 -1 0 0
1288 8 81.85699179133006 3.362856533785379e-06 2.191259175220432 -1 0 0
1372 8 81.85699179133006 3.352483446070535 2.1912591752204316 -1 0 0
1369 1 80.31355621793465 5.0287231415560845 2.4929179666223575 -1 0 0
1282 2 77.90271729511257 2.4850546651578043e-06 0.01263507650358468 -1 0 0
1286 2 82.71771096939257 2.4850546651578043e-06 0.012635076503584676 -1 0 0
1291 7 84.26002407708629 1.6762420150036605 0.32100599337935354 -1 0 0
1295 7 89.07501775136629 1.6762420150036605 0.3210059933793545 -1 0 0
1374 2 87.53270464367257 3.3524825682686736 0.012635076503584393 -1 0 0
1375 7 84.26002407708629 5.028722098217664 0.321005993379355 -1 0 0
1379 7 89.07501775136629 5.028722098217664 0.3210059933793562 -1 0 0
1289 1 85.12854989221465 1.6762430583420846 2.4929179666223567 -1 0 0
1292 8 86.67198546561006 3.3628565337848127e-06 2.191259175220432 -1 0 0
1376 8 86.67198546561006 3.352483446070535 2.1912591752204316 -1 0 0
1373 1 85.12854989221465 5.0287231415560845 2.4929179666223575 -1 0 0
1290 2 87.53270464367257 2.4850546651578043e-06 0.012635076503584329 -1 0 0
1299 7 93.89001142564628 1.676242015003661 0.32100599337935803 -1 0 0
1378 2 92.34769831795256 3.352482568268674 0.01263507650358273 -1 0 0
1383 7 93.89001142564629 5.028722098217664 0.3210059933793597 -1 0 0
1293 1 89.94354356649465 1.676243058342085 2.4929179666223567 -1 0 0
1296 8 91.48697913989007 3.3628565300324944e-06 2.191259175220434 -1 0 0
1297 1 94.75853724077466 1.676243058342085 2.492917966622355 -1 0 0
1380 8 91.48697913989007 3.352483446070535 2.191259175220432 -1 0 0
1377 1 89.94354356649465 5.028723141556085 2.4929179666223575 -1 0 0
1381 1 94.75853724077466 5.028723141556085 2.4929179666223558 -1 0 0
1294 2 92.34769831795256 2.4850546651578043e-06 0.01263507650358278 -1 0 0
1303 7 98.70500509992628 1.6762420150036605 0.321005993379353 -1 0 0
1382 2 97.16269199223257 3.352482568268674 0.012635076503581666 -1 0 0
1387 7 98.70500509992628 5.028722098217664 0.3210059933793547 -1 0 0
1300 8 96.30197281417007 3.3628565301193644e-06 2.1912591752204342 -1 0 0
1301 1 99.57353091505465 1.6762430583420849 2.492917966622356 -1 0 0
1384 8 96.30197281417007 3.352483446070535 2.1912591752204325 -1 0 0
1385 1 99.57353091505465 5.0287231415560845 2.4929179666223575 -1 0 0
1298 2 97.16269199223257 2.4850546651578043e-06 0.012635076503581942 -1 0 0
1470 2 0.8628185066325584 6.704962651482674 0.012635076503583784 0 0 0
1474 2 5.677812180912562 6.704962651482674 0.01263507650358282 0 0 0
1475 7 2.4051316143262738 8.381202181431664 0.32100599337935454 0 0 0
1554 2 0.8628185066325593 10.057442734696677 0.012635076503583307 0 0 0
1558 2 5.677812180912562 10.057442734696675 0.012635076503582577 0 0 0
1559 7 2.405131614326275 11.733682264645665 0.32100599337935465 0 0 0
1472 8 0.002099328570057923 6.704963529284535 2.191259175220433 0 0 0
1476 8 4.81709300285006 6.704963529284535 2.1912591752204325 0 0 0
1473 1 3.273657429454646 8.381203224770085 2.4929179666223575 0 0 0
1556 8 0.00209932857005819 10.057443612498535 2.191259175220433 0 0 0
1560 8 4.81709300285006 10.057443612498535 2.1912591752204325 0 0 0
1557 1 3.273657429454646 11.733683307984084 2.492917966622358 0 0 0
1478 2 10.49280585519256 6.704962651482675 0.01263507650358406 0 0 0
1479 7 7.220125288606277 8.381202181431664 0.32100599337935415 0 0 0
1562 2 10.49280585519256 10.057442734696675 0.012635076503583451 0 0 0
1563 7 7.220125288606278 11.733682264645665 0.32100599337935426 0 0 0
1480 8 9.632086677130056 6.704963529284535 2.191259175220433 0 0 0
1477 1 8.088651103734643 8.381203224770085 2.492917966622358 0 0 0
1564 8 9.632086677130056 10.057443612498535 2.1912591752204333 0 0 0
1561 1 8.088651103734643 11.733683307984084 2.4929179666223584 0 0 0
1482 2 15.30779952947256 6.704962651482674 0.012635076503583148 0 0 0
1483 7 12.035118962886274 8.381202181431664 0.3210059933793547 0 0 0
1487 7 16.850112637166276 8.381202181431663 0.3210059933793547 0 0 0
1566 2 15.30779952947256 10.057442734696675 0.012635076503582584 0 0 0
1567 7 12.035118962886274 11.733682264645665 0.32100599337935515 0 0 0
1571 7 16.850112637166276 11.733682264645665 0.3210059933793549 0 0 0
1484 8 14.44708035141006 6.704963529284535 2.191259175220433 0 0 0
1481 1 12.903644778014646 8.381203224770085 2.492917966622358 0 0 0
1485 1 17.718638452294645 8.381203224770085 2.4929179666223567 0 0 0
1568 8 14.44708035141006 10.057443612498535 2.191259175220433 0 0 0
1565 1 12.903644778014646 11.733683307984084 2.492917966622358 0 0 0
1569 1 17.718638452294645 11.733683307984084 2.492917966622357 0 0 0
1486 2 20.12279320375256 6.704962651482675 0.012635076503583975 0 0 0
1491 7 21.66510631144628 8.381202181431663 0.3210059933793543 0 0 0
1570 2 20.12279320375256 10.057442734696675 0.012635076503583132 0 0 0
1575 7 21.66510631144628 11.733682264645665 0.3210059933793547 0 0 0
1488 8 19.26207402569006 6.704963529284535 2.191259175220432 0 0 0
1489 1 22.533632126574645 8.381203224770085 2.492917966622357 0 0 0
1572 8 19.26207402569006 10.057443612498535 2.1912591752204325 0 0 0
1573 1 22.533632126574645 11.733683307984084 2.492917966622357 0 0 0
1490 2 24.937786878032558 6.704962651482674 0.012635076503582608 0 0 0
1495 7 26.480099985726273 8.381202181431663 0.3210059933793537 0 0 0
1574 2 24.93778687803256 10.057442734696675 0.012635076503581574 0 0 0
1579 7 26.480099985726273 11.733682264645665 0.32100599337935326 0 0 0
1492 8 24.077067699970055 6.704963529284535 2.1912591752204333 0 0 0
1496 8 28.892061374250055 6.704963529284535 2.191259175220432 0 0 0
1493 1 27.34862580085464 8.381203224770085 2.4929179666223584 0 0 0
1576 8 24.07706769997006 10.057443612498535 2.191259175220434 0 0 0
1580 8 28.892061374250055 10.057443612498535 2.1912591752204316 0 0 0
1577 1 27.34862580085464 11.733683307984084 2.492917966622359 0 0 0
1494 2 29.75278055231256 6.704962651482674 0.012635076503584312 0 0 0
1498 2 34.56777422659256 6.704962651482674 0.012635076503584097 0 0 0
1499 7 31.295093660006277 8.381202181431663 0.3210059933793541 0 0 0
1578 2 29.75278055231256 10.057442734696677 0.01263507650358377 0 0 0
1582 2 34.56777422659256 10.057442734696675 0.012635076503583713 0 0 0
1583 7 31.295093660006277 11.733682264645665 0.32100599337935376 0 0 0
1500 8 33.70705504853006 6.704963529284535 2.191259175220434 0 0 0
1497 1 32.163619475134645 8.381203224770085 2.492917966622359 0 0 0
1584 8 33.70705504853006 10.057443612498535 2.191259175220434 0 0 0
1581 1 32.163619475134645 11.733683307984084 2.4929179666223598 0 0 0
1502 2 39.382767900872565 6.704962651482674 0.012635076503583746 0 0 0
1503 7 36.11008733428628 8.381202181431664 0.32100599337935415 0 0 0
1507 7 40.92508100856628 8.381202181431664 0.32100599337935387 0 0 0
1586 2 39.382767900872565 10.057442734696675 0.012635076503583354 0 0 0
1587 7 36.11008733428628 11.733682264645664 0.3210059933793543 0 0 0
1591 7 40.92508100856628 11.733682264645664 0.3210059933793543 0 0 0
1504 8 38.52204872281006 6.704963529284535 2.1912591752204333 0 0 0
1501 1 36.97861314941465 8.381203224770085 2.4929179666223567 0 0 0
1588 8 38.52204872281006 10.057443612498535 2.1912591752204333 0 0 0
1585 1 36.97861314941465 11.733683307984084 2.492917966622357 0 0 0
1506 2 44.19776157515256 6.704962651482674 0.012635076503582345 0 0 0
1511 7 45.74007468284628 8.381202181431664 0.32100599337935415 0 0 0
1590 2 44.19776157515256 10.057442734696675 0.01263507650358164 0 0 0
1595 7 45.74007468284628 11.733682264645664 0.32100599337935454 0 0 0
1508 8 43.33704239709006 6.704963529284535 2.191259175220433 0 0 0
1505 1 41.793606823694645 8.381203224770085 2.492917966622357 0 0 0
1509 1 46.60860049797464 8.381203224770085 2.4929179666223584 0 0 0
1592 8 43.33704239709006 10.057443612498535 2.191259175220433 0 0 0
1589 1 41.793606823694645 11.733683307984084 2.492917966622357 0 0 0
1593 1 46.60860049797464 11.733683307984084 2.4929179666223584 0 0 0
1510 2 49.01275524943256 6.704962651482675 0.012635076503584497 0 0 0
1431 7 50.55506835712628 8.381202181431664 0.3210059933793567 -1 0 0
1594 2 49.01275524943256 10.057442734696675 0.012635076503584076 0 0 0
1515 7 50.55506835712628 11.733682264645664 0.32100599337935687 -1 0 0
1512 8 48.152036071370055 6.704963529284535 2.1912591752204333 0 0 0
1432 8 52.96702974565006 6.704963529284535 2.1912591752204316 -1 0 0
1429 1 51.423594172254646 8.381203224770086 2.4929179666223553 -1 0 0
1596 8 48.152036071370055 10.057443612498535 2.1912591752204333 0 0 0
1516 8 52.967029745650066 10.057443612498535 2.191259175220433 -1 0 0
1513 1 51.423594172254646 11.733683307984082 2.4929179666223558 -1 0 0
1430 2 53.82774892371256 6.704962651482674 0.012635076503584319 -1 0 0
1434 2 58.642742597992566 6.704962651482675 0.012635076503583663 -1 0 0
1435 7 55.370062031406285 8.381202181431664 0.32100599337935504 -1 0 0
1514 2 53.82774892371257 10.057442734696675 0.01263507650358306 -1 0 0
1518 2 58.64274259799257 10.057442734696675 0.012635076503582449 -1 0 0
1519 7 55.370062031406285 11.733682264645664 0.32100599337935526 -1 0 0
1436 8 57.78202341993006 6.704963529284535 2.1912591752204325 -1 0 0
1433 1 56.23858784653465 8.381203224770086 2.492917966622357 -1 0 0
1520 8 57.78202341993007 10.057443612498535 2.191259175220433 -1 0 0
1517 1 56.23858784653465 11.733683307984082 2.4929179666223575 -1 0 0
1438 2 63.45773627227257 6.704962651482674 0.012635076503584086 -1 0 0
1439 7 60.18505570568628 8.381202181431663 0.32100599337935326 -1 0 0
1443 7 65.00004937996628 8.381202181431664 0.32100599337935487 -1 0 0
1522 2 63.45773627227257 10.057442734696675 0.012635076503583701 -1 0 0
1523 7 60.18505570568628 11.733682264645667 0.32100599337935376 -1 0 0
1527 7 65.00004937996628 11.733682264645664 0.32100599337935504 -1 0 0
1440 8 62.59701709421007 6.704963529284535 2.191259175220434 -1 0 0
1437 1 61.05358152081465 8.381203224770085 2.4929179666223584 -1 0 0
1524 8 62.59701709421007 10.057443612498535 2.191259175220434 -1 0 0
1521 1 61.05358152081465 11.733683307984084 2.4929179666223584 -1 0 0
1442 2 68.27272994655256 6.704962651482674 0.012635076503582829 -1 0 0
1447 7 69.81504305424627 8.381202181431664 0.3210059933793506 -1 0 0
1526 2 68.27272994655256 10.057442734696675 0.01263507650358221 -1 0 0
1531 7 69.81504305424627 11.733682264645664 0.321005993379351 -1 0 0
1444 8 67.41201076849006 6.704963529284535 2.1912591752204325 -1 0 0
1441 1 65.86857519509465 8.381203224770085 2.4929179666223575 -1 0 0
1445 1 70.68356886937465 8.381203224770088 2.4929179666223593 -1 0 0
1528 8 67.41201076849006 10.057443612498535 2.1912591752204325 -1 0 0
1525 1 65.86857519509465 11.733683307984084 2.4929179666223575 -1 0 0
1529 1 70.68356886937465 11.73368330798408 2.4929179666223593 -1 0 0
1446 2 73.08772362083256 6.704962651482674 0.012635076503585573 -1 0 0
1451 7 74.63003672852628 8.381202181431664 0.32100599337935143 -1 0 0
1530 2 73.08772362083256 10.057442734696675 0.012635076503583137 -1 0 0
1535 7 74.63003672852628 11.733682264645664 0.3210059933793519 -1 0 0
1448 8 72.22700444277005 6.704963529284535 2.191259175220432 -1 0 0
1452 8 77.04199811705006 6.704963529284535 2.191259175220433 -1 0 0
1449 1 75.49856254365464 8.381203224770085 2.4929179666223606 -1 0 0
1532 8 72.22700444277005 10.057443612498535 2.191259175220435 -1 0 0
1536 8 77.04199811705006 10.057443612498535 2.1912591752204325 -1 0 0
1533 1 75.49856254365464 11.733683307984084 2.4929179666223606 -1 0 0
1450 2 77.90271729511257 6.704962651482674 0.012635076503584667 -1 0 0
1454 2 82.71771096939257 6.704962651482674 0.012635076503584667 -1 0 0
1455 7 79.44503040280628 8.381202181431664 0.3210059933793546 -1 0 0
1534 2 77.90271729511257 10.057442734696675 0.012635076503584537 -1 0 0
1538 2 82.71771096939257 10.057442734696675 0.012635076503584537 -1 0 0
1539 7 79.44503040280628 11.733682264645664 0.32100599337935476 -1 0 0
1456 8 81.85699179133006 6.704963529284535 2.191259175220432 -1 0 0
1453 1 80.31355621793465 8.381203224770085 2.492917966622357 -1 0 0
1540 8 81.85699179133006 10.057443612498535 2.1912591752204316 -1 0 0
1537 1 80.31355621793465 11.733683307984084 2.4929179666223575 -1 0 0
1458 2 87.53270464367257 6.704962651482674 0.012635076503584641 -1 0 0
1459 7 84.26002407708629 8.381202181431664 0.3210059933793546 -1 0 0
1463 7 89.07501775136629 8.381202181431664 0.3210059933793555 -1 0 0
1542 2 87.53270464367257 10.057442734696675 0.012635076503584508 -1 0 0
1543 7 84.26002407708629 11.733682264645664 0.32100599337935476 -1 0 0
1547 7 89.07501775136629 11.733682264645664 0.3210059933793559 -1 0 0
1460 8 86.67198546561006 6.704963529284535 2.191259175220432 -1 0 0
1457 1 85.12854989221465 8.381203224770085 2.492917966622357 -1 0 0
1544 8 86.67198546561006 10.057443612498535 2.1912591752204316 -1 0 0
1541 1 85.12854989221465 11.733683307984084 2.4929179666223575 -1 0 0
1462 2 92.34769831795256 6.704962651482674 0.01263507650358323 -1 0 0
1467 7 93.89001142564629 8.381202181431664 0.3210059933793591 -1 0 0
1546 2 92.34769831795256 10.057442734696675 0.01263507650358257 -1 0 0
1551 7 93.89001142564629 11.733682264645664 0.3210059933793595 -1 0 0
1464 8 91.48697913989007 6.704963529284535 2.1912591752204325 -1 0 0
1461 1 89.94354356649465 8.381203224770085 2.492917966622357 -1 0 0
1465 1 94.75853724077466 8.381203224770085 2.4929179666223553 -1 0 0
1548 8 91.48697913989007 10.057443612498535 2.1912591752204325 -1 0 0
1545 1 89.94354356649465 11.733683307984084 2.4929179666223575 -1 0 0
1549 1 94.75853724077466 11.733683307984084 2.4929179666223553 -1 0 0
1466 2 97.16269199223257 6.704962651482674 0.01263507650358223 -1 0 0
1471 7 98.70500509992628 8.381202181431664 0.321005993379354 -1 0 0
1550 2 97.16269199223257 10.057442734696675 0.012635076503581795 -1 0 0
1555 7 98.70500509992628 11.733682264645664 0.3210059933793544 -1 0 0
1468 8 96.30197281417007 6.704963529284535 2.1912591752204325 -1 0 0
1469 1 99.57353091505465 8.381203224770085 2.4929179666223567 -1 0 0
1552 8 96.30197281417007 10.057443612498535 2.1912591752204325 -1 0 0
1553 1 99.57353091505465 11.733683307984084 2.492917966622357 -1 0 0
1638 2 0.8628185066325584 13.409922817910676 0.012635076503583951 0 0 0
1642 2 5.677812180912562 13.409922817910676 0.012635076503582976 0 0 0
1643 7 2.4051316143262738 15.086162347859666 0.321005993379355 0 0 0
1722 2 0.8628185066325588 16.762402901124677 0.012635076503583245 0 0 0
1726 2 5.677812180912562 16.762402901124677 0.01263507650358205 0 0 0
1640 8 0.002099328570057107 13.409923695712536 2.1912591752204333 0 0 0
1644 8 4.81709300285006 13.409923695712534 2.191259175220433 0 0 0
1641 1 3.273657429454647 15.086163391198085 2.492917966622357 0 0 0
1724 8 0.0020993285700580677 16.762403778926537 2.1912591752204333 0 0 0
1728 8 4.8170930028500605 16.762403778926537 2.191259175220433 0 0 0
1646 2 10.49280585519256 13.409922817910676 0.012635076503584237 0 0 0
1647 7 7.220125288606277 15.086162347859666 0.3210059933793541 0 0 0
1730 2 10.49280585519256 16.762402901124677 0.012635076503582969 0 0 0
1648 8 9.632086677130056 13.409923695712534 2.1912591752204333 0 0 0
1645 1 8.088651103734644 15.086163391198085 2.492917966622358 0 0 0
1732 8 9.632086677130058 16.762403778926537 2.1912591752204333 0 0 0
1650 2 15.307799529472558 13.409922817910676 0.01263507650358325 0 0 0
1651 7 12.035118962886274 15.086162347859666 0.32100599337935465 0 0 0
1655 7 16.850112637166276 15.086162347859666 0.32100599337935465 0 0 0
1734 2 15.307799529472561 16.762402901124677 0.012635076503582414 0 0 0
1652 8 14.44708035141006 13.409923695712534 2.191259175220433 0 0 0
1649 1 12.903644778014646 15.086163391198085 2.492917966622358 0 0 0
1653 1 17.718638452294645 15.086163391198085 2.4929179666223567 0 0 0
1736 8 14.447080351410062 16.762403778926537 2.1912591752204333 0 0 0
1654 2 20.12279320375256 13.409922817910676 0.012635076503584145 0 0 0
1659 7 21.66510631144628 15.086162347859664 0.32100599337935487 0 0 0
1738 2 20.122793203752565 16.762402901124677 0.012635076503583247 0 0 0
1656 8 19.26207402569006 13.409923695712534 2.1912591752204325 0 0 0
1657 1 22.533632126574645 15.086163391198085 2.492917966622357 0 0 0
1740 8 19.26207402569006 16.762403778926537 2.1912591752204325 0 0 0
1658 2 24.937786878032558 13.409922817910676 0.012635076503582702 0 0 0
1663 7 26.480099985726273 15.086162347859664 0.3210059933793538 0 0 0
1742 2 24.93778687803256 16.762402901124677 0.012635076503581588 0 0 0
1660 8 24.077067699970055 13.409923695712534 2.1912591752204333 0 0 0
1664 8 28.892061374250055 13.409923695712536 2.1912591752204325 0 0 0
1661 1 27.34862580085464 15.086163391198085 2.492917966622358 0 0 0
1744 8 24.07706769997006 16.762403778926537 2.191259175220433 0 0 0
1748 8 28.892061374250055 16.762403778926537 2.1912591752204325 0 0 0
1662 2 29.75278055231256 13.409922817910676 0.012635076503584565 0 0 0
1666 2 34.56777422659256 13.409922817910676 0.012635076503584378 0 0 0
1667 7 31.295093660006277 15.086162347859664 0.3210059933793548 0 0 0
1746 2 29.75278055231256 16.762402901124677 0.012635076503583656 0 0 0
1750 2 34.56777422659256 16.762402901124677 0.012635076503583571 0 0 0
1668 8 33.70705504853006 13.409923695712532 2.1912591752204333 0 0 0
1665 1 32.163619475134645 15.086163391198085 2.492917966622359 0 0 0
1752 8 33.70705504853006 16.762403778926537 2.1912591752204325 0 0 0
1670 2 39.382767900872565 13.409922817910676 0.012635076503583859 0 0 0
1671 7 36.11008733428628 15.086162347859666 0.3210059933793547 0 0 0
1675 7 40.92508100856628 15.086162347859666 0.321005993379354 0 0 0
1754 2 39.382767900872565 16.762402901124677 0.01263507650358288 0 0 0
1672 8 38.52204872281006 13.409923695712532 2.191259175220433 0 0 0
1669 1 36.97861314941465 15.086163391198085 2.4929179666223567 0 0 0
1756 8 38.52204872281006 16.762403778926537 2.191259175220432 0 0 0
1674 2 44.19776157515256 13.409922817910676 0.012635076503582641 0 0 0
1679 7 45.74007468284628 15.086162347859666 0.32100599337935476 0 0 0
1758 2 44.19776157515256 16.762402901124677 0.01263507650358144 0 0 0
1676 8 43.33704239709006 13.409923695712534 2.1912591752204333 0 0 0
1673 1 41.793606823694645 15.086163391198086 2.4929179666223567 0 0 0
1677 1 46.60860049797464 15.086163391198085 2.4929179666223584 0 0 0
1760 8 43.33704239709006 16.762403778926537 2.1912591752204342 0 0 0
1678 2 49.01275524943256 13.409922817910676 0.012635076503584607 0 0 0
1599 7 50.555068357126274 15.086162347859666 0.3210059933793564 -1 0 0
1762 2 49.01275524943256 16.762402901124677 0.01263507650358435 0 0 0
1680 8 48.152036071370055 13.409923695712532 2.191259175220433 0 0 0
1600 8 52.96702974565006 13.409923695712536 2.1912591752204316 -1 0 0
1597 1 51.423594172254646 15.086163391198086 2.4929179666223553 -1 0 0
1764 8 48.152036071370055 16.762403778926537 2.191259175220432 0 0 0
1684 8 52.967029745650066 16.762403778926537 2.1912591752204333 -1 0 0
1598 2 53.82774892371256 13.409922817910676 0.012635076503584421 -1 0 0
1602 2 58.642742597992566 13.409922817910676 0.012635076503583914 -1 0 0
1603 7 55.370062031406285 15.086162347859666 0.32100599337935476 -1 0 0
1682 2 53.82774892371257 16.762402901124677 0.012635076503582811 -1 0 0
1686 2 58.642742597992566 16.762402901124677 0.01263507650358253 -1 0 0
1604 8 57.78202341993006 13.409923695712536 2.1912591752204325 -1 0 0
1601 1 56.23858784653465 15.086163391198086 2.492917966622357 -1 0 0
1688 8 57.78202341993007 16.762403778926537 2.191259175220433 -1 0 0
1606 2 63.45773627227257 13.409922817910676 0.012635076503584197 -1 0 0
1607 7 60.18505570568628 15.086162347859664 0.32100599337935415 -1 0 0
1611 7 65.00004937996628 15.086162347859666 0.3210059933793547 -1 0 0
1690 2 63.45773627227257 16.762402901124677 0.01263507650358322 -1 0 0
1608 8 62.59701709421007 13.409923695712532 2.1912591752204333 -1 0 0
1605 1 61.05358152081465 15.086163391198085 2.492917966622358 -1 0 0
1692 8 62.59701709421007 16.762403778926537 2.1912591752204325 -1 0 0
1610 2 68.27272994655256 13.409922817910676 0.01263507650358293 -1 0 0
1615 7 69.81504305424627 15.086162347859666 0.32100599337935065 -1 0 0
1694 2 68.27272994655256 16.762402901124677 0.012635076503582249 -1 0 0
1612 8 67.41201076849006 13.409923695712534 2.191259175220433 -1 0 0