LAMMPS data file via write_data, version 29 Aug 2024, timestep = 2, units = metal

5040 atoms
8 atom types

0 101.11486715988 xlo xhi
0 100.57440249642 ylo yhi
-50 50 zlo zhi

Masses

1 28.085
2 28.085
3 28.085
4 28.085
5 32.06
6 32.06
7 32.06
8 32.06

Atoms # atomic

1307 5 2.4051338248761955 1.676242002750077 0.3210524895082189 0 0 0
1386 2 0.8628231003401954 3.3524825778654876 0.012584325733514753 0 0 0
1390 2 5.677816774620198 3.3524825778654876 0.012584325733514052 0 0 0
1391 5 2.4051338248761964 5.028722085964077 0.32105248950821846 0 0 0
1304 6 0.002045551355389531 3.386628319042725e-06 2.191217865973803 0 0 0
1305 1 3.2736996926325217 1.6762430371603423 2.4926694738532422 0 0 0
1308 6 4.817039225635391 3.3866283177981287e-06 2.1912178659738024 0 0 0
1388 6 0.002045551355387371 3.3524834698423156 2.1912178659738033 0 0 0
1392 6 4.81703922563539 3.352483469842316 2.191217865973803 0 0 0
1389 1 3.2736996926325204 5.028723120374342 2.4926694738532436 0 0 0
1302 2 0.8628231003401959 2.4946514827206556e-06 0.012584325733514503 0 0 0
1306 2 5.677816774620199 2.4946514827206556e-06 0.012584325733513662 0 0 0
1311 5 7.220127499156199 1.676242002750077 0.32105248950821813 0 0 0
1394 2 10.492810448900196 3.352482577865488 0.012584325733514593 0 0 0
1395 5 7.2201274991562 5.028722085964077 0.32105248950821813 0 0 0
1309 1 8.08869336691252 1.6762430371603423 2.4926694738532427 0 0 0
1312 6 9.632032899915389 3.386628317817286e-06 2.1912178659738033 0 0 0
1396 6 9.632032899915387 3.352483469842316 2.1912178659738037 0 0 0
1393 1 8.08869336691252 5.028723120374342 2.4926694738532436 0 0 0
1310 2 10.492810448900196 2.4946514827206556e-06 0.012584325733514277 0 0 0
1315 5 12.035121173436195 1.676242002750077 0.3210524895082186 0 0 0
1319 5 16.850114847716195 1.6762420027500773 0.321052489508219 0 0 0
1398 2 15.307804123180196 3.3524825778654876 0.012584325733514016 0 0 0
1399 5 12.035121173436195 5.028722085964077 0.3210524895082184 0 0 0
1403 5 16.8501148477162 5.028722085964077 0.32105248950821874 0 0 0
1313 1 12.903687041192521 1.6762430371603425 2.4926694738532427 0 0 0
1316 6 14.447026574195391 3.386628317595712e-06 2.191217865973803 0 0 0
1317 1 17.718680715472523 1.6762430371603423 2.4926694738532413 0 0 0
1400 6 14.44702657419539 3.352483469842316 2.1912178659738037 0 0 0
1397 1 12.90368704119252 5.028723120374342 2.4926694738532436 0 0 0
1401 1 17.71868071547252 5.028723120374342 2.4926694738532427 0 0 0
1314 2 15.307804123180196 2.4946514827206556e-06 0.012584325733514048 0 0 0
1323 5 21.6651085219962 1.6762420027500768 0.3210524895082191 0 0 0
1402 2 20.122797797460198 3.3524825778654876 0.012584325733514711 0 0 0
1407 5 21.665108521996203 5.028722085964077 0.3210524895082185 0 0 0
1320 6 19.26202024847539 3.38662831763905e-06 2.191217865973803 0 0 0
1321 1 22.53367438975252 1.676243037160342 2.492669473853242 0 0 0
1404 6 19.26202024847539 3.352483469842316 2.191217865973803 0 0 0
1405 1 22.53367438975252 5.028723120374342 2.492669473853243 0 0 0
1318 2 20.122797797460198 2.4946514827206556e-06 0.012584325733514687 0 0 0
1327 5 26.480102196276196 1.6762420027500766 0.3210524895082172 0 0 0
1406 2 24.937791471740198 3.352482577865488 0.01258432573351368 0 0 0
1411 5 26.480102196276196 5.028722085964077 0.3210524895082173 0 0 0
1324 6 24.077013922755388 3.386628317734945e-06 2.1912178659738033 0 0 0
1325 1 27.348668064032516 1.6762430371603423 2.4926694738532436 0 0 0
1328 6 28.892007597035384 3.3866283177581627e-06 2.191217865973802 0 0 0
1408 6 24.077013922755388 3.3524834698423165 2.1912178659738033 0 0 0
1412 6 28.892007597035384 3.352483469842316 2.1912178659738015 0 0 0
1409 1 27.348668064032516 5.028723120374343 2.4926694738532444 0 0 0
1322 2 24.937791471740198 2.4946514827206556e-06 0.012584325733512931 0 0 0
1331 5 31.2950958705562 1.6762420027500766 0.3210524895082184 0 0 0
1410 2 29.752785146020198 3.352482577865488 0.01258432573351573 0 0 0
1414 2 34.5677788203002 3.3524825778654885 0.012584325733515648 0 0 0
1415 5 31.2950958705562 5.028722085964077 0.32105248950821724 0 0 0
1329 1 32.16366173831252 1.6762430371603423 2.4926694738532444 0 0 0
1332 6 33.70700127131539 3.3866283170004057e-06 2.1912178659738015 0 0 0
1416 6 33.707001271315384 3.352483469842318 2.191217865973803 0 0 0
1413 1 32.16366173831252 5.028723120374343 2.4926694738532458 0 0 0
1326 2 29.752785146020198 2.4946514827206556e-06 0.01258432573351504 0 0 0
1330 2 34.5677788203002 2.4946514827206556e-06 0.012584325733515561 0 0 0
1335 5 36.1100895448362 1.6762420027500786 0.32105248950821974 0 0 0
1339 5 40.9250832191162 1.6762420027500786 0.3210524895082188 0 0 0
1418 2 39.3827724945802 3.3524825778654885 0.012584325733515147 0 0 0
1419 5 36.1100895448362 5.028722085964077 0.32105248950821735 0 0 0
1423 5 40.9250832191162 5.028722085964077 0.32105248950821713 0 0 0
1333 1 36.97865541259252 1.6762430371603423 2.4926694738532413 0 0 0
1336 6 38.521994945595395 3.386628316986382e-06 2.191217865973801 0 0 0
1420 6 38.52199494559539 3.352483469842318 2.1912178659738024 0 0 0
1417 1 36.978655412592516 5.028723120374343 2.492669473853243 0 0 0
1334 2 39.3827724945802 2.4946514827206556e-06 0.012584325733515056 0 0 0
1343 5 45.74007689339619 1.6762420027500768 0.3210524895082188 0 0 0
1422 2 44.1977661688602 3.3524825778654885 0.012584325733513545 0 0 0
1427 5 45.7400768933962 5.028722085964077 0.32105248950821674 0 0 0
1337 1 41.79364908687252 1.676243037160342 2.492669473853242 0 0 0
1340 6 43.33698861987539 3.3866283185701183e-06 2.1912178659738037 0 0 0
1341 1 46.60864276115252 1.676243037160342 2.4926694738532436 0 0 0
1424 6 43.336988619875385 3.352483469842316 2.1912178659738037 0 0 0
1421 1 41.79364908687252 5.028723120374343 2.4926694738532436 0 0 0
1425 1 46.60864276115252 5.028723120374343 2.4926694738532453 0 0 0
1338 2 44.1977661688602 2.4946514827206556e-06 0.01258432573351283 0 0 0
1263 5 50.555070567676196 1.6762420027500755 0.3210524895082203 -1 0 0
1426 2 49.012759843140195 3.352482577865489 0.012584325733516172 0 0 0
1347 5 50.555070567676196 5.028722085964077 0.32105248950821946 -1 0 0
1344 6 48.15198229415539 3.386628316995028e-06 2.1912178659738015 0 0 0
1261 1 51.42363643543252 1.6762430371603425 2.49266947385324 -1 0 0
1264 6 52.96697596843539 3.3866283169725142e-06 2.191217865973803 -1 0 0
1428 6 48.15198229415539 3.352483469842318 2.191217865973802 0 0 0
1348 6 52.96697596843539 3.3524834698423156 2.1912178659738024 -1 0 0
1345 1 51.42363643543252 5.028723120374343 2.492669473853242 -1 0 0
1342 2 49.012759843140195 2.4946514827206556e-06 0.012584325733516075 0 0 0
1267 5 55.3700642419562 1.6762420027500768 0.3210524895082188 -1 0 0
1346 2 53.827753517420206 3.3524825778654885 0.012584325733515086 -1 0 0
1350 2 58.6427471917002 3.352482577865487 0.012584325733514451 -1 0 0
1351 5 55.37006424195621 5.028722085964077 0.321052489508218 -1 0 0
1265 1 56.238630109712524 1.6762430371603425 2.492669473853242 -1 0 0
1268 6 57.781969642715396 3.386628316867396e-06 2.1912178659738024 -1 0 0
1352 6 57.781969642715396 3.3524834698423156 2.1912178659738024 -1 0 0
1349 1 56.238630109712524 5.028723120374343 2.492669473853243 -1 0 0
1262 2 53.827753517420206 2.4946514827206556e-06 0.012584325733514725 -1 0 0
1266 2 58.6427471917002 2.4946514827206556e-06 0.012584325733514245 -1 0 0
1271 5 60.185057916236204 1.6762420027500766 0.3210524895082187 -1 0 0
1275 5 65.00005159051621 1.6762420027500786 0.32105248950821985 -1 0 0
1354 2 63.4577408659802 3.3524825778654868 0.012584325733515209 -1 0 0
1355 5 60.185057916236204 5.028722085964077 0.3210524895082186 -1 0 0
1359 5 65.00005159051621 5.028722085964077 0.32105248950821985 -1 0 0
1269 1 61.05362378399253 1.6762430371603423 2.492669473853243 -1 0 0
1272 6 62.5969633169954 3.386628317073946e-06 2.191217865973801 -1 0 0
1356 6 62.59696331699539 3.3524834698423174 2.191217865973803 -1 0 0
1353 1 61.05362378399252 5.028723120374343 2.492669473853244 -1 0 0
1270 2 63.4577408659802 2.4946514827206556e-06 0.012584325733514793 -1 0 0
1279 5 69.8150452647962 1.6762420027500768 0.3210524895082158 -1 0 0
1358 2 68.2727345402602 3.3524825778654868 0.012584325733513677 -1 0 0
1363 5 69.8150452647962 5.028722085964077 0.32105248950821674 -1 0 0
1273 1 65.86861745827252 1.6762430371603425 2.4926694738532413 -1 0 0
1276 6 67.41195699127539 3.3866283152928043e-06 2.1912178659738033 -1 0 0
1277 1 70.68361113255251 1.6762430371603423 2.492669473853244 -1 0 0
1360 6 67.41195699127539 3.3524834698423156 2.1912178659738024 -1 0 0
1357 1 65.86861745827252 5.028723120374343 2.4926694738532422 -1 0 0
1361 1 70.68361113255251 5.028723120374343 2.4926694738532444 -1 0 0
1274 2 68.2727345402602 2.4946514827206556e-06 0.012584325733512949 -1 0 0
1283 5 74.6300389390762 1.6762420027500768 0.32105248950821674 -1 0 0
1362 2 73.0877282145402 3.3524825778654868 0.012584325733516134 -1 0 0
1367 5 74.6300389390762 5.028722085964077 0.3210524895082174 -1 0 0
1280 6 72.22695066555539 3.3866283187942725e-06 2.1912178659738015 -1 0 0
1281 1 75.49860480683252 1.6762430371603423 2.4926694738532444 -1 0 0
1284 6 77.0419443398354 3.386628318828844e-06 2.1912178659738024 -1 0 0
1364 6 72.22695066555539 3.352483469842316 2.1912178659738015 -1 0 0
1368 6 77.0419443398354 3.3524834698423156 2.191217865973803 -1 0 0
1365 1 75.49860480683252 5.028723120374343 2.4926694738532453 -1 0 0
1278 2 73.0877282145402 2.4946514827206556e-06 0.01258432573351547 -1 0 0
1287 5 79.4450326133562 1.6762420027500768 0.32105248950821946 -1 0 0
1366 2 77.9027218888202 3.352482577865487 0.01258432573351526 -1 0 0
1370 2 82.7177155631002 3.352482577865487 0.012584325733515258 -1 0 0
1371 5 79.4450326133562 5.028722085964077 0.32105248950822035 -1 0 0
1285 1 80.31359848111252 1.676243037160342 2.4926694738532413 -1 0 0
1288 6 81.8569380141154 3.386628318829577e-06 2.1912178659738015 -1 0 0
1372 6 81.8569380141154 3.3524834698423156 2.191217865973802 -1 0 0
1369 1 80.31359848111252 5.028723120374343 2.492669473853242 -1 0 0
1282 2 77.9027218888202 2.4946514827206556e-06 0.012584325733515065 -1 0 0
1286 2 82.7177155631002 2.4946514827206556e-06 0.012584325733515062 -1 0 0
1291 5 84.26002628763621 1.6762420027500768 0.32105248950821946 -1 0 0
1295 5 89.07501996191621 1.6762420027500768 0.32105248950822046 -1 0 0
1374 2 87.5327092373802 3.352482577865487 0.012584325733515249 -1 0 0
1375 5 84.26002628763621 5.028722085964077 0.32105248950822035 -1 0 0
1379 5 89.07501996191621 5.028722085964077 0.3210524895082213 -1 0 0
1289 1 85.12859215539252 1.676243037160342 2.4926694738532413 -1 0 0
1292 6 86.6719316883954 3.3866283188292295e-06 2.1912178659738015 -1 0 0
1376 6 86.6719316883954 3.3524834698423156 2.191217865973802 -1 0 0
1373 1 85.12859215539252 5.028723120374343 2.492669473853242 -1 0 0
1290 2 87.5327092373802 2.4946514827206556e-06 0.012584325733514718 -1 0 0
1299 5 93.8900136361962 1.6762420027500768 0.32105248950822135 -1 0 0
1378 2 92.3477029116602 3.3524825778654903 0.012584325733514014 -1 0 0
1383 5 93.8900136361962 5.028722085964077 0.32105248950821846 -1 0 0
1293 1 89.94358582967253 1.6762430371603425 2.4926694738532422 -1 0 0
1296 6 91.4869253626754 3.3866283151835883e-06 2.191217865973805 -1 0 0
1297 1 94.75857950395253 1.6762430371603427 2.4926694738532396 -1 0 0
1380 6 91.4869253626754 3.352483469842316 2.1912178659738046 -1 0 0
1377 1 89.94358582967253 5.028723120374343 2.4926694738532427 -1 0 0
1381 1 94.75857950395253 5.028723120374343 2.4926694738532422 -1 0 0
1294 2 92.3477029116602 2.4946514827206556e-06 0.012584325733513403 -1 0 0
1303 5 98.7050073104762 1.6762420027500768 0.3210524895082192 -1 0 0
1382 2 97.1626965859402 3.3524825778654868 0.012584325733512487 -1 0 0
1387 5 98.7050073104762 5.028722085964077 0.32105248950821985 -1 0 0
1300 6 96.3019190369554 3.386628315247223e-06 2.191217865973804 -1 0 0
1301 1 99.57357317823252 1.676243037160342 2.4926694738532413 -1 0 0
1384 6 96.3019190369554 3.3524834698423156 2.1912178659738033 -1 0 0
1385 1 99.57357317823252 5.028723120374342 2.4926694738532422 -1 0 0
1298 2 97.1626965859402 2.4946514827206556e-06 0.012584325733512258 -1 0 0
1470 2 0.8628231003401955 6.704962661079487 0.012584325733515343 0 0 0
1474 2 5.677816774620198 6.704962661079487 0.012584325733514406 0 0 0
1475 5 2.405133824876195 8.381202169178078 0.3210524895082184 0 0 0
1554 2 0.8628231003401965 10.057442744293489 0.012584325733514697 0 0 0
1558 2 5.677816774620199 10.057442744293489 0.012584325733513924 0 0 0
1559 5 2.405133824876197 11.733682252392077 0.32105248950821863 0 0 0
1472 6 0.0020455513553867656 6.704963553056316 2.1912178659738033 0 0 0
1476 6 4.817039225635389 6.704963553056315 2.191217865973803 0 0 0
1473 1 3.2736996926325204 8.381203203588342 2.4926694738532427 0 0 0
1556 6 0.002045551355388182 10.057443636270316 2.191217865973803 0 0 0
1560 6 4.81703922563539 10.057443636270314 2.191217865973803 0 0 0
1557 1 3.273699692632521 11.733683286802341 2.4926694738532436 0 0 0
1478 2 10.492810448900196 6.704962661079487 0.012584325733515186 0 0 0
1479 5 7.220127499156198 8.381202169178078 0.3210524895082179 0 0 0
1562 2 10.492810448900196 10.057442744293489 0.012584325733514496 0 0 0
1563 5 7.2201274991562 11.733682252392077 0.3210524895082181 0 0 0
1480 6 9.632032899915385 6.704963553056316 2.191217865973804 0 0 0
1477 1 8.08869336691252 8.381203203588342 2.492669473853243 0 0 0
1564 6 9.632032899915387 10.057443636270314 2.1912178659738037 0 0 0
1561 1 8.08869336691252 11.733683286802341 2.4926694738532436 0 0 0
1482 2 15.307804123180196 6.704962661079487 0.012584325733515003 0 0 0
1483 5 12.035121173436195 8.381202169178076 0.32105248950821835 0 0 0
1487 5 16.850114847716195 8.381202169178076 0.32105248950821824 0 0 0
1566 2 15.307804123180198 10.057442744293487 0.012584325733514347 0 0 0
1567 5 12.035121173436197 11.733682252392077 0.3210524895082186 0 0 0
1571 5 16.850114847716195 11.733682252392077 0.32105248950821874 0 0 0
1484 6 14.447026574195387 6.704963553056315 2.1912178659738033 0 0 0
1481 1 12.90368704119252 8.381203203588342 2.492669473853243 0 0 0
1485 1 17.71868071547252 8.381203203588342 2.4926694738532422 0 0 0
1568 6 14.44702657419539 10.057443636270314 2.1912178659738033 0 0 0
1565 1 12.90368704119252 11.733683286802341 2.4926694738532436 0 0 0
1569 1 17.71868071547252 11.733683286802341 2.4926694738532427 0 0 0
1486 2 20.122797797460198 6.704962661079487 0.012584325733515672 0 0 0
1491 5 21.6651085219962 8.381202169178078 0.32105248950821785 0 0 0
1570 2 20.1227977974602 10.057442744293487 0.0125843257335148 0 0 0
1575 5 21.6651085219962 11.733682252392077 0.3210524895082183 0 0 0
1488 6 19.26202024847539 6.704963553056316 2.1912178659738024 0 0 0
1489 1 22.53367438975252 8.381203203588342 2.4926694738532427 0 0 0
1572 6 19.26202024847539 10.057443636270314 2.191217865973803 0 0 0
1573 1 22.53367438975252 11.733683286802341 2.492669473853243 0 0 0
1490 2 24.937791471740198 6.704962661079486 0.012584325733514378 0 0 0
1495 5 26.480102196276196 8.381202169178076 0.3210524895082175 0 0 0
1574 2 24.937791471740198 10.057442744293489 0.012584325733513209 0 0 0
1579 5 26.480102196276196 11.733682252392077 0.3210524895082171 0 0 0
1492 6 24.077013922755384 6.704963553056316 2.1912178659738037 0 0 0
1496 6 28.892007597035384 6.704963553056315 2.191217865973802 0 0 0
1493 1 27.348668064032516 8.381203203588342 2.4926694738532436 0 0 0
1576 6 24.077013922755388 10.057443636270314 2.1912178659738037 0 0 0
1580 6 28.892007597035384 10.057443636270314 2.191217865973802 0 0 0
1577 1 27.348668064032516 11.733683286802341 2.4926694738532444 0 0 0
1494 2 29.752785146020198 6.704962661079486 0.012584325733516123 0 0 0
1498 2 34.5677788203002 6.704962661079486 0.012584325733515997 0 0 0
1499 5 31.2950958705562 8.381202169178076 0.3210524895082177 0 0 0
1578 2 29.752785146020198 10.057442744293489 0.012584325733515105 0 0 0
1582 2 34.5677788203002 10.057442744293489 0.01258432573351562 0 0 0
1583 5 31.2950958705562 11.733682252392077 0.3210524895082171 0 0 0
1500 6 33.707001271315384 6.704963553056316 2.1912178659738037 0 0 0
1497 1 32.16366173831252 8.381203203588342 2.492669473853245 0 0 0
1584 6 33.707001271315384 10.057443636270314 2.1912178659738024 0 0 0
1581 1 32.16366173831252 11.733683286802343 2.4926694738532453 0 0 0
1502 2 39.3827724945802 6.704962661079486 0.012584325733515658 0 0 0
1503 5 36.1100895448362 8.381202169178076 0.32105248950821913 0 0 0
1507 5 40.925083219116196 8.381202169178076 0.3210524895082188 0 0 0
1586 2 39.3827724945802 10.057442744293489 0.01258432573351527 0 0 0
1587 5 36.1100895448362 11.733682252392079 0.3210524895082176 0 0 0
1591 5 40.9250832191162 11.733682252392079 0.3210524895082176 0 0 0
1504 6 38.52199494559539 6.704963553056316 2.1912178659738033 0 0 0
1501 1 36.978655412592516 8.381203203588342 2.492669473853242 0 0 0
1588 6 38.52199494559539 10.057443636270314 2.191217865973802 0 0 0
1585 1 36.978655412592516 11.733683286802343 2.492669473853243 0 0 0
1506 2 44.1977661688602 6.704962661079487 0.012584325733513906 0 0 0
1511 5 45.74007689339619 8.381202169178076 0.32105248950821635 0 0 0
1590 2 44.1977661688602 10.057442744293487 0.012584325733513155 0 0 0
1595 5 45.74007689339619 11.733682252392077 0.32105248950821647 0 0 0
1508 6 43.336988619875385 6.704963553056315 2.191217865973804 0 0 0
1505 1 41.79364908687252 8.381203203588342 2.492669473853242 0 0 0
1509 1 46.60864276115252 8.381203203588342 2.492669473853245 0 0 0
1592 6 43.336988619875385 10.057443636270314 2.1912178659738037 0 0 0
1589 1 41.79364908687252 11.733683286802341 2.492669473853243 0 0 0
1593 1 46.60864276115252 11.733683286802343 2.492669473853245 0 0 0
1510 2 49.012759843140195 6.704962661079487 0.012584325733516678 0 0 0
1431 5 50.555070567676196 8.381202169178078 0.3210524895082192 -1 0 0
1594 2 49.012759843140195 10.057442744293487 0.01258432573351646 0 0 0
1515 5 50.555070567676196 11.733682252392077 0.32105248950821935 -1 0 0
1512 6 48.15198229415538 6.704963553056316 2.1912178659738033 0 0 0
1432 6 52.96697596843539 6.704963553056316 2.191217865973803 -1 0 0
1429 1 51.42363643543252 8.381203203588342 2.4926694738532413 -1 0 0
1596 6 48.15198229415538 10.057443636270314 2.191217865973803 0 0 0
1516 6 52.96697596843539 10.057443636270316 2.191217865973803 -1 0 0
1513 1 51.42363643543252 11.733683286802341 2.492669473853242 -1 0 0
1430 2 53.827753517420206 6.7049626610794855 0.012584325733515592 -1 0 0
1434 2 58.6427471917002 6.704962661079487 0.01258432573351452 -1 0 0
1435 5 55.3700642419562 8.381202169178078 0.3210524895082194 -1 0 0
1514 2 53.827753517420206 10.057442744293489 0.012584325733515117 -1 0 0
1518 2 58.6427471917002 10.057442744293487 0.012584325733514241 -1 0 0
1519 5 55.37006424195621 11.733682252392077 0.32105248950821785 -1 0 0
1436 6 57.781969642715396 6.704963553056316 2.191217865973803 -1 0 0
1433 1 56.238630109712524 8.381203203588342 2.492669473853242 -1 0 0
1520 6 57.781969642715396 10.057443636270316 2.191217865973802 -1 0 0
1517 1 56.238630109712524 11.733683286802341 2.492669473853243 -1 0 0
1438 2 63.4577408659802 6.704962661079488 0.012584325733515728 -1 0 0
1439 5 60.185057916236204 8.381202169178078 0.3210524895082181 -1 0 0
1443 5 65.00005159051621 8.381202169178076 0.32105248950821985 -1 0 0
1522 2 63.457740865980206 10.057442744293487 0.012584325733515339 -1 0 0
1523 5 60.185057916236204 11.733682252392077 0.3210524895082186 -1 0 0
1527 5 65.00005159051621 11.733682252392079 0.3210524895082203 -1 0 0
1440 6 62.59696331699539 6.704963553056316 2.1912178659738037 -1 0 0
1437 1 61.05362378399252 8.381203203588342 2.4926694738532436 -1 0 0
1524 6 62.59696331699539 10.057443636270314 2.1912178659738024 -1 0 0
1521 1 61.05362378399252 11.733683286802343 2.4926694738532436 -1 0 0
1442 2 68.2727345402602 6.704962661079487 0.012584325733513918 -1 0 0
1447 5 69.8150452647962 8.381202169178076 0.32105248950821613 -1 0 0
1526 2 68.2727345402602 10.057442744293487 0.012584325733513181 -1 0 0
1531 5 69.8150452647962 11.733682252392077 0.3210524895082165 -1 0 0
1444 6 67.41195699127539 6.704963553056316 2.191217865973803 -1 0 0
1441 1 65.86861745827252 8.381203203588342 2.492669473853242 -1 0 0
1445 1 70.68361113255251 8.381203203588342 2.492669473853244 -1 0 0
1528 6 67.4119569912754 10.057443636270314 2.1912178659738024 -1 0 0
1525 1 65.86861745827252 11.733683286802341 2.4926694738532422 -1 0 0
1529 1 70.68361113255251 11.733683286802341 2.4926694738532444 -1 0 0
1446 2 73.0877282145402 6.704962661079487 0.012584325733516675 -1 0 0
1451 5 74.6300389390762 8.381202169178076 0.321052489508217 -1 0 0
1530 2 73.0877282145402 10.057442744293487 0.01258432573351569 -1 0 0
1535 5 74.6300389390762 11.733682252392077 0.3210524895082172 -1 0 0
1448 6 72.22695066555539 6.704963553056316 2.191217865973802 -1 0 0
1452 6 77.0419443398354 6.704963553056316 2.191217865973803 -1 0 0
1449 1 75.49860480683252 8.381203203588342 2.492669473853245 -1 0 0
1532 6 72.22695066555539 10.057443636270314 2.191217865973802 -1 0 0
1536 6 77.0419443398354 10.057443636270314 2.1912178659738024 -1 0 0
1533 1 75.49860480683252 11.733683286802341 2.4926694738532453 -1 0 0
1450 2 77.9027218888202 6.704962661079487 0.01258432573351578 -1 0 0
1454 2 82.7177155631002 6.704962661079487 0.01258432573351578 -1 0 0
1455 5 79.4450326133562 8.381202169178078 0.3210524895082198 -1 0 0
1534 2 77.9027218888202 10.057442744293487 0.012584325733515297 -1 0 0
1538 2 82.7177155631002 10.057442744293487 0.012584325733515297 -1 0 0
1539 5 79.4450326133562 11.733682252392077 0.32105248950821996 -1 0 0
1456 6 81.8569380141154 6.704963553056316 2.1912178659738024 -1 0 0
1453 1 80.31359848111252 8.381203203588342 2.492669473853242 -1 0 0
1540 6 81.8569380141154 10.057443636270314 2.191217865973802 -1 0 0
1537 1 80.31359848111252 11.733683286802341 2.492669473853242 -1 0 0
1458 2 87.5327092373802 6.704962661079487 0.012584325733515757 -1 0 0
1459 5 84.26002628763621 8.381202169178078 0.3210524895082198 -1 0 0
1463 5 89.07501996191621 8.381202169178078 0.32105248950822074 -1 0 0
1542 2 87.5327092373802 10.057442744293487 0.012584325733515275 -1 0 0
1543 5 84.26002628763621 11.733682252392077 0.32105248950821996 -1 0 0
1547 5 89.07501996191621 11.733682252392077 0.3210524895082212 -1 0 0
1460 6 86.6719316883954 6.704963553056316 2.1912178659738024 -1 0 0
1457 1 85.12859215539252 8.381203203588342 2.492669473853242 -1 0 0
1544 6 86.6719316883954 10.057443636270314 2.191217865973802 -1 0 0
1541 1 85.12859215539252 11.733683286802341 2.492669473853242 -1 0 0
1462 2 92.3477029116602 6.704962661079487 0.012584325733515023 -1 0 0
1467 5 93.8900136361962 8.381202169178076 0.321052489508218 -1 0 0
1546 2 92.3477029116602 10.057442744293487 0.012584325733514545 -1 0 0
1551 5 93.8900136361962 11.733682252392077 0.32105248950821824 -1 0 0
1464 6 91.4869253626754 6.704963553056316 2.1912178659738046 -1 0 0
1461 1 89.94358582967253 8.381203203588342 2.4926694738532427 -1 0 0
1465 1 94.75857950395253 8.381203203588342 2.492669473853242 -1 0 0
1548 6 91.48692536267541 10.057443636270314 2.1912178659738046 -1 0 0
1545 1 89.94358582967253 11.733683286802341 2.4926694738532427 -1 0 0
1549 1 94.75857950395253 11.733683286802341 2.4926694738532422 -1 0 0
1466 2 97.1626965859402 6.704962661079487 0.012584325733512735 -1 0 0
1471 5 98.7050073104762 8.381202169178076 0.3210524895082194 -1 0 0
1550 2 97.1626965859402 10.057442744293487 0.012584325733512512 -1 0 0
1555 5 98.7050073104762 11.733682252392077 0.32105248950821963 -1 0 0
1468 6 96.3019190369554 6.704963553056316 2.191217865973804 -1 0 0
1469 1 99.57357317823252 8.381203203588342 2.492669473853242 -1 0 0
1552 6 96.30191903695541 10.057443636270314 2.1912178659738037 -1 0 0
1553 1 99.57357317823252 11.733683286802341 2.4926694738532422 -1 0 0
1638 2 0.8628231003401955 13.409922827507488 0.012584325733515471 0 0 0
1642 2 5.677816774620198 13.409922827507488 0.012584325733514527 0 0 0
1643 5 2.405133824876195 15.086162335606078 0.3210524895082184 0 0 0
1722 2 0.8628231003401967 16.76240291072149 0.012584325733514307 0 0 0
1726 2 5.6778167746202 16.76240291072149 0.012584325733513821 0 0 0
1640 6 0.002045551355386706 13.409923719484315 2.1912178659738033 0 0 0
1644 6 4.817039225635389 13.409923719484315 2.191217865973803 0 0 0
1641 1 3.2736996926325217 15.086163370016344 2.4926694738532427 0 0 0
1724 6 0.002045551355387293 16.762403802698316 2.1912178659738037 0 0 0
1728 6 4.81703922563539 16.762403802698316 2.1912178659738033 0 0 0
1646 2 10.492810448900196 13.409922827507488 0.012584325733515296 0 0 0
1647 5 7.220127499156199 15.086162335606078 0.321052489508218 0 0 0
1730 2 10.492810448900197 16.76240291072149 0.012584325733514133 0 0 0
1648 6 9.632032899915385 13.409923719484315 2.191217865973804 0 0 0
1645 1 8.088693366912521 15.086163370016344 2.492669473853243 0 0 0
1732 6 9.632032899915387 16.762403802698316 2.191217865973804 0 0 0
1650 2 15.307804123180196 13.40992282750749 0.012584325733515065 0 0 0
1651 5 12.035121173436195 15.086162335606078 0.32105248950821863 0 0 0
1655 5 16.850114847716195 15.086162335606078 0.32105248950821824 0 0 0
1734 2 15.307804123180198 16.76240291072149 0.012584325733513969 0 0 0
1652 6 14.447026574195387 13.409923719484315 2.1912178659738033 0 0 0
1649 1 12.903687041192521 15.086163370016344 2.492669473853243 0 0 0
1653 1 17.71868071547252 15.086163370016342 2.4926694738532422 0 0 0
1736 6 14.44702657419539 16.762403802698316 2.1912178659738037 0 0 0
1654 2 20.122797797460198 13.409922827507488 0.012584325733515882 0 0 0
1659 5 21.6651085219962 15.08616233560608 0.3210524895082183 0 0 0
1738 2 20.122797797460198 16.762402910721487 0.012584325733514708 0 0 0
1656 6 19.26202024847539 13.409923719484315 2.1912178659738024 0 0 0
1657 1 22.53367438975252 15.086163370016342 2.4926694738532422 0 0 0
1740 6 19.26202024847539 16.762403802698316 2.191217865973803 0 0 0
1658 2 24.937791471740198 13.409922827507488 0.012584325733514473 0 0 0
1663 5 26.480102196276192 15.086162335606078 0.32105248950821696 0 0 0
1742 2 24.937791471740198 16.762402910721487 0.012584325733513303 0 0 0
1660 6 24.077013922755384 13.409923719484313 2.1912178659738033 0 0 0
1664 6 28.892007597035384 13.409923719484315 2.1912178659738024 0 0 0
1661 1 27.348668064032516 15.086163370016342 2.492669473853244 0 0 0
1744 6 24.077013922755388 16.762403802698316 2.1912178659738033 0 0 0
1748 6 28.892007597035384 16.762403802698316 2.191217865973803 0 0 0
1662 2 29.752785146020198 13.409922827507488 0.012584325733516361 0 0 0
1666 2 34.5677788203002 13.409922827507486 0.012584325733516224 0 0 0
1667 5 31.2950958705562 15.086162335606078 0.32105248950821824 0 0 0
1746 2 29.752785146020198 16.762402910721487 0.012584325733515117 0 0 0
1750 2 34.5677788203002 16.76240291072149 0.012584325733514888 0 0 0
1668 6 33.707001271315384 13.409923719484313 2.1912178659738033 0 0 0
1665 1 32.16366173831252 15.086163370016342 2.492669473853244 0 0 0
1752 6 33.70700127131539 16.762403802698316 2.191217865973803 0 0 0
1670 2 39.3827724945802 13.409922827507486 0.012584325733515766 0 0 0
1671 5 36.1100895448362 15.086162335606076 0.3210524895082198 0 0 0
1675 5 40.925083219116196 15.086162335606078 0.3210524895082186 0 0 0
1754 2 39.3827724945802 16.76240291072149 0.01258432573351414 0 0 0
1672 6 38.52199494559539 13.409923719484313 2.191217865973803 0 0 0
1669 1 36.97865541259252 15.086163370016342 2.492669473853242 0 0 0
1756 6 38.521994945595395 16.762403802698316 2.1912178659738024 0 0 0
1674 2 44.1977661688602 13.409922827507488 0.012584325733514149 0 0 0
1679 5 45.74007689339619 15.086162335606078 0.321052489508217 0 0 0
1758 2 44.1977661688602 16.762402910721487 0.012584325733513535 0 0 0
1676 6 43.336988619875385 13.409923719484315 2.1912178659738046 0 0 0
1673 1 41.79364908687252 15.08616337001634 2.492669473853242 0 0 0
1677 1 46.60864276115252 15.086163370016342 2.4926694738532444 0 0 0
1760 6 43.336988619875385 16.762403802698316 2.1912178659738037 0 0 0
1678 2 49.012759843140195 13.40992282750749 0.012584325733516755 0 0 0
1599 5 50.555070567676196 15.086162335606078 0.3210524895082189 -1 0 0
1762 2 49.012759843140195 16.762402910721487 0.012584325733514904 0 0 0
1680 6 48.15198229415538 13.409923719484313 2.191217865973803 0 0 0
1600 6 52.96697596843539 13.409923719484315 2.191217865973803 -1 0 0
1597 1 51.42363643543252 15.086163370016342 2.4926694738532413 -1 0 0
1764 6 48.15198229415539 16.762403802698316 2.1912178659738037 0 0 0
1684 6 52.96697596843539 16.762403802698316 2.191217865973803 -1 0 0
1598 2 53.827753517420206 13.409922827507486 0.012584325733515703 -1 0 0
1602 2 58.6427471917002 13.40992282750749 0.012584325733514787 -1 0 0
1603 5 55.3700642419562 15.086162335606078 0.32105248950821913 -1 0 0
1682 2 53.827753517420206 16.76240291072149 0.01258432573351469 -1 0 0
1686 2 58.6427471917002 16.762402910721487 0.012584325733514402 -1 0 0
1604 6 57.781969642715396 13.409923719484315 2.1912178659738033 -1 0 0
1601 1 56.238630109712524 15.086163370016342 2.492669473853242 -1 0 0
1688 6 57.781969642715396 16.762403802698316 2.1912178659738024 -1 0 0
1606 2 63.4577408659802 13.409922827507488 0.012584325733515835 -1 0 0
1607 5 60.185057916236204 15.086162335606078 0.32105248950821896 -1 0 0
1611 5 65.00005159051621 15.086162335606078 0.3210524895082196 -1 0 0
1690 2 63.457740865980206 16.762402910721487 0.012584325733514215 -1 0 0
1608 6 62.59696331699539 13.409923719484313 2.191217865973803 -1 0 0
1605 1 61.05362378399253 15.086163370016342 2.492669473853243 -1 0 0
1692 6 62.5969633169954 16.762403802698316 2.191217865973803 -1 0 0
1610 2 68.2727345402602 13.409922827507488 0.01258432573351401 -1 0 0
1615 5 69.8150452647962 15.086162335606078 0.3210524895082156 -1 0 0
1694 2 68.2727345402602 16.762402910721487 0.012584325733513237 -1 0 0
1612 6 67.41195699127539 13.409923719484315 2.1912178659738033 -1 0 0
1609 1 65.86861745827252 15.08616337001634 2.492669473853242 -1 0 0
1613 1 70.68361113255251 15.08616337001634 2.4926694738532444 -1 0 0