LAMMPS data file via write_data, version 29 Aug 2024, timestep = 8, units = metal

5600 atoms
4 atom types

0 99.26 xlo xhi
0 98.24192180532 ylo yhi
-50 111.37820809695361 zlo zhi

Masses

1 12.011
2 12.011
3 32.06
4 32.06

Atoms # atomic

1473 1 1.4162784493851792 0.8164995221068685 0.4047815620571065 0 0 0
1477 1 4.252278449385283 0.816499522106883 0.40478156205703425 0 0 0
1476 3 1.4159270092148994 2.4535288925965473 1.3264129480157743 0 0 0
1480 3 4.2519270092149615 2.4535288925965153 1.326412948015852 0 0 0
1474 1 2.8342784493851956 3.2725475672398727 0.4047815620571832 0 0 0
1478 1 5.670278449385341 3.2725475672399105 0.40478156205713695 0 0 0
1613 1 1.4162784493851823 5.728595612372758 0.40478156205715543 0 0 0
1615 3 2.8339270092148974 4.909576937729406 1.3264129480158064 0 0 0
1617 1 4.252278449385285 5.7285956123727795 0.4047815620570811 0 0 0
1619 3 5.669927009215045 4.90957693772936 1.3264129480158255 0 0 0
1481 1 7.088278449385329 0.8164995221068841 0.4047815620570525 0 0 0
1485 1 9.92427844938518 0.8164995221069532 0.40478156205694593 0 0 0
1484 3 7.087927009215017 2.453528892596502 1.326412948015836 0 0 0
1488 3 9.923927009214871 2.453528892596452 1.3264129480159208 0 0 0
1482 1 8.506278449385245 3.272547567239941 0.4047815620571155 0 0 0
1486 1 11.342278449385411 3.2725475672398145 0.40478156205723687 0 0 0
1621 1 7.088278449385325 5.728595612372781 0.4047815620570958 0 0 0
1623 3 8.505927009214945 4.909576937729324 1.3264129480158644 0 0 0
1625 1 9.924278449385191 5.728595612372829 0.40478156205700067 0 0 0
1627 3 11.34192700921511 4.909576937729445 1.326412948015728 0 0 0
1489 1 12.760278449385376 0.8164995221068205 0.4047815620571748 0 0 0
1493 1 15.59627844938555 0.8164995221069183 0.4047815620570766 0 0 0
1492 3 12.759927009215065 2.4535288925965943 1.3264129480157039 0 0 0
1496 3 15.595927009215238 2.453528892596492 1.3264129480157865 0 0 0
1490 1 14.178278449385337 3.2725475672400286 0.4047815620569349 0 0 0
1494 1 17.01427844938486 3.2725475672399296 0.40478156205714383 0 0 0
1629 1 12.760278449385371 5.7285956123726995 0.40478156205722715 0 0 0
1631 3 14.17792700921503 4.909576937729244 1.3264129480160476 0 0 0
1633 1 15.596278449385546 5.728595612372797 0.40478156205712934 0 0 0
1635 3 17.01392700921456 4.909576937729348 1.3264129480158413 0 0 0
1497 1 18.43227844938538 0.8164995221069332 0.4047815620569135 0 0 0
1501 1 21.268278449385182 0.8164995221069459 0.4047815620569169 0 0 0
1500 3 18.43192700921507 2.4535288925964576 1.3264129480159474 0 0 0
1504 3 21.267927009214876 2.453528892596452 1.3264129480159652 0 0 0
1498 1 19.85027844938531 3.272547567239748 0.4047815620574297 0 0 0
1502 1 22.686278449385703 3.2725475672399638 0.4047815620571121 0 0 0
1637 1 18.43227844938538 5.728595612372827 0.4047815620569473 0 0 0
1639 3 19.84992700921501 4.90957693772954 1.3264129480155642 0 0 0
1641 1 21.26827844938519 5.728595612372833 0.40478156205695287 0 0 0
1643 3 22.68592700921539 4.9095769377293195 1.3264129480158677 0 0 0
1505 1 24.10427844938502 0.8164995221069212 0.404781562057028 0 0 0
1509 1 26.940278449385012 0.8164995221068888 0.40478156205706173 0 0 0
1508 3 24.103927009214726 2.453528892596494 1.32641294801583 0 0 0
1512 3 26.939927009214713 2.4535288925965153 1.3264129480158195 0 0 0
1506 1 25.522278449385592 3.2725475672398954 0.40478156205716126 0 0 0
1510 1 28.358278449385587 3.272547567239913 0.4047815620571467 0 0 0
1645 1 24.10427844938502 5.7285956123728 0.404781562057078 0 0 0
1647 3 25.521927009215283 4.909576937729385 1.3264129480158162 0 0 0
1649 1 26.940278449385012 5.728595612372773 0.40478156205710164 0 0 0
1651 3 28.35792700921528 4.909576937729364 1.326412948015832 0 0 0
1513 1 29.77627844938492 0.8164995221069634 0.4047815620570021 0 0 0
1517 1 32.612278449385286 0.8164995221067364 0.4047815620573166 0 0 0
1516 3 29.77592700921461 2.453528892596448 1.3264129480158748 0 0 0
1520 3 32.61192700921502 2.453528892596674 1.326412948015545 0 0 0
1514 1 31.19427844938543 3.2725475672399535 0.4047815620570054 0 0 0
1518 1 34.03027844938521 3.2725475672399487 0.40478156205703764 0 0 0
1653 1 29.776278449384925 5.728595612372844 0.40478156205704674 0 0 0
1655 3 31.19392700921512 4.909576937729315 1.3264129480159492 0 0 0
1657 1 32.61227844938528 5.72859561237261 0.40478156205736177 0 0 0
1659 3 34.02992700921491 4.909576937729319 1.326412948015975 0 0 0
1521 1 35.4482784493857 0.8164995221069576 0.404781562057003 0 0 0
1525 1 38.28427844938557 0.8164995221068928 0.40478156205704324 0 0 0
1524 3 35.44792700921537 2.453528892596443 1.3264129480158684 0 0 0
1528 3 38.28392700921527 2.4535288925965064 1.3264129480158189 0 0 0
1522 1 36.866278449385064 3.2725475672399176 0.4047815620571418 0 0 0
1526 1 39.702278449385055 3.27254756723989 0.40478156205717764 0 0 0
1661 1 35.44827844938568 5.728595612372842 0.4047815620570508 0 0 0
1663 3 36.86592700921472 4.90957693772937 1.326412948015836 0 0 0
1665 1 38.28427844938557 5.728595612372781 0.4047815620570856 0 0 0
1667 3 39.701927009214735 4.909576937729396 1.3264129480158213 0 0 0
1529 1 41.12027844938557 0.8164995221069065 0.40478156205703947 0 0 0
1533 1 43.95627844938543 0.8164995221069439 0.40478156205691207 0 0 0
1532 3 41.11992700921525 2.453528892596491 1.3264129480158193 0 0 0
1536 3 43.95592700921514 2.4535288925964642 1.3264129480159397 0 0 0
1530 1 42.53827844938497 3.272547567239965 0.40478156205710125 0 0 0
1534 1 45.374278449385294 3.272547567239738 0.40478156205743504 0 0 0
1669 1 41.12027844938558 5.728595612372789 0.4047815620570798 0 0 0
1671 3 42.537927009214656 4.909576937729312 1.3264129480158815 0 0 0
1673 1 43.95627844938544 5.728595612372816 0.4047815620569596 0 0 0
1675 3 45.373927009215 4.909576937729534 1.326412948015555 0 0 0
1537 1 46.79227844938515 0.8164995221069814 0.40478156205688465 0 0 0
1401 1 49.628278449385206 0.816499522106821 0.404781562057181 -1 0 0
1405 1 52.46427844938535 0.8164995221069202 0.4047815620570266 -1 0 0
1540 3 46.79192700921487 2.4535288925964167 1.3264129480159859 0 0 0
1404 3 49.627927009214886 2.4535288925965864 1.3264129480156814 -1 0 0
1408 3 52.46392700921506 2.453528892596472 1.3264129480158646 -1 0 0
1538 1 48.21027844938562 3.27254756723998 0.4047815620570568 0 0 0
1402 1 51.04627844938538 3.2725475672399074 0.40478156205709637 -1 0 0
1677 1 46.792278449385144 5.728595612372861 0.4047815620569309 0 0 0
1679 3 48.20992700921527 4.909576937729288 1.3264129480159375 0 0 0
1541 1 49.6282784493852 5.728595612372698 0.40478156205722743 -1 0 0
1543 3 51.045927009215085 4.909576937729364 1.3264129480158633 -1 0 0
1545 1 52.46427844938533 5.728595612372811 0.4047815620570751 -1 0 0
1409 1 55.30027844938516 0.816499522106948 0.4047815620569562 -1 0 0
1413 1 58.13627844938528 0.8164995221068454 0.4047815620571149 -1 0 0
1412 3 55.29992700921486 2.453528892596458 1.326412948015907 -1 0 0
1416 3 58.135927009214974 2.4535288925965735 1.3264129480157547 -1 0 0
1406 1 53.882278449385254 3.2725475672399353 0.4047815620571297 -1 0 0
1410 1 56.71827844938536 3.272547567239837 0.4047815620572275 -1 0 0
1547 3 53.88192700921495 4.909576937729331 1.3264129480158422 -1 0 0
1549 1 55.30027844938516 5.728595612372825 0.4047815620570055 -1 0 0
1551 3 56.71792700921505 4.909576937729424 1.326412948015761 -1 0 0
1553 1 58.13627844938528 5.728595612372717 0.40478156205717486 -1 0 0
1417 1 60.97227844938529 0.8164995221069621 0.40478156205698224 -1 0 0
1421 1 63.808278449385455 0.8164995221068027 0.40478156205721383 -1 0 0
1420 3 60.971927009215 2.453528892596434 1.3264129480158728 -1 0 0
1424 3 63.807927009215106 2.4535288925966054 1.3264129480156706 -1 0 0
1414 1 59.55427844938543 3.2725475672399558 0.40478156205706184 -1 0 0
1418 1 62.3902784493852 3.272547567239927 0.4047815620571017 -1 0 0
1555 3 59.553927009215144 4.909576937729318 1.3264129480159035 -1 0 0
1557 1 60.9722784493853 5.728595612372847 0.40478156205703836 -1 0 0
1559 3 62.38992700921493 4.909576937729352 1.3264129480159002 -1 0 0
1561 1 63.80827844938545 5.728595612372687 0.4047815620572536 -1 0 0
1425 1 66.64427844938568 0.8164995221069461 0.4047815620570008 -1 0 0
1429 1 69.48027844938565 0.8164995221068855 0.40478156205704247 -1 0 0
1428 3 66.64392700921537 2.453528892596468 1.3264129480158457 -1 0 0
1432 3 69.47992700921533 2.453528892596506 1.3264129480158189 -1 0 0
1422 1 65.22627844938505 3.27254756723994 0.4047815620570585 -1 0 0
1426 1 68.06227844938499 3.2725475672399074 0.404781562057165 -1 0 0
1565 1 66.64427844938568 5.728595612372825 0.40478156205705573 -1 0 0
1563 3 65.22592700921476 4.909576937729333 1.326412948015908 -1 0 0
1567 3 68.06192700921471 4.909576937729381 1.3264129480158318 -1 0 0
1569 1 69.48027844938564 5.7285956123727715 0.40478156205708243 -1 0 0
1433 1 72.31627844938563 0.8164995221069076 0.40478156205703675 -1 0 0
1437 1 75.15227844938543 0.8164995221069621 0.4047815620568722 -1 0 0
1436 3 72.31592700921532 2.453528892596492 1.3264129480158247 -1 0 0
1440 3 75.15192700921511 2.4535288925964363 1.3264129480159716 -1 0 0
1430 1 70.89827844938502 3.2725475672399096 0.40478156205716415 -1 0 0
1434 1 73.73427844938495 3.272547567239952 0.4047815620571444 -1 0 0
1571 3 70.89792700921471 4.909576937729377 1.3264129480158509 -1 0 0
1573 1 72.31627844938563 5.728595612372793 0.4047815620570783 -1 0 0
1575 3 73.73392700921461 4.909576937729343 1.3264129480158549 -1 0 0
1577 1 75.15227844938545 5.728595612372843 0.4047815620569214 -1 0 0
1441 1 77.98827844938522 0.8164995221069324 0.40478156205693105 -1 0 0
1445 1 80.82427844938485 0.8164995221069979 0.40478156205699095 -1 0 0
1444 3 77.98792700921489 2.4535288925964718 1.3264129480159466 -1 0 0
1448 3 80.8239270092146 2.45352889259643 1.3264129480159006 -1 0 0
1438 1 76.57027844938537 3.2725475672397413 0.4047815620574367 -1 0 0
1442 1 79.40627844938568 3.272547567239954 0.4047815620571011 -1 0 0
1579 3 76.56992700921501 4.909576937729533 1.326412948015569 -1 0 0
1581 1 77.98827844938522 5.7285956123728115 0.40478156205697036 -1 0 0
1583 3 79.40592700921539 4.9095769377293115 1.3264129480158322 -1 0 0
1585 1 80.82427844938488 5.728595612372864 0.4047815620570465 -1 0 0
1449 1 83.66027844938546 0.8164995221066782 0.4047815620573734 -1 0 0
1453 1 86.4962784493853 0.8164995221071997 0.40478156205665183 -1 0 0
1452 3 83.65992700921507 2.453528892596757 1.3264129480154783 -1 0 0
1456 3 86.49592700921495 2.453528892596177 1.326412948016201 -1 0 0
1446 1 82.24227844938545 3.2725475672399367 0.4047815620570275 -1 0 0
1450 1 85.07827844938534 3.2725475672399136 0.40478156205714727 -1 0 0
1587 3 82.2419270092151 4.90957693772933 1.326412948015972 -1 0 0
1589 1 83.66027844938544 5.728595612372539 0.4047815620574302 -1 0 0
1591 3 85.07792700921499 4.909576937729357 1.3264129480158382 -1 0 0
1593 1 86.4962784493853 5.728595612373089 0.40478156205668947 -1 0 0
1457 1 89.33227844938536 0.8164995221065778 0.4047815620574403 -1 0 0
1461 1 92.16827844938531 0.8164995221072265 0.4047815620566529 -1 0 0
1460 3 89.33192700921501 2.4535288925968044 1.3264129480154283 -1 0 0
1464 3 92.16792700921499 2.4535288925961893 1.3264129480162237 -1 0 0
1454 1 87.91427844938535 3.2725475672398976 0.40478156205715204 -1 0 0
1458 1 90.75027844938536 3.2725475672398874 0.40478156205715304 -1 0 0
1595 3 87.91392700921497 4.90957693772937 1.3264129480158362 -1 0 0
1597 1 89.33227844938536 5.728595612372471 0.40478156205747157 -1 0 0
1599 3 90.74992700921506 4.90957693772937 1.3264129480158227 -1 0 0
1601 1 92.16827844938534 5.728595612373086 0.40478156205671334 -1 0 0
1470 1 99.25827844938557 3.272547567240051 0.4047815620569435 -1 0 0
1611 3 99.25792700921524 4.909576937729217 1.326412948015974 -1 0 0
1465 1 95.00427844938503 0.8164995221067103 0.40478156205721233 -1 0 0
1469 1 97.84027844938545 0.8164995221069855 0.4047815620569572 -1 0 0
1468 3 95.00392700921473 2.4535288925966947 1.3264129480155997 -1 0 0
1472 3 97.83992700921506 2.453528892596414 1.3264129480159637 -1 0 0
1462 1 93.58627844938522 3.2725475672399544 0.4047815620571124 -1 0 0
1466 1 96.4222784493855 3.27254756723976 0.4047815620573254 -1 0 0
1603 3 93.58592700921487 4.909576937729321 1.3264129480158453 -1 0 0
1605 1 95.00427844938497 5.7285956123726 0.4047815620572484 -1 0 0
1607 3 96.42192700921525 4.9095769377295015 1.326412948015707 -1 0 0
1609 1 97.84027844938541 5.72859561237286 0.4047815620570051 -1 0 0
1616 3 1.4159270092148886 7.365624982862326 1.326412948015713 0 0 0
1620 3 4.251927009214969 7.36562498286229 1.3264129480157978 0 0 0
1614 1 2.834278449385196 8.18464365750573 0.4047815620571433 0 0 0
1618 1 5.670278449385341 8.184643657505765 0.4047815620571014 0 0 0
1755 3 2.8339270092148836 9.821673027995526 1.3264129480157796 0 0 0
1759 3 5.669927009215039 9.821673027995487 1.3264129480158142 0 0 0
1753 1 1.4162784493851803 10.64069170263897 0.4047815620572487 0 0 0
1757 1 4.2522784493852726 10.640691702638991 0.404781562057165 0 0 0
1624 3 7.087927009215014 7.365624982862289 1.3264129480157858 0 0 0
1628 3 9.923927009214877 7.365624982862242 1.3264129480158773 0 0 0
1622 1 8.506278449385247 8.1846436575058 0.40478156205707166 0 0 0
1626 1 11.342278449385411 8.18464365750567 0.4047815620571967 0 0 0
1763 3 8.505927009214941 9.821673027995445 1.3264129480158484 0 0 0
1767 3 11.34192700921511 9.821673027995567 1.3264129480157143 0 0 0
1761 1 7.088278449385323 10.640691702638996 0.40478156205717186 0 0 0
1765 1 9.924278449385186 10.64069170263905 0.40478156205708876 0 0 0
1632 3 12.759927009215067 7.365624982862376 1.326412948015655 0 0 0
1636 3 15.59592700921524 7.365624982862279 1.3264129480157458 0 0 0
1630 1 14.178278449385337 8.184643657505882 0.40478156205689103 0 0 0
1634 1 17.014278449384864 8.18464365750578 0.4047815620570992 0 0 0
1771 3 14.177927009215034 9.821673027995365 1.3264129480160312 0 0 0
1775 3 17.01392700921456 9.821673027995457 1.3264129480158184 0 0 0
1769 1 12.760278449385366 10.640691702638918 0.4047815620573091 0 0 0
1773 1 15.596278449385549 10.640691702639014 0.40478156205721655 0 0 0
1640 3 18.43192700921507 7.365624982862249 1.326412948015916 0 0 0
1644 3 21.26792700921489 7.365624982862249 1.3264129480159235 0 0 0
1638 1 19.850278449385318 8.1846436575056 0.4047815620573877 0 0 0
1642 1 22.6862784493857 8.184643657505816 0.4047815620570694 0 0 0
1779 3 19.849927009215012 9.821673027995644 1.3264129480155438 0 0 0
1783 3 22.685927009215394 9.821673027995432 1.3264129480158418 0 0 0
1777 1 18.432278449385375 10.640691702639044 0.4047815620570349 0 0 0
1781 1 21.26827844938519 10.640691702639048 0.40478156205704086 0 0 0
1648 3 24.10392700921473 7.365624982862281 1.3264129480158022 0 0 0
1652 3 26.939927009214713 7.365624982862308 1.3264129480157854 0 0 0
1646 1 25.522278449385592 8.18464365750575 0.40478156205711435 0 0 0
1650 1 28.358278449385583 8.18464365750577 0.4047815620571032 0 0 0
1787 3 25.52192700921529 9.821673027995496 1.3264129480157933 0 0 0
1791 3 28.35792700921528 9.821673027995478 1.3264129480158118 0 0 0
1785 1 24.10427844938502 10.640691702639007 0.4047815620571638 0 0 0
1789 1 26.940278449385012 10.640691702638984 0.4047815620571872 0 0 0
1656 3 29.775927009214605 7.365624982862237 1.3264129480158362 0 0 0
1660 3 32.611927009215016 7.365624982862467 1.3264129480155065 0 0 0
1654 1 31.19427844938543 8.184643657505813 0.40478156205696464 0 0 0
1658 1 34.0302784493852 8.184643657505806 0.40478156205699484 0 0 0
1795 3 31.193927009215116 9.821673027995432 1.3264129480159315 0 0 0
1799 3 34.029927009214916 9.821673027995438 1.326412948015959 0 0 0
1793 1 29.77627844938492 10.640691702639055 0.40478156205712984 0 0 0
1797 1 32.61227844938528 10.640691702638827 0.4047815620574471 0 0 0
1664 3 35.44792700921536 7.365624982862234 1.32641294801583 0 0 0
1668 3 38.28392700921526 7.3656249828622995 1.3264129480157862 0 0 0
1662 1 36.866278449385064 8.184643657505777 0.40478156205709703 0 0 0
1666 1 39.702278449385055 8.184643657505744 0.40478156205712995 0 0 0
1803 3 36.86592700921472 9.821673027995482 1.326412948015813 0 0 0
1807 3 39.701927009214735 9.821673027995503 1.3264129480157951 0 0 0
1801 1 35.44827844938568 10.64069170263905 0.4047815620571313 0 0 0
1805 1 38.28427844938557 10.640691702638993 0.4047815620571712 0 0 0
1672 3 41.11992700921525 7.36562498286228 1.3264129480157842 0 0 0
1676 3 43.95592700921513 7.365624982862255 1.326412948015905 0 0 0
1670 1 42.53827844938497 8.18464365750582 0.4047815620570605 0 0 0
1674 1 45.37427844938529 8.184643657505598 0.4047815620573933 0 0 0
1811 3 42.53792700921465 9.821673027995425 1.3264129480158555 0 0 0
1815 3 45.37392700921501 9.821673027995645 1.3264129480155364 0 0 0
1809 1 41.12027844938557 10.640691702638996 0.40478156205716553 0 0 0
1813 1 43.95627844938543 10.640691702639032 0.4047815620570454 0 0 0
1680 3 46.79192700921486 7.365624982862217 1.3264129480159506 0 0 0
1544 3 49.627927009214886 7.365624982862382 1.3264129480156404 -1 0 0
1548 3 52.46392700921506 7.365624982862258 1.326412948015815 -1 0 0
1678 1 48.21027844938562 8.18464365750584 0.4047815620570112 0 0 0
1542 1 51.04627844938539 8.184643657505765 0.40478156205705484 -1 0 0
1819 3 48.2099270092153 9.821673027995416 1.3264129480159026 0 0 0
1683 3 51.045927009215106 9.821673027995471 1.3264129480158575 -1 0 0
1817 1 46.79227844938515 10.640691702639083 0.40478156205701693 0 0 0
1681 1 49.6282784493852 10.64069170263892 0.4047815620573151 -1 0 0
1685 1 52.46427844938533 10.640691702639016 0.40478156205715543 -1 0 0
1552 3 55.29992700921486 7.365624982862249 1.3264129480158653 -1 0 0
1556 3 58.13592700921497 7.365624982862362 1.3264129480157085 -1 0 0
1546 1 53.88227844938526 8.18464365750579 0.40478156205708066 -1 0 0
1550 1 56.71827844938535 8.184643657505694 0.40478156205718424 -1 0 0
1687 3 53.88192700921495 9.821673027995454 1.326412948015831 -1 0 0
1691 3 56.71792700921506 9.821673027995553 1.3264129480157483 -1 0 0
1689 1 55.30027844938516 10.640691702639044 0.4047815620570921 -1 0 0
1693 1 58.13627844938528 10.640691702638932 0.40478156205725985 -1 0 0
1560 3 60.971927009215015 7.36562498286223 1.3264129480158353 -1 0 0
1564 3 63.807927009215106 7.365624982862401 1.3264129480156348 -1 0 0
1554 1 59.55427844938543 8.184643657505816 0.40478156205702065 -1 0 0
1558 1 62.390278449385214 8.18464365750578 0.40478156205705595 -1 0 0
1695 3 59.55392700921513 9.821673027995429 1.3264129480158793 -1 0 0
1699 3 62.38992700921492 9.821673027995457 1.3264129480158813 -1 0 0
1697 1 60.97227844938529 10.640691702639062 0.40478156205711663 -1 0 0
1701 1 63.80827844938545 10.6406917026389 0.4047815620573367 -1 0 0
1568 3 66.64392700921536 7.365624982862262 1.326412948015807 -1 0 0
1572 3 69.47992700921532 7.365624982862295 1.3264129480157816 -1 0 0
1562 1 65.22627844938503 8.184643657505795 0.4047815620570087 -1 0 0
1566 1 68.06227844938498 8.184643657505763 0.40478156205712323 -1 0 0
1703 3 65.22592700921476 9.821673027995448 1.3264129480158924 -1 0 0
1707 3 68.06192700921471 9.821673027995493 1.3264129480158018 -1 0 0
1705 1 66.64427844938567 10.640691702639028 0.40478156205714205 -1 0 0
1709 1 69.48027844938565 10.640691702638987 0.40478156205716714 -1 0 0
1576 3 72.31592700921532 7.365624982862283 1.3264129480157918 -1 0 0
1580 3 75.15192700921513 7.365624982862229 1.3264129480159308 -1 0 0
1570 1 70.89827844938502 8.184643657505768 0.4047815620571169 -1 0 0
1574 1 73.73427844938495 8.184643657505807 0.4047815620571032 -1 0 0
1711 3 70.89792700921473 9.821673027995487 1.3264129480158267 -1 0 0
1715 3 73.73392700921461 9.821673027995455 1.326412948015832 -1 0 0
1713 1 72.31627844938563 10.640691702639002 0.4047815620571628 -1 0 0
1717 1 75.15227844938545 10.640691702639058 0.40478156205700705 -1 0 0
1584 3 77.9879270092149 7.365624982862264 1.3264129480159084 -1 0 0
1588 3 80.82392700921461 7.365624982862216 1.3264129480158635 -1 0 0
1578 1 76.57027844938538 8.184643657505596 0.4047815620573942 -1 0 0
1582 1 79.40627844938567 8.184643657505815 0.4047815620570585 -1 0 0
1719 3 76.56992700921502 9.821673027995644 1.3264129480155444 -1 0 0
1723 3 79.40592700921539 9.821673027995429 1.3264129480158082 -1 0 0
1721 1 77.98827844938523 10.640691702639032 0.40478156205705734 -1 0 0
1725 1 80.82427844938488 10.640691702639073 0.40478156205712756 -1 0 0
1592 3 83.65992700921507 7.36562498286255 1.3264129480154467 -1 0 0
1596 3 86.49592700921495 7.365624982861978 1.3264129480161733 -1 0 0
1586 1 82.24227844938544 8.184643657505795 0.40478156205698623 -1 0 0
1590 1 85.07827844938534 8.18464365750577 0.4047815620571047 -1 0 0
1727 3 82.24192700921509 9.821673027995454 1.3264129480159568 -1 0 0
1731 3 85.077927009215 9.821673027995473 1.3264129480158182 -1 0 0
1729 1 83.66027844938544 10.640691702638756 0.40478156205751886 -1 0 0
1733 1 86.4962784493853 10.640691702639304 0.40478156205677357 -1 0 0
1600 3 89.33192700921501 7.3656249828626095 1.3264129480153983 -1 0 0
1604 3 92.16792700921499 7.365624982861977 1.326412948016191 -1 0 0
1594 1 87.91427844938534 8.184643657505763 0.40478156205710697 -1 0 0
1598 1 90.75027844938535 8.184643657505749 0.4047815620571055 -1 0 0
1735 3 87.91392700921497 9.821673027995484 1.326412948015815 -1 0 0
1739 3 90.74992700921504 9.821673027995486 1.3264129480157982 -1 0 0
1737 1 89.33227844938534 10.640691702638687 0.40478156205756044 -1 0 0
1741 1 92.16827844938534 10.640691702639305 0.40478156205678983 -1 0 0
1610 1 99.25827844938559 8.1846436575059 0.4047815620568969 -1 0 0
1751 3 99.25792700921525 9.82167302799533 1.3264129480159743 -1 0 0
1608 3 95.00392700921472 7.365624982862487 1.3264129480155595 -1 0 0
1612 3 97.83992700921506 7.365624982862201 1.3264129480159235 -1 0 0
1602 1 93.58627844938522 8.18464365750582 0.404781562057083 -1 0 0
1606 1 96.42227844938553 8.18464365750561 0.40478156205728405 -1 0 0
1743 3 93.58592700921487 9.821673027995436 1.3264129480158222 -1 0 0
1747 3 96.42192700921525 9.821673027995619 1.3264129480156908 -1 0 0
1745 1 95.004278449385 10.640691702638797 0.40478156205736565 -1 0 0
1749 1 97.84027844938542 10.640691702639103 0.4047815620570538 -1 0 0
1756 3 1.4159270092149263 12.277721073128518 1.3264129480157942 0 0 0
1754 1 2.834278449385202 13.096739747771817 0.4047815620570823 0 0 0
1760 3 4.2519270092149615 12.277721073128513 1.3264129480158429 0 0 0
1758 1 5.670278449385341 13.096739747771867 0.40478156205704274 0 0 0
1895 3 2.8339270092148885 14.733769118261353 1.326412948015822 0 0 0
1899 3 5.669927009215036 14.733769118261314 1.3264129480158457 0 0 0
1893 1 1.4162784493851908 15.552787792904772 0.40478156205722204 0 0 0
1897 1 4.252278449385274 15.55278779290478 0.4047815620571438 0 0 0
1896 3 1.415927009214929 17.18981716339427 1.3264129480157207 0 0 0
1900 3 4.251927009214962 17.189817163394277 1.3264129480157663 0 0 0
1764 3 7.087927009215014 12.277721073128506 1.326412948015838 0 0 0
1762 1 8.506278449385245 13.096739747771904 0.4047815620570157 0 0 0
1768 3 9.923927009214877 12.277721073128452 1.326412948015926 0 0 0
1766 1 11.34227844938542 13.096739747771768 0.4047815620571362 0 0 0
1903 3 8.505927009214943 14.733769118261282 1.3264129480158824 0 0 0
1907 3 11.34192700921511 14.733769118261405 1.326412948015754 0 0 0
1901 1 7.08827844938532 15.552787792904788 0.40478156205715027 0 0 0
1905 1 9.924278449385183 15.552787792904848 0.4047815620570694 0 0 0
1904 3 7.087927009215019 17.189817163394267 1.3264129480157616 0 0 0
1908 3 9.923927009214879 17.189817163394206 1.326412948015854 0 0 0
1772 3 12.759927009215067 12.277721073128589 1.326412948015702 0 0 0
1770 1 14.17827844938534 13.096739747771984 0.4047815620568306 0 0 0
1776 3 15.59592700921525 12.277721073128488 1.3264129480157987 0 0 0
1774 1 17.014278449384868 13.096739747771881 0.40478156205703225 0 0 0
1911 3 14.177927009215027 14.733769118261193 1.3264129480160676 0 0 0
1915 3 17.013927009214562 14.733769118261298 1.3264129480158606 0 0 0
1909 1 12.760278449385373 15.552787792904706 0.40478156205729426 0 0 0
1913 1 15.596278449385553 15.552787792904807 0.404781562057192 0 0 0
1912 3 12.759927009215069 17.18981716339434 1.326412948015625 0 0 0
1916 3 15.595927009215247 17.18981716339424 1.3264129480157223 0 0 0
1780 3 18.431927009215062 12.277721073128463 1.3264129480159608 0 0 0
1778 1 19.850278449385307 13.096739747771702 0.4047815620573163 0 0 0
1784 3 21.26792700921488 12.277721073128452 1.3264129480159792 0 0 0
1782 1 22.68627844938569 13.096739747771903 0.4047815620570109 0 0 0
1919 3 19.849927009215012 14.733769118261483 1.3264129480155804 0 0 0
1923 3 22.685927009215394 14.733769118261263 1.326412948015887 0 0 0
1917 1 18.432278449385375 15.552787792904834 0.40478156205702287 0 0 0
1921 1 21.268278449385193 15.552787792904846 0.4047815620570284 0 0 0
1920 3 18.431927009215066 17.189817163394217 1.3264129480158864 0 0 0
1924 3 21.267927009214876 17.189817163394203 1.3264129480159033 0 0 0
1788 3 24.103927009214708 12.277721073128493 1.3264129480158524 0 0 0
1786 1 25.522278449385595 13.096739747771846 0.4047815620570511 0 0 0
1792 3 26.939927009214706 12.277721073128525 1.3264129480158324 0 0 0
1790 1 28.358278449385587 13.096739747771858 0.40478156205703714 0 0 0
1927 3 25.52192700921529 14.733769118261327 1.3264129480158313 0 0 0
1931 3 28.357927009215285 14.733769118261307 1.3264129480158504 0 0 0
1925 1 24.10427844938502 15.552787792904798 0.4047815620571439 0 0 0
1929 1 26.940278449385016 15.552787792904779 0.40478156205717375 0 0 0
1928 3 24.103927009214715 17.18981716339425 1.3264129480157751 0 0 0
1932 3 26.93992700921471 17.189817163394284 1.3264129480157518 0 0 0
1796 3 29.775927009214605 12.277721073128449 1.326412948015887 0 0 0
1794 1 31.194278449385433 13.096739747771911 0.4047815620569047 0 0 0
1798 1 34.0302784493852 13.096739747771906 0.4047815620569335 0 0 0
1800 3 32.61192700921502 12.277721073128676 1.3264129480155569 0 0 0
1935 3 31.19392700921512 14.733769118261263 1.3264129480159688 0 0 0
1939 3 34.02992700921491 14.73376911826127 1.3264129480159925 0 0 0
1933 1 29.776278449384918 15.552787792904846 0.4047815620571129 0 0 0
1937 1 32.61227844938528 15.552787792904613 0.40478156205742705 0 0 0
1936 3 29.775927009214605 17.18981716339421 1.326412948015811 0 0 0
1940 3 32.61192700921502 17.18981716339444 1.3264129480154856 0 0 0
1804 3 35.44792700921536 12.277721073128447 1.326412948015879 0 0 0
1802 1 36.86627844938506 13.096739747771872 0.4047815620570358 0 0 0
1808 3 38.28392700921526 12.277721073128514 1.3264129480158395 0 0 0
1806 1 39.702278449385055 13.096739747771839 0.4047815620570714 0 0 0
1943 3 36.86592700921473 14.73376911826131 1.3264129480158526 0 0 0
1947 3 39.701927009214735 14.733769118261334 1.3264129480158324 0 0 0
1941 1 35.44827844938568 15.552787792904846 0.40478156205711524 0 0 0
1945 1 38.28427844938557 15.55278779290478 0.40478156205714905 0 0 0
1944 3 35.44792700921536 17.189817163394206 1.3264129480158025 0 0 0
1948 3 38.28392700921526 17.189817163394277 1.3264129480157592 0 0 0
1812 3 41.11992700921525 12.277721073128497 1.3264129480158384 0 0 0
1810 1 42.53827844938497 13.096739747771915 0.4047815620569964 0 0 0
1816 3 43.95592700921513 12.277721073128468 1.3264129480159532 0 0 0
1814 1 45.374278449385294 13.096739747771696 0.40478156205732846 0 0 0
1951 3 42.537927009214656 14.733769118261257 1.3264129480158977 0 0 0
1955 3 45.37392700921501 14.733769118261486 1.3264129480155729 0 0 0
1949 1 41.12027844938557 15.55278779290479 0.40478156205715143 0 0 0
1953 1 43.95627844938544 15.552787792904835 0.40478156205703014 0 0 0
1952 3 41.11992700921525 17.18981716339425 1.3264129480157623 0 0 0
1956 3 43.95592700921514 17.189817163394217 1.3264129480158766 0 0 0
1820 3 46.79192700921486 12.277721073128422 1.326412948016001 0 0 0
1818 1 48.21027844938561 13.096739747771936 0.40478156205694654 0 0 0
1684 3 49.62792700921488 12.277721073128589 1.3264129480157003 -1 0 0
1682 1 51.0462784493854 13.096739747771862 0.40478156205699195 -1 0 0
1688 3 52.46392700921504 12.27772107312848 1.3264129480158622 -1 0 0
1959 3 48.20992700921527 14.733769118261236 1.3264129480159463 0 0 0
1823 3 51.045927009215085 14.733769118261314 1.326412948015885 -1 0 0
1957 1 46.79227844938515 15.552787792904866 0.404781562057001 0 0 0
1821 1 49.6282784493852 15.552787792904704 0.40478156205729376 -1 0 0
1825 1 52.46427844938533 15.552787792904804 0.4047815620571337 -1 0 0
1960 3 46.79192700921486 17.18981716339418 1.326412948015926 0 0 0
1824 3 49.62792700921488 17.18981716339433 1.326412948015632 -1 0 0
1828 3 52.46392700921505 17.189817163394245 1.3264129480157871 -1 0 0
1686 1 53.882278449385254 13.09673974777189 0.40478156205702165 -1 0 0
1692 3 55.29992700921488 12.277721073128461 1.3264129480159033 -1 0 0
1690 1 56.718278449385345 13.096739747771792 0.4047815620571217 -1 0 0
1696 3 58.135927009214996 12.277721073128562 1.3264129480157678 -1 0 0
1827 3 53.88192700921495 14.733769118261275 1.326412948015863 -1 0 0
1831 3 56.71792700921506 14.733769118261385 1.3264129480157845 -1 0 0
1829 1 55.300278449385175 15.55278779290483 0.40478156205707866 -1 0 0
1833 1 58.13627844938529 15.552787792904725 0.40478156205723537 -1 0 0
1832 3 55.29992700921488 17.189817163394228 1.326412948015823 -1 0 0
1836 3 58.135927009214996 17.18981716339433 1.3264129480156952 -1 0 0
1694 1 59.55427844938543 13.096739747771911 0.4047815620569644 -1 0 0
1700 3 60.97192700921502 12.277721073128445 1.326412948015886 -1 0 0
1698 1 62.39027844938521 13.096739747771874 0.4047815620569962 -1 0 0
1704 3 63.807927009215106 12.277721073128598 1.3264129480156843 -1 0 0
1835 3 59.553927009215116 14.733769118261257 1.3264129480159204 -1 0 0
1839 3 62.38992700921491 14.733769118261302 1.3264129480159081 -1 0 0
1837 1 60.9722784493853 15.55278779290485 0.4047815620570951 -1 0 0
1841 1 63.80827844938544 15.552787792904688 0.40478156205731636 -1 0 0
1840 3 60.97192700921501 17.189817163394206 1.3264129480158164 -1 0 0
1844 3 63.80792700921511 17.189817163394352 1.3264129480156164 -1 0 0
1702 1 65.22627844938505 13.096739747771899 0.40478156205694904 -1 0 0
1708 3 66.64392700921536 12.277721073128474 1.326412948015862 -1 0 0