LAMMPS data file via write_data, version 29 Aug 2024, timestep = 7, units = metal

8400 atoms
6 atom types

0 99.26 xlo xhi
0 98.24192180532 ylo yhi
-50 116.75641619390721 zlo zhi

Masses

1 12.011
2 12.011
3 12.011
4 32.06
5 32.06
6 32.06

Atoms # atomic

1473 1 1.4173154294787638 0.8176149002905518 0.3074752655546263 0 0 0
1477 1 4.25331542947889 0.8176149002905827 0.3074752655545632 0 0 0
1476 4 1.4169438991790466 2.454713581218683 1.239154216016117 0 0 0
1480 4 4.25294389917916 2.4547135812186567 1.2391542160161693 0 0 0
1474 1 2.8353154294788325 3.2736629454235135 0.3074752655547409 0 0 0
1478 1 5.6713154294789305 3.2736629454235326 0.30747526555471255 0 0 0
1613 1 1.4173154294788017 5.729710990556501 0.30747526555465354 0 0 0
1615 4 2.8349438991790885 4.910761626351589 1.2391542160162143 0 0 0
1617 1 4.253315429478896 5.729710990556521 0.307475265554617 0 0 0
1619 4 5.670943899179186 4.910761626351563 1.2391542160162423 0 0 0
1481 1 7.089315429478924 0.8176149002905768 0.3074752655545698 0 0 0
1485 1 9.925315429478808 0.8176149002905964 0.307475265554525 0 0 0
1484 4 7.0889438991791875 2.454713581218657 1.2391542160161664 0 0 0
1488 4 9.92494389917908 2.454713581218619 1.2391542160162228 0 0 0
1482 1 8.507315429478854 3.2736629454235544 0.30747526555468874 0 0 0
1486 1 11.343315429478974 3.273662945423477 0.3074752655547905 0 0 0
1621 1 7.089315429478921 5.729710990556527 0.30747526555461213 0 0 0
1623 4 8.506943899179134 4.910761626351548 1.2391542160162643 0 0 0
1625 1 9.925315429478808 5.729710990556559 0.3074752655545673 0 0 0
1627 4 11.342943899179243 4.910761626351628 1.239154216016163 0 0 0
1489 1 12.761315429478893 0.817614900290511 0.3074752655546498 0 0 0
1493 1 15.597315429479067 0.8176149002905645 0.3074752655545774 0 0 0
1492 4 12.76094389917916 2.454713581218722 1.239154216016074 0 0 0
1496 4 15.596943899179351 2.4547135812186527 1.2391542160161564 0 0 0
1490 1 14.1793154294789 3.273662945423615 0.3074752655545872 0 0 0
1494 1 17.015315429478587 3.2736629454235473 0.3074752655547031 0 0 0
1629 1 12.761315429478897 5.729710990556464 0.30747526555470944 0 0 0
1631 4 14.178943899179156 4.910761626351472 1.2391542160163727 0 0 0
1633 1 15.597315429479073 5.729710990556533 0.3074752655546189 0 0 0
1635 4 17.01494389917886 4.910761626351552 1.2391542160162576 0 0 0
1497 1 18.433315429478974 0.8176149002905984 0.30747526555451515 0 0 0
1501 1 21.269315429478812 0.8176149002906171 0.3074752655544949 0 0 0
1500 4 18.432943899179264 2.454713581218612 1.239154216016216 0 0 0
1504 4 21.268943899179057 2.454713581218603 1.2391542160162259 0 0 0
1498 1 19.851315429478902 3.27366294542339 0.3074752655548939 0 0 0
1502 1 22.687315429479135 3.273662945423556 0.3074752655546785 0 0 0
1637 1 18.433315429478995 5.729710990556552 0.3074752655545665 0 0 0
1639 4 19.85094389917913 4.910761626351706 1.2391542160160733 0 0 0
1641 1 21.269315429478823 5.7297109905565655 0.3074752655545452 0 0 0
1643 4 22.686943899179397 4.910761626351548 1.2391542160162672 0 0 0
1505 1 24.10531542947865 0.8176149002905821 0.307475265554562 0 0 0
1509 1 26.941315429478724 0.8176149002905624 0.3074752655545863 0 0 0
1508 4 24.10494389917896 2.454713581218644 1.2391542160161704 0 0 0
1512 4 26.940943899178986 2.4547135812186602 1.2391542160161542 0 0 0
1506 1 25.52331542947906 3.2736629454235247 0.30747526555473104 0 0 0
1510 1 28.359315429479096 3.2736629454235437 0.3074752655547066 0 0 0
1645 1 24.105315429478665 5.729710990556533 0.3074752655545997 0 0 0
1647 4 25.522943899179346 4.910761626351576 1.2391542160162303 0 0 0
1649 1 26.94131542947871 5.729710990556509 0.3074752655546286 0 0 0
1651 4 28.358943899179376 4.910761626351558 1.2391542160162425 0 0 0
1513 1 29.777315429478634 0.8176149002905818 0.3074752655545377 0 0 0
1517 1 32.6133154294789 0.8176149002904087 0.30747526555475935 0 0 0
1516 4 29.77694389917891 2.4547135812186185 1.2391542160162103 0 0 0
1520 4 32.61294389917916 2.4547135812188086 1.2391542160159739 0 0 0
1514 1 31.195315429479006 3.2736629454235673 0.307475265554661 0 0 0
1518 1 34.031315429478774 3.273662945423576 0.3074752655546445 0 0 0
1653 1 29.777315429478634 5.729710990556552 0.307475265554565 0 0 0
1655 4 31.194943899179272 4.910761626351525 1.239154216016312 0 0 0
1657 1 32.6133154294789 5.729710990556384 0.30747526555480925 0 0 0
1659 4 34.03094389917902 4.910761626351522 1.2391542160163098 0 0 0
1521 1 35.44931542947916 0.817614900290586 0.30747526555453214 0 0 0
1525 1 38.28531542947908 0.8176149002905624 0.30747526555458105 0 0 0
1524 4 35.448943899179426 2.454713581218617 1.2391542160162128 0 0 0
1528 4 38.284943899179325 2.454713581218659 1.2391542160161562 0 0 0
1522 1 36.867315429478666 3.273662945423538 0.3074752655547186 0 0 0
1526 1 39.703315429478714 3.273662945423528 0.30747526555472343 0 0 0
1661 1 35.449315429479164 5.729710990556553 0.3074752655545649 0 0 0
1663 4 36.86694389917892 4.910761626351561 1.2391542160162416 0 0 0
1665 1 38.28531542947909 5.729710990556509 0.3074752655546292 0 0 0
1667 4 39.70294389917895 4.910761626351574 1.2391542160162348 0 0 0
1529 1 41.12131542947915 0.8176149002905813 0.3074752655545682 0 0 0
1533 1 43.95731542947905 0.8176149002905977 0.30747526555451216 0 0 0
1532 4 41.120943899179366 2.4547135812186474 1.239154216016167 0 0 0
1536 4 43.95694389917928 2.4547135812186114 1.2391542160162266 0 0 0
1530 1 42.53931542947864 3.2736629454235584 0.3074752655546834 0 0 0
1534 1 45.37531542947891 3.273662945423386 0.30747526555489924 0 0 0
1669 1 41.12131542947916 5.729710990556527 0.30747526555460314 0 0 0
1671 4 42.53894389917888 4.910761626351545 1.239154216016273 0 0 0
1673 1 43.95731542947907 5.7297109905565655 0.30747526555455185 0 0 0
1675 4 45.37494389917916 4.91076162635172 1.239154216016056 0 0 0
1537 1 46.79331542947876 0.8176149002906161 0.307475265554482 0 0 0
1401 1 49.6293154294788 0.8176149002904858 0.30747526555466415 -1 0 0
1405 1 52.46531542947894 0.8176149002905525 0.30747526555456617 -1 0 0
1540 4 46.792943899179 2.454713581218596 1.2391542160162479 0 0 0
1404 4 49.62894389917903 2.45471358121872 1.2391542160160736 -1 0 0
1408 4 52.4649438991792 2.454713581218639 1.2391542160161833 -1 0 0
1538 1 48.21131542947912 3.2736629454235766 0.3074752655546538 0 0 0
1402 1 51.04731542947896 3.2736629454235437 0.3074752655546966 -1 0 0
1677 1 46.79331542947875 5.729710990556583 0.3074752655545185 0 0 0
1679 4 48.21094389917936 4.910761626351524 1.2391542160163211 0 0 0
1541 1 49.629315429478794 5.7297109905564625 0.30747526555471405 -1 0 0
1543 4 51.046943899179176 4.91076162635156 1.2391542160162483 -1 0 0
1545 1 52.46531542947895 5.729710990556538 0.3074752655545956 -1 0 0
1409 1 55.30131542947882 0.8176149002905875 0.30747526555452914 -1 0 0
1413 1 58.13731542947888 0.8176149002904977 0.30747526555464 -1 0 0
1412 4 55.30094389917907 2.4547135812186056 1.2391542160162208 -1 0 0
1416 4 58.13694389917911 2.454713581218694 1.239154216016082 -1 0 0
1406 1 53.88331542947887 3.273662945423552 0.30747526555468974 -1 0 0
1410 1 56.719315429478975 3.2736629454234776 0.30747526555477855 -1 0 0
1547 4 53.88294389917914 4.91076162635155 1.2391542160162656 -1 0 0
1549 1 55.30131542947883 5.729710990556559 0.3074752655545729 -1 0 0
1551 4 56.7189438991792 4.910761626351614 1.2391542160161795 -1 0 0
1553 1 58.137315429478875 5.729710990556477 0.30747526555467686 -1 0 0
1417 1 60.973315429478895 0.8176149002905764 0.3074752655545338 -1 0 0
1421 1 63.80931542947894 0.8176149002904876 0.30747526555464466 -1 0 0
1420 4 60.97294389917915 2.4547135812186176 1.2391542160162161 -1 0 0
1424 4 63.80894389917923 2.4547135812187273 1.2391542160160631 -1 0 0
1414 1 59.55531542947898 3.273662945423567 0.3074752655546649 -1 0 0
1418 1 62.39131542947886 3.2736629454235486 0.30747526555469207 -1 0 0
1555 4 59.554943899179236 4.910761626351527 1.2391542160162956 -1 0 0
1557 1 60.973315429478895 5.72971099055656 0.3074752655545709 -1 0 0
1559 4 62.39094389917908 4.910761626351546 1.2391542160162667 -1 0 0
1561 1 63.80931542947895 5.729710990556468 0.3074752655546911 -1 0 0
1425 1 66.64531542947903 0.8176149002905797 0.3074752655545611 -1 0 0
1429 1 69.48131542947905 0.8176149002905846 0.30747526555456617 -1 0 0
1428 4 66.64494389917947 2.4547135812186385 1.2391542160161833 -1 0 0
1432 4 69.48094389917941 2.4547135812186465 1.2391542160161562 -1 0 0
1422 1 65.22731542947868 3.2736629454235584 0.3074752655546575 -1 0 0
1426 1 68.06331542947862 3.2736629454235344 0.30747526555472476 -1 0 0
1565 1 66.64531542947904 5.729710990556526 0.30747526555459764 -1 0 0
1563 4 65.22694389917906 4.910761626351548 1.239154216016264 -1 0 0
1567 4 68.06294389917902 4.910761626351559 1.2391542160162519 -1 0 0
1569 1 69.48131542947907 5.729710990556516 0.307475265554616 -1 0 0
1433 1 72.31731542947905 0.8176149002905942 0.30747526555455934 -1 0 0
1437 1 75.15331542947898 0.8176149002906148 0.3074752655545019 -1 0 0
1436 4 72.31694389917945 2.454713581218643 1.2391542160161793 -1 0 0
1440 4 75.15294389917922 2.4547135812186074 1.2391542160162248 -1 0 0
1430 1 70.89931542947866 3.2736629454235247 0.30747526555472116 -1 0 0
1434 1 73.73531542947869 3.2736629454235286 0.30747526555473237 -1 0 0
1571 4 70.89894389917902 4.910761626351577 1.2391542160162263 -1 0 0
1573 1 72.31731542947905 5.72971099055654 0.30747526555459553 -1 0 0
1575 4 73.73494389917894 4.910761626351553 1.2391542160162754 -1 0 0
1577 1 75.15331542947898 5.729710990556563 0.30747526555455557 -1 0 0
1441 1 77.98931542947868 0.8176149002906025 0.3074752655544906 -1 0 0
1445 1 80.82531542947858 0.8176149002905561 0.3074752655545915 -1 0 0
1444 4 77.98894389917915 2.4547135812186096 1.2391542160162083 -1 0 0
1448 4 80.8249438991789 2.454713581218618 1.2391542160162181 -1 0 0
1438 1 76.57131542947893 3.273662945423413 0.3074752655548429 -1 0 0
1442 1 79.40731542947907 3.2736629454235655 0.3074752655546937 -1 0 0
1579 4 76.57094389917921 4.910761626351708 1.2391542160160611 -1 0 0
1581 1 77.98931542947871 5.729710990556547 0.30747526555455756 -1 0 0
1583 4 79.40694389917948 4.910761626351533 1.239154216016292 -1 0 0
1585 1 80.82531542947862 5.729710990556542 0.30747526555459825 -1 0 0
1449 1 83.66131542947899 0.8176149002903992 0.307475265554752 -1 0 0
1453 1 86.49731542947886 0.8176149002907196 0.3074752655543633 -1 0 0
1452 4 83.66094389917929 2.45471358121883 1.2391542160159217 -1 0 0
1456 4 86.49694389917919 2.4547135812184435 1.2391542160164548 -1 0 0
1446 1 82.24331542947897 3.273662945423569 0.3074752655546563 -1 0 0
1450 1 85.07931542947875 3.273662945423547 0.30747526555471033 -1 0 0
1587 4 82.24294389917917 4.910761626351542 1.239154216016287 -1 0 0
1589 1 83.66131542947896 5.729710990556378 0.3074752655548037 -1 0 0
1591 4 85.07894389917922 4.910761626351551 1.2391542160162499 -1 0 0
1593 1 86.49731542947886 5.729710990556709 0.30747526555437954 -1 0 0
1457 1 89.33331542947892 0.8176149002903815 0.30747526555481147 -1 0 0
1461 1 92.16931542947896 0.8176149002907618 0.3074752655543441 -1 0 0
1460 4 89.33294389917923 2.4547135812188734 1.2391542160158622 -1 0 0
1464 4 92.1689438991793 2.454713581218437 1.239154216016468 -1 0 0
1454 1 87.91531542947888 3.273662945423532 0.3074752655547144 -1 0 0
1458 1 90.7513154294788 3.2736629454235286 0.3074752655547138 -1 0 0
1595 4 87.91494389917912 4.910761626351564 1.2391542160162399 -1 0 0
1597 1 89.3333154294789 5.72971099055634 0.3074752655548604 -1 0 0
1599 4 90.75094389917928 4.910761626351568 1.2391542160162279 -1 0 0
1601 1 92.16931542947894 5.7297109905567165 0.30747526555438526 -1 0 0
1470 1 99.25931542947906 3.273662945423632 0.30747526555458854 -1 0 0
1611 4 99.2589438991793 4.910761626351465 1.2391542160163747 -1 0 0
1465 1 95.00531542947873 0.817614900290457 0.3074752655546869 -1 0 0
1469 1 97.84131542947881 0.8176149002906107 0.3074752655545041 -1 0 0
1468 4 95.00494389917904 2.4547135812187793 1.2391542160159823 -1 0 0
1472 4 97.84094389917921 2.4547135812185856 1.2391542160162672 -1 0 0
1462 1 93.5873154294788 3.2736629454235704 0.3074752655546752 -1 0 0
1466 1 96.42331542947895 3.273662945423394 0.3074752655548742 -1 0 0
1603 4 93.58694389917906 4.9107616263515315 1.2391542160162896 -1 0 0
1605 1 95.00531542947873 5.729710990556413 0.3074752655547187 -1 0 0
1607 4 96.42294389917937 4.9107616263516976 1.2391542160160869 -1 0 0
1609 1 97.84131542947885 5.729710990556569 0.3074752655545715 -1 0 0
1616 4 1.416943899179043 7.366809671484555 1.2391542160161073 0 0 0
1620 4 4.252943899179159 7.366809671484533 1.2391542160161513 0 0 0
1614 1 2.835315429478827 8.185759035689388 0.30747526555470267 0 0 0
1618 1 5.671315429478932 8.185759035689406 0.3074752655546759 0 0 0
1755 4 2.8349438991790934 9.822857716617698 1.2391542160161544 0 0 0
1759 4 5.670943899179188 9.822857716617678 1.2391542160161837 0 0 0
1753 1 1.4173154294788126 10.641807080822582 0.30747526555474247 0 0 0
1757 1 4.253315429478896 10.64180708082259 0.30747526555471216 0 0 0
1624 4 7.088943899179187 7.36680967148453 1.2391542160161457 0 0 0
1628 4 9.924943899179084 7.36680967148449 1.2391542160162117 0 0 0
1622 1 8.50731542947885 8.185759035689431 0.30747526555464616 0 0 0
1626 1 11.343315429478972 8.185759035689362 0.30747526555474614 0 0 0
1763 4 8.506943899179127 9.82285771661765 1.239154216016208 0 0 0
1767 4 11.342943899179238 9.822857716617733 1.2391542160160947 0 0 0
1761 1 7.089315429478919 10.6418070808226 0.30747526555470533 0 0 0
1765 1 9.925315429478811 10.64180708082263 0.30747526555466553 0 0 0
1632 4 12.760943899179154 7.36680967148458 1.2391542160160693 0 0 0
1636 4 15.596943899179351 7.366809671484522 1.2391542160161406 0 0 0
1630 1 14.179315429478903 8.185759035689518 0.3074752655545446 0 0 0
1634 1 17.01531542947858 8.185759035689424 0.30747526555465915 0 0 0
1771 4 14.178943899179144 9.82285771661757 1.2391542160163027 0 0 0
1775 4 17.014943899178864 9.82285771661767 1.2391542160161975 0 0 0
1769 1 12.761315429478898 10.641807080822524 0.3074752655548081 0 0 0
1773 1 15.597315429479085 10.641807080822593 0.30747526555470545 0 0 0
1640 4 18.432943899179257 7.366809671484496 1.2391542160162108 0 0 0
1644 4 21.26894389917905 7.366809671484484 1.2391542160162228 0 0 0
1638 1 19.8513154294789 8.185759035689285 0.3074752655548517 0 0 0
1642 1 22.68731542947913 8.185759035689438 0.3074752655546315 0 0 0
1779 4 19.850943899179136 9.822857716617804 1.2391542160160012 0 0 0
1783 4 22.686943899179393 9.82285771661765 1.239154216016208 0 0 0
1777 1 18.43331542947899 10.641807080822614 0.3074752655546576 0 0 0
1781 1 21.269315429478812 10.641807080822625 0.30747526555464394 0 0 0
1648 4 24.104943899178956 7.366809671484521 1.2391542160161593 0 0 0
1652 4 26.940943899178983 7.366809671484546 1.2391542160161415 0 0 0
1646 1 25.52331542947905 8.185759035689395 0.3074752655546969 0 0 0
1650 1 28.3593154294791 8.185759035689415 0.3074752655546716 0 0 0
1787 4 25.522943899179346 9.82285771661768 1.2391542160161673 0 0 0
1791 4 28.358943899179376 9.822857716617664 1.2391542160161815 0 0 0
1785 1 24.10531542947867 10.641807080822606 0.30747526555469706 0 0 0
1789 1 26.941315429478717 10.64180708082259 0.30747526555472454 0 0 0
1656 4 29.776943899178907 7.366809671484502 1.2391542160162026 0 0 0
1660 4 32.61294389917915 7.366809671484664 1.2391542160159597 0 0 0
1654 1 31.195315429479006 8.185759035689468 0.307475265554623 0 0 0
1658 1 34.03131542947877 8.185759035689472 0.3074752655546097 0 0 0
1795 4 31.194943899179272 9.822857716617616 1.2391542160162452 0 0 0
1799 4 34.03094389917902 9.822857716617614 1.2391542160162408 0 0 0
1793 1 29.777315429478634 10.641807080822634 0.30747526555466254 0 0 0
1797 1 32.6133154294789 10.641807080822451 0.3074752655548934 0 0 0
1664 4 35.448943899179426 7.366809671484499 1.2391542160162037 0 0 0
1668 4 38.28494389917935 7.366809671484548 1.2391542160161353 0 0 0
1662 1 36.86731542947865 8.185759035689406 0.3074752655546738 0 0 0
1666 1 39.70331542947871 8.185759035689399 0.3074752655546982 0 0 0
1803 4 36.86694389917892 9.82285771661767 1.2391542160161808 0 0 0
1807 4 39.702943899178955 9.82285771661768 1.239154216016171 0 0 0
1801 1 35.449315429479164 10.641807080822632 0.3074752655546643 0 0 0
1805 1 38.285315429479084 10.641807080822584 0.3074752655547254 0 0 0
1672 4 41.12094389917938 7.3668096714845275 1.2391542160161644 0 0 0
1676 4 43.95694389917928 7.366809671484487 1.2391542160162181 0 0 0
1670 1 42.53931542947865 8.185759035689436 0.3074752655546354 0 0 0
1674 1 45.37531542947891 8.185759035689278 0.3074752655548649 0 0 0
1811 4 42.53894389917888 9.822857716617648 1.2391542160162157 0 0 0
1815 4 45.37494389917916 9.822857716617813 1.239154216015982 0 0 0
1809 1 41.121315429479154 10.641807080822606 0.307475265554704 0 0 0
1813 1 43.95731542947906 10.641807080822627 0.3074752655546466 0 0 0
1680 4 46.792943899178994 7.366809671484467 1.23915421601624 0 0 0
1544 4 49.62894389917902 7.366809671484586 1.2391542160160591 -1 0 0
1548 4 52.464943899179204 7.366809671484518 1.2391542160161657 -1 0 0
1678 1 48.21131542947912 8.185759035689467 0.30747526555460913 0 0 0
1542 1 51.04731542947895 8.185759035689424 0.3074752655546567 -1 0 0
1819 4 48.21094389917936 9.822857716617625 1.2391542160162532 0 0 0
1683 4 51.046943899179176 9.822857716617664 1.2391542160161853 -1 0 0
1817 1 46.79331542947875 10.641807080822643 0.3074752655546103 0 0 0
1681 1 49.629315429478794 10.641807080822522 0.30747526555480487 -1 0 0
1685 1 52.46531542947895 10.641807080822607 0.30747526555468874 -1 0 0
1552 4 55.30094389917906 7.3668096714844875 1.2391542160162121 -1 0 0
1556 4 58.1369438991791 7.366809671484575 1.2391542160160782 -1 0 0
1546 1 53.88331542947886 8.18575903568943 0.3074752655546508 -1 0 0
1550 1 56.71931542947897 8.185759035689369 0.3074752655547367 -1 0 0
1687 4 53.88294389917914 9.822857716617655 1.2391542160162061 -1 0 0
1691 4 56.71894389917921 9.822857716617722 1.2391542160161124 -1 0 0
1689 1 55.30131542947881 10.641807080822634 0.3074752655546643 -1 0 0
1693 1 58.13731542947887 10.641807080822534 0.3074752655547716 -1 0 0
1560 4 60.97294389917914 7.366809671484486 1.2391542160162028 -1 0 0
1564 4 63.80894389917923 7.3668096714845905 1.2391542160160447 -1 0 0
1554 1 59.55531542947898 8.185759035689458 0.3074752655546239 -1 0 0
1558 1 62.39131542947885 8.185759035689433 0.307475265554654 -1 0 0
1695 4 59.554943899179236 9.82285771661763 1.2391542160162319 -1 0 0
1699 4 62.39094389917908 9.822857716617648 1.2391542160162003 -1 0 0
1697 1 60.973315429478895 10.641807080822632 0.3074752655546678 -1 0 0
1701 1 63.80931542947895 10.641807080822531 0.3074752655547804 -1 0 0
1568 4 66.64494389917947 7.366809671484522 1.239154216016174 -1 0 0
1572 4 69.48094389917941 7.366809671484539 1.2391542160161466 -1 0 0
1562 1 65.22731542947868 8.185759035689449 0.30747526555461807 -1 0 0
1566 1 68.0633154294786 8.185759035689408 0.3074752655546886 -1 0 0
1703 4 65.22694389917906 9.822857716617644 1.2391542160162008 -1 0 0
1707 4 68.062943899179 9.822857716617667 1.2391542160161908 -1 0 0
1705 1 66.64531542947904 10.641807080822602 0.3074752655546974 -1 0 0
1709 1 69.48131542947907 10.641807080822595 0.3074752655547146 -1 0 0
1576 4 72.31694389917944 7.366809671484525 1.2391542160161688 -1 0 0
1580 4 75.15294389917922 7.366809671484482 1.2391542160162194 -1 0 0
1570 1 70.89931542947866 8.185759035689395 0.30747526555468346 -1 0 0
1574 1 73.73531542947867 8.185759035689408 0.3074752655546844 -1 0 0
1711 4 70.89894389917902 9.822857716617685 1.2391542160161655 -1 0 0
1715 4 73.73494389917894 9.822857716617662 1.2391542160162123 -1 0 0
1713 1 72.31731542947905 10.641807080822618 0.30747526555469673 -1 0 0
1717 1 75.15331542947898 10.64180708082262 0.3074752655546441 -1 0 0
1584 4 77.98894389917912 7.366809671484492 1.2391542160162006 -1 0 0
1588 4 80.82494389917888 7.366809671484497 1.239154216016214 -1 0 0
1578 1 76.57131542947896 8.185759035689301 0.3074752655548175 -1 0 0
1582 1 79.40731542947911 8.185759035689452 0.307475265554642 -1 0 0
1719 4 76.57094389917923 9.822857716617808 1.2391542160159879 -1 0 0
1723 4 79.4069438991795 9.822857716617643 1.2391542160162237 -1 0 0
1721 1 77.98931542947871 10.641807080822609 0.30747526555465 -1 0 0
1725 1 80.82531542947861 10.641807080822613 0.3074752655547061 -1 0 0
1592 4 83.6609438991793 7.366809671484696 1.2391542160159017 -1 0 0
1596 4 86.49694389917919 7.366809671484327 1.239154216016436 -1 0 0
1586 1 82.24331542947897 8.185759035689449 0.30747526555462246 -1 0 0
1590 1 85.07931542947875 8.185759035689426 0.307475265554672 -1 0 0
1727 4 82.2429438991792 9.822857716617623 1.239154216016233 -1 0 0
1731 4 85.07894389917921 9.82285771661767 1.239154216016185 -1 0 0
1729 1 83.66131542947898 10.64180708082245 0.30747526555488364 -1 0 0
1733 1 86.49731542947885 10.641807080822783 0.30747526555447985 -1 0 0
1600 4 89.33294389917923 7.366809671484739 1.2391542160158515 -1 0 0
1604 4 92.16894389917928 7.366809671484313 1.2391542160164517 -1 0 0
1594 1 87.91531542947888 8.18575903568941 0.3074752655546786 -1 0 0
1598 1 90.7513154294788 8.185759035689408 0.3074752655546771 -1 0 0
1735 4 87.91494389917911 9.822857716617671 1.2391542160161801 -1 0 0
1739 4 90.75094389917928 9.822857716617682 1.2391542160161628 -1 0 0
1737 1 89.3333154294789 10.641807080822398 0.30747526555495075 -1 0 0
1741 1 92.16931542947894 10.641807080822788 0.307475265554484 -1 0 0
1610 1 99.25931542947906 8.185759035689525 0.30747526555455007 -1 0 0
1751 4 99.25894389917931 9.822857716617552 1.2391542160163167 -1 0 0
1608 4 95.00494389917904 7.366809671484663 1.2391542160159712 -1 0 0
1612 4 97.8409438991792 7.366809671484462 1.2391542160162583 -1 0 0
1602 1 93.5873154294788 8.185759035689447 0.30747526555463794 -1 0 0
1606 1 96.42331542947893 8.185759035689287 0.3074752655548382 -1 0 0
1743 4 93.58694389917906 9.822857716617639 1.239154216016231 -1 0 0
1747 4 96.42294389917936 9.822857716617786 1.239154216016025 -1 0 0
1745 1 95.00531542947871 10.641807080822478 0.30747526555480353 -1 0 0
1749 1 97.84131542947885 10.64180708082265 0.3074752655546589 -1 0 0
1756 4 1.416943899179041 12.278905761750657 1.2391542160161928 0 0 0
1754 1 2.8353154294788285 13.097855125955538 0.3074752655546397 0 0 0
1760 4 4.252943899179159 12.278905761750632 1.239154216016241 0 0 0
1758 1 5.671315429478932 13.097855125955562 0.3074752655546123 0 0 0
1895 4 2.8349438991790943 14.734953806883508 1.2391542160161788 0 0 0
1899 4 5.670943899179188 14.734953806883489 1.2391542160162015 0 0 0
1893 1 1.4173154294788015 15.553903171088557 0.30747526555475 0 0 0
1897 1 4.253315429478896 15.553903171088537 0.30747526555470217 0 0 0
1896 4 1.4169438991790484 17.191001852016463 1.2391542160161033 0 0 0
1900 4 4.252943899179154 17.19100185201649 1.2391542160161493 0 0 0
1764 4 7.088943899179184 12.278905761750627 1.2391542160162377 0 0 0
1762 1 8.507315429478854 13.097855125955586 0.3074752655545837 0 0 0
1768 4 9.924943899179084 12.278905761750588 1.2391542160162914 0 0 0
1766 1 11.343315429478958 13.0978551259555 0.3074752655546815 0 0 0
1903 4 8.50694389917913 14.734953806883468 1.239154216016225 0 0 0
1907 4 11.342943899179243 14.734953806883548 1.239154216016129 0 0 0
1901 1 7.089315429478921 15.553903171088546 0.30747526555469884 0 0 0
1905 1 9.92531542947881 15.553903171088585 0.30747526555465415 0 0 0
1904 4 7.088943899179184 17.191001852016484 1.239154216016146 0 0 0
1908 4 9.924943899179084 17.19100185201643 1.2391542160162035 0 0 0
1772 4 12.76094389917917 12.278905761750703 1.239154216016154 0 0 0
1770 1 14.179315429478896 13.097855125955652 0.30747526555448607 0 0 0
1776 4 15.596943899179351 12.278905761750629 1.2391542160162352 0 0 0
1774 1 17.01531542947858 13.097855125955576 0.3074752655546001 0 0 0
1911 4 14.178943899179158 14.734953806883386 1.2391542160163376 0 0 0
1915 4 17.014943899178864 14.734953806883457 1.2391542160162254 0 0 0
1909 1 12.761315429478895 15.553903171088487 0.3074752655547939 0 0 0
1913 1 15.597315429479073 15.553903171088576 0.30747526555469895 0 0 0
1912 4 12.760943899179177 17.191001852016534 1.2391542160160616 0 0 0
1916 4 15.596943899179346 17.191001852016466 1.2391542160161377 0 0 0
1780 4 18.43294389917926 12.278905761750606 1.2391542160163023 0 0 0
1778 1 19.851315429478902 13.097855125955427 0.3074752655547921 0 0 0
1784 4 21.26894389917905 12.278905761750591 1.2391542160163111 0 0 0
1782 1 22.687315429479135 13.09785512595559 0.3074752655545707 0 0 0
1919 4 19.850943899179143 14.734953806883608 1.2391542160160356 0 0 0
1923 4 22.686943899179408 14.734953806883453 1.2391542160162359 0 0 0
1917 1 18.433315429478984 15.55390317108861 0.3074752655546589 0 0 0
1921 1 21.26931542947881 15.553903171088612 0.3074752655546372 0 0 0
1920 4 18.432943899179257 17.191001852016417 1.239154216016205 0 0 0
1924 4 21.268943899179053 17.191001852016406 1.2391542160162112 0 0 0
1788 4 24.104943899178956 12.278905761750615 1.2391542160162468 0 0 0
1786 1 25.52331542947905 13.09785512595556 0.3074752655546312 0 0 0
1792 4 26.94094389917898 12.278905761750636 1.2391542160162332 0 0 0
1790 1 28.359315429479103 13.097855125955574 0.307475265554606 0 0 0
1927 4 25.522943899179346 14.73495380688349 1.2391542160161944 0 0 0
1931 4 28.358943899179376 14.734953806883471 1.239154216016206 0 0 0
1925 1 24.105315429478665 15.55390317108857 0.307475265554685 0 0 0
1929 1 26.941315429478713 15.553903171088548 0.30747526555471455 0 0 0
1928 4 24.10494389917896 17.191001852016466 1.2391542160161588 0 0 0
1932 4 26.940943899178983 17.191001852016484 1.2391542160161333 0 0 0
1796 4 29.776943899178907 12.278905761750597 1.2391542160162854 0 0 0
1794 1 31.195315429479006 13.09785512595559 0.30747526555455623 0 0 0
1798 1 34.031315429478774 13.097855125955595 0.3074752655545395 0 0 0
1800 4 32.61294389917916 12.278905761750789 1.2391542160160458 0 0 0
1935 4 31.194943899179275 14.734953806883452 1.2391542160162714 0 0 0
1939 4 34.03094389917902 14.734953806883448 1.239154216016273 0 0 0
1933 1 29.777315429478634 15.553903171088589 0.30747526555465626 0 0 0
1937 1 32.61331542947891 15.553903171088415 0.3074752655549049 0 0 0
1936 4 29.77694389917891 17.191001852016434 1.2391542160161968 0 0 0
1940 4 32.612943899179136 17.191001852016594 1.2391542160159723 0 0 0
1804 4 35.448943899179426 12.278905761750591 1.2391542160162905 0 0 0
1802 1 36.86731542947866 13.097855125955574 0.30747526555461135 0 0 0
1808 4 38.284943899179346 12.278905761750641 1.2391542160162257 0 0 0
1806 1 39.703315429478714 13.097855125955554 0.3074752655546263 0 0 0
1943 4 36.86694389917892 14.734953806883473 1.239154216016207 0 0 0
1947 4 39.70294389917896 14.73495380688349 1.2391542160161984 0 0 0
1941 1 35.44931542947917 15.553903171088583 0.30747526555465604 0 0 0
1945 1 38.28531542947909 15.553903171088537 0.3074752655547105 0 0 0
1944 4 35.448943899179405 17.191001852016445 1.2391542160161866 0 0 0
1948 4 38.28494389917936 17.191001852016488 1.2391542160161308 0 0 0
1812 4 41.12094389917938 12.278905761750616 1.2391542160162523 0 0 0
1810 1 42.53931542947865 13.097855125955594 0.3074752655545735 0 0 0
1816 4 43.95694389917928 12.278905761750597 1.2391542160163078 0 0 0
1814 1 45.37531542947891 13.097855125955409 0.30747526555480303 0 0 0
1951 4 42.53894389917888 14.734953806883452 1.239154216016241 0 0 0
1955 4 45.37494389917916 14.734953806883619 1.239154216016023 0 0 0
1949 1 41.121315429479154 15.553903171088566 0.3074752655546945 0 0 0
1953 1 43.95731542947906 15.553903171088612 0.3074752655546426 0 0 0
1952 4 41.12094389917938 17.191001852016466 1.239154216016155 0 0 0
1956 4 43.95694389917928 17.19100185201641 1.2391542160162103 0 0 0
1820 4 46.792943899178994 12.278905761750588 1.2391542160163287 0 0 0
1818 1 48.21131542947912 13.097855125955604 0.3074752655545497 0 0 0
1684 4 49.62894389917902 12.2789057617507 1.2391542160161524 -1 0 0
1682 1 51.04731542947895 13.097855125955578 0.30747526555459653 -1 0 0
1688 4 52.464943899179204 12.278905761750615 1.2391542160162534 -1 0 0
1959 4 48.21094389917937 14.734953806883425 1.2391542160162867 0 0 0
1823 4 51.04694389917918 14.734953806883471 1.2391542160162112 -1 0 0
1957 1 46.79331542947875 15.553903171088637 0.30747526555460786 0 0 0
1821 1 49.62931542947879 15.553903171088502 0.30747526555479826 -1 0 0
1825 1 52.46531542947895 15.553903171088562 0.3074752655546791 -1 0 0
1960 4 46.792943899179 17.191001852016395 1.2391542160162325 0 0 0
1824 4 49.62894389917903 17.19100185201653 1.2391542160160611 -1 0 0
1828 4 52.4649438991792 17.191001852016473 1.239154216016153 -1 0 0
1686 1 53.88331542947886 13.097855125955585 0.30747526555458954 -1 0 0
1692 4 55.30094389917906 12.278905761750588 1.2391542160162978 -1 0 0
1690 1 56.71931542947898 13.097855125955501 0.3074752655546813 -1 0 0
1696 4 58.136943899179094 12.278905761750694 1.2391542160161693 -1 0 0
1827 4 53.88294389917914 14.734953806883464 1.2391542160162268 -1 0 0
1831 4 56.7189438991792 14.734953806883542 1.23915421601614 -1 0 0
1829 1 55.30131542947883 15.55390317108859 0.3074752655546615 -1 0 0
1833 1 58.13731542947887 15.553903171088495 0.30747526555476795 -1 0 0
1832 4 55.30094389917907 17.191001852016434 1.2391542160162077 -1 0 0
1836 4 58.136943899179116 17.19100185201652 1.239154216016087 -1 0 0
1694 1 59.555315429478995 13.097855125955608 0.3074752655545502 -1 0 0
1700 4 60.97294389917915 12.278905761750591 1.2391542160162923 -1 0 0
1698 1 62.39131542947885 13.09785512595558 0.30747526555459265 -1 0 0
1704 4 63.80894389917923 12.278905761750702 1.2391542160161364 -1 0 0
1835 4 59.55494389917923 14.734953806883453 1.239154216016253 -1 0 0
1839 4 62.39094389917908 14.734953806883457 1.2391542160162257 -1 0 0
1837 1 60.973315429478895 15.553903171088582 0.3074752655546588 -1 0 0
1841 1 63.80931542947894 15.553903171088503 0.30747526555477317 -1 0 0
1840 4 60.97294389917915 17.191001852016445 1.239154216016202 -1 0 0
1844 4 63.808943899179226 17.191001852016534 1.239154216016042 -1 0 0
1702 1 65.22731542947868 13.097855125955595 0.3074752655545547 -1 0 0
1708 4 66.64494389917947 12.27890576175061 1.239154216016259 -1 0 0