LAMMPS data file via write_data, version 29 Aug 2024, timestep = 2, units = metal

6216 atoms
4 atom types

0 99.877310603997 xlo xhi
0 98.184975845376 ylo yhi
-50 50 zlo zhi

Masses

1 28.085
2 28.085
3 15.999
4 15.999

Atoms # atomic

1560 3 2.699450650642559 0.7791632984480329 0.0013534900174482821 0 0 0
1564 3 5.398837423723559 0.7791632984480322 0.001353490017449123 0 0 0
1701 1 0.00025967642280832624 2.33739643932876 0.9881406270565456 0 0 0
1705 1 2.6996464495038075 2.3373964393287596 0.9881406270565454 0 0 0
1709 1 5.399033222584805 2.3373964393287605 0.9881406270565446 0 0 0
1707 3 1.349757264102436 3.1169008185760334 0.001353490017449082 0 0 0
1711 3 4.049144037183433 3.116900818576034 0.0013534900174479747 0 0 0
1706 1 1.3499530629629324 4.675133959456762 0.9881406270565457 0 0 0
1708 3 2.699450650642559 5.454638338704036 0.0013534900174483953 0 0 0
1710 1 4.049339836043931 4.675133959456762 0.9881406270565452 0 0 0
1712 3 5.398837423723559 5.454638338704035 0.0013534900174491389 0 0 0
1556 3 6.387756155845636e-05 0.7791632984480328 0.0013534900174486364 0 0 0
1704 3 6.387756155845636e-05 5.454638338704036 0.0013534900174488008 0 0 0
1568 3 8.098224196804559 0.7791632984480323 0.0013534900174490816 0 0 0
1572 3 10.79761096988556 0.779163298448033 0.0013534900174481715 0 0 0
1713 1 8.098419995665807 2.3373964393287605 0.9881406270565449 0 0 0
1717 1 10.797806768746806 2.33739643932876 0.9881406270565453 0 0 0
1715 3 6.748530810264434 3.116900818576034 0.0013534900174488956 0 0 0
1719 3 9.447917583345435 3.116900818576034 0.0013534900174489064 0 0 0
1714 1 6.748726609124931 4.675133959456762 0.9881406270565463 0 0 0
1716 3 8.098224196804559 5.454638338704035 0.0013534900174491185 0 0 0
1718 1 9.448113382205932 4.675133959456762 0.9881406270565455 0 0 0
1720 3 10.79761096988556 5.454638338704036 0.0013534900174482945 0 0 0
1576 3 13.496997742966558 0.7791632984480323 0.0013534900174490094 0 0 0
1580 3 16.19638451604756 0.7791632984480322 0.0013534900174492267 0 0 0
1721 1 13.497193541827805 2.3373964393287605 0.9881406270565447 0 0 0
1725 1 16.19658031490881 2.3373964393287605 0.9881406270565446 0 0 0
1723 3 12.147304356426433 3.116900818576034 0.0013534900174479896 0 0 0
1727 3 14.846691129507434 3.1169008185760334 0.0013534900174496751 0 0 0
1731 3 17.546077902588436 3.1169008185760343 0.0013534900174470555 0 0 0
1722 1 12.14750015528693 4.675133959456762 0.9881406270565452 0 0 0
1724 3 13.496997742966558 5.454638338704035 0.0013534900174490831 0 0 0
1726 1 14.846886928367931 4.675133959456762 0.9881406270565464 0 0 0
1730 1 17.546273701448932 4.675133959456762 0.9881406270565452 0 0 0
1728 3 16.19638451604756 5.454638338704035 0.0013534900174492828 0 0 0
1584 3 18.89577128912856 0.7791632984480326 0.0013534900174490723 0 0 0
1588 3 21.59515806220956 0.7791632984480338 0.0013534900174472777 0 0 0
1729 1 18.895967087989806 2.3373964393287605 0.9881406270565447 0 0 0
1733 1 21.595353861070805 2.337396439328759 0.9881406270565465 0 0 0
1735 3 20.245464675669435 3.1169008185760334 0.0013534900174489183 0 0 0
1739 3 22.94485144875043 3.1169008185760334 0.0013534900174488598 0 0 0
1732 3 18.89577128912856 5.454638338704035 0.001353490017449109 0 0 0
1734 1 20.245660474529934 4.675133959456762 0.9881406270565453 0 0 0
1736 3 21.59515806220956 5.4546383387040365 0.0013534900174473872 0 0 0
1738 1 22.94504724761093 4.675133959456763 0.9881406270565449 0 0 0
1592 3 24.29454483529056 0.7791632984480322 0.001353490017449025 0 0 0
1596 3 26.993931608371557 0.7791632984480322 0.0013534900174490324 0 0 0
1737 1 24.294740634151804 2.3373964393287605 0.9881406270565448 0 0 0
1741 1 26.994127407232806 2.3373964393287605 0.9881406270565448 0 0 0
1743 3 25.644238221831433 3.1169008185760334 0.0013534900174487548 0 0 0
1747 3 28.34362499491243 3.116900818576034 0.0013534900174490745 0 0 0
1740 3 24.29454483529056 5.454638338704035 0.001353490017449051 0 0 0
1742 1 25.644434020691932 4.675133959456762 0.9881406270565459 0 0 0
1744 3 26.993931608371557 5.454638338704035 0.0013534900174491118 0 0 0
1746 1 28.34382079377293 4.675133959456761 0.988140627056547 0 0 0
1600 3 29.693318381452556 0.7791632984480321 0.001353490017449358 0 0 0
1604 3 32.39270515453356 0.7791632984480328 0.0013534900174486664 0 0 0
1608 3 35.09209192761456 0.7791632984480324 0.0013534900174489686 0 0 0
1745 1 29.69351418031381 2.3373964393287605 0.9881406270565448 0 0 0
1749 1 32.39290095339481 2.3373964393287605 0.9881406270565447 0 0 0
1753 1 35.09228772647581 2.337396439328761 0.9881406270565444 0 0 0
1751 3 31.043011767993434 3.1169008185760334 0.001353490017448711 0 0 0
1755 3 33.74239854107444 3.1169008185760343 0.0013534900174470201 0 0 0
1748 3 29.693318381452556 5.454638338704035 0.001353490017449484 0 0 0
1750 1 31.04320756685393 4.675133959456762 0.9881406270565454 0 0 0
1754 1 33.74259433993493 4.675133959456762 0.988140627056545 0 0 0
1752 3 32.39270515453356 5.454638338704035 0.0013534900174487128 0 0 0
1756 3 35.09209192761456 5.454638338704035 0.0013534900174489634 0 0 0
1612 3 37.79147870069556 0.7791632984480334 0.0013534900174476596 0 0 0
1616 3 40.49086547377656 0.7791632984480322 0.001353490017449078 0 0 0
1757 1 37.791674499556805 2.3373964393287596 0.988140627056546 0 0 0
1761 1 40.49106127263781 2.3373964393287605 0.9881406270565447 0 0 0
1759 3 36.44178531415544 3.1169008185760334 0.0013534900174491688 0 0 0
1763 3 39.141172087236434 3.116900818576034 0.001353490017448541 0 0 0
1758 1 36.441981113015935 4.675133959456763 0.988140627056545 0 0 0
1760 3 37.79147870069556 5.454638338704036 0.0013534900174477973 0 0 0
1762 1 39.14136788609693 4.675133959456762 0.9881406270565457 0 0 0
1764 3 40.49086547377656 5.454638338704035 0.001353490017449116 0 0 0
1620 3 43.19025224685756 0.779163298448032 0.0013534900174494036 0 0 0
1624 3 45.889639019938556 0.7791632984480326 0.001353490017448556 0 0 0
1765 1 43.19044804571881 2.3373964393287605 0.9881406270565447 0 0 0
1769 1 45.889834818799805 2.33739643932876 0.9881406270565447 0 0 0
1767 3 41.84055886031744 3.1169008185760334 0.0013534900174487386 0 0 0
1771 3 44.53994563339844 3.116900818576034 0.0013534900174490803 0 0 0
1766 1 41.84075465917793 4.675133959456762 0.9881406270565455 0 0 0
1768 3 43.19025224685756 5.454638338704034 0.001353490017449482 0 0 0
1770 1 44.540141432258935 4.675133959456761 0.988140627056547 0 0 0
1772 3 45.889639019938556 5.454638338704035 0.0013534900174486763 0 0 0
1628 3 48.58902579301956 0.7791632984480326 0.001353490017449081 0 0 0
1484 3 51.28841256610056 0.7791632984480324 0.001353490017448991 -1 0 0
1773 1 48.58922159188081 2.33739643932876 0.9881406270565453 0 0 0
1629 1 51.28860836496181 2.3373964393287605 0.9881406270565445 -1 0 0
1775 3 47.239332406479434 3.1169008185760334 0.0013534900174488362 0 0 0
1631 3 49.93871917956044 3.1169008185760343 0.0013534900174475715 -1 0 0
1635 3 52.63810595264144 3.1169008185760334 0.0013534900174490016 -1 0 0
1774 1 47.23952820533993 4.675133959456762 0.9881406270565453 0 0 0
1776 3 48.58902579301956 5.454638338704035 0.0013534900174492135 0 0 0
1630 1 49.93891497842093 4.675133959456762 0.9881406270565453 -1 0 0
1632 3 51.28841256610056 5.454638338704035 0.00135349001744899 -1 0 0
1634 1 52.638301751501935 4.675133959456762 0.9881406270565453 -1 0 0
1488 3 53.987799339181564 0.7791632984480327 0.0013534900174486412 -1 0 0
1492 3 56.687186112262566 0.7791632984480323 0.001353490017449304 -1 0 0
1633 1 53.98799513804281 2.3373964393287605 0.9881406270565452 -1 0 0
1637 1 56.68738191112381 2.33739643932876 0.9881406270565453 -1 0 0
1639 3 55.33749272572244 3.1169008185760334 0.0013534900174490775 -1 0 0
1643 3 58.03687949880344 3.1169008185760343 0.0013534900174478441 -1 0 0
1636 3 53.987799339181564 5.454638338704035 0.0013534900174487327 -1 0 0
1638 1 55.33768852458294 4.675133959456762 0.9881406270565454 -1 0 0
1640 3 56.687186112262566 5.454638338704035 0.0013534900174493345 -1 0 0
1642 1 58.03707529766393 4.675133959456761 0.9881406270565464 -1 0 0
1496 3 59.38657288534356 0.7791632984480327 0.0013534900174484031 -1 0 0
1500 3 62.085959658424564 0.7791632984480326 0.001353490017448776 -1 0 0
1641 1 59.38676868420481 2.3373964393287605 0.9881406270565444 -1 0 0
1645 1 62.08615545728581 2.3373964393287605 0.9881406270565447 -1 0 0
1647 3 60.73626627188444 3.1169008185760334 0.0013534900174490075 -1 0 0
1651 3 63.435653044965434 3.1169008185760343 0.001353490017447561 -1 0 0
1644 3 59.38657288534356 5.454638338704036 0.0013534900174484261 -1 0 0
1646 1 60.736462070744935 4.675133959456763 0.9881406270565453 -1 0 0
1648 3 62.085959658424564 5.454638338704035 0.0013534900174488604 -1 0 0
1650 1 63.43584884382594 4.675133959456761 0.9881406270565462 -1 0 0
1504 3 64.78534643150556 0.7791632984480321 0.001353490017449363 -1 0 0
1508 3 67.48473320458656 0.7791632984480339 0.0013534900174471988 -1 0 0
1512 3 70.18411997766756 0.7791632984480324 0.0013534900174489181 -1 0 0
1649 1 64.7855422303668 2.337396439328761 0.9881406270565442 -1 0 0
1653 1 67.4849290034478 2.3373964393287587 0.9881406270565468 -1 0 0
1657 1 70.1843157765288 2.3373964393287605 0.9881406270565448 -1 0 0
1655 3 66.13503981804644 3.1169008185760334 0.00135349001744921 -1 0 0
1659 3 68.83442659112742 3.1169008185760334 0.001353490017449492 -1 0 0
1652 3 64.78534643150556 5.454638338704035 0.0013534900174494312 -1 0 0
1654 1 66.13523561690694 4.675133959456763 0.988140627056545 -1 0 0
1656 3 67.48473320458656 5.4546383387040365 0.0013534900174472229 -1 0 0
1658 1 68.83462238998793 4.675133959456762 0.9881406270565457 -1 0 0
1660 3 70.18411997766756 5.454638338704035 0.0013534900174490168 -1 0 0
1516 3 72.88350675074857 0.7791632984480322 0.0013534900174491465 -1 0 0
1520 3 75.58289352382955 0.779163298448032 0.0013534900174494958 -1 0 0
1661 1 72.88370254960981 2.337396439328761 0.9881406270565443 -1 0 0
1665 1 75.5830893226908 2.3373964393287605 0.9881406270565447 -1 0 0
1663 3 71.53381336420843 3.1169008185760334 0.00135349001744842 -1 0 0
1667 3 74.23320013728943 3.116900818576035 0.001353490017446645 -1 0 0
1662 1 71.53400916306893 4.675133959456762 0.9881406270565447 -1 0 0
1664 3 72.88350675074857 5.454638338704035 0.0013534900174492547 -1 0 0
1666 1 74.23339593614993 4.67513395945676 0.9881406270565475 -1 0 0
1668 3 75.58289352382955 5.454638338704035 0.001353490017449547 -1 0 0
1524 3 78.28228029691056 0.7791632984480324 0.001353490017448945 -1 0 0
1528 3 80.98166706999156 0.7791632984480338 0.0013534900174471786 -1 0 0
1669 1 78.28247609577181 2.3373964393287605 0.9881406270565449 -1 0 0
1673 1 80.9818628688528 2.337396439328759 0.9881406270565464 -1 0 0
1671 3 76.93258691037043 3.1169008185760325 0.0013534900174511889 -1 0 0
1675 3 79.63197368345143 3.1169008185760343 0.0013534900174467551 -1 0 0
1670 1 76.93278270923093 4.675133959456763 0.9881406270565459 -1 0 0
1672 3 78.28228029691056 5.454638338704035 0.0013534900174490148 -1 0 0
1674 1 79.63216948231194 4.675133959456762 0.9881406270565445 -1 0 0
1676 3 80.98166706999156 5.4546383387040365 0.0013534900174472933 -1 0 0
1532 3 83.68105384307256 0.7791632984480306 0.0013534900174509495 -1 0 0
1536 3 86.38044061615356 0.7791632984480339 0.0013534900174471108 -1 0 0
1677 1 83.6812496419338 2.3373964393287623 0.9881406270565428 -1 0 0
1681 1 86.3806364150148 2.337396439328759 0.9881406270565463 -1 0 0
1679 3 82.33136045653242 3.116900818576034 0.0013534900174489166 -1 0 0
1683 3 85.03074722961344 3.1169008185760334 0.001353490017448499 -1 0 0
1687 3 87.73013400269443 3.1169008185760347 0.0013534900174471875 -1 0 0
1678 1 82.33155625539293 4.675133959456762 0.9881406270565463 -1 0 0
1680 3 83.68105384307256 5.454638338704033 0.0013534900174510163 -1 0 0
1682 1 85.03094302847394 4.675133959456762 0.9881406270565447 -1 0 0
1684 3 86.38044061615356 5.4546383387040365 0.0013534900174472777 -1 0 0
1686 1 87.73032980155493 4.67513395945676 0.9881406270565469 -1 0 0
1540 3 89.07982738923455 0.779163298448032 0.0013534900174494698 -1 0 0
1544 3 91.77921416231555 0.7791632984480324 0.0013534900174489454 -1 0 0
1685 1 89.0800231880958 2.3373964393287605 0.9881406270565448 -1 0 0
1689 1 91.77940996117681 2.3373964393287605 0.9881406270565449 -1 0 0
1691 3 90.42952077577543 3.1169008185760325 0.0013534900174511856 -1 0 0
1695 3 93.12890754885643 3.1169008185760343 0.0013534900174467595 -1 0 0
1688 3 89.07982738923455 5.454638338704035 0.0013534900174495628 -1 0 0
1690 1 90.42971657463593 4.675133959456763 0.9881406270565459 -1 0 0
1692 3 91.77921416231555 5.454638338704035 0.0013534900174490166 -1 0 0
1694 1 93.12910334771693 4.675133959456762 0.9881406270565446 -1 0 0
1548 3 94.47860093539656 0.7791632984480332 0.0013534900174485068 -1 0 0
1552 3 97.17798770847756 0.7791632984480314 0.0013534900174493277 -1 0 0
1693 1 94.4787967342578 2.337396439328759 0.9881406270565465 -1 0 0
1697 1 97.1781835073388 2.337396439328762 0.9881406270565426 -1 0 0
1699 3 95.82829432193743 3.1169008185760334 0.0013534900174486583 -1 0 0
1703 3 98.52768109501844 3.1169008185760334 0.0013534900174491007 -1 0 0
1696 3 94.47860093539656 5.454638338704036 0.0013534900174486991 -1 0 0
1698 1 95.82849012079794 4.675133959456762 0.9881406270565455 -1 0 0
1700 3 97.17798770847756 5.454638338704034 0.001353490017449454 -1 0 0
1702 1 98.52787689387894 4.675133959456762 0.9881406270565455 -1 0 0
1849 1 0.00025967642280845033 7.012871479584762 0.9881406270565464 0 0 0
1853 1 2.6996464495038075 7.012871479584761 0.9881406270565462 0 0 0
1857 1 5.399033222584805 7.012871479584762 0.9881406270565454 0 0 0
1855 3 1.349757264102436 7.792375858832032 0.0013534900174482876 0 0 0
1859 3 4.049144037183433 7.792375858832033 0.0013534900174470633 0 0 0
1854 1 1.3499530629629326 9.350608999712758 0.9881406270565454 0 0 0
1856 3 2.699450650642559 10.130113378960033 0.0013534900174480883 0 0 0
1858 1 4.049339836043931 9.350608999712758 0.988140627056545 0 0 0
1860 3 5.398837423723559 10.130113378960031 0.0013534900174488357 0 0 0
1852 3 6.387756155845636e-05 10.130113378960033 0.0013534900174485957 0 0 0
1861 1 8.098419995665807 7.012871479584762 0.9881406270565456 0 0 0
1865 1 10.797806768746806 7.012871479584762 0.988140627056546 0 0 0
1863 3 6.748530810264434 7.792375858832032 0.0013534900174481464 0 0 0
1867 3 9.447917583345435 7.792375858832032 0.001353490017447951 0 0 0
1862 1 6.748726609124931 9.350608999712758 0.9881406270565462 0 0 0
1864 3 8.098224196804559 10.130113378960031 0.0013534900174489257 0 0 0
1866 1 9.448113382205932 9.350608999712758 0.9881406270565452 0 0 0
1868 3 10.79761096988556 10.130113378960033 0.001353490017448091 0 0 0
1869 1 13.497193541827805 7.012871479584762 0.9881406270565456 0 0 0
1873 1 16.19658031490881 7.012871479584762 0.9881406270565455 0 0 0
1871 3 12.147304356426433 7.792375858832032 0.0013534900174471125 0 0 0
1875 3 14.846691129507436 7.792375858832032 0.0013534900174489346 0 0 0
1879 3 17.546077902588436 7.792375858832033 0.0013534900174463937 0 0 0
1870 1 12.14750015528693 9.350608999712758 0.9881406270565449 0 0 0
1872 3 13.496997742966558 10.130113378960031 0.0013534900174488095 0 0 0
1874 1 14.846886928367931 9.350608999712758 0.9881406270565463 0 0 0
1878 1 17.546273701448932 9.350608999712758 0.9881406270565449 0 0 0
1876 3 16.19638451604756 10.130113378960031 0.001353490017448982 0 0 0
1877 1 18.895967087989806 7.012871479584762 0.9881406270565456 0 0 0
1881 1 21.595353861070805 7.012871479584761 0.9881406270565473 0 0 0
1883 3 20.245464675669435 7.792375858832032 0.0013534900174480859 0 0 0
1887 3 22.94485144875043 7.792375858832032 0.0013534900174479625 0 0 0
1880 3 18.89577128912856 10.130113378960031 0.0013534900174488496 0 0 0
1882 1 20.245660474529934 9.350608999712758 0.988140627056545 0 0 0
1884 3 21.59515806220956 10.130113378960033 0.0013534900174472797 0 0 0
1886 1 22.94504724761093 9.350608999712758 0.9881406270565447 0 0 0
1885 1 24.294740634151804 7.012871479584762 0.9881406270565455 0 0 0
1889 1 26.994127407232806 7.012871479584762 0.9881406270565454 0 0 0
1891 3 25.644238221831433 7.792375858832032 0.0013534900174479382 0 0 0
1895 3 28.34362499491243 7.792375858832032 0.0013534900174483507 0 0 0
1888 3 24.29454483529056 10.130113378960031 0.001353490017448859 0 0 0
1890 1 25.644434020691932 9.350608999712758 0.9881406270565456 0 0 0
1892 3 26.993931608371557 10.130113378960031 0.0013534900174487917 0 0 0
1894 1 28.34382079377293 9.350608999712758 0.9881406270565469 0 0 0
1893 1 29.69351418031381 7.012871479584762 0.9881406270565456 0 0 0
1897 1 32.39290095339481 7.012871479584762 0.9881406270565456 0 0 0
1901 1 35.09228772647581 7.012871479584762 0.9881406270565452 0 0 0
1899 3 31.043011767993434 7.792375858832032 0.0013534900174480087 0 0 0
1903 3 33.74239854107444 7.792375858832033 0.0013534900174464017 0 0 0
1896 3 29.693318381452556 10.130113378960031 0.0013534900174491842 0 0 0
1898 1 31.04320756685393 9.350608999712758 0.9881406270565453 0 0 0
1902 1 33.74259433993493 9.350608999712758 0.9881406270565449 0 0 0
1900 3 32.39270515453356 10.130113378960031 0.001353490017448379 0 0 0
1904 3 35.09209192761456 10.130113378960031 0.0013534900174487178 0 0 0
1905 1 37.791674499556805 7.012871479584761 0.9881406270565467 0 0 0
1909 1 40.49106127263781 7.012871479584762 0.9881406270565455 0 0 0
1907 3 36.44178531415544 7.792375858832031 0.001353490017448337 0 0 0
1911 3 39.141172087236434 7.792375858832032 0.0013534900174475934 0 0 0
1906 1 36.441981113015935 9.350608999712758 0.9881406270565448 0 0 0
1908 3 37.79147870069556 10.130113378960033 0.001353490017447649 0 0 0
1910 1 39.14136788609693 9.350608999712758 0.9881406270565456 0 0 0
1912 3 40.49086547377656 10.130113378960031 0.0013534900174489311 0 0 0
1913 1 43.19044804571881 7.012871479584762 0.9881406270565454 0 0 0
1917 1 45.889834818799805 7.012871479584762 0.9881406270565455 0 0 0
1915 3 41.84055886031744 7.792375858832032 0.0013534900174478955 0 0 0
1919 3 44.53994563339844 7.792375858832032 0.0013534900174483847 0 0 0
1914 1 41.84075465917793 9.350608999712758 0.9881406270565453 0 0 0
1916 3 43.19025224685756 10.130113378960031 0.001353490017449168 0 0 0
1918 1 44.540141432258935 9.350608999712758 0.9881406270565468 0 0 0
1920 3 45.889639019938556 10.130113378960031 0.0013534900174483478 0 0 0
1921 1 48.58922159188081 7.012871479584762 0.9881406270565463 0 0 0
1777 1 51.28860836496181 7.012871479584762 0.9881406270565454 -1 0 0
1923 3 47.239332406479434 7.792375858832032 0.001353490017448021 0 0 0
1779 3 49.93871917956044 7.792375858832033 0.0013534900174468033 -1 0 0
1783 3 52.63810595264144 7.792375858832032 0.0013534900174480141 -1 0 0
1922 1 47.23952820533993 9.350608999712758 0.9881406270565452 0 0 0
1924 3 48.58902579301956 10.130113378960031 0.001353490017448927 0 0 0
1778 1 49.93891497842093 9.350608999712758 0.988140627056545 -1 0 0
1780 3 51.28841256610056 10.130113378960031 0.0013534900174488392 -1 0 0
1782 1 52.638301751501935 9.350608999712758 0.9881406270565449 -1 0 0
1781 1 53.98799513804281 7.012871479584762 0.9881406270565458 -1 0 0
1785 1 56.68738191112381 7.012871479584762 0.9881406270565463 -1 0 0
1787 3 55.337492725722434 7.792375858832031 0.0013534900174481535 -1 0 0
1791 3 58.03687949880344 7.792375858832033 0.0013534900174470997 -1 0 0
1784 3 53.987799339181564 10.130113378960033 0.001353490017448582 -1 0 0
1786 1 55.33768852458294 9.350608999712758 0.988140627056545 -1 0 0
1788 3 56.687186112262566 10.130113378960031 0.0013534900174491282 -1 0 0
1790 1 58.03707529766393 9.350608999712758 0.9881406270565463 -1 0 0
1789 1 59.38676868420481 7.012871479584762 0.9881406270565453 -1 0 0
1793 1 62.08615545728581 7.012871479584762 0.9881406270565455 -1 0 0
1795 3 60.73626627188444 7.792375858832032 0.001353490017448018 -1 0 0
1799 3 63.435653044965434 7.792375858832033 0.0013534900174466808 -1 0 0
1792 3 59.38657288534356 10.130113378960031 0.001353490017448186 -1 0 0
1794 1 60.736462070744935 9.350608999712758 0.9881406270565449 -1 0 0
1796 3 62.085959658424564 10.130113378960033 0.001353490017448668 -1 0 0
1798 1 63.43584884382594 9.350608999712758 0.9881406270565458 -1 0 0
1797 1 64.7855422303668 7.012871479584763 0.9881406270565449 -1 0 0
1801 1 67.4849290034478 7.01287147958476 0.9881406270565476 -1 0 0
1805 1 70.1843157765288 7.012871479584762 0.9881406270565456 -1 0 0
1803 3 66.13503981804644 7.792375858832031 0.0013534900174482533 -1 0 0
1807 3 68.83442659112742 7.792375858832032 0.0013534900174487388 -1 0 0
1800 3 64.78534643150556 10.130113378960031 0.0013534900174493184 -1 0 0
1802 1 66.13523561690694 9.350608999712758 0.9881406270565448 -1 0 0
1804 3 67.48473320458656 10.130113378960033 0.0013534900174471411 -1 0 0
1806 1 68.83462238998793 9.350608999712758 0.9881406270565456 -1 0 0
1808 3 70.18411997766756 10.130113378960031 0.001353490017448647 -1 0 0
1809 1 72.88370254960981 7.012871479584763 0.988140627056545 -1 0 0
1813 1 75.5830893226908 7.012871479584762 0.9881406270565455 -1 0 0
1811 3 71.53381336420843 7.792375858832032 0.001353490017447887 -1 0 0
1815 3 74.23320013728943 7.792375858832034 0.0013534900174460086 -1 0 0
1810 1 71.53400916306893 9.35060899971276 0.9881406270565445 -1 0 0
1812 3 72.88350675074857 10.130113378960031 0.0013534900174488687 -1 0 0
1814 1 74.23339593614993 9.350608999712756 0.9881406270565474 -1 0 0
1816 3 75.58289352382955 10.130113378960031 0.0013534900174492278 -1 0 0
1817 1 78.28247609577181 7.012871479584762 0.9881406270565456 -1 0 0
1821 1 80.9818628688528 7.012871479584761 0.988140627056547 -1 0 0
1819 3 76.93258691037043 7.792375858832031 0.001353490017450409 -1 0 0
1823 3 79.63197368345143 7.792375858832033 0.0013534900174459947 -1 0 0
1818 1 76.93278270923093 9.350608999712758 0.9881406270565458 -1 0 0
1820 3 78.28228029691056 10.130113378960031 0.0013534900174487885 -1 0 0
1822 1 79.63216948231194 9.350608999712758 0.9881406270565443 -1 0 0
1824 3 80.98166706999156 10.130113378960033 0.0013534900174471713 -1 0 0
1825 1 83.6812496419338 7.0128714795847635 0.9881406270565435 -1 0 0
1829 1 86.3806364150148 7.012871479584761 0.988140627056547 -1 0 0
1827 3 82.33136045653242 7.792375858832032 0.0013534900174482249 -1 0 0
1831 3 85.03074722961344 7.792375858832032 0.0013534900174478675 -1 0 0
1835 3 87.73013400269443 7.792375858832033 0.0013534900174465687 -1 0 0
1826 1 82.33155625539293 9.350608999712758 0.988140627056546 -1 0 0
1828 3 83.68105384307256 10.130113378960031 0.001353490017450783 -1 0 0
1830 1 85.03094302847394 9.35060899971276 0.9881406270565445 -1 0 0
1832 3 86.38044061615356 10.130113378960033 0.0013534900174468532 -1 0 0
1834 1 87.73032980155493 9.350608999712758 0.9881406270565467 -1 0 0
1833 1 89.0800231880958 7.012871479584762 0.9881406270565455 -1 0 0
1837 1 91.77940996117681 7.012871479584762 0.9881406270565456 -1 0 0
1839 3 90.42952077577543 7.792375858832031 0.0013534900174504037 -1 0 0
1843 3 93.12890754885643 7.792375858832033 0.0013534900174459897 -1 0 0
1836 3 89.07982738923455 10.130113378960031 0.0013534900174492284 -1 0 0
1838 1 90.42971657463593 9.350608999712758 0.9881406270565458 -1 0 0
1840 3 91.77921416231555 10.130113378960031 0.0013534900174487407 -1 0 0
1842 1 93.12910334771693 9.350608999712758 0.9881406270565445 -1 0 0
1841 1 94.4787967342578 7.012871479584761 0.9881406270565474 -1 0 0
1845 1 97.1781835073388 7.012871479584763 0.9881406270565434 -1 0 0
1847 3 95.82829432193743 7.792375858832032 0.0013534900174478764 -1 0 0
1851 3 98.52768109501844 7.792375858832031 0.0013534900174482813 -1 0 0
1844 3 94.47860093539656 10.130113378960033 0.0013534900174484732 -1 0 0
1846 1 95.82849012079794 9.350608999712758 0.9881406270565453 -1 0 0
1848 3 97.17798770847756 10.130113378960031 0.001353490017449258 -1 0 0
1850 1 98.52787689387894 9.350608999712758 0.9881406270565452 -1 0 0
1997 1 0.00025967642280838056 11.68834651984076 0.9881406270565457 0 0 0
2001 1 2.6996464495038075 11.68834651984076 0.9881406270565455 0 0 0
2005 1 5.399033222584805 11.68834651984076 0.9881406270565445 0 0 0
2003 3 1.349757264102436 12.467850899088033 0.0013534900174492037 0 0 0
2007 3 4.049144037183433 12.467850899088035 0.0013534900174479625 0 0 0
2002 1 1.3499530629629326 14.026084039968762 0.9881406270565454 0 0 0
2004 3 2.699450650642559 14.805588419216035 0.0013534900174469434 0 0 0
2006 1 4.049339836043931 14.026084039968762 0.988140627056545 0 0 0
2008 3 5.398837423723559 14.805588419216033 0.0013534900174477767 0 0 0
2145 1 0.0002596764228083719 16.36382156009676 0.988140627056545 0 0 0
2149 1 2.6996464495038075 16.36382156009676 0.9881406270565449 0 0 0
2153 1 5.399033222584805 16.36382156009676 0.9881406270565443 0 0 0
2151 3 1.349757264102436 17.143325939344034 0.0013534900174491157 0 0 0
2155 3 4.049144037183433 17.143325939344034 0.001353490017447982 0 0 0
2000 3 6.387756155845636e-05 14.805588419216033 0.0013534900174472968 0 0 0
2009 1 8.098419995665807 11.68834651984076 0.9881406270565448 0 0 0
2013 1 10.797806768746806 11.68834651984076 0.9881406270565454 0 0 0
2011 3 6.748530810264434 12.467850899088035 0.0013534900174489814 0 0 0
2015 3 9.447917583345435 12.467850899088033 0.0013534900174488416 0 0 0
2010 1 6.748726609124931 14.026084039968762 0.988140627056546 0 0 0
2012 3 8.098224196804559 14.805588419216033 0.0013534900174477964 0 0 0
2014 1 9.448113382205932 14.026084039968762 0.988140627056545 0 0 0
2016 3 10.79761096988556 14.805588419216035 0.0013534900174469126 0 0 0
2157 1 8.098419995665807 16.36382156009676 0.9881406270565446 0 0 0
2161 1 10.797806768746806 16.36382156009676 0.9881406270565449 0 0 0
2159 3 6.748530810264434 17.143325939344034 0.0013534900174490044 0 0 0
2163 3 9.447917583345435 17.143325939344034 0.0013534900174487613 0 0 0
2017 1 13.497193541827805 11.68834651984076 0.9881406270565446 0 0 0
2021 1 16.19658031490881 11.68834651984076 0.9881406270565446 0 0 0
2019 3 12.147304356426433 12.467850899088035 0.0013534900174480484 0 0 0
2023 3 14.846691129507434 12.467850899088033 0.0013534900174497426 0 0 0
2027 3 17.546077902588436 12.467850899088035 0.0013534900174472066 0 0 0
2018 1 12.14750015528693 14.026084039968762 0.9881406270565449 0 0 0
2020 3 13.496997742966558 14.805588419216033 0.001353490017447742 0 0 0
2022 1 14.846886928367931 14.026084039968762 0.988140627056546 0 0 0
2026 1 17.546273701448932 14.026084039968762 0.9881406270565448 0 0 0
2024 3 16.19638451604756 14.805588419216033 0.0013534900174478938 0 0 0
2165 1 13.497193541827805 16.36382156009676 0.9881406270565446 0 0 0
2169 1 16.19658031490881 16.36382156009676 0.9881406270565445 0 0 0
2167 3 12.147304356426433 17.143325939344034 0.0013534900174479564 0 0 0
2171 3 14.846691129507436 17.14332593934403 0.0013534900174498273 0 0 0
2175 3 17.546077902588436 17.143325939344034 0.0013534900174471964 0 0 0
2025 1 18.895967087989806 11.68834651984076 0.9881406270565447 0 0 0
2029 1 21.595353861070805 11.688346519840758 0.9881406270565466 0 0 0
2031 3 20.245464675669435 12.467850899088033 0.0013534900174488468 0 0 0
2035 3 22.94485144875043 12.467850899088033 0.0013534900174487555 0 0 0
2028 3 18.89577128912856 14.805588419216033 0.0013534900174477788 0 0 0
2030 1 20.245660474529934 14.026084039968762 0.988140627056545 0 0 0
2032 3 21.59515806220956 14.805588419216035 0.0013534900174462362 0 0 0
2034 1 22.94504724761093 14.026084039968762 0.9881406270565446 0 0 0
2173 1 18.895967087989806 16.36382156009676 0.9881406270565447 0 0 0
2177 1 21.595353861070805 16.36382156009676 0.9881406270565464 0 0 0
2179 3 20.245464675669435 17.14332593934403 0.0013534900174488559 0 0 0
2183 3 22.94485144875043 17.14332593934403 0.0013534900174487685 0 0 0
2033 1 24.294740634151804 11.68834651984076 0.9881406270565448 0 0 0
2037 1 26.994127407232806 11.68834651984076 0.9881406270565447 0 0 0
2039 3 25.644238221831433 12.467850899088033 0.0013534900174488375 0 0 0
2043 3 28.34362499491243 12.467850899088035 0.0013534900174491584 0 0 0
2036 3 24.29454483529056 14.805588419216033 0.0013534900174477064 0 0 0
2038 1 25.644434020691932 14.026084039968762 0.9881406270565454 0 0 0
2040 3 26.993931608371557 14.805588419216033 0.0013534900174477188 0 0 0
2042 1 28.34382079377293 14.026084039968762 0.9881406270565468 0 0 0
2181 1 24.294740634151804 16.36382156009676 0.9881406270565447 0 0 0
2185 1 26.994127407232806 16.36382156009676 0.9881406270565444 0 0 0
2187 3 25.644238221831433 17.143325939344034 0.0013534900174488156 0 0 0
2191 3 28.34362499491243 17.143325939344034 0.0013534900174492048 0 0 0
2041 1 29.69351418031381 11.68834651984076 0.9881406270565448 0 0 0
2045 1 32.39290095339481 11.68834651984076 0.9881406270565447 0 0 0
2049 1 35.0922877264758 11.68834651984076 0.9881406270565444 0 0 0
2047 3 31.043011767993434 12.467850899088033 0.001353490017448809 0 0 0
2051 3 33.74239854107444 12.467850899088035 0.0013534900174472068 0 0 0
2044 3 29.693318381452556 14.805588419216033 0.0013534900174480282 0 0 0
2046 1 31.04320756685393 14.026084039968762 0.9881406270565449 0 0 0
2050 1 33.74259433993493 14.026084039968762 0.9881406270565448 0 0 0
2048 3 32.39270515453356 14.805588419216033 0.0013534900174472517 0 0 0
2052 3 35.09209192761456 14.805588419216033 0.0013534900174476724 0 0 0
2189 1 29.69351418031381 16.36382156009676 0.9881406270565445 0 0 0
2193 1 32.39290095339481 16.36382156009676 0.9881406270565445 0 0 0
2197 1 35.0922877264758 16.36382156009676 0.9881406270565444 0 0 0
2195 3 31.043011767993434 17.143325939344034 0.0013534900174488535 0 0 0
2199 3 33.74239854107444 17.143325939344034 0.0013534900174471817 0 0 0
2053 1 37.791674499556805 11.68834651984076 0.9881406270565462 0 0 0
2057 1 40.49106127263781 11.68834651984076 0.9881406270565447 0 0 0
2055 3 36.44178531415544 12.467850899088033 0.001353490017449107 0 0 0
2059 3 39.141172087236434 12.467850899088033 0.001353490017448435 0 0 0
2054 1 36.441981113015935 14.026084039968762 0.9881406270565447 0 0 0
2056 3 37.79147870069556 14.805588419216035 0.0013534900174466493 0 0 0
2058 1 39.14136788609693 14.02608403996876 0.9881406270565454 0 0 0