LAMMPS data file via write_data, version 29 Aug 2024, timestep = 2, units = metal

9324 atoms
6 atom types

0 99.877310603997 xlo xhi
0 98.184975845376 ylo yhi
-50 50 zlo zhi

Masses

1 28.085
2 28.085
3 28.085
4 15.999
5 15.999
6 15.999

Atoms # atomic

1560 4 2.699446044614556 0.7791687958151939 0.0014381516621903455 0 0 0
1564 4 5.398832817695556 0.7791687958151934 0.0014381516621911794 0 0 0
1701 1 0.00025105003215056943 2.3374063389851227 0.9884657838197735 0 0 0
1705 1 2.699637823113149 2.3374063389851227 0.9884657838197728 0 0 0
1709 1 5.399024596194147 2.337406338985123 0.9884657838197721 0 0 0
1707 4 1.349752658074438 3.1169063159431944 0.001438151662191172 0 0 0
1711 4 4.049139431155435 3.116906315943195 0.001438151662190067 0 0 0
1706 1 1.3499444365722708 4.675143859113123 0.988465783819774 0 0 0
1708 4 2.699446044614556 5.454643836071196 0.0014381516621902546 0 0 0
1710 1 4.049331209653267 4.675143859113125 0.9884657838197726 0 0 0
1712 4 5.398832817695556 5.454643836071195 0.0014381516621912018 0 0 0
1556 4 5.9271533558558076e-05 0.7791687958151938 0.0014381516621908793 0 0 0
1704 4 5.9271533558558076e-05 5.454643836071196 0.0014381516621908756 0 0 0
1568 4 8.098219590776555 0.7791687958151933 0.0014381516621910643 0 0 0
1572 4 10.797606363857556 0.779168795815194 0.0014381516621904133 0 0 0
1713 1 8.098411369275148 2.337406338985123 0.9884657838197721 0 0 0
1717 1 10.797798142356148 2.3374063389851227 0.988465783819773 0 0 0
1715 4 6.748526204236436 3.116906315943195 0.0014381516621907488 0 0 0
1719 4 9.447912977317438 3.1169063159431944 0.0014381516621907967 0 0 0
1714 1 6.748717982734267 4.675143859113124 0.9884657838197738 0 0 0
1716 4 8.098219590776555 5.454643836071195 0.0014381516621909665 0 0 0
1718 1 9.448104755815269 4.675143859113125 0.9884657838197726 0 0 0
1720 4 10.797606363857556 5.454643836071196 0.0014381516621904049 0 0 0
1576 4 13.496993136938556 0.7791687958151934 0.0014381516621910623 0 0 0
1580 4 16.196379910019555 0.7791687958151933 0.0014381516621912766 0 0 0
1721 1 13.497184915437147 2.337406338985123 0.9884657838197722 0 0 0
1725 1 16.19657168851815 2.337406338985123 0.9884657838197722 0 0 0
1723 4 12.147299750398435 3.116906315943195 0.001438151662190032 0 0 0
1727 4 14.846686523479436 3.1169063159431944 0.001438151662191739 0 0 0
1731 4 17.546073296560436 3.1169063159431953 0.001438151662189174 0 0 0
1722 1 12.147491528896268 4.675143859113125 0.9884657838197726 0 0 0
1724 4 13.496993136938556 5.454643836071195 0.0014381516621909305 0 0 0
1726 1 14.846878301977268 4.675143859113125 0.9884657838197739 0 0 0
1730 1 17.54626507505827 4.675143859113125 0.9884657838197727 0 0 0
1728 4 16.196379910019555 5.454643836071195 0.0014381516621912215 0 0 0
1584 4 18.895766683100558 0.7791687958151934 0.0014381516621909958 0 0 0
1588 4 21.595153456181556 0.7791687958151948 0.0014381516621894191 0 0 0
1729 1 18.895958461599147 2.3374063389851236 0.9884657838197717 0 0 0
1733 1 21.595345234680146 2.337406338985122 0.9884657838197739 0 0 0
1735 4 20.24546006964144 3.1169063159431944 0.0014381516621907887 0 0 0
1739 4 22.944846842722434 3.116906315943194 0.0014381516621912484 0 0 0
1732 4 18.895766683100558 5.454643836071196 0.001438151662190928 0 0 0
1734 1 20.24565184813927 4.675143859113125 0.9884657838197722 0 0 0
1736 4 21.595153456181556 5.454643836071197 0.0014381516621893116 0 0 0
1738 1 22.945038621220267 4.675143859113125 0.9884657838197728 0 0 0
1592 4 24.294540229262555 0.7791687958151934 0.0014381516621910471 0 0 0
1596 4 26.993927002343558 0.7791687958151933 0.0014381516621910465 0 0 0
1737 1 24.294732007761148 2.337406338985123 0.9884657838197722 0 0 0
1741 1 26.99411878084215 2.337406338985123 0.9884657838197721 0 0 0
1743 4 25.644233615803437 3.1169063159431944 0.0014381516621907596 0 0 0
1747 4 28.343620388884435 3.116906315943195 0.00143815166219064 0 0 0
1740 4 24.294540229262555 5.454643836071195 0.0014381516621908967 0 0 0
1742 1 25.64442539430127 4.675143859113125 0.9884657838197728 0 0 0
1744 4 26.993927002343558 5.454643836071195 0.0014381516621910105 0 0 0
1746 1 28.343812167382268 4.675143859113123 0.9884657838197747 0 0 0
1600 4 29.693313775424553 0.779168795815193 0.0014381516621914548 0 0 0
1604 4 32.39270054850556 0.7791687958151934 0.0014381516621910027 0 0 0
1608 4 35.092087321586554 0.7791687958151935 0.001438151662191095 0 0 0
1745 1 29.69350555392315 2.337406338985123 0.9884657838197722 0 0 0
1749 1 32.392892327004155 2.3374063389851236 0.9884657838197717 0 0 0
1753 1 35.09227910008514 2.337406338985123 0.9884657838197725 0 0 0
1751 4 31.043007161965438 3.116906315943194 0.0014381516621910905 0 0 0
1755 4 33.74239393504644 3.116906315943196 0.0014381516621884615 0 0 0
1748 4 29.693313775424553 5.454643836071195 0.0014381516621914114 0 0 0
1750 1 31.043198940463267 4.675143859113125 0.9884657838197729 0 0 0
1754 1 33.74258571354427 4.675143859113124 0.9884657838197725 0 0 0
1752 4 32.39270054850556 5.454643836071196 0.0014381516621910235 0 0 0
1756 4 35.092087321586554 5.454643836071196 0.0014381516621911265 0 0 0
1612 4 37.79147409466756 0.7791687958151948 0.0014381516621889859 0 0 0
1616 4 40.49086086774855 0.7791687958151933 0.0014381516621911005 0 0 0
1757 1 37.791665873166146 2.3374063389851223 0.9884657838197735 0 0 0
1761 1 40.49105264624715 2.337406338985123 0.9884657838197722 0 0 0
1759 4 36.44178070812743 3.116906315943194 0.001438151662191234 0 0 0
1763 4 39.141167481208434 3.1169063159431944 0.0014381516621911955 0 0 0
1758 1 36.44197248662527 4.675143859113125 0.9884657838197723 0 0 0
1760 4 37.79147409466756 5.454643836071197 0.001438151662188928 0 0 0
1762 1 39.14135925970626 4.675143859113124 0.9884657838197731 0 0 0
1764 4 40.49086086774855 5.454643836071195 0.0014381516621909504 0 0 0
1620 4 43.190247640829554 0.7791687958151932 0.001438151662191393 0 0 0
1624 4 45.88963441391056 0.779168795815193 0.0014381516621914112 0 0 0
1765 1 43.19043941932815 2.337406338985123 0.9884657838197722 0 0 0
1769 1 45.88982619240915 2.337406338985123 0.9884657838197722 0 0 0
1767 4 41.84055425428944 3.1169063159431944 0.0014381516621907635 0 0 0
1771 4 44.53994102737044 3.116906315943195 0.0014381516621909923 0 0 0
1766 1 41.840746032787266 4.675143859113125 0.9884657838197729 0 0 0
1768 4 43.190247640829554 5.454643836071195 0.0014381516621913512 0 0 0
1770 1 44.54013280586827 4.675143859113124 0.9884657838197745 0 0 0
1772 4 45.88963441391056 5.454643836071195 0.0014381516621913685 0 0 0
1628 4 48.58902118699156 0.7791687958151934 0.0014381516621910053 0 0 0
1484 4 51.288407960072554 0.7791687958151934 0.0014381516621910016 -1 0 0
1773 1 48.589212965490155 2.3374063389851236 0.988465783819772 0 0 0
1629 1 51.28859973857115 2.3374063389851236 0.988465783819772 -1 0 0
1775 4 47.23932780045144 3.1169063159431944 0.0014381516621907238 0 0 0
1631 4 49.938714573532444 3.116906315943195 0.0014381516621895386 -1 0 0
1635 4 52.63810134661344 3.116906315943194 0.0014381516621909574 -1 0 0
1774 1 47.23951957894927 4.675143859113125 0.9884657838197728 0 0 0
1776 4 48.58902118699156 5.454643836071196 0.0014381516621910216 0 0 0
1630 1 49.93890635203027 4.675143859113125 0.9884657838197727 -1 0 0
1632 4 51.288407960072554 5.454643836071196 0.0014381516621910244 -1 0 0
1634 1 52.638293125111275 4.675143859113125 0.9884657838197726 -1 0 0
1488 4 53.98779473315356 0.7791687958151943 0.0014381516621900178 -1 0 0
1492 4 56.68718150623456 0.7791687958151932 0.00143815166219128 -1 0 0
1633 1 53.98798651165215 2.3374063389851223 0.9884657838197732 -1 0 0
1637 1 56.687373284733155 2.3374063389851236 0.9884657838197719 -1 0 0
1639 4 55.33748811969444 3.1169063159431944 0.0014381516621909262 -1 0 0
1643 4 58.036874892775444 3.1169063159431953 0.0014381516621896867 -1 0 0
1636 4 53.98779473315356 5.454643836071197 0.0014381516621899727 -1 0 0
1638 1 55.33767989819227 4.675143859113125 0.9884657838197726 -1 0 0
1640 4 56.68718150623456 5.454643836071195 0.001438151662191273 -1 0 0
1642 1 58.03706667127327 4.675143859113124 0.9884657838197739 -1 0 0
1496 4 59.386568279315554 0.7791687958151933 0.0014381516621912792 -1 0 0
1500 4 62.08595505239656 0.7791687958151943 0.0014381516621900163 -1 0 0
1641 1 59.38676005781415 2.3374063389851236 0.9884657838197719 -1 0 0
1645 1 62.08614683089515 2.3374063389851227 0.988465783819773 -1 0 0
1647 4 60.73626166585644 3.116906315943194 0.0014381516621909689 -1 0 0
1651 4 63.43564843893744 3.1169063159431944 0.0014381516621902923 -1 0 0
1644 4 59.386568279315554 5.454643836071195 0.001438151662191265 -1 0 0
1646 1 60.736453444354275 4.675143859113125 0.9884657838197726 -1 0 0
1648 4 62.08595505239656 5.454643836071197 0.0014381516621899699 -1 0 0
1650 1 63.43584021743527 4.675143859113125 0.9884657838197727 -1 0 0
1504 4 64.78534182547756 0.779168795815193 0.0014381516621911864 -1 0 0
1508 4 67.48472859855856 0.7791687958151938 0.0014381516621910834 -1 0 0
1512 4 70.18411537163955 0.7791687958151934 0.0014381516621909754 -1 0 0
1649 1 64.78553360397615 2.337406338985124 0.988465783819771 -1 0 0
1653 1 67.48492037705715 2.3374063389851223 0.9884657838197741 -1 0 0
1657 1 70.18430715013815 2.3374063389851236 0.988465783819772 -1 0 0
1655 4 66.13503521201845 3.116906315943194 0.001438151662190959 -1 0 0
1659 4 68.83442198509944 3.1169063159431953 0.0014381516621900443 -1 0 0
1652 4 64.78534182547756 5.454643836071195 0.001438151662191107 -1 0 0
1654 1 66.13522699051627 4.675143859113125 0.9884657838197728 -1 0 0
1656 4 67.48472859855856 5.454643836071196 0.0014381516621910155 -1 0 0
1658 1 68.83461376359728 4.675143859113123 0.9884657838197747 -1 0 0
1660 4 70.18411537163955 5.454643836071195 0.0014381516621908615 -1 0 0
1516 4 72.88350214472057 0.7791687958151934 0.001438151662191 -1 0 0
1520 4 75.58288891780155 0.7791687958151938 0.0014381516621899822 -1 0 0
1661 1 72.88369392321916 2.3374063389851236 0.9884657838197718 -1 0 0
1665 1 75.58308069630016 2.337406338985123 0.988465783819772 -1 0 0
1663 4 71.53380875818044 3.116906315943194 0.001438151662190287 -1 0 0
1667 4 74.23319553126144 3.1169063159431953 0.0014381516621902778 -1 0 0
1662 1 71.53400053667828 4.675143859113126 0.9884657838197706 -1 0 0
1664 4 72.88350214472057 5.454643836071196 0.0014381516621910554 -1 0 0
1666 1 74.23338730975928 4.675143859113123 0.9884657838197749 -1 0 0
1668 4 75.58288891780155 5.454643836071196 0.0014381516621899452 -1 0 0
1524 4 78.28227569088256 0.7791687958151934 0.001438151662190975 -1 0 0
1528 4 80.98166246396356 0.7791687958151938 0.0014381516621910712 -1 0 0
1669 1 78.28246746938116 2.337406338985123 0.9884657838197722 -1 0 0
1673 1 80.98185424246215 2.3374063389851223 0.9884657838197739 -1 0 0
1671 4 76.93258230434245 3.116906315943194 0.0014381516621914821 -1 0 0
1675 4 79.63196907742345 3.1169063159431944 0.0014381516621904096 -1 0 0
1670 1 76.93277408284027 4.675143859113125 0.9884657838197729 -1 0 0
1672 4 78.28227569088256 5.454643836071195 0.001438151662190901 -1 0 0
1674 1 79.63216085592127 4.675143859113125 0.9884657838197723 -1 0 0
1676 4 80.98166246396356 5.454643836071196 0.0014381516621909901 -1 0 0
1532 4 83.68104923704455 0.7791687958151926 0.0014381516621914715 -1 0 0
1536 4 86.38043601012556 0.7791687958151942 0.0014381516621905302 -1 0 0
1677 1 83.68124101554315 2.3374063389851245 0.9884657838197701 -1 0 0
1681 1 86.38062778862415 2.3374063389851223 0.988465783819774 -1 0 0
1679 4 82.33135585050444 3.116906315943196 0.0014381516621895245 -1 0 0
1683 4 85.03074262358544 3.116906315943193 0.0014381516621918414 -1 0 0
1687 4 87.73012939666644 3.116906315943196 0.0014381516621892734 -1 0 0
1678 1 82.33154762900227 4.675143859113123 0.988465783819775 -1 0 0
1680 4 83.68104923704455 5.454643836071195 0.0014381516621914815 -1 0 0
1682 1 85.03093440208328 4.675143859113127 0.9884657838197708 -1 0 0
1684 4 86.38043601012556 5.454643836071196 0.001438151662190603 -1 0 0
1686 1 87.73032117516428 4.675143859113123 0.9884657838197742 -1 0 0
1540 4 89.07982278320655 0.7791687958151939 0.001438151662189946 -1 0 0
1544 4 91.77920955628755 0.7791687958151934 0.0014381516621909769 -1 0 0
1685 1 89.08001456170516 2.337406338985123 0.9884657838197718 -1 0 0
1689 1 91.77940133478616 2.337406338985123 0.9884657838197722 -1 0 0
1691 4 90.42951616974744 3.116906315943194 0.0014381516621914756 -1 0 0
1695 4 93.12890294282845 3.1169063159431944 0.0014381516621904138 -1 0 0
1688 4 89.07982278320655 5.454643836071196 0.0014381516621899358 -1 0 0
1690 1 90.42970794824527 4.675143859113125 0.9884657838197729 -1 0 0
1692 4 91.77920955628755 5.454643836071195 0.0014381516621909023 -1 0 0
1694 1 93.12909472132627 4.675143859113125 0.9884657838197723 -1 0 0
1548 4 94.47859632936856 0.7791687958151942 0.001438151662190544 -1 0 0
1552 4 97.17798310244956 0.7791687958151926 0.0014381516621914184 -1 0 0
1693 1 94.47878810786715 2.3374063389851223 0.988465783819774 -1 0 0
1697 1 97.17817488094815 2.3374063389851245 0.9884657838197701 -1 0 0
1699 4 95.82828971590943 3.1169063159431944 0.001438151662190731 -1 0 0
1703 4 98.52767648899045 3.1169063159431953 0.001438151662189639 -1 0 0
1696 4 94.47859632936856 5.454643836071196 0.0014381516621905918 -1 0 0
1698 1 95.82848149440727 4.675143859113125 0.9884657838197729 -1 0 0
1700 4 97.17798310244956 5.454643836071195 0.001438151662191437 -1 0 0
1702 1 98.52786826748827 4.675143859113125 0.9884657838197729 -1 0 0
1849 1 0.00025105003215061307 7.012881379241124 0.9884657838197742 0 0 0
1853 1 2.699637823113149 7.012881379241124 0.9884657838197735 0 0 0
1857 1 5.399024596194147 7.012881379241125 0.9884657838197728 0 0 0
1855 4 1.349752658074438 7.7923813561991935 0.0014381516621904877 0 0 0
1859 4 4.049139431155435 7.7923813561991935 0.0014381516621892812 0 0 0
1854 1 1.3499444365722708 9.35061889936912 0.9884657838197737 0 0 0
1856 4 2.699446044614556 10.130118876327193 0.001438151662190128 0 0 0
1858 1 4.049331209653267 9.350618899369122 0.9884657838197723 0 0 0
1860 4 5.398832817695556 10.130118876327192 0.0014381516621909279 0 0 0
1852 4 5.9271533558558076e-05 10.130118876327193 0.001438151662190631 0 0 0
1861 1 8.098411369275148 7.012881379241125 0.9884657838197729 0 0 0
1865 1 10.797798142356148 7.012881379241124 0.9884657838197737 0 0 0
1863 4 6.748526204236436 7.7923813561991935 0.0014381516621900193 0 0 0
1867 4 9.447912977317438 7.792381356199193 0.001438151662189952 0 0 0
1862 1 6.748717982734267 9.350618899369122 0.9884657838197736 0 0 0
1864 4 8.098219590776555 10.130118876327192 0.0014381516621908112 0 0 0
1866 1 9.448104755815269 9.350618899369122 0.9884657838197726 0 0 0
1868 4 10.797606363857556 10.130118876327193 0.001438151662190181 0 0 0
1869 1 13.497184915437147 7.012881379241125 0.9884657838197729 0 0 0
1873 1 16.19657168851815 7.012881379241125 0.9884657838197729 0 0 0
1871 4 12.147299750398435 7.7923813561991935 0.001438151662189284 0 0 0
1875 4 14.846686523479436 7.792381356199193 0.0014381516621909428 0 0 0
1879 4 17.546073296560436 7.7923813561991935 0.0014381516621883121 0 0 0
1870 1 12.147491528896268 9.350618899369122 0.9884657838197725 0 0 0
1872 4 13.496993136938556 10.130118876327192 0.0014381516621908028 0 0 0
1874 1 14.846878301977268 9.350618899369122 0.9884657838197738 0 0 0
1878 1 17.54626507505827 9.350618899369122 0.9884657838197723 0 0 0
1876 4 16.196379910019555 10.130118876327192 0.001438151662190979 0 0 0
1877 1 18.895958461599147 7.012881379241125 0.9884657838197723 0 0 0
1881 1 21.595345234680146 7.012881379241123 0.9884657838197745 0 0 0
1883 4 20.24546006964144 7.792381356199193 0.0014381516621900018 0 0 0
1887 4 22.944846842722434 7.792381356199193 0.001438151662190467 0 0 0
1880 4 18.895766683100558 10.130118876327192 0.0014381516621907342 0 0 0
1882 1 20.24565184813927 9.350618899369122 0.9884657838197721 0 0 0
1884 4 21.595153456181556 10.130118876327193 0.0014381516621890182 0 0 0
1886 1 22.945038621220267 9.350618899369122 0.9884657838197726 0 0 0
1885 1 24.294732007761148 7.012881379241125 0.9884657838197729 0 0 0
1889 1 26.99411878084215 7.012881379241124 0.9884657838197729 0 0 0
1891 4 25.644233615803437 7.792381356199193 0.0014381516621899816 0 0 0
1895 4 28.343620388884435 7.7923813561991935 0.0014381516621900553 0 0 0
1888 4 24.294540229262555 10.130118876327192 0.0014381516621908026 0 0 0
1890 1 25.64442539430127 9.350618899369122 0.9884657838197726 0 0 0
1892 4 26.993927002343558 10.130118876327192 0.0014381516621908015 0 0 0
1894 1 28.343812167382268 9.35061889936912 0.9884657838197746 0 0 0
1893 1 29.69350555392315 7.012881379241125 0.9884657838197729 0 0 0
1897 1 32.392892327004155 7.012881379241125 0.9884657838197725 0 0 0
1901 1 35.09227910008514 7.012881379241125 0.9884657838197731 0 0 0
1899 4 31.043007161965438 7.792381356199193 0.0014381516621903285 0 0 0
1903 4 33.74239393504644 7.792381356199194 0.0014381516621876488 0 0 0
1896 4 29.693313775424553 10.130118876327192 0.0014381516621911744 0 0 0
1898 1 31.043198940463267 9.350618899369122 0.9884657838197727 0 0 0
1902 1 33.74258571354427 9.350618899369122 0.9884657838197722 0 0 0
1900 4 32.39270054850556 10.130118876327192 0.0014381516621907314 0 0 0
1904 4 35.092087321586554 10.130118876327193 0.0014381516621908364 0 0 0
1905 1 37.791665873166146 7.012881379241123 0.9884657838197741 0 0 0
1909 1 40.49105264624715 7.012881379241125 0.9884657838197729 0 0 0
1907 4 36.44178070812744 7.792381356199193 0.0014381516621904458 0 0 0
1911 4 39.141167481208434 7.792381356199193 0.0014381516621904677 0 0 0
1906 1 36.44197248662527 9.350618899369122 0.9884657838197721 0 0 0
1908 4 37.79147409466756 10.130118876327193 0.0014381516621886597 0 0 0
1910 1 39.14135925970626 9.350618899369122 0.9884657838197729 0 0 0
1912 4 40.49086086774855 10.130118876327192 0.0014381516621908596 0 0 0
1913 1 43.19043941932815 7.012881379241125 0.9884657838197729 0 0 0
1917 1 45.88982619240915 7.012881379241125 0.9884657838197729 0 0 0
1915 4 41.84055425428944 7.792381356199193 0.0014381516621899825 0 0 0
1919 4 44.53994102737044 7.7923813561991935 0.0014381516621903658 0 0 0
1914 1 41.840746032787266 9.350618899369122 0.9884657838197727 0 0 0
1916 4 43.190247640829554 10.130118876327192 0.0014381516621911482 0 0 0
1918 1 44.54013280586827 9.35061889936912 0.9884657838197742 0 0 0
1920 4 45.88963441391056 10.130118876327192 0.0014381516621911298 0 0 0
1921 1 48.589212965490155 7.012881379241125 0.9884657838197727 0 0 0
1777 1 51.28859973857115 7.012881379241125 0.9884657838197726 -1 0 0
1923 4 47.23932780045144 7.792381356199193 0.0014381516621899157 0 0 0
1779 4 49.938714573532444 7.7923813561991935 0.0014381516621887298 -1 0 0
1783 4 52.63810134661344 7.792381356199193 0.001438151662190124 -1 0 0
1922 1 47.23951957894927 9.350618899369122 0.9884657838197727 0 0 0
1924 4 48.58902118699156 10.130118876327192 0.0014381516621907481 0 0 0
1778 1 49.93890635203027 9.350618899369122 0.9884657838197725 -1 0 0
1780 4 51.288407960072554 10.130118876327192 0.0014381516621907423 -1 0 0
1782 1 52.638293125111275 9.350618899369122 0.9884657838197723 -1 0 0
1781 1 53.98798651165215 7.012881379241124 0.9884657838197739 -1 0 0
1785 1 56.687373284733155 7.012881379241125 0.9884657838197727 -1 0 0
1787 4 55.33748811969444 7.792381356199193 0.001438151662190138 -1 0 0
1791 4 58.036874892775444 7.7923813561991935 0.0014381516621889668 -1 0 0
1784 4 53.98779473315356 10.130118876327193 0.0014381516621898207 -1 0 0
1786 1 55.33767989819227 9.350618899369122 0.9884657838197725 -1 0 0
1788 4 56.68718150623456 10.130118876327192 0.001438151662190989 -1 0 0
1790 1 58.03706667127327 9.35061889936912 0.9884657838197736 -1 0 0
1789 1 59.38676005781415 7.012881379241125 0.9884657838197727 -1 0 0
1793 1 62.08614683089515 7.012881379241124 0.9884657838197738 -1 0 0
1795 4 60.73626166585644 7.792381356199193 0.0014381516621901323 -1 0 0
1799 4 63.43564843893744 7.792381356199193 0.001438151662189528 -1 0 0
1792 4 59.386568279315554 10.130118876327192 0.0014381516621910012 -1 0 0
1794 1 60.736453444354275 9.350618899369122 0.9884657838197725 -1 0 0
1796 4 62.08595505239656 10.130118876327193 0.001438151662189828 -1 0 0
1798 1 63.43584021743527 9.350618899369122 0.9884657838197723 -1 0 0
1797 1 64.78553360397615 7.012881379241125 0.9884657838197717 -1 0 0
1801 1 67.48492037705715 7.012881379241123 0.9884657838197749 -1 0 0
1805 1 70.18430715013815 7.012881379241125 0.9884657838197728 -1 0 0
1803 4 66.13503521201845 7.792381356199193 0.0014381516621901295 -1 0 0
1807 4 68.83442198509944 7.7923813561991935 0.0014381516621894187 -1 0 0
1800 4 64.78534182547756 10.130118876327192 0.0014381516621908771 -1 0 0
1802 1 66.13522699051627 9.350618899369122 0.9884657838197725 -1 0 0
1804 4 67.48472859855856 10.130118876327193 0.0014381516621907158 -1 0 0
1806 1 68.83461376359728 9.35061889936912 0.9884657838197745 -1 0 0
1808 4 70.18411537163955 10.130118876327192 0.0014381516621907355 -1 0 0
1809 1 72.88369392321916 7.012881379241125 0.9884657838197726 -1 0 0
1813 1 75.58308069630016 7.012881379241124 0.9884657838197727 -1 0 0
1811 4 71.53380875818044 7.792381356199192 0.001438151662189478 -1 0 0
1815 4 74.23319553126144 7.7923813561991935 0.0014381516621894104 -1 0 0
1810 1 71.53400053667828 9.350618899369122 0.9884657838197702 -1 0 0
1812 4 72.88350214472057 10.130118876327192 0.0014381516621908223 -1 0 0
1814 1 74.23338730975928 9.35061889936912 0.9884657838197746 -1 0 0
1816 4 75.58288891780155 10.130118876327193 0.001438151662189739 -1 0 0
1817 1 78.28246746938116 7.012881379241124 0.988465783819773 -1 0 0
1821 1 80.98185424246215 7.012881379241123 0.9884657838197746 -1 0 0
1819 4 76.93258230434245 7.792381356199193 0.0014381516621907889 -1 0 0
1823 4 79.63196907742345 7.792381356199193 0.0014381516621896663 -1 0 0
1818 1 76.93277408284027 9.350618899369122 0.9884657838197727 -1 0 0
1820 4 78.28227569088256 10.130118876327192 0.0014381516621907726 -1 0 0
1822 1 79.63216085592127 9.350618899369122 0.988465783819772 -1 0 0
1824 4 80.98166246396356 10.130118876327193 0.0014381516621909042 -1 0 0
1825 1 83.68124101554315 7.012881379241126 0.9884657838197708 -1 0 0
1829 1 86.38062778862415 7.012881379241124 0.9884657838197747 -1 0 0
1827 4 82.33135585050444 7.792381356199194 0.0014381516621888553 -1 0 0
1831 4 85.03074262358544 7.792381356199192 0.001438151662190905 -1 0 0
1835 4 87.73012939666644 7.792381356199194 0.0014381516621885689 -1 0 0
1826 1 82.33154762900227 9.35061889936912 0.9884657838197747 -1 0 0
1828 4 83.68104923704455 10.130118876327192 0.001438151662191314 -1 0 0
1830 1 85.03093440208328 9.350618899369122 0.9884657838197703 -1 0 0
1832 4 86.38043601012556 10.130118876327193 0.0014381516621903851 -1 0 0
1834 1 87.73032117516428 9.35061889936912 0.988465783819774 -1 0 0
1833 1 89.08001456170516 7.012881379241124 0.9884657838197726 -1 0 0
1837 1 91.77940133478616 7.012881379241124 0.988465783819773 -1 0 0
1839 4 90.42951616974744 7.792381356199193 0.0014381516621907885 -1 0 0
1843 4 93.12890294282845 7.792381356199193 0.0014381516621896112 -1 0 0
1836 4 89.07982278320655 10.130118876327193 0.0014381516621896427 -1 0 0
1838 1 90.42970794824527 9.350618899369122 0.9884657838197727 -1 0 0
1840 4 91.77920955628755 10.130118876327192 0.0014381516621907728 -1 0 0
1842 1 93.12909472132627 9.350618899369122 0.988465783819772 -1 0 0
1841 1 94.47878810786715 7.012881379241124 0.9884657838197747 -1 0 0
1845 1 97.17817488094815 7.012881379241127 0.9884657838197707 -1 0 0
1847 4 95.82828971590943 7.7923813561991935 0.0014381516621898216 -1 0 0
1851 4 98.52767648899045 7.7923813561991935 0.0014381516621888575 -1 0 0
1844 4 94.47859632936856 10.130118876327193 0.0014381516621903576 -1 0 0
1846 1 95.82848149440727 9.350618899369122 0.9884657838197726 -1 0 0
1848 4 97.17798310244956 10.130118876327192 0.0014381516621912967 -1 0 0
1850 1 98.52786826748827 9.350618899369122 0.9884657838197725 -1 0 0
1997 1 0.0002510500321506388 11.688356419497122 0.9884657838197736 0 0 0
2001 1 2.699637823113149 11.688356419497122 0.9884657838197728 0 0 0
2005 1 5.399024596194147 11.688356419497122 0.9884657838197722 0 0 0
2003 4 1.349752658074438 12.467856396455193 0.0014381516621909882 0 0 0
2007 4 4.049139431155435 12.467856396455195 0.00143815166218998 0 0 0
2002 1 1.349944436572271 14.026093939625124 0.9884657838197737 0 0 0
2004 4 2.699446044614556 14.805593916583195 0.001438151662189341 0 0 0
2006 1 4.049331209653267 14.026093939625124 0.9884657838197722 0 0 0
2008 4 5.398832817695556 14.805593916583193 0.0014381516621899747 0 0 0
2145 1 0.0002510500321507191 16.363831459753122 0.9884657838197733 0 0 0
2149 1 2.699637823113149 16.363831459753122 0.9884657838197727 0 0 0
2153 1 5.399024596194146 16.363831459753122 0.9884657838197719 0 0 0
2151 4 1.349752658074438 17.143331436711193 0.0014381516621907574 0 0 0
2155 4 4.049139431155435 17.143331436711197 0.0014381516621898207 0 0 0
2000 4 5.9271533558558076e-05 14.805593916583195 0.0014381516621899 0 0 0
2009 1 8.098411369275148 11.688356419497124 0.9884657838197721 0 0 0
2013 1 10.797798142356148 11.688356419497122 0.9884657838197729 0 0 0
2011 4 6.748526204236436 12.467856396455195 0.0014381516621909231 0 0 0
2015 4 9.447912977317438 12.467856396455193 0.0014381516621907776 0 0 0
2010 1 6.748717982734267 14.026093939625124 0.9884657838197736 0 0 0
2012 4 8.098219590776555 14.805593916583193 0.0014381516621898636 0 0 0
2014 1 9.448104755815269 14.026093939625124 0.9884657838197725 0 0 0
2016 4 10.797606363857556 14.805593916583195 0.0014381516621893356 0 0 0
2157 1 8.098411369275148 16.363831459753122 0.9884657838197719 0 0 0
2161 1 10.797798142356148 16.363831459753122 0.9884657838197728 0 0 0
2159 4 6.748526204236435 17.143331436711197 0.001438151662190878 0 0 0
2163 4 9.447912977317438 17.143331436711197 0.0014381516621907084 0 0 0
2017 1 13.497184915437147 11.688356419497122 0.9884657838197722 0 0 0
2021 1 16.19657168851815 11.688356419497124 0.9884657838197721 0 0 0
2019 4 12.147299750398435 12.467856396455195 0.0014381516621899963 0 0 0
2023 4 14.846686523479436 12.467856396455193 0.0014381516621917649 0 0 0
2027 4 17.546073296560436 12.467856396455195 0.0014381516621892305 0 0 0
2018 1 12.147491528896268 14.026093939625124 0.9884657838197723 0 0 0
2020 4 13.496993136938556 14.805593916583193 0.001438151662189855 0 0 0
2022 1 14.846878301977268 14.026093939625124 0.9884657838197738 0 0 0
2026 1 17.54626507505827 14.026093939625124 0.9884657838197726 0 0 0
2024 4 16.196379910019555 14.805593916583193 0.00143815166219009 0 0 0
2165 1 13.497184915437147 16.363831459753122 0.9884657838197719 0 0 0
2169 1 16.19657168851815 16.363831459753122 0.988465783819772 0 0 0
2167 4 12.147299750398435 17.143331436711197 0.0014381516621899233 0 0 0
2171 4 14.846686523479436 17.143331436711197 0.0014381516621916448 0 0 0
2175 4 17.546073296560436 17.143331436711197 0.0014381516621890808 0 0 0
2025 1 18.895958461599147 11.688356419497124 0.9884657838197717 0 0 0
2029 1 21.595345234680146 11.688356419497122 0.988465783819774 0 0 0
2031 4 20.24546006964144 12.467856396455193 0.0014381516621909038 0 0 0
2035 4 22.944846842722434 12.467856396455193 0.0014381516621913154 0 0 0
2028 4 18.895766683100558 14.805593916583193 0.0014381516621898207 0 0 0
2030 1 20.24565184813927 14.026093939625124 0.988465783819772 0 0 0
2032 4 21.595153456181556 14.805593916583195 0.0014381516621879737 0 0 0
2034 1 22.945038621220267 14.026093939625124 0.9884657838197725 0 0 0
2173 1 18.895958461599147 16.363831459753126 0.9884657838197715 0 0 0
2177 1 21.595345234680146 16.363831459753122 0.9884657838197737 0 0 0
2179 4 20.24546006964144 17.143331436711193 0.0014381516621908511 0 0 0
2183 4 22.944846842722434 17.143331436711193 0.0014381516621913546 0 0 0
2033 1 24.294732007761148 11.688356419497122 0.9884657838197722 0 0 0
2037 1 26.99411878084215 11.688356419497122 0.9884657838197721 0 0 0
2039 4 25.644233615803437 12.467856396455193 0.001438151662190819 0 0 0
2043 4 28.343620388884435 12.467856396455195 0.0014381516621905677 0 0 0
2036 4 24.294540229262555 14.805593916583193 0.0014381516621899098 0 0 0
2038 1 25.64442539430127 14.026093939625124 0.9884657838197726 0 0 0
2040 4 26.993927002343558 14.805593916583193 0.0014381516621900044 0 0 0
2042 1 28.343812167382268 14.026093939625122 0.9884657838197745 0 0 0
2181 1 24.294732007761148 16.363831459753122 0.9884657838197719 0 0 0
2185 1 26.99411878084215 16.363831459753122 0.9884657838197718 0 0 0
2187 4 25.644233615803437 17.143331436711197 0.0014381516621906705 0 0 0
2191 4 28.343620388884435 17.143331436711197 0.0014381516621902641 0 0 0
2041 1 29.69350555392315 11.688356419497122 0.9884657838197722 0 0 0
2045 1 32.392892327004155 11.688356419497124 0.9884657838197717 0 0 0
2049 1 35.09227910008514 11.688356419497122 0.9884657838197723 0 0 0
2047 4 31.043007161965438 12.467856396455193 0.0014381516621911517 0 0 0
2051 4 33.74239393504644 12.467856396455195 0.001438151662188516 0 0 0
2044 4 29.693313775424553 14.805593916583193 0.0014381516621904099 0 0 0
2046 1 31.043198940463267 14.026093939625124 0.9884657838197727 0 0 0
2050 1 33.74258571354427 14.026093939625124 0.9884657838197725 0 0 0
2048 4 32.39270054850556 14.805593916583193 0.0014381516621898667 0 0 0
2052 4 35.092087321586554 14.805593916583195 0.0014381516621899309 0 0 0
2189 1 29.69350555392315 16.363831459753122 0.9884657838197719 0 0 0
2193 1 32.392892327004155 16.363831459753126 0.9884657838197716 0 0 0
2197 1 35.09227910008514 16.363831459753122 0.9884657838197722 0 0 0
2195 4 31.043007161965438 17.143331436711193 0.0014381516621910753 0 0 0
2199 4 33.74239393504644 17.143331436711197 0.0014381516621884162 0 0 0
2053 1 37.791665873166146 11.688356419497122 0.9884657838197735 0 0 0
2057 1 40.49105264624715 11.688356419497122 0.9884657838197722 0 0 0
2055 4 36.44178070812744 12.467856396455193 0.0014381516621913087 0 0 0
2059 4 39.141167481208434 12.467856396455193 0.0014381516621913087 0 0 0
2054 1 36.44197248662527 14.026093939625124 0.9884657838197721 0 0 0
2056 4 37.79147409466756 14.805593916583195 0.0014381516621875929 0 0 0