LAMMPS data file via write_data, version 29 Aug 2024, timestep = 0, units = metal

3108 atoms
2 atom types

0 99.877310603997 xlo xhi
0 98.184975845376 ylo yhi
0 16.359755677843 zlo zhi

Masses

1 28.085
2 15.999

Atoms # atomic

1558 1 1.3496933865405012 0 0.9897933206359992 0 0 0
1560 2 2.699386773080498 0.7792458400420017 0 0 0 0
1562 1 4.0490801596214965 0 0.9897933206359992 0 0 0
1564 2 5.3987735461615 0.7792458400420017 0 0 0 0
1566 1 6.748466932702499 0 0.9897933206359992 0 0 0
1568 2 8.098160319242496 0.7792458400420017 0 0 0 0
1570 1 9.447853705783501 0 0.9897933206359992 0 0 0
1572 2 10.797547092323498 0.7792458400420017 0 0 0 0
1574 1 12.147240478864497 0 0.9897933206359992 0 0 0
1576 2 13.4969338654045 0.7792458400420017 0 0 0 0
1578 1 14.846627251945499 0 0.9897933206359992 0 0 0
1582 1 17.5460140250265 0 0.9897933206359992 0 0 0
1580 2 16.196320638485496 0.7792458400420017 0 0 0 0
1584 2 18.895707411566498 0.7792458400420017 0 0 0 0
1586 1 20.245400798107504 0 0.9897933206359992 0 0 0
1588 2 21.5950941846475 0.7792458400420017 0 0 0 0
1590 1 22.944787571188492 0 0.9897933206359992 0 0 0
1592 2 24.294480957728503 0.7792458400420017 0 0 0 0
1594 1 25.644174344269494 0 0.9897933206359992 0 0 0
1596 2 26.993867730809505 0.7792458400420017 0 0 0 0
1598 1 28.343561117350497 0 0.9897933206359992 0 0 0
1600 2 29.693254503890493 0.7792458400420017 0 0 0 0
1602 1 31.0429478904315 0 0.9897933206359992 0 0 0
1606 1 33.7423346635125 0 0.9897933206359992 0 0 0
1604 2 32.392641276971496 0.7792458400420017 0 0 0 0
1608 2 35.0920280500525 0.7792458400420017 0 0 0 0
1610 1 36.441721436593504 0 0.9897933206359992 0 0 0
1612 2 37.7914148231335 0.7792458400420017 0 0 0 0
1614 1 39.14110820967449 0 0.9897933206359992 0 0 0
1616 2 40.4908015962145 0.7792458400420017 0 0 0 0
1618 1 41.840494982755494 0 0.9897933206359992 0 0 0
1620 2 43.190188369295505 0.7792458400420017 0 0 0 0
1622 1 44.5398817558365 0 0.9897933206359992 0 0 0
1624 2 45.88957514237649 0.7792458400420017 0 0 0 0
1626 1 47.2392685289175 0 0.9897933206359992 0 0 0
1628 2 48.588961915457496 0.7792458400420017 0 0 0 0
1482 1 49.9386553019985 0 0.9897933206359992 -1 0 0
1484 2 51.2883486885385 0.7792458400420017 0 -1 0 0
1486 1 52.638042075079504 0 0.9897933206359992 -1 0 0
1488 2 53.9877354616195 0.7792458400420017 0 -1 0 0
1490 1 55.3374288481605 0 0.9897933206359992 -1 0 0
1492 2 56.6871222347005 0.7792458400420017 0 -1 0 0
1494 1 58.0368156212415 0 0.9897933206359992 -1 0 0
1496 2 59.3865090077815 0.7792458400420017 0 -1 0 0
1498 1 60.736202394322504 0 0.9897933206359992 -1 0 0
1500 2 62.0858957808625 0.7792458400420017 0 -1 0 0
1502 1 63.4355891674035 0 0.9897933206359992 -1 0 0
1504 2 64.7852825539435 0.7792458400420017 0 -1 0 0
1506 1 66.13497594048451 0 0.9897933206359992 -1 0 0
1508 2 67.4846693270245 0.7792458400420017 0 -1 0 0
1510 1 68.8343627135655 0 0.9897933206359992 -1 0 0
1512 2 70.1840561001055 0.7792458400420017 0 -1 0 0
1514 1 71.5337494866465 0 0.9897933206359992 -1 0 0
1516 2 72.88344287318651 0.7792458400420017 0 -1 0 0
1518 1 74.2331362597275 0 0.9897933206359992 -1 0 0
1520 2 75.5828296462675 0.7792458400420017 0 -1 0 0
1522 1 76.9325230328085 0 0.9897933206359992 -1 0 0
1524 2 78.2822164193485 0.7792458400420017 0 -1 0 0
1526 1 79.6319098058895 0 0.9897933206359992 -1 0 0
1528 2 80.9816031924295 0.7792458400420017 0 -1 0 0
1530 1 82.3312965789705 0 0.9897933206359992 -1 0 0
1532 2 83.68098996551049 0.7792458400420017 0 -1 0 0
1534 1 85.03068335205151 0 0.9897933206359992 -1 0 0
1536 2 86.38037673859151 0.7792458400420017 0 -1 0 0
1538 1 87.7300701251325 0 0.9897933206359992 -1 0 0
1540 2 89.0797635116725 0.7792458400420017 0 -1 0 0
1542 1 90.4294568982135 0 0.9897933206359992 -1 0 0
1544 2 91.7791502847535 0.7792458400420017 0 -1 0 0
1546 1 93.1288436712945 0 0.9897933206359992 -1 0 0
1548 2 94.4785370578345 0.7792458400420017 0 -1 0 0
1550 1 95.82823044437549 0 0.9897933206359992 -1 0 0
1552 2 97.1779238309155 0.7792458400420017 0 -1 0 0
1554 1 98.52761721745651 0 0.9897933206359992 -1 0 0
1556 2 99.8773106039965 0.7792458400420017 0 -1 0 0
1701 1 4.973799150320701e-13 2.3377375201280017 0.9897933206359992 0 0 0
1705 1 2.6993867730814998 2.3377375201280017 0.9897933206359992 0 0 0
1709 1 5.398773546162495 2.3377375201280017 0.9897933206359992 0 0 0
1713 1 8.098160319243497 2.3377375201280017 0.9897933206359992 0 0 0
1717 1 10.7975470923245 2.3377375201280017 0.9897933206359992 0 0 0
1721 1 13.496933865405495 2.3377375201280017 0.9897933206359992 0 0 0
1725 1 16.196320638486505 2.3377375201280017 0.9897933206359992 0 0 0
1729 1 18.895707411567493 2.3377375201280017 0.9897933206359992 0 0 0
1733 1 21.595094184648495 2.3377375201280017 0.9897933206359992 0 0 0
1737 1 24.294480957729498 2.3377375201280017 0.9897933206359992 0 0 0
1741 1 26.9938677308105 2.3377375201280017 0.9897933206359992 0 0 0
1745 1 29.693254503891502 2.3377375201280017 0.9897933206359992 0 0 0
1749 1 32.392641276972505 2.3377375201280017 0.9897933206359992 0 0 0
1753 1 35.09202805005349 2.3377375201280017 0.9897933206359992 0 0 0
1757 1 37.791414823134495 2.3377375201280017 0.9897933206359992 0 0 0
1761 1 40.4908015962155 2.3377375201280017 0.9897933206359992 0 0 0
1765 1 43.1901883692965 2.3377375201280017 0.9897933206359992 0 0 0
1769 1 45.8895751423775 2.3377375201280017 0.9897933206359992 0 0 0
1773 1 48.588961915458505 2.3377375201280017 0.9897933206359992 0 0 0
1629 1 51.2883486885395 2.3377375201280017 0.9897933206359992 -1 0 0
1633 1 53.9877354616205 2.3377375201280017 0.9897933206359992 -1 0 0
1637 1 56.687122234701505 2.3377375201280017 0.9897933206359992 -1 0 0
1641 1 59.3865090077825 2.3377375201280017 0.9897933206359992 -1 0 0
1645 1 62.0858957808635 2.3377375201280017 0.9897933206359992 -1 0 0
1649 1 64.7852825539445 2.3377375201280017 0.9897933206359992 -1 0 0
1653 1 67.4846693270255 2.3377375201280017 0.9897933206359992 -1 0 0
1657 1 70.1840561001065 2.3377375201280017 0.9897933206359992 -1 0 0
1661 1 72.8834428731875 2.3377375201280017 0.9897933206359992 -1 0 0
1665 1 75.5828296462685 2.3377375201280017 0.9897933206359992 -1 0 0
1669 1 78.28221641934951 2.3377375201280017 0.9897933206359992 -1 0 0
1673 1 80.9816031924305 2.3377375201280017 0.9897933206359992 -1 0 0
1677 1 83.6809899655115 2.3377375201280017 0.9897933206359992 -1 0 0
1681 1 86.3803767385925 2.3377375201280017 0.9897933206359992 -1 0 0
1685 1 89.07976351167349 2.3377375201280017 0.9897933206359992 -1 0 0
1689 1 91.77915028475451 2.3377375201280017 0.9897933206359992 -1 0 0
1693 1 94.4785370578355 2.3377375201280017 0.9897933206359992 -1 0 0
1697 1 97.1779238309165 2.3377375201280017 0.9897933206359992 -1 0 0
1707 2 1.3496933865405012 3.1169833601700034 0 0 0 0
1711 2 4.0490801596214965 3.1169833601700034 0 0 0 0
1715 2 6.748466932702499 3.1169833601700034 0 0 0 0
1719 2 9.447853705783501 3.1169833601700034 0 0 0 0
1723 2 12.147240478864497 3.1169833601700034 0 0 0 0
1727 2 14.846627251945499 3.1169833601700034 0 0 0 0
1731 2 17.5460140250265 3.1169833601700034 0 0 0 0
1735 2 20.245400798107504 3.1169833601700034 0 0 0 0
1739 2 22.944787571188492 3.1169833601700034 0 0 0 0
1743 2 25.644174344269494 3.1169833601700034 0 0 0 0
1747 2 28.343561117350497 3.1169833601700034 0 0 0 0
1751 2 31.0429478904315 3.1169833601700034 0 0 0 0
1755 2 33.7423346635125 3.1169833601700034 0 0 0 0
1759 2 36.441721436593504 3.1169833601700034 0 0 0 0
1763 2 39.14110820967449 3.1169833601700034 0 0 0 0
1767 2 41.840494982755494 3.1169833601700034 0 0 0 0
1771 2 44.5398817558365 3.1169833601700034 0 0 0 0
1775 2 47.2392685289175 3.1169833601700034 0 0 0 0
1631 2 49.9386553019985 3.1169833601700034 0 -1 0 0
1635 2 52.638042075079504 3.1169833601700034 0 -1 0 0
1639 2 55.3374288481605 3.1169833601700034 0 -1 0 0
1643 2 58.0368156212415 3.1169833601700034 0 -1 0 0
1647 2 60.736202394322504 3.1169833601700034 0 -1 0 0
1651 2 63.4355891674035 3.1169833601700034 0 -1 0 0
1655 2 66.13497594048451 3.1169833601700034 0 -1 0 0
1659 2 68.8343627135655 3.1169833601700034 0 -1 0 0
1663 2 71.5337494866465 3.1169833601700034 0 -1 0 0
1667 2 74.2331362597275 3.1169833601700034 0 -1 0 0
1671 2 76.9325230328085 3.1169833601700034 0 -1 0 0
1675 2 79.6319098058895 3.1169833601700034 0 -1 0 0
1679 2 82.3312965789705 3.1169833601700034 0 -1 0 0
1683 2 85.03068335205151 3.1169833601700034 0 -1 0 0
1687 2 87.7300701251325 3.1169833601700034 0 -1 0 0
1691 2 90.4294568982135 3.1169833601700034 0 -1 0 0
1695 2 93.1288436712945 3.1169833601700034 0 -1 0 0
1699 2 95.82823044437549 3.1169833601700034 0 -1 0 0
1703 2 98.52761721745651 3.1169833601700034 0 -1 0 0
1706 1 1.3496933865405012 4.6754750402560035 0.9897933206359992 0 0 0
1708 2 2.699386773080498 5.454720880298005 0 0 0 0
1710 1 4.0490801596214965 4.6754750402560035 0.9897933206359992 0 0 0
1712 2 5.3987735461615 5.454720880298005 0 0 0 0
1714 1 6.748466932702499 4.6754750402560035 0.9897933206359992 0 0 0
1716 2 8.098160319242496 5.454720880298005 0 0 0 0
1718 1 9.447853705783501 4.6754750402560035 0.9897933206359992 0 0 0
1720 2 10.797547092323498 5.454720880298005 0 0 0 0
1722 1 12.147240478864497 4.6754750402560035 0.9897933206359992 0 0 0
1724 2 13.4969338654045 5.454720880298005 0 0 0 0
1726 1 14.846627251945499 4.6754750402560035 0.9897933206359992 0 0 0
1730 1 17.5460140250265 4.6754750402560035 0.9897933206359992 0 0 0
1728 2 16.196320638485496 5.454720880298005 0 0 0 0
1732 2 18.895707411566498 5.454720880298005 0 0 0 0
1734 1 20.245400798107504 4.6754750402560035 0.9897933206359992 0 0 0
1736 2 21.5950941846475 5.454720880298005 0 0 0 0
1738 1 22.944787571188492 4.6754750402560035 0.9897933206359992 0 0 0
1740 2 24.294480957728503 5.454720880298005 0 0 0 0
1742 1 25.644174344269494 4.6754750402560035 0.9897933206359992 0 0 0
1744 2 26.993867730809505 5.454720880298005 0 0 0 0
1746 1 28.343561117350497 4.6754750402560035 0.9897933206359992 0 0 0
1748 2 29.693254503890493 5.454720880298005 0 0 0 0
1750 1 31.0429478904315 4.6754750402560035 0.9897933206359992 0 0 0
1754 1 33.7423346635125 4.6754750402560035 0.9897933206359992 0 0 0
1752 2 32.392641276971496 5.454720880298005 0 0 0 0
1756 2 35.0920280500525 5.454720880298005 0 0 0 0
1758 1 36.441721436593504 4.6754750402560035 0.9897933206359992 0 0 0
1760 2 37.7914148231335 5.454720880298005 0 0 0 0
1762 1 39.14110820967449 4.6754750402560035 0.9897933206359992 0 0 0
1764 2 40.4908015962145 5.454720880298005 0 0 0 0
1766 1 41.840494982755494 4.6754750402560035 0.9897933206359992 0 0 0
1768 2 43.190188369295505 5.454720880298005 0 0 0 0
1770 1 44.5398817558365 4.6754750402560035 0.9897933206359992 0 0 0
1772 2 45.88957514237649 5.454720880298005 0 0 0 0
1774 1 47.2392685289175 4.6754750402560035 0.9897933206359992 0 0 0
1776 2 48.588961915457496 5.454720880298005 0 0 0 0
1630 1 49.9386553019985 4.6754750402560035 0.9897933206359992 -1 0 0
1632 2 51.2883486885385 5.454720880298005 0 -1 0 0
1634 1 52.638042075079504 4.6754750402560035 0.9897933206359992 -1 0 0
1636 2 53.9877354616195 5.454720880298005 0 -1 0 0
1638 1 55.3374288481605 4.6754750402560035 0.9897933206359992 -1 0 0
1640 2 56.6871222347005 5.454720880298005 0 -1 0 0
1642 1 58.0368156212415 4.6754750402560035 0.9897933206359992 -1 0 0
1644 2 59.3865090077815 5.454720880298005 0 -1 0 0
1646 1 60.736202394322504 4.6754750402560035 0.9897933206359992 -1 0 0
1648 2 62.0858957808625 5.454720880298005 0 -1 0 0
1650 1 63.4355891674035 4.6754750402560035 0.9897933206359992 -1 0 0
1652 2 64.7852825539435 5.454720880298005 0 -1 0 0
1654 1 66.13497594048451 4.6754750402560035 0.9897933206359992 -1 0 0
1656 2 67.4846693270245 5.454720880298005 0 -1 0 0
1658 1 68.8343627135655 4.6754750402560035 0.9897933206359992 -1 0 0
1660 2 70.1840561001055 5.454720880298005 0 -1 0 0
1662 1 71.5337494866465 4.6754750402560035 0.9897933206359992 -1 0 0
1664 2 72.88344287318651 5.454720880298005 0 -1 0 0
1666 1 74.2331362597275 4.6754750402560035 0.9897933206359992 -1 0 0
1668 2 75.5828296462675 5.454720880298005 0 -1 0 0
1670 1 76.9325230328085 4.6754750402560035 0.9897933206359992 -1 0 0
1672 2 78.2822164193485 5.454720880298005 0 -1 0 0
1674 1 79.6319098058895 4.6754750402560035 0.9897933206359992 -1 0 0
1676 2 80.9816031924295 5.454720880298005 0 -1 0 0
1678 1 82.3312965789705 4.6754750402560035 0.9897933206359992 -1 0 0
1680 2 83.68098996551049 5.454720880298005 0 -1 0 0
1682 1 85.03068335205151 4.6754750402560035 0.9897933206359992 -1 0 0
1684 2 86.38037673859151 5.454720880298005 0 -1 0 0
1686 1 87.7300701251325 4.6754750402560035 0.9897933206359992 -1 0 0
1688 2 89.0797635116725 5.454720880298005 0 -1 0 0
1690 1 90.4294568982135 4.6754750402560035 0.9897933206359992 -1 0 0
1692 2 91.7791502847535 5.454720880298005 0 -1 0 0
1694 1 93.1288436712945 4.6754750402560035 0.9897933206359992 -1 0 0
1696 2 94.4785370578345 5.454720880298005 0 -1 0 0
1698 1 95.82823044437549 4.6754750402560035 0.9897933206359992 -1 0 0
1700 2 97.1779238309155 5.454720880298005 0 -1 0 0
1702 1 98.52761721745651 4.6754750402560035 0.9897933206359992 -1 0 0
1704 2 99.8773106039965 5.454720880298005 0 -1 0 0
1849 1 4.973799150320701e-13 7.013212560384005 0.9897933206359992 0 0 0
1853 1 2.6993867730814998 7.013212560384005 0.9897933206359992 0 0 0
1857 1 5.398773546162495 7.013212560384005 0.9897933206359992 0 0 0
1861 1 8.098160319243497 7.013212560384005 0.9897933206359992 0 0 0
1865 1 10.7975470923245 7.013212560384005 0.9897933206359992 0 0 0
1869 1 13.496933865405495 7.013212560384005 0.9897933206359992 0 0 0
1873 1 16.196320638486505 7.013212560384005 0.9897933206359992 0 0 0
1877 1 18.895707411567493 7.013212560384005 0.9897933206359992 0 0 0
1881 1 21.595094184648495 7.013212560384005 0.9897933206359992 0 0 0
1885 1 24.294480957729498 7.013212560384005 0.9897933206359992 0 0 0
1889 1 26.9938677308105 7.013212560384005 0.9897933206359992 0 0 0
1893 1 29.693254503891502 7.013212560384005 0.9897933206359992 0 0 0
1897 1 32.392641276972505 7.013212560384005 0.9897933206359992 0 0 0
1901 1 35.09202805005349 7.013212560384005 0.9897933206359992 0 0 0
1905 1 37.791414823134495 7.013212560384005 0.9897933206359992 0 0 0
1909 1 40.4908015962155 7.013212560384005 0.9897933206359992 0 0 0
1913 1 43.1901883692965 7.013212560384005 0.9897933206359992 0 0 0
1917 1 45.8895751423775 7.013212560384005 0.9897933206359992 0 0 0
1921 1 48.588961915458505 7.013212560384005 0.9897933206359992 0 0 0
1777 1 51.2883486885395 7.013212560384005 0.9897933206359992 -1 0 0
1781 1 53.9877354616205 7.013212560384005 0.9897933206359992 -1 0 0
1785 1 56.687122234701505 7.013212560384005 0.9897933206359992 -1 0 0
1789 1 59.3865090077825 7.013212560384005 0.9897933206359992 -1 0 0
1793 1 62.0858957808635 7.013212560384005 0.9897933206359992 -1 0 0
1797 1 64.7852825539445 7.013212560384005 0.9897933206359992 -1 0 0
1801 1 67.4846693270255 7.013212560384005 0.9897933206359992 -1 0 0
1805 1 70.1840561001065 7.013212560384005 0.9897933206359992 -1 0 0
1809 1 72.8834428731875 7.013212560384005 0.9897933206359992 -1 0 0
1813 1 75.5828296462685 7.013212560384005 0.9897933206359992 -1 0 0
1817 1 78.28221641934951 7.013212560384005 0.9897933206359992 -1 0 0
1821 1 80.9816031924305 7.013212560384005 0.9897933206359992 -1 0 0
1825 1 83.6809899655115 7.013212560384005 0.9897933206359992 -1 0 0
1829 1 86.3803767385925 7.013212560384005 0.9897933206359992 -1 0 0
1833 1 89.07976351167349 7.013212560384005 0.9897933206359992 -1 0 0
1837 1 91.77915028475451 7.013212560384005 0.9897933206359992 -1 0 0
1841 1 94.4785370578355 7.013212560384005 0.9897933206359992 -1 0 0
1845 1 97.1779238309165 7.013212560384005 0.9897933206359992 -1 0 0
1855 2 1.3496933865405012 7.792458400426 0 0 0 0
1859 2 4.0490801596214965 7.792458400426 0 0 0 0
1863 2 6.748466932702499 7.792458400426 0 0 0 0
1867 2 9.447853705783501 7.792458400426 0 0 0 0
1871 2 12.147240478864497 7.792458400426 0 0 0 0
1875 2 14.846627251945499 7.792458400426 0 0 0 0
1879 2 17.5460140250265 7.792458400426 0 0 0 0
1883 2 20.245400798107504 7.792458400426 0 0 0 0
1887 2 22.944787571188492 7.792458400426 0 0 0 0
1891 2 25.644174344269494 7.792458400426 0 0 0 0
1895 2 28.343561117350497 7.792458400426 0 0 0 0
1899 2 31.0429478904315 7.792458400426 0 0 0 0
1903 2 33.7423346635125 7.792458400426 0 0 0 0
1907 2 36.441721436593504 7.792458400426 0 0 0 0
1911 2 39.14110820967449 7.792458400426 0 0 0 0
1915 2 41.840494982755494 7.792458400426 0 0 0 0
1919 2 44.5398817558365 7.792458400426 0 0 0 0
1923 2 47.2392685289175 7.792458400426 0 0 0 0
1779 2 49.9386553019985 7.792458400426 0 -1 0 0
1783 2 52.638042075079504 7.792458400426 0 -1 0 0
1787 2 55.3374288481605 7.792458400426 0 -1 0 0
1791 2 58.0368156212415 7.792458400426 0 -1 0 0
1795 2 60.736202394322504 7.792458400426 0 -1 0 0
1799 2 63.4355891674035 7.792458400426 0 -1 0 0
1803 2 66.13497594048451 7.792458400426 0 -1 0 0
1807 2 68.8343627135655 7.792458400426 0 -1 0 0
1811 2 71.5337494866465 7.792458400426 0 -1 0 0
1815 2 74.2331362597275 7.792458400426 0 -1 0 0
1819 2 76.9325230328085 7.792458400426 0 -1 0 0
1823 2 79.6319098058895 7.792458400426 0 -1 0 0
1827 2 82.3312965789705 7.792458400426 0 -1 0 0
1831 2 85.03068335205151 7.792458400426 0 -1 0 0
1835 2 87.7300701251325 7.792458400426 0 -1 0 0
1839 2 90.4294568982135 7.792458400426 0 -1 0 0
1843 2 93.1288436712945 7.792458400426 0 -1 0 0
1847 2 95.82823044437549 7.792458400426 0 -1 0 0
1851 2 98.52761721745651 7.792458400426 0 -1 0 0
1854 1 1.3496933865405012 9.350950080512 0.9897933206359992 0 0 0
1856 2 2.699386773080498 10.130195920554002 0 0 0 0
1858 1 4.0490801596214965 9.350950080512 0.9897933206359992 0 0 0
1860 2 5.3987735461615 10.130195920554002 0 0 0 0
1862 1 6.748466932702499 9.350950080512 0.9897933206359992 0 0 0
1864 2 8.098160319242496 10.130195920554002 0 0 0 0
1866 1 9.447853705783501 9.350950080512 0.9897933206359992 0 0 0
1868 2 10.797547092323498 10.130195920554002 0 0 0 0
1870 1 12.147240478864497 9.350950080512 0.9897933206359992 0 0 0
1872 2 13.4969338654045 10.130195920554002 0 0 0 0
1874 1 14.846627251945499 9.350950080512 0.9897933206359992 0 0 0
1878 1 17.5460140250265 9.350950080512 0.9897933206359992 0 0 0
1876 2 16.196320638485496 10.130195920554002 0 0 0 0
1880 2 18.895707411566498 10.130195920554002 0 0 0 0
1882 1 20.245400798107504 9.350950080512 0.9897933206359992 0 0 0
1884 2 21.5950941846475 10.130195920554002 0 0 0 0
1886 1 22.944787571188492 9.350950080512 0.9897933206359992 0 0 0
1888 2 24.294480957728503 10.130195920554002 0 0 0 0
1890 1 25.644174344269494 9.350950080512 0.9897933206359992 0 0 0
1892 2 26.993867730809505 10.130195920554002 0 0 0 0
1894 1 28.343561117350497 9.350950080512 0.9897933206359992 0 0 0
1896 2 29.693254503890493 10.130195920554002 0 0 0 0
1898 1 31.0429478904315 9.350950080512 0.9897933206359992 0 0 0
1902 1 33.7423346635125 9.350950080512 0.9897933206359992 0 0 0
1900 2 32.392641276971496 10.130195920554002 0 0 0 0
1904 2 35.0920280500525 10.130195920554002 0 0 0 0
1906 1 36.441721436593504 9.350950080512 0.9897933206359992 0 0 0
1908 2 37.7914148231335 10.130195920554002 0 0 0 0
1910 1 39.14110820967449 9.350950080512 0.9897933206359992 0 0 0
1912 2 40.4908015962145 10.130195920554002 0 0 0 0
1914 1 41.840494982755494 9.350950080512 0.9897933206359992 0 0 0
1916 2 43.190188369295505 10.130195920554002 0 0 0 0
1918 1 44.5398817558365 9.350950080512 0.9897933206359992 0 0 0
1920 2 45.88957514237649 10.130195920554002 0 0 0 0
1922 1 47.2392685289175 9.350950080512 0.9897933206359992 0 0 0
1924 2 48.588961915457496 10.130195920554002 0 0 0 0
1778 1 49.9386553019985 9.350950080512 0.9897933206359992 -1 0 0
1780 2 51.2883486885385 10.130195920554002 0 -1 0 0
1782 1 52.638042075079504 9.350950080512 0.9897933206359992 -1 0 0
1784 2 53.9877354616195 10.130195920554002 0 -1 0 0
1786 1 55.3374288481605 9.350950080512 0.9897933206359992 -1 0 0
1788 2 56.6871222347005 10.130195920554002 0 -1 0 0
1790 1 58.0368156212415 9.350950080512 0.9897933206359992 -1 0 0
1792 2 59.3865090077815 10.130195920554002 0 -1 0 0
1794 1 60.736202394322504 9.350950080512 0.9897933206359992 -1 0 0
1796 2 62.0858957808625 10.130195920554002 0 -1 0 0
1798 1 63.4355891674035 9.350950080512 0.9897933206359992 -1 0 0
1800 2 64.7852825539435 10.130195920554002 0 -1 0 0
1802 1 66.13497594048451 9.350950080512 0.9897933206359992 -1 0 0
1804 2 67.4846693270245 10.130195920554002 0 -1 0 0
1806 1 68.8343627135655 9.350950080512 0.9897933206359992 -1 0 0
1808 2 70.1840561001055 10.130195920554002 0 -1 0 0
1810 1 71.5337494866465 9.350950080512 0.9897933206359992 -1 0 0
1812 2 72.88344287318651 10.130195920554002 0 -1 0 0
1814 1 74.2331362597275 9.350950080512 0.9897933206359992 -1 0 0
1816 2 75.5828296462675 10.130195920554002 0 -1 0 0
1818 1 76.9325230328085 9.350950080512 0.9897933206359992 -1 0 0
1820 2 78.2822164193485 10.130195920554002 0 -1 0 0
1822 1 79.6319098058895 9.350950080512 0.9897933206359992 -1 0 0
1824 2 80.9816031924295 10.130195920554002 0 -1 0 0
1826 1 82.3312965789705 9.350950080512 0.9897933206359992 -1 0 0
1828 2 83.68098996551049 10.130195920554002 0 -1 0 0
1830 1 85.03068335205151 9.350950080512 0.9897933206359992 -1 0 0
1832 2 86.38037673859151 10.130195920554002 0 -1 0 0
1834 1 87.7300701251325 9.350950080512 0.9897933206359992 -1 0 0
1836 2 89.0797635116725 10.130195920554002 0 -1 0 0
1838 1 90.4294568982135 9.350950080512 0.9897933206359992 -1 0 0
1840 2 91.7791502847535 10.130195920554002 0 -1 0 0
1842 1 93.1288436712945 9.350950080512 0.9897933206359992 -1 0 0
1844 2 94.4785370578345 10.130195920554002 0 -1 0 0
1846 1 95.82823044437549 9.350950080512 0.9897933206359992 -1 0 0
1848 2 97.1779238309155 10.130195920554002 0 -1 0 0
1850 1 98.52761721745651 9.350950080512 0.9897933206359992 -1 0 0
1852 2 99.8773106039965 10.130195920554002 0 -1 0 0
1997 1 4.973799150320701e-13 11.688687600640002 0.9897933206359992 0 0 0
2001 1 2.6993867730814998 11.688687600640002 0.9897933206359992 0 0 0
2005 1 5.398773546162495 11.688687600640002 0.9897933206359992 0 0 0
2009 1 8.098160319243497 11.688687600640002 0.9897933206359992 0 0 0
2013 1 10.7975470923245 11.688687600640002 0.9897933206359992 0 0 0
2017 1 13.496933865405495 11.688687600640002 0.9897933206359992 0 0 0
2021 1 16.196320638486505 11.688687600640002 0.9897933206359992 0 0 0
2025 1 18.895707411567493 11.688687600640002 0.9897933206359992 0 0 0
2029 1 21.595094184648495 11.688687600640002 0.9897933206359992 0 0 0
2033 1 24.294480957729498 11.688687600640002 0.9897933206359992 0 0 0
2037 1 26.9938677308105 11.688687600640002 0.9897933206359992 0 0 0
2041 1 29.693254503891502 11.688687600640002 0.9897933206359992 0 0 0
2045 1 32.392641276972505 11.688687600640002 0.9897933206359992 0 0 0
2049 1 35.09202805005349 11.688687600640002 0.9897933206359992 0 0 0
2053 1 37.791414823134495 11.688687600640002 0.9897933206359992 0 0 0
2057 1 40.4908015962155 11.688687600640002 0.9897933206359992 0 0 0
2061 1 43.1901883692965 11.688687600640002 0.9897933206359992 0 0 0
2065 1 45.8895751423775 11.688687600640002 0.9897933206359992 0 0 0
2069 1 48.588961915458505 11.688687600640002 0.9897933206359992 0 0 0
1925 1 51.2883486885395 11.688687600640002 0.9897933206359992 -1 0 0
1929 1 53.9877354616205 11.688687600640002 0.9897933206359992 -1 0 0
1933 1 56.687122234701505 11.688687600640002 0.9897933206359992 -1 0 0
1937 1 59.3865090077825 11.688687600640002 0.9897933206359992 -1 0 0
1941 1 62.0858957808635 11.688687600640002 0.9897933206359992 -1 0 0
1945 1 64.7852825539445 11.688687600640002 0.9897933206359992 -1 0 0
1949 1 67.4846693270255 11.688687600640002 0.9897933206359992 -1 0 0
1953 1 70.1840561001065 11.688687600640002 0.9897933206359992 -1 0 0
1957 1 72.8834428731875 11.688687600640002 0.9897933206359992 -1 0 0
1961 1 75.5828296462685 11.688687600640002 0.9897933206359992 -1 0 0
1965 1 78.28221641934951 11.688687600640002 0.9897933206359992 -1 0 0
1969 1 80.9816031924305 11.688687600640002 0.9897933206359992 -1 0 0
1973 1 83.6809899655115 11.688687600640002 0.9897933206359992 -1 0 0
1977 1 86.3803767385925 11.688687600640002 0.9897933206359992 -1 0 0
1981 1 89.07976351167349 11.688687600640002 0.9897933206359992 -1 0 0
1985 1 91.77915028475451 11.688687600640002 0.9897933206359992 -1 0 0
1989 1 94.4785370578355 11.688687600640002 0.9897933206359992 -1 0 0
1993 1 97.1779238309165 11.688687600640002 0.9897933206359992 -1 0 0
2003 2 1.3496933865405012 12.467933440682003 0 0 0 0
2007 2 4.0490801596214965 12.467933440682003 0 0 0 0
2011 2 6.748466932702499 12.467933440682003 0 0 0 0
2015 2 9.447853705783501 12.467933440682003 0 0 0 0
2019 2 12.147240478864497 12.467933440682003 0 0 0 0
2023 2 14.846627251945499 12.467933440682003 0 0 0 0
2027 2 17.5460140250265 12.467933440682003 0 0 0 0
2031 2 20.245400798107504 12.467933440682003 0 0 0 0
2035 2 22.944787571188492 12.467933440682003 0 0 0 0
2039 2 25.644174344269494 12.467933440682003 0 0 0 0
2043 2 28.343561117350497 12.467933440682003 0 0 0 0
2047 2 31.0429478904315 12.467933440682003 0 0 0 0
2051 2 33.7423346635125 12.467933440682003 0 0 0 0
2055 2 36.441721436593504 12.467933440682003 0 0 0 0
2059 2 39.14110820967449 12.467933440682003 0 0 0 0
2063 2 41.840494982755494 12.467933440682003 0 0 0 0
2067 2 44.5398817558365 12.467933440682003 0 0 0 0
2071 2 47.2392685289175 12.467933440682003 0 0 0 0
1927 2 49.9386553019985 12.467933440682003 0 -1 0 0
1931 2 52.638042075079504 12.467933440682003 0 -1 0 0
1935 2 55.3374288481605 12.467933440682003 0 -1 0 0
1939 2 58.0368156212415 12.467933440682003 0 -1 0 0
1943 2 60.736202394322504 12.467933440682003 0 -1 0 0
1947 2 63.4355891674035 12.467933440682003 0 -1 0 0
1951 2 66.13497594048451 12.467933440682003 0 -1 0 0
1955 2 68.8343627135655 12.467933440682003 0 -1 0 0
1959 2 71.5337494866465 12.467933440682003 0 -1 0 0
1963 2 74.2331362597275 12.467933440682003 0 -1 0 0
1967 2 76.9325230328085 12.467933440682003 0 -1 0 0
1971 2 79.6319098058895 12.467933440682003 0 -1 0 0
1975 2 82.3312965789705 12.467933440682003 0 -1 0 0
1979 2 85.03068335205151 12.467933440682003 0 -1 0 0
1983 2 87.7300701251325 12.467933440682003 0 -1 0 0
1987 2 90.4294568982135 12.467933440682003 0 -1 0 0
1991 2 93.1288436712945 12.467933440682003 0 -1 0 0
1995 2 95.82823044437549 12.467933440682003 0 -1 0 0
1999 2 98.52761721745651 12.467933440682003 0 -1 0 0
2002 1 1.3496933865405012 14.026425120768003 0.9897933206359992 0 0 0
2004 2 2.699386773080498 14.805670960810005 0 0 0 0
2006 1 4.0490801596214965 14.026425120768003 0.9897933206359992 0 0 0
2008 2 5.3987735461615 14.805670960810005 0 0 0 0
2010 1 6.748466932702499 14.026425120768003 0.9897933206359992 0 0 0
2012 2 8.098160319242496 14.805670960810005 0 0 0 0
2014 1 9.447853705783501 14.026425120768003 0.9897933206359992 0 0 0
2016 2 10.797547092323498 14.805670960810005 0 0 0 0
2018 1 12.147240478864497 14.026425120768003 0.9897933206359992 0 0 0
2020 2 13.4969338654045 14.805670960810005 0 0 0 0
2022 1 14.846627251945499 14.026425120768003 0.9897933206359992 0 0 0
2026 1 17.5460140250265 14.026425120768003 0.9897933206359992 0 0 0
2024 2 16.196320638485496 14.805670960810005 0 0 0 0
2028 2 18.895707411566498 14.805670960810005 0 0 0 0
2030 1 20.245400798107504 14.026425120768003 0.9897933206359992 0 0 0
2032 2 21.5950941846475 14.805670960810005 0 0 0 0
2034 1 22.944787571188492 14.026425120768003 0.9897933206359992 0 0 0
2036 2 24.294480957728503 14.805670960810005 0 0 0 0
2038 1 25.644174344269494 14.026425120768003 0.9897933206359992 0 0 0
2040 2 26.993867730809505 14.805670960810005 0 0 0 0
2042 1 28.343561117350497 14.026425120768003 0.9897933206359992 0 0 0
2044 2 29.693254503890493 14.805670960810005 0 0 0 0
2046 1 31.0429478904315 14.026425120768003 0.9897933206359992 0 0 0
2050 1 33.7423346635125 14.026425120768003 0.9897933206359992 0 0 0
2048 2 32.392641276971496 14.805670960810005 0 0 0 0
2052 2 35.0920280500525 14.805670960810005 0 0 0 0
2054 1 36.441721436593504 14.026425120768003 0.9897933206359992 0 0 0
2056 2 37.7914148231335 14.805670960810005 0 0 0 0
2058 1 39.14110820967449 14.026425120768003 0.9897933206359992 0 0 0
2060 2 40.4908015962145 14.805670960810005 0 0 0 0
2062 1 41.840494982755494 14.026425120768003 0.9897933206359992 0 0 0
2064 2 43.190188369295505 14.805670960810005 0 0 0 0
2066 1 44.5398817558365 14.026425120768003 0.9897933206359992 0 0 0
2068 2 45.88957514237649 14.805670960810005 0 0 0 0
2070 1 47.2392685289175 14.026425120768003 0.9897933206359992 0 0 0
2072 2 48.588961915457496 14.805670960810005 0 0 0 0
1926 1 49.9386553019985 14.026425120768003 0.9897933206359992 -1 0 0
1928 2 51.2883486885385 14.805670960810005 0 -1 0 0
1930 1 52.638042075079504 14.026425120768003 0.9897933206359992 -1 0 0
1932 2 53.9877354616195 14.805670960810005 0 -1 0 0
1934 1 55.3374288481605 14.026425120768003 0.9897933206359992 -1 0 0
1936 2 56.6871222347005 14.805670960810005 0 -1 0 0
1938 1 58.0368156212415 14.026425120768003 0.9897933206359992 -1 0 0
1940 2 59.3865090077815 14.805670960810005 0 -1 0 0
1942 1 60.736202394322504 14.026425120768003 0.9897933206359992 -1 0 0
1944 2 62.0858957808625 14.805670960810005 0 -1 0 0
1946 1 63.4355891674035 14.026425120768003 0.9897933206359992 -1 0 0
1948 2 64.7852825539435 14.805670960810005 0 -1 0 0
1950 1 66.13497594048451 14.026425120768003 0.9897933206359992 -1 0 0
1952 2 67.4846693270245 14.805670960810005 0 -1 0 0
1954 1 68.8343627135655 14.026425120768003 0.9897933206359992 -1 0 0
1956 2 70.1840561001055 14.805670960810005 0 -1 0 0
1958 1 71.5337494866465 14.026425120768003 0.9897933206359992 -1 0 0
1960 2 72.88344287318651 14.805670960810005 0 -1 0 0
1962 1 74.2331362597275 14.026425120768003 0.9897933206359992 -1 0 0
1964 2 75.5828296462675 14.805670960810005 0 -1 0 0
1966 1 76.9325230328085 14.026425120768003 0.9897933206359992 -1 0 0
1968 2 78.2822164193485 14.805670960810005 0 -1 0 0
1970 1 79.6319098058895 14.026425120768003 0.9897933206359992 -1 0 0
1972 2 80.9816031924295 14.805670960810005 0 -1 0 0
1974 1 82.3312965789705 14.026425120768003 0.9897933206359992 -1 0 0
1976 2 83.68098996551049 14.805670960810005 0 -1 0 0