LAMMPS data file via write_data, version 29 Aug 2024, timestep = 2, units = metal

8640 atoms
24 atom types

0 102.02838593166 xlo xhi
0 98.17686013772 ylo yhi
-50 50 zlo zhi

Masses

1 183.84
2 183.84
3 183.84
4 183.84
5 183.84
6 183.84
7 183.84
8 183.84
9 15.999
10 15.999
11 15.999
12 15.999
13 15.999
14 15.999
15 15.999
16 15.999
17 15.999
18 15.999
19 15.999
20 15.999
21 15.999
22 15.999
23 15.999
24 15.999

Atoms # atomic

2271 10 1.4170609157172493 0.8181405011478986 0.009400072889892523 0 0 0
2275 3 2.834121831434792 2.0002457597404478e-13 1.2372628162320425 0 0 0
2277 14 4.251182747152249 0.8181405011478984 0.009400072889892848 0 0 0
2272 2 1.4170609157175524 2.454421503443204 1.2372628162320425 0 0 0
2278 4 4.251182747152554 2.4544215034432044 1.2372628162320423 0 0 0
2274 12 8.073426473981494e-14 3.2725620045909003 0.009400072889892917 0 0 0
2280 16 2.834121831435081 3.2725620045909003 0.009400072889892606 0 0 0
2487 10 1.4170609157172493 5.726983508033901 0.009400072889892773 0 0 0
2491 3 2.834121831434792 4.9088430068862055 1.2372628162320425 0 0 0
2493 14 4.251182747152249 5.726983508033901 0.009400072889892872 0 0 0
2270 9 1.4170609157172491 0.8181405011478986 2.4651416719630013 0 0 0
2276 13 4.251182747152249 0.8181405011478984 2.465141671963001 0 0 0
2273 11 8.022577806261793e-14 3.2725620045909 2.4651416719630004 0 0 0
2279 15 2.834121831435081 3.2725620045909007 2.4651416719630013 0 0 0
2486 9 1.4170609157172493 5.726983508033902 2.4651416719630013 0 0 0
2492 13 4.251182747152249 5.726983508033901 2.4651416719630013 0 0 0
2281 1 5.668243662869792 2.000346996711422e-13 1.2372628162320425 0 0 0
2497 1 5.668243662869793 4.9088430068862055 1.2372628162320425 0 0 0
2283 10 7.085304578587249 0.8181405011478986 0.009400072889892586 0 0 0
2287 3 8.502365494304792 1.999493252789852e-13 1.2372628162320425 0 0 0
2289 14 9.919426410022249 0.8181405011478987 0.009400072889892648 0 0 0
2284 2 7.085304578587555 2.454421503443204 1.2372628162320423 0 0 0
2290 4 9.919426410022552 2.454421503443204 1.2372628162320423 0 0 0
2286 12 5.668243662870084 3.2725620045909003 0.009400072889892676 0 0 0
2292 16 8.502365494305083 3.2725620045909003 0.009400072889892707 0 0 0
2499 10 7.085304578587249 5.726983508033901 0.009400072889892773 0 0 0
2503 3 8.502365494304792 4.9088430068862055 1.2372628162320425 0 0 0
2505 14 9.919426410022249 5.726983508033902 0.009400072889892676 0 0 0
2282 9 7.085304578587249 0.8181405011478987 2.4651416719630013 0 0 0
2288 13 9.919426410022249 0.8181405011478988 2.4651416719630013 0 0 0
2285 11 5.668243662870084 3.2725620045909003 2.4651416719630013 0 0 0
2291 15 8.502365494305083 3.2725620045909007 2.4651416719630013 0 0 0
2498 9 7.085304578587249 5.726983508033902 2.4651416719630013 0 0 0
2504 13 9.919426410022249 5.726983508033902 2.4651416719630013 0 0 0
2293 1 11.336487325739792 2.006311693368956e-13 1.2372628162320425 0 0 0
2509 1 11.336487325739792 4.9088430068862055 1.2372628162320423 0 0 0
2295 10 12.75354824145725 0.8181405011478987 0.009400072889892565 0 0 0
2299 3 14.170609157174793 1.99945267274641e-13 1.2372628162320425 0 0 0
2301 14 15.58767007289225 0.8181405011478985 0.009400072889892707 0 0 0
2296 2 12.753548241457553 2.454421503443204 1.2372628162320423 0 0 0
2302 4 15.587670072892552 2.4544215034432044 1.2372628162320423 0 0 0
2298 12 11.336487325740082 3.2725620045909003 0.009400072889892816 0 0 0
2304 16 14.17060915717508 3.2725620045909003 0.00940007288989276 0 0 0
2511 10 12.75354824145725 5.726983508033902 0.009400072889892605 0 0 0
2515 3 14.170609157174793 4.9088430068862055 1.2372628162320425 0 0 0
2517 14 15.58767007289225 5.726983508033901 0.009400072889892877 0 0 0
2294 9 12.75354824145725 0.8181405011478987 2.4651416719630013 0 0 0
2300 13 15.58767007289225 0.8181405011478986 2.4651416719630013 0 0 0
2297 11 11.336487325740082 3.2725620045909003 2.4651416719630013 0 0 0
2303 15 14.17060915717508 3.2725620045909003 2.4651416719630013 0 0 0
2510 9 12.75354824145725 5.726983508033902 2.4651416719630013 0 0 0
2516 13 15.58767007289225 5.726983508033902 2.4651416719630013 0 0 0
2305 1 17.00473098860979 2.0006456491579137e-13 1.2372628162320427 0 0 0
2521 1 17.00473098860979 4.9088430068862055 1.2372628162320425 0 0 0
2307 10 18.421791904327247 0.8181405011478986 0.009400072889892598 0 0 0
2313 14 21.255913735762245 0.8181405011478986 0.00940007288989241 0 0 0
2311 3 19.83885282004479 2.000140174761811e-13 1.2372628162320425 0 0 0
2317 1 22.67297465147979 2.006935923968557e-13 1.2372628162320427 0 0 0
2308 2 18.421791904327552 2.454421503443204 1.2372628162320423 0 0 0
2314 4 21.25591373576255 2.454421503443204 1.2372628162320423 0 0 0
2310 12 17.00473098861008 3.2725620045909003 0.00940007288989291 0 0 0
2316 16 19.83885282004508 3.2725620045909003 0.009400072889892771 0 0 0
2523 10 18.421791904327247 5.726983508033901 0.009400072889892759 0 0 0
2529 14 21.255913735762245 5.726983508033901 0.009400072889892658 0 0 0
2527 3 19.83885282004479 4.9088430068862055 1.2372628162320425 0 0 0
2533 1 22.67297465147979 4.9088430068862055 1.2372628162320425 0 0 0
2306 9 18.421791904327247 0.8181405011478987 2.4651416719630013 0 0 0
2312 13 21.255913735762245 0.8181405011478986 2.4651416719630013 0 0 0
2309 11 17.00473098861008 3.2725620045909003 2.4651416719630013 0 0 0
2315 15 19.83885282004508 3.2725620045909003 2.4651416719630013 0 0 0
2522 9 18.421791904327247 5.726983508033902 2.4651416719630013 0 0 0
2528 13 21.255913735762245 5.726983508033902 2.4651416719630013 0 0 0
2322 12 22.67297465148008 3.2725620045909003 0.009400072889892861 0 0 0
2321 11 22.67297465148008 3.2725620045909003 2.465141671963001 0 0 0
2319 10 24.090035567197248 0.8181405011478985 0.00940007288989236 0 0 0
2323 3 25.50709648291479 2.0017576644109886e-13 1.2372628162320427 0 0 0
2325 14 26.924157398632246 0.8181405011478986 0.009400072889892586 0 0 0
2329 1 28.34121831434979 1.9989361300834003e-13 1.2372628162320427 0 0 0
2320 2 24.09003556719755 2.454421503443204 1.2372628162320425 0 0 0
2326 4 26.924157398632552 2.454421503443204 1.2372628162320423 0 0 0
2328 16 25.50709648291508 3.2725620045909003 0.009400072889892981 0 0 0
2535 10 24.090035567197248 5.726983508033901 0.009400072889892613 0 0 0
2539 3 25.50709648291479 4.9088430068862055 1.2372628162320427 0 0 0
2541 14 26.924157398632246 5.726983508033901 0.009400072889892688 0 0 0
2545 1 28.34121831434979 4.9088430068862055 1.2372628162320425 0 0 0
2318 9 24.090035567197248 0.8181405011478985 2.4651416719630013 0 0 0
2324 13 26.924157398632246 0.8181405011478986 2.4651416719630013 0 0 0
2327 15 25.50709648291508 3.2725620045909003 2.465141671963001 0 0 0
2534 9 24.090035567197248 5.726983508033902 2.4651416719630013 0 0 0
2540 13 26.924157398632246 5.726983508033902 2.4651416719630013 0 0 0
2334 12 28.34121831435008 3.2725620045909003 0.009400072889892596 0 0 0
2333 11 28.34121831435008 3.2725620045909007 2.4651416719630013 0 0 0
2331 10 29.758279230067245 0.818140501147898 0.00940007288989304 0 0 0
2335 3 31.17534014578479 1.9957630012833084e-13 1.2372628162320427 0 0 0
2337 14 32.592401061502244 0.8181405011478987 0.009400072889892766 0 0 0
2332 2 29.758279230067554 2.454421503443205 1.2372628162320423 0 0 0
2338 4 32.59240106150256 2.454421503443204 1.2372628162320423 0 0 0
2340 16 31.175340145785086 3.2725620045909007 0.009400072889892407 0 0 0
2547 10 29.758279230067245 5.726983508033901 0.009400072889892981 0 0 0
2551 3 31.17534014578479 4.908843006886205 1.2372628162320423 0 0 0
2553 14 32.592401061502244 5.726983508033902 0.009400072889892752 0 0 0
2330 9 29.758279230067245 0.818140501147898 2.465141671963001 0 0 0
2336 13 32.592401061502244 0.8181405011478988 2.4651416719630013 0 0 0
2339 15 31.175340145785086 3.2725620045909007 2.4651416719630013 0 0 0
2546 9 29.758279230067245 5.726983508033901 2.465141671963001 0 0 0
2552 13 32.592401061502244 5.726983508033902 2.465141671963001 0 0 0
2341 1 34.00946197721979 2.0186093627284095e-13 1.2372628162320427 0 0 0
2557 1 34.00946197721979 4.908843006886206 1.2372628162320423 0 0 0
2343 10 35.42652289293726 0.818140501147899 0.009400072889892452 0 0 0
2347 3 36.8435838086548 2.0008882200313414e-13 1.2372628162320427 0 0 0
2349 14 38.260644724372256 0.8181405011478986 0.009400072889892551 0 0 0
2344 2 35.426522892937555 2.454421503443204 1.2372628162320423 0 0 0
2350 4 38.260644724372554 2.454421503443204 1.2372628162320425 0 0 0
2346 12 34.009461977220084 3.2725620045909 0.009400072889892957 0 0 0
2352 16 36.84358380865508 3.2725620045909003 0.009400072889892749 0 0 0
2559 10 35.42652289293726 5.726983508033902 0.009400072889892296 0 0 0
2563 3 36.8435838086548 4.9088430068862055 1.2372628162320425 0 0 0
2565 14 38.260644724372256 5.726983508033901 0.009400072889892643 0 0 0
2342 9 35.42652289293726 0.818140501147899 2.4651416719630017 0 0 0
2348 13 38.260644724372256 0.8181405011478986 2.4651416719630013 0 0 0
2345 11 34.009461977220084 3.2725620045909 2.465141671963001 0 0 0
2351 15 36.84358380865508 3.2725620045909003 2.4651416719630013 0 0 0
2558 9 35.42652289293726 5.726983508033902 2.4651416719630013 0 0 0
2564 13 38.260644724372256 5.726983508033902 2.4651416719630013 0 0 0
2353 1 39.6777056400898 2.000220993828486e-13 1.2372628162320427 0 0 0
2569 1 39.6777056400898 4.9088430068862055 1.2372628162320427 0 0 0
2355 10 41.094766555807254 0.8181405011478986 0.009400072889892544 0 0 0
2359 3 42.511827471524796 2.000220993828486e-13 1.2372628162320427 0 0 0
2361 14 43.92888838724225 0.8181405011478986 0.009400072889892542 0 0 0
2356 2 41.09476655580755 2.454421503443204 1.2372628162320425 0 0 0
2362 4 43.92888838724255 2.454421503443204 1.2372628162320425 0 0 0
2358 12 39.67770564009008 3.2725620045909003 0.009400072889892757 0 0 0
2364 16 42.51182747152508 3.2725620045909003 0.009400072889892757 0 0 0
2571 10 41.094766555807254 5.726983508033901 0.009400072889892629 0 0 0
2575 3 42.511827471524796 4.9088430068862055 1.2372628162320427 0 0 0
2577 14 43.92888838724225 5.726983508033901 0.009400072889892629 0 0 0
2354 9 41.094766555807254 0.8181405011478986 2.4651416719630013 0 0 0
2360 13 43.92888838724225 0.8181405011478986 2.4651416719630013 0 0 0
2357 11 39.67770564009008 3.2725620045909003 2.4651416719630013 0 0 0
2363 15 42.51182747152508 3.2725620045909003 2.4651416719630013 0 0 0
2570 9 41.094766555807254 5.726983508033902 2.4651416719630013 0 0 0
2576 13 43.92888838724225 5.726983508033902 2.4651416719630013 0 0 0
2365 1 45.345949302959795 2.0002008032709927e-13 1.2372628162320427 0 0 0
2581 1 45.345949302959795 4.9088430068862055 1.2372628162320427 0 0 0
2367 10 46.76301021867725 0.8181405011478986 0.009400072889892544 0 0 0
2371 3 48.180071134394794 2.000210884340564e-13 1.2372628162320427 0 0 0
2373 14 49.59713205011225 0.8181405011478986 0.009400072889892544 0 0 0
2368 2 46.76301021867755 2.454421503443204 1.2372628162320425 0 0 0
2374 4 49.59713205011255 2.454421503443204 1.2372628162320425 0 0 0
2370 12 45.34594930296008 3.2725620045909003 0.009400072889892757 0 0 0
2376 16 48.18007113439508 3.2725620045909003 0.009400072889892757 0 0 0
2583 10 46.76301021867725 5.726983508033901 0.009400072889892629 0 0 0
2587 3 48.180071134394794 4.9088430068862055 1.2372628162320427 0 0 0
2589 14 49.59713205011225 5.726983508033901 0.009400072889892629 0 0 0
2366 9 46.76301021867725 0.8181405011478986 2.4651416719630013 0 0 0
2372 13 49.59713205011225 0.8181405011478986 2.4651416719630013 0 0 0
2369 11 45.34594930296008 3.2725620045909003 2.4651416719630013 0 0 0
2375 15 48.18007113439508 3.2725620045909003 2.4651416719630013 0 0 0
2582 9 46.76301021867725 5.726983508033902 2.4651416719630013 0 0 0
2588 13 49.59713205011225 5.726983508033902 2.4651416719630013 0 0 0
2161 1 51.01419296582979 2.000210884340564e-13 1.2372628162320427 -1 0 0
2377 1 51.01419296582979 4.9088430068862055 1.2372628162320427 -1 0 0
2163 10 52.43125388154725 0.8181405011478986 0.00940007288989256 -1 0 0
2167 3 53.84831479726479 2.0021529216372847e-13 1.2372628162320427 -1 0 0
2169 14 55.26537571298225 0.8181405011478985 0.009400072889892409 -1 0 0
2164 2 52.43125388154755 2.454421503443204 1.2372628162320425 -1 0 0
2170 4 55.265375712982554 2.4544215034432044 1.2372628162320425 -1 0 0
2166 12 51.01419296583008 3.2725620045909003 0.009400072889892743 -1 0 0
2172 16 53.848314797265076 3.2725620045909003 0.009400072889892662 -1 0 0
2379 10 52.43125388154725 5.726983508033901 0.009400072889892645 -1 0 0
2383 3 53.84831479726479 4.9088430068862055 1.2372628162320427 -1 0 0
2385 14 55.26537571298225 5.726983508033901 0.00940007288989252 -1 0 0
2162 9 52.43125388154725 0.8181405011478986 2.4651416719630013 -1 0 0
2168 13 55.26537571298225 0.8181405011478985 2.4651416719630013 -1 0 0
2165 11 51.01419296583008 3.2725620045909003 2.4651416719630013 -1 0 0
2171 15 53.848314797265076 3.2725620045909003 2.4651416719630013 -1 0 0
2378 9 52.43125388154725 5.726983508033902 2.4651416719630013 -1 0 0
2384 13 55.26537571298225 5.726983508033902 2.4651416719630013 -1 0 0
2173 1 56.68243662869979 1.9976173212990652e-13 1.2372628162320427 -1 0 0
2389 1 56.68243662869979 4.908843006886205 1.2372628162320425 -1 0 0
2175 10 58.09949754441725 0.8181405011478983 0.009400072889893168 -1 0 0
2179 3 59.51655846013479 2.0011153177934982e-13 1.2372628162320425 -1 0 0
2181 14 60.933619375852246 0.8181405011478987 0.00940007288989253 -1 0 0
2176 2 58.09949754441755 2.454421503443204 1.2372628162320423 -1 0 0
2182 4 60.93361937585255 2.454421503443204 1.2372628162320425 -1 0 0
2178 12 56.68243662870008 3.2725620045909007 0.009400072889892423 -1 0 0
2184 16 59.51655846013508 3.2725620045909003 0.009400072889893047 -1 0 0
2391 10 58.09949754441725 5.726983508033901 0.009400072889893184 -1 0 0
2395 3 59.51655846013479 4.9088430068862055 1.2372628162320423 -1 0 0
2397 14 60.933619375852246 5.726983508033902 0.009400072889892499 -1 0 0
2174 9 58.09949754441725 0.8181405011478983 2.4651416719630004 -1 0 0
2180 13 60.933619375852246 0.8181405011478988 2.4651416719630013 -1 0 0
2177 11 56.68243662870008 3.2725620045909007 2.4651416719630013 -1 0 0
2183 15 59.51655846013508 3.2725620045909003 2.465141671963001 -1 0 0
2390 9 58.09949754441725 5.726983508033901 2.465141671963001 -1 0 0
2396 13 60.933619375852246 5.726983508033902 2.4651416719630013 -1 0 0
2185 1 62.350680291569795 2.0073529706249275e-13 1.2372628162320425 -1 0 0
2401 1 62.350680291569795 4.9088430068862055 1.2372628162320423 -1 0 0
2187 10 63.76774120728725 0.8181405011478985 0.009400072889892887 -1 0 0
2191 3 65.1848021230048 1.9954290965534333e-13 1.2372628162320425 -1 0 0
2193 14 66.60186303872226 0.8181405011478986 0.009400072889892603 -1 0 0
2188 2 63.76774120728755 2.4544215034432044 1.2372628162320425 -1 0 0
2194 4 66.60186303872254 2.454421503443204 1.2372628162320425 -1 0 0
2190 12 62.35068029157008 3.2725620045909003 0.009400072889892568 -1 0 0
2196 16 65.18480212300508 3.2725620045909007 0.009400072889892317 -1 0 0
2403 10 63.76774120728725 5.726983508033902 0.00940007288989283 -1 0 0
2407 3 65.1848021230048 4.908843006886205 1.2372628162320425 -1 0 0
2409 14 66.60186303872226 5.726983508033901 0.009400072889892771 -1 0 0
2186 9 63.76774120728725 0.8181405011478986 2.465141671963001 -1 0 0
2192 13 66.60186303872226 0.8181405011478987 2.4651416719630013 -1 0 0
2189 11 62.35068029157008 3.2725620045909003 2.4651416719630013 -1 0 0
2195 15 65.18480212300508 3.2725620045909007 2.4651416719630017 -1 0 0
2402 9 63.76774120728725 5.726983508033902 2.465141671963001 -1 0 0
2408 13 66.60186303872226 5.726983508033902 2.4651416719630013 -1 0 0
2197 1 68.0189239544398 2.0003018981502132e-13 1.2372628162320425 -1 0 0
2413 1 68.0189239544398 4.9088430068862055 1.2372628162320425 -1 0 0
2199 10 69.43598487015726 0.8181405011478986 0.009400072889892598 -1 0 0
2203 3 70.8530457858748 2.0003119792197846e-13 1.2372628162320425 -1 0 0
2205 14 72.27010670159225 0.8181405011478986 0.009400072889892598 -1 0 0
2200 2 69.43598487015754 2.454421503443204 1.2372628162320425 -1 0 0
2206 4 72.27010670159254 2.454421503443204 1.2372628162320425 -1 0 0
2202 12 68.01892395444007 3.2725620045909003 0.009400072889892747 -1 0 0
2208 16 70.85304578587507 3.2725620045909003 0.009400072889892747 -1 0 0
2415 10 69.43598487015726 5.726983508033901 0.009400072889892759 -1 0 0
2419 3 70.8530457858748 4.9088430068862055 1.2372628162320425 -1 0 0
2421 14 72.27010670159225 5.726983508033901 0.009400072889892759 -1 0 0
2198 9 69.43598487015726 0.8181405011478987 2.4651416719630013 -1 0 0
2204 13 72.27010670159225 0.8181405011478987 2.4651416719630013 -1 0 0
2201 11 68.01892395444007 3.2725620045909003 2.4651416719630013 -1 0 0
2207 15 70.85304578587507 3.2725620045909003 2.4651416719630013 -1 0 0
2414 9 69.43598487015726 5.726983508033902 2.4651416719630013 -1 0 0
2420 13 72.27010670159225 5.726983508033902 2.4651416719630013 -1 0 0
2209 1 73.6871676173098 2.0003018981502132e-13 1.2372628162320425 -1 0 0
2425 1 73.6871676173098 4.9088430068862055 1.2372628162320425 -1 0 0
2211 10 75.10422853302725 0.8181405011478986 0.009400072889892598 -1 0 0
2215 3 76.5212894487448 2.0003119792197846e-13 1.2372628162320425 -1 0 0
2217 14 77.93835036446225 0.8181405011478986 0.009400072889892598 -1 0 0
2212 2 75.10422853302754 2.454421503443204 1.2372628162320425 -1 0 0
2218 4 77.93835036446254 2.454421503443204 1.2372628162320425 -1 0 0
2214 12 73.68716761731007 3.2725620045909003 0.009400072889892747 -1 0 0
2220 16 76.52128944874507 3.2725620045909003 0.009400072889892747 -1 0 0
2427 10 75.10422853302725 5.726983508033901 0.009400072889892759 -1 0 0
2431 3 76.5212894487448 4.9088430068862055 1.2372628162320425 -1 0 0
2433 14 77.93835036446225 5.726983508033901 0.009400072889892759 -1 0 0
2210 9 75.10422853302725 0.8181405011478987 2.4651416719630013 -1 0 0
2216 13 77.93835036446225 0.8181405011478987 2.4651416719630013 -1 0 0
2213 11 73.68716761731007 3.2725620045909003 2.4651416719630013 -1 0 0
2219 15 76.52128944874507 3.2725620045909003 2.4651416719630013 -1 0 0
2426 9 75.10422853302725 5.726983508033902 2.4651416719630013 -1 0 0
2432 13 77.93835036446225 5.726983508033902 2.4651416719630013 -1 0 0
2221 1 79.3554112801798 2.0003018981502132e-13 1.2372628162320425 -1 0 0
2437 1 79.3554112801798 4.9088430068862055 1.2372628162320425 -1 0 0
2223 10 80.77247219589725 0.8181405011478986 0.009400072889892598 -1 0 0
2227 3 82.1895331116148 2.0001603369009538e-13 1.2372628162320427 -1 0 0
2229 14 83.60659402733225 0.8181405011478986 0.009400072889892476 -1 0 0
2233 1 85.02365494304979 2.010848324212742e-13 1.2372628162320425 -1 0 0
2224 2 80.77247219589754 2.454421503443204 1.2372628162320425 -1 0 0
2230 4 83.60659402733255 2.4544215034432035 1.2372628162320425 -1 0 0
2226 12 79.35541128018006 3.2725620045909003 0.009400072889892747 -1 0 0
2232 16 82.18953311161506 3.2725620045909003 0.009400072889892723 -1 0 0
2439 10 80.77247219589725 5.726983508033901 0.009400072889892759 -1 0 0
2443 3 82.1895331116148 4.9088430068862055 1.2372628162320425 -1 0 0
2445 14 83.60659402733225 5.726983508033901 0.009400072889892724 -1 0 0
2449 1 85.02365494304979 4.908843006886206 1.2372628162320425 -1 0 0
2222 9 80.77247219589725 0.8181405011478987 2.4651416719630013 -1 0 0
2228 13 83.60659402733225 0.8181405011478986 2.4651416719630013 -1 0 0
2225 11 79.35541128018006 3.2725620045909003 2.4651416719630013 -1 0 0
2231 15 82.18953311161506 3.2725620045909003 2.4651416719630013 -1 0 0
2438 9 80.77247219589725 5.726983508033902 2.4651416719630013 -1 0 0
2444 13 83.60659402733225 5.726983508033902 2.4651416719630013 -1 0 0
2238 12 85.02365494305008 3.2725620045909 0.009400072889893831 -1 0 0
2237 11 85.02365494305008 3.2725620045909 2.465141671963 -1 0 0
2235 10 86.44071585876725 0.8181405011478985 0.00940007288989256 -1 0 0
2239 3 87.85777677448479 2.0002210506651875e-13 1.2372628162320427 -1 0 0
2241 14 89.27483769020225 0.8181405011478986 0.009400072889892579 -1 0 0
2245 1 90.69189860591979 1.9972175171366514e-13 1.2372628162320425 -1 0 0
2236 2 86.44071585876755 2.4544215034432035 1.2372628162320425 -1 0 0
2242 4 89.27483769020255 2.454421503443204 1.2372628162320425 -1 0 0
2244 16 87.85777677448507 3.2725620045909003 0.009400072889892733 -1 0 0
2451 10 86.44071585876725 5.726983508033901 0.00940007288989271 -1 0 0
2455 3 87.85777677448479 4.9088430068862055 1.2372628162320425 -1 0 0
2457 14 89.27483769020225 5.726983508033901 0.00940007288989274 -1 0 0
2461 1 90.69189860591979 4.9088430068862055 1.2372628162320423 -1 0 0
2234 9 86.44071585876725 0.8181405011478986 2.4651416719630013 -1 0 0
2240 13 89.27483769020225 0.8181405011478987 2.4651416719630013 -1 0 0
2243 15 87.85777677448507 3.2725620045909003 2.4651416719630013 -1 0 0
2450 9 86.44071585876725 5.726983508033902 2.4651416719630013 -1 0 0
2456 13 89.27483769020225 5.726983508033902 2.4651416719630013 -1 0 0
2250 12 90.69189860592007 3.2725620045909007 0.009400072889892239 -1 0 0
2249 11 90.69189860592007 3.272562004590901 2.4651416719630013 -1 0 0
2247 10 92.10895952163725 0.818140501147898 0.009400072889892823 -1 0 0
2251 3 93.52602043735479 1.9983004827517436e-13 1.2372628162320427 -1 0 0
2253 14 94.94308135307224 0.8181405011478989 0.009400072889892289 -1 0 0
2248 2 92.10895952163754 2.4544215034432053 1.2372628162320423 -1 0 0
2254 4 94.94308135307254 2.454421503443204 1.2372628162320425 -1 0 0
2256 16 93.52602043735507 3.2725620045909007 0.00940007288989229 -1 0 0
2463 10 92.10895952163725 5.726983508033901 0.009400072889892678 -1 0 0
2467 3 93.52602043735479 4.9088430068862055 1.2372628162320423 -1 0 0
2469 14 94.94308135307224 5.726983508033902 0.009400072889892358 -1 0 0
2246 9 92.10895952163725 0.8181405011478982 2.4651416719630013 -1 0 0
2252 13 94.94308135307224 0.8181405011478989 2.4651416719630017 -1 0 0
2255 15 93.52602043735507 3.2725620045909007 2.4651416719630013 -1 0 0
2462 9 92.10895952163725 5.726983508033901 2.4651416719630013 -1 0 0
2468 13 94.94308135307224 5.726983508033902 2.4651416719630013 -1 0 0
2257 1 96.36014226878979 2.0135546187673833e-13 1.2372628162320427 -1 0 0
2473 1 96.36014226878979 4.908843006886206 1.2372628162320423 -1 0 0
2269 1 102.02838593165978 2.0078798186625487e-13 1.237262816232042 -1 0 0
2485 1 102.02838593165978 4.9088430068862055 1.237262816232042 -1 0 0
2259 10 97.77720318450724 0.8181405011478984 0.009400072889893337 -1 0 0
2263 3 99.19426410022479 1.9976835123600509e-13 1.2372628162320425 -1 0 0
2265 14 100.61132501594226 0.8181405011478985 0.009400072889892672 -1 0 0
2260 2 97.77720318450754 2.4544215034432044 1.2372628162320423 -1 0 0
2266 4 100.61132501594255 2.4544215034432035 1.237262816232043 -1 0 0
2262 12 96.36014226879007 3.2725620045909 0.009400072889892478 -1 0 0
2268 16 99.19426410022507 3.2725620045909003 0.009400072889892724 -1 0 0
2475 10 97.77720318450724 5.726983508033902 0.009400072889893177 -1 0 0
2479 3 99.19426410022479 4.908843006886205 1.2372628162320425 -1 0 0
2481 14 100.61132501594226 5.726983508033901 0.009400072889892844 -1 0 0
2258 9 97.77720318450724 0.8181405011478985 2.465141671963001 -1 0 0
2264 13 100.61132501594224 0.8181405011478988 2.4651416719630017 -1 0 0
2261 11 96.36014226879007 3.2725620045909 2.4651416719630013 -1 0 0
2267 15 99.19426410022507 3.2725620045909003 2.4651416719630013 -1 0 0
2474 9 97.77720318450724 5.726983508033902 2.4651416719630004 -1 0 0
2480 13 100.61132501594224 5.726983508033902 2.4651416719630017 -1 0 0
2488 2 1.4170609157175527 7.363264510329206 1.2372628162320423 0 0 0
2494 4 4.251182747152553 7.3632645103292065 1.2372628162320423 0 0 0
2490 12 8.073982353725453e-14 8.181405011476901 0.009400072889892964 0 0 0
2496 16 2.834121831435081 8.181405011476903 0.009400072889892688 0 0 0
2703 10 1.4170609157172491 10.635826514919899 0.009400072889892483 0 0 0
2707 3 2.834121831434792 9.817686013772205 1.2372628162320425 0 0 0
2709 14 4.251182747152249 10.635826514919899 0.009400072889892726 0 0 0
2489 11 8.022685272855371e-14 8.181405011476901 2.4651416719630004 0 0 0
2495 15 2.834121831435081 8.181405011476903 2.4651416719630013 0 0 0
2702 9 1.4170609157172493 10.635826514919899 2.4651416719630013 0 0 0
2708 13 4.251182747152249 10.635826514919899 2.4651416719630013 0 0 0
2713 1 5.668243662869792 9.817686013772205 1.2372628162320425 0 0 0
2500 2 7.085304578587555 7.3632645103292065 1.2372628162320423 0 0 0
2506 4 9.919426410022552 7.3632645103292065 1.2372628162320423 0 0 0
2502 12 5.668243662870084 8.181405011476903 0.009400072889892707 0 0 0
2508 16 8.502365494305083 8.181405011476903 0.009400072889892783 0 0 0
2715 10 7.085304578587249 10.635826514919899 0.009400072889892457 0 0 0
2719 3 8.502365494304792 9.817686013772205 1.2372628162320425 0 0 0
2721 14 9.919426410022249 10.635826514919899 0.009400072889892707 0 0 0
2501 11 5.668243662870084 8.181405011476903 2.465141671963001 0 0 0
2507 15 8.502365494305083 8.181405011476903 2.4651416719630013 0 0 0
2714 9 7.085304578587249 10.635826514919899 2.4651416719630013 0 0 0
2720 13 9.919426410022249 10.635826514919899 2.4651416719630013 0 0 0
2725 1 11.336487325739792 9.817686013772205 1.2372628162320423 0 0 0
2512 2 12.753548241457553 7.3632645103292065 1.2372628162320423 0 0 0
2518 4 15.587670072892552 7.3632645103292065 1.2372628162320423 0 0 0
2514 12 11.336487325740082 8.181405011476903 0.009400072889892835 0 0 0
2520 16 14.17060915717508 8.181405011476903 0.009400072889892842 0 0 0
2727 10 12.75354824145725 10.635826514919899 0.009400072889892655 0 0 0
2731 3 14.170609157174793 9.817686013772205 1.2372628162320427 0 0 0
2733 14 15.58767007289225 10.635826514919899 0.009400072889892572 0 0 0
2513 11 11.336487325740082 8.181405011476903 2.465141671963001 0 0 0
2519 15 14.17060915717508 8.181405011476903 2.465141671963001 0 0 0
2726 9 12.75354824145725 10.635826514919899 2.4651416719630013 0 0 0
2732 13 15.58767007289225 10.635826514919899 2.4651416719630013 0 0 0
2737 1 17.004730988609793 9.817686013772205 1.2372628162320423 0 0 0
2524 2 18.421791904327552 7.3632645103292065 1.2372628162320423 0 0 0
2530 4 21.25591373576255 7.363264510329206 1.2372628162320423 0 0 0
2526 12 17.00473098861008 8.181405011476903 0.009400072889892957 0 0 0
2532 16 19.83885282004508 8.181405011476903 0.00940007288989283 0 0 0
2739 10 18.421791904327247 10.635826514919899 0.009400072889892539 0 0 0
2745 14 21.255913735762245 10.635826514919899 0.009400072889892426 0 0 0
2743 3 19.83885282004479 9.817686013772205 1.2372628162320425 0 0 0
2749 1 22.67297465147979 9.817686013772205 1.2372628162320425 0 0 0
2525 11 17.00473098861008 8.181405011476903 2.465141671963001 0 0 0
2531 15 19.83885282004508 8.181405011476903 2.465141671963001 0 0 0
2738 9 18.421791904327247 10.635826514919899 2.4651416719630013 0 0 0
2744 13 21.255913735762245 10.635826514919899 2.4651416719630017 0 0 0
2538 12 22.67297465148008 8.181405011476901 0.009400072889892877 0 0 0
2537 11 22.67297465148008 8.181405011476901 2.465141671963001 0 0 0
2536 2 24.09003556719755 7.363264510329206 1.2372628162320423 0 0 0
2542 4 26.924157398632552 7.363264510329206 1.2372628162320423 0 0 0
2544 16 25.50709648291508 8.181405011476903 0.009400072889892806 0 0 0
2751 10 24.090035567197248 10.635826514919899 0.009400072889892372 0 0 0
2755 3 25.50709648291479 9.817686013772205 1.2372628162320425 0 0 0
2757 14 26.924157398632246 10.635826514919899 0.009400072889892544 0 0 0
2761 1 28.34121831434979 9.817686013772205 1.2372628162320425 0 0 0
2543 15 25.50709648291508 8.181405011476903 2.465141671963001 0 0 0
2750 9 24.090035567197248 10.635826514919899 2.4651416719630017 0 0 0
2756 13 26.924157398632246 10.635826514919899 2.4651416719630013 0 0 0
2550 12 28.34121831435008 8.181405011476903 0.00940007288989263 0 0 0
2549 11 28.34121831435008 8.181405011476903 2.4651416719630013 0 0 0
2548 2 29.758279230067554 7.363264510329207 1.2372628162320423 0 0 0
2554 4 32.59240106150256 7.363264510329206 1.2372628162320425 0 0 0
2556 16 31.175340145785086 8.181405011476903 0.009400072889892462 0 0 0
2763 10 29.758279230067245 10.635826514919897 0.009400072889893064 0 0 0
2767 3 31.17534014578479 9.817686013772203 1.2372628162320425 0 0 0
2769 14 32.592401061502244 10.635826514919899 0.009400072889892586 0 0 0
2555 15 31.175340145785086 8.181405011476903 2.4651416719630013 0 0 0
2762 9 29.758279230067245 10.635826514919897 2.465141671963001 0 0 0
2768 13 32.592401061502244 10.635826514919899 2.4651416719630013 0 0 0
2773 1 34.00946197721979 9.817686013772205 1.2372628162320425 0 0 0
2560 2 35.426522892937555 7.363264510329206 1.2372628162320423 0 0 0
2566 4 38.260644724372554 7.3632645103292065 1.2372628162320423 0 0 0
2562 12 34.009461977220084 8.181405011476901 0.009400072889893031 0 0 0
2568 16 36.84358380865508 8.181405011476903 0.009400072889892808 0 0 0
2775 10 35.42652289293726 10.635826514919899 0.009400072889892135 0 0 0
2779 3 36.8435838086548 9.817686013772205 1.2372628162320425 0 0 0
2781 14 38.260644724372256 10.635826514919899 0.009400072889892475 0 0 0
2561 11 34.009461977220084 8.181405011476901 2.465141671963001 0 0 0
2567 15 36.84358380865508 8.181405011476903 2.465141671963001 0 0 0
2774 9 35.42652289293726 10.635826514919899 2.4651416719630017 0 0 0
2780 13 38.260644724372256 10.635826514919899 2.4651416719630013 0 0 0
2785 1 39.6777056400898 9.817686013772205 1.2372628162320427 0 0 0
2572 2 41.09476655580755 7.3632645103292065 1.2372628162320423 0 0 0
2578 4 43.92888838724255 7.3632645103292065 1.2372628162320423 0 0 0
2574 12 39.67770564009008 8.181405011476903 0.009400072889892804 0 0 0
2580 16 42.51182747152508 8.181405011476903 0.009400072889892804 0 0 0
2787 10 41.094766555807254 10.635826514919899 0.00940007288989247 0 0 0
2791 3 42.511827471524796 9.817686013772205 1.2372628162320427 0 0 0
2793 14 43.92888838724225 10.635826514919899 0.00940007288989247 0 0 0
2573 11 39.67770564009008 8.181405011476903 2.465141671963001 0 0 0
2579 15 42.51182747152508 8.181405011476903 2.465141671963001 0 0 0
2786 9 41.094766555807254 10.635826514919899 2.4651416719630013 0 0 0