LAMMPS data file via write_data, version 29 Aug 2024, timestep = 2, units = metal

12960 atoms
36 atom types

0 102.02838593166 xlo xhi
0 98.17686013772 ylo yhi
-50 50 zlo zhi

Masses

1 183.84
2 183.84
3 183.84
4 183.84
5 183.84
6 183.84
7 183.84
8 183.84
9 183.84
10 183.84
11 183.84
12 183.84
13 15.999
14 15.999
15 15.999
16 15.999
17 15.999
18 15.999
19 15.999
20 15.999
21 15.999
22 15.999
23 15.999
24 15.999
25 15.999
26 15.999
27 15.999
28 15.999
29 15.999
30 15.999
31 15.999
32 15.999
33 15.999
34 15.999
35 15.999
36 15.999

Atoms # atomic

2271 14 1.4170609157172493 0.8181405011478985 0.009398815939244017 0 0 0
2275 3 2.834121831434792 2.0016808073374766e-13 1.2372645771210222 0 0 0
2277 18 4.251182747152249 0.8181405011478983 0.009398815939244265 0 0 0
2272 2 1.4170609157175524 2.454421503443204 1.2372645771210222 0 0 0
2278 4 4.251182747152554 2.4544215034432044 1.2372645771210222 0 0 0
2274 16 8.082636272125162e-14 3.2725620045909 0.00939881593924434 0 0 0
2280 20 2.8341218314350813 3.2725620045909003 0.009398815939243962 0 0 0
2487 14 1.4170609157172493 5.726983508033902 0.009398815939244 0 0 0
2491 3 2.834121831434792 4.9088430068862055 1.2372645771210222 0 0 0
2493 18 4.251182747152249 5.726983508033901 0.009398815939244074 0 0 0
2270 13 1.4170609157172493 0.8181405011478985 2.4651464153745484 0 0 0
2276 17 4.251182747152249 0.8181405011478984 2.465146415374548 0 0 0
2273 15 8.039862026835714e-14 3.2725620045909003 2.465146415374548 0 0 0
2279 19 2.8341218314350813 3.2725620045909003 2.4651464153745484 0 0 0
2486 13 1.4170609157172493 5.726983508033902 2.4651464153745484 0 0 0
2492 17 4.251182747152249 5.726983508033901 2.4651464153745484 0 0 0
2281 1 5.668243662869792 2.0004281264086583e-13 1.2372645771210224 0 0 0
2497 1 5.668243662869792 4.9088430068862055 1.2372645771210222 0 0 0
2283 14 7.085304578587249 0.8181405011478986 0.009398815939244014 0 0 0
2287 3 8.502365494304792 2.0020909107026318e-13 1.2372645771210224 0 0 0
2289 18 9.919426410022249 0.8181405011478987 0.009398815939244017 0 0 0
2284 2 7.085304578587555 2.454421503443204 1.237264577121022 0 0 0
2290 4 9.919426410022552 2.454421503443204 1.2372645771210222 0 0 0
2286 16 5.668243662870084 3.2725620045909003 0.009398815939243918 0 0 0
2292 20 8.502365494305083 3.2725620045909003 0.009398815939243991 0 0 0
2499 14 7.085304578587249 5.726983508033902 0.009398815939243922 0 0 0
2503 3 8.502365494304792 4.9088430068862055 1.237264577121022 0 0 0
2505 18 9.919426410022249 5.726983508033902 0.009398815939244024 0 0 0
2282 13 7.085304578587249 0.8181405011478987 2.4651464153745484 0 0 0
2288 17 9.919426410022249 0.8181405011478988 2.4651464153745484 0 0 0
2285 15 5.668243662870084 3.2725620045909003 2.4651464153745484 0 0 0
2291 19 8.502365494305083 3.2725620045909003 2.4651464153745484 0 0 0
2498 13 7.085304578587249 5.726983508033902 2.4651464153745484 0 0 0
2504 17 9.919426410022249 5.726983508033902 2.4651464153745484 0 0 0
2293 1 11.336487325739792 2.0041777912919383e-13 1.2372645771210222 0 0 0
2509 1 11.336487325739792 4.9088430068862055 1.2372645771210222 0 0 0
2295 14 12.75354824145725 0.8181405011478987 0.009398815939244142 0 0 0
2299 3 14.170609157174793 2.0008682731118832e-13 1.2372645771210224 0 0 0
2301 18 15.58767007289225 0.8181405011478986 0.00939881593924395 0 0 0
2296 2 12.753548241457553 2.4544215034432044 1.237264577121022 0 0 0
2302 4 15.587670072892552 2.454421503443204 1.2372645771210222 0 0 0
2298 16 11.336487325740082 3.2725620045909003 0.009398815939243995 0 0 0
2304 20 14.17060915717508 3.2725620045909003 0.009398815939243936 0 0 0
2511 14 12.75354824145725 5.726983508033902 0.009398815939244146 0 0 0
2515 3 14.170609157174793 4.9088430068862055 1.2372645771210222 0 0 0
2517 18 15.58767007289225 5.726983508033902 0.009398815939243934 0 0 0
2294 13 12.75354824145725 0.8181405011478987 2.4651464153745484 0 0 0
2300 17 15.58767007289225 0.8181405011478986 2.4651464153745484 0 0 0
2297 15 11.336487325740082 3.2725620045909007 2.4651464153745484 0 0 0
2303 19 14.17060915717508 3.2725620045909003 2.4651464153745484 0 0 0
2510 13 12.75354824145725 5.726983508033902 2.4651464153745484 0 0 0
2516 17 15.58767007289225 5.726983508033902 2.4651464153745484 0 0 0
2305 1 17.00473098860979 2.0025252743557823e-13 1.2372645771210224 0 0 0
2521 1 17.00473098860979 4.9088430068862055 1.2372645771210222 0 0 0
2307 14 18.421791904327247 0.8181405011478986 0.009398815939243976 0 0 0
2313 18 21.255913735762245 0.8181405011478986 0.00939881593924385 0 0 0
2311 3 19.83885282004479 2.0015856636524365e-13 1.2372645771210224 0 0 0
2317 1 22.67297465147979 2.0081055907389896e-13 1.2372645771210222 0 0 0
2308 2 18.421791904327552 2.454421503443204 1.237264577121022 0 0 0
2314 4 21.25591373576255 2.454421503443204 1.237264577121022 0 0 0
2310 16 17.00473098861008 3.2725620045909003 0.009398815939243967 0 0 0
2316 20 19.83885282004508 3.2725620045909003 0.009398815939243929 0 0 0
2523 14 18.421791904327247 5.726983508033902 0.00939881593924396 0 0 0
2529 18 21.255913735762245 5.726983508033902 0.009398815939243861 0 0 0
2527 3 19.83885282004479 4.9088430068862055 1.2372645771210222 0 0 0
2533 1 22.67297465147979 4.9088430068862055 1.2372645771210222 0 0 0
2306 13 18.421791904327247 0.8181405011478987 2.4651464153745484 0 0 0
2312 17 21.255913735762245 0.8181405011478987 2.4651464153745484 0 0 0
2309 15 17.00473098861008 3.2725620045909003 2.4651464153745484 0 0 0
2315 19 19.83885282004508 3.2725620045909003 2.4651464153745484 0 0 0
2522 13 18.421791904327247 5.726983508033902 2.4651464153745484 0 0 0
2528 17 21.255913735762245 5.726983508033902 2.4651464153745484 0 0 0
2322 16 22.67297465148008 3.2725620045909003 0.009398815939244276 0 0 0
2321 15 22.67297465148008 3.2725620045909003 2.4651464153745484 0 0 0
2319 14 24.090035567197248 0.8181405011478985 0.009398815939243858 0 0 0
2323 3 25.50709648291479 2.0031819648455731e-13 1.2372645771210222 0 0 0
2325 18 26.924157398632246 0.8181405011478986 0.009398815939244005 0 0 0
2329 1 28.34121831434979 1.9987551587684029e-13 1.2372645771210224 0 0 0
2320 2 24.09003556719755 2.454421503443204 1.2372645771210222 0 0 0
2326 4 26.924157398632552 2.454421503443204 1.2372645771210222 0 0 0
2328 20 25.50709648291508 3.2725620045909003 0.00939881593924408 0 0 0
2535 14 24.090035567197248 5.726983508033902 0.009398815939243705 0 0 0
2539 3 25.50709648291479 4.9088430068862055 1.2372645771210222 0 0 0
2541 18 26.924157398632246 5.726983508033902 0.009398815939243948 0 0 0
2545 1 28.34121831434979 4.9088430068862055 1.237264577121022 0 0 0
2318 13 24.090035567197248 0.8181405011478986 2.4651464153745484 0 0 0
2324 17 26.924157398632246 0.8181405011478987 2.4651464153745484 0 0 0
2327 19 25.50709648291508 3.2725620045909003 2.4651464153745484 0 0 0
2534 13 24.090035567197248 5.726983508033902 2.4651464153745484 0 0 0
2540 17 26.924157398632246 5.726983508033902 2.4651464153745484 0 0 0
2334 16 28.34121831435008 3.2725620045909003 0.00939881593924378 0 0 0
2333 15 28.34121831435008 3.2725620045909007 2.4651464153745484 0 0 0
2331 14 29.758279230067245 0.8181405011478979 0.009398815939244342 0 0 0
2335 3 31.17534014578479 1.9958061566390364e-13 1.2372645771210224 0 0 0
2337 18 32.592401061502244 0.8181405011478988 0.009398815939244144 0 0 0
2332 2 29.758279230067554 2.454421503443205 1.2372645771210222 0 0 0
2338 4 32.59240106150256 2.454421503443204 1.2372645771210222 0 0 0
2340 20 31.175340145785086 3.2725620045909007 0.009398815939243585 0 0 0
2547 14 29.758279230067245 5.726983508033901 0.009398815939244317 0 0 0
2551 3 31.17534014578479 4.908843006886205 1.237264577121022 0 0 0
2553 18 32.592401061502244 5.726983508033902 0.009398815939244156 0 0 0
2330 13 29.758279230067245 0.818140501147898 2.465146415374548 0 0 0
2336 17 32.592401061502244 0.8181405011478989 2.465146415374548 0 0 0
2339 19 31.175340145785086 3.2725620045909007 2.465146415374549 0 0 0
2546 13 29.758279230067245 5.726983508033901 2.465146415374548 0 0 0
2552 17 32.592401061502244 5.726983508033902 2.4651464153745484 0 0 0
2341 1 34.00946197721979 2.017812683851746e-13 1.2372645771210222 0 0 0
2557 1 34.00946197721979 4.908843006886206 1.2372645771210222 0 0 0
2343 14 35.42652289293726 0.818140501147899 0.009398815939243691 0 0 0
2347 3 36.8435838086548 2.0020604673376338e-13 1.2372645771210222 0 0 0
2349 18 38.260644724372256 0.8181405011478986 0.00939881593924404 0 0 0
2344 2 35.426522892937555 2.454421503443204 1.2372645771210222 0 0 0
2350 4 38.260644724372554 2.454421503443204 1.2372645771210222 0 0 0
2346 16 34.009461977220084 3.2725620045909 0.009398815939244165 0 0 0
2352 20 36.84358380865508 3.2725620045909003 0.009398815939243875 0 0 0
2559 14 35.42652289293726 5.726983508033902 0.009398815939243643 0 0 0
2563 3 36.8435838086548 4.9088430068862055 1.237264577121022 0 0 0
2565 18 38.260644724372256 5.726983508033902 0.009398815939243946 0 0 0
2342 13 35.42652289293726 0.818140501147899 2.465146415374549 0 0 0
2348 17 38.260644724372256 0.8181405011478987 2.4651464153745484 0 0 0
2345 15 34.009461977220084 3.2725620045908994 2.465146415374548 0 0 0
2351 19 36.84358380865508 3.2725620045909003 2.4651464153745484 0 0 0
2558 13 35.42652289293726 5.726983508033902 2.465146415374549 0 0 0
2564 17 38.260644724372256 5.726983508033902 2.4651464153745484 0 0 0
2353 1 39.6777056400898 2.0016361270199938e-13 1.2372645771210222 0 0 0
2569 1 39.6777056400898 4.9088430068862055 1.237264577121022 0 0 0
2355 14 41.094766555807254 0.8181405011478986 0.009398815939244036 0 0 0
2359 3 42.511827471524796 2.0016260236790976e-13 1.2372645771210222 0 0 0
2361 18 43.92888838724225 0.8181405011478986 0.009398815939244035 0 0 0
2356 2 41.09476655580755 2.454421503443204 1.2372645771210222 0 0 0
2362 4 43.92888838724255 2.454421503443204 1.2372645771210222 0 0 0
2358 16 39.67770564009008 3.2725620045909003 0.009398815939243868 0 0 0
2364 20 42.51182747152508 3.2725620045909003 0.009398815939243868 0 0 0
2571 14 41.094766555807254 5.726983508033902 0.009398815939243944 0 0 0
2575 3 42.511827471524796 4.9088430068862055 1.237264577121022 0 0 0
2577 18 43.92888838724225 5.726983508033902 0.009398815939243944 0 0 0
2354 13 41.094766555807254 0.8181405011478987 2.4651464153745484 0 0 0
2360 17 43.92888838724225 0.8181405011478987 2.4651464153745484 0 0 0
2357 15 39.67770564009008 3.2725620045909003 2.4651464153745484 0 0 0
2363 19 42.51182747152508 3.2725620045909003 2.4651464153745484 0 0 0
2570 13 41.094766555807254 5.726983508033902 2.4651464153745484 0 0 0
2576 17 43.92888838724225 5.726983508033902 2.4651464153745484 0 0 0
2365 1 45.345949302959795 2.0016159470066634e-13 1.2372645771210222 0 0 0
2581 1 45.345949302959795 4.9088430068862055 1.237264577121022 0 0 0
2367 14 46.76301021867725 0.8181405011478986 0.009398815939244036 0 0 0
2371 3 48.180071134394794 2.0016260236790976e-13 1.2372645771210222 0 0 0
2373 18 49.59713205011225 0.8181405011478986 0.009398815939244036 0 0 0
2368 2 46.76301021867755 2.454421503443204 1.2372645771210222 0 0 0
2374 4 49.59713205011255 2.454421503443204 1.2372645771210222 0 0 0
2370 16 45.34594930296008 3.2725620045909003 0.009398815939243868 0 0 0
2376 20 48.18007113439508 3.2725620045909003 0.009398815939243868 0 0 0
2583 14 46.76301021867725 5.726983508033902 0.009398815939243944 0 0 0
2587 3 48.180071134394794 4.9088430068862055 1.237264577121022 0 0 0
2589 18 49.59713205011225 5.726983508033902 0.009398815939243944 0 0 0
2366 13 46.76301021867725 0.8181405011478987 2.4651464153745484 0 0 0
2372 17 49.59713205011225 0.8181405011478987 2.4651464153745484 0 0 0
2369 15 45.34594930296008 3.2725620045909003 2.4651464153745484 0 0 0
2375 19 48.18007113439508 3.2725620045909003 2.4651464153745484 0 0 0
2582 13 46.76301021867725 5.726983508033902 2.4651464153745484 0 0 0
2588 17 49.59713205011225 5.726983508033902 2.4651464153745484 0 0 0
2161 1 51.01419296582979 2.0014845769065507e-13 1.2372645771210222 -1 0 0
2377 1 51.01419296582979 4.9088430068862055 1.237264577121022 -1 0 0
2163 14 52.43125388154725 0.8181405011478985 0.00939881593924398 -1 0 0
2167 3 53.84831479726479 2.0026480305427128e-13 1.2372645771210224 -1 0 0
2169 18 55.26537571298225 0.8181405011478984 0.009398815939243773 -1 0 0
2164 2 52.43125388154755 2.454421503443204 1.2372645771210222 -1 0 0
2170 4 55.265375712982554 2.4544215034432044 1.2372645771210222 -1 0 0
2166 16 51.01419296583008 3.2725620045909003 0.009398815939243856 -1 0 0
2172 20 53.848314797265076 3.2725620045909003 0.009398815939244022 -1 0 0
2379 14 52.43125388154725 5.726983508033902 0.009398815939243963 -1 0 0
2383 3 53.84831479726479 4.9088430068862055 1.237264577121022 -1 0 0
2385 18 55.26537571298225 5.726983508033902 0.009398815939243833 -1 0 0
2162 13 52.43125388154725 0.8181405011478986 2.4651464153745484 -1 0 0
2168 17 55.26537571298225 0.8181405011478984 2.4651464153745484 -1 0 0
2165 15 51.01419296583008 3.2725620045909003 2.4651464153745484 -1 0 0
2171 19 53.848314797265076 3.2725620045909003 2.4651464153745484 -1 0 0
2378 13 52.43125388154725 5.726983508033902 2.4651464153745484 -1 0 0
2384 17 55.26537571298225 5.726983508033902 2.4651464153745484 -1 0 0
2173 1 56.68243662869979 1.9980941479877902e-13 1.2372645771210224 -1 0 0
2389 1 56.68243662869979 4.908843006886205 1.2372645771210222 -1 0 0
2175 14 58.09949754441725 0.8181405011478982 0.009398815939244624 -1 0 0
2179 3 59.51655846013479 2.0008625700671945e-13 1.2372645771210222 -1 0 0
2181 18 60.933619375852246 0.8181405011478988 0.009398815939243898 -1 0 0
2176 2 58.09949754441755 2.454421503443204 1.237264577121022 -1 0 0
2182 4 60.93361937585255 2.454421503443204 1.2372645771210222 -1 0 0
2178 16 56.68243662870008 3.2725620045909003 0.009398815939243837 -1 0 0
2184 20 59.51655846013508 3.2725620045909003 0.009398815939244307 -1 0 0
2391 14 58.09949754441725 5.726983508033901 0.009398815939244524 -1 0 0
2395 3 59.51655846013479 4.9088430068862055 1.2372645771210222 -1 0 0
2397 18 60.933619375852246 5.726983508033902 0.009398815939243844 -1 0 0
2174 13 58.09949754441725 0.8181405011478983 2.4651464153745475 -1 0 0
2180 17 60.933619375852246 0.8181405011478989 2.4651464153745484 -1 0 0
2177 15 56.68243662870008 3.2725620045909007 2.4651464153745484 -1 0 0
2183 19 59.51655846013508 3.2725620045909003 2.465146415374548 -1 0 0
2390 13 58.09949754441725 5.726983508033901 2.465146415374548 -1 0 0
2396 17 60.933619375852246 5.726983508033902 2.465146415374549 -1 0 0
2185 1 62.350680291569795 2.006097426062215e-13 1.2372645771210222 -1 0 0
2401 1 62.350680291569795 4.9088430068862055 1.2372645771210222 -1 0 0
2187 14 63.76774120728725 0.8181405011478986 0.009398815939244257 -1 0 0
2191 3 65.1848021230048 1.9967461100262364e-13 1.2372645771210224 -1 0 0
2193 18 66.60186303872226 0.8181405011478986 0.00939881593924398 -1 0 0
2188 2 63.76774120728755 2.4544215034432044 1.2372645771210222 -1 0 0
2194 4 66.60186303872256 2.454421503443204 1.2372645771210222 -1 0 0
2190 16 62.35068029157008 3.2725620045909003 0.009398815939243927 -1 0 0
2196 20 65.18480212300508 3.2725620045909007 0.009398815939243466 -1 0 0
2403 14 63.76774120728725 5.726983508033902 0.009398815939244267 -1 0 0
2407 3 65.1848021230048 4.908843006886205 1.2372645771210222 -1 0 0
2409 18 66.60186303872226 5.726983508033902 0.009398815939243963 -1 0 0
2186 13 63.76774120728725 0.8181405011478986 2.465146415374548 -1 0 0
2192 17 66.60186303872226 0.8181405011478987 2.4651464153745484 -1 0 0
2189 15 62.35068029157008 3.2725620045909003 2.4651464153745484 -1 0 0
2195 19 65.18480212300508 3.2725620045909007 2.465146415374549 -1 0 0
2402 13 63.76774120728725 5.726983508033902 2.4651464153745484 -1 0 0
2408 17 66.60186303872226 5.726983508033902 2.4651464153745484 -1 0 0
2197 1 68.0189239544398 2.0017472904383138e-13 1.2372645771210224 -1 0 0
2413 1 68.0189239544398 4.9088430068862055 1.2372645771210222 -1 0 0
2199 14 69.43598487015726 0.8181405011478986 0.009398815939243977 -1 0 0
2203 3 70.8530457858748 2.001757367110748e-13 1.2372645771210224 -1 0 0
2205 18 72.27010670159225 0.8181405011478986 0.009398815939243976 -1 0 0
2200 2 69.43598487015754 2.454421503443204 1.2372645771210222 -1 0 0
2206 4 72.27010670159254 2.454421503443204 1.2372645771210222 -1 0 0
2202 16 68.01892395444007 3.2725620045909003 0.009398815939243878 -1 0 0
2208 20 70.85304578587507 3.2725620045909003 0.009398815939243878 -1 0 0
2415 14 69.43598487015726 5.726983508033902 0.009398815939243962 -1 0 0
2419 3 70.8530457858748 4.9088430068862055 1.2372645771210222 -1 0 0
2421 18 72.27010670159225 5.726983508033902 0.009398815939243962 -1 0 0
2198 13 69.43598487015726 0.8181405011478987 2.4651464153745484 -1 0 0
2204 17 72.27010670159225 0.8181405011478987 2.4651464153745484 -1 0 0
2201 15 68.01892395444007 3.2725620045909003 2.4651464153745484 -1 0 0
2207 19 70.85304578587507 3.2725620045909003 2.4651464153745484 -1 0 0
2414 13 69.43598487015726 5.726983508033902 2.4651464153745484 -1 0 0
2420 17 72.27010670159225 5.726983508033902 2.4651464153745484 -1 0 0
2209 1 73.6871676173098 2.0017472904383138e-13 1.2372645771210224 -1 0 0
2425 1 73.6871676173098 4.9088430068862055 1.2372645771210222 -1 0 0
2211 14 75.10422853302725 0.8181405011478986 0.009398815939243977 -1 0 0
2215 3 76.5212894487448 2.001757367110748e-13 1.2372645771210224 -1 0 0
2217 18 77.93835036446225 0.8181405011478986 0.009398815939243976 -1 0 0
2212 2 75.10422853302754 2.454421503443204 1.2372645771210222 -1 0 0
2218 4 77.93835036446254 2.454421503443204 1.2372645771210222 -1 0 0
2214 16 73.68716761731007 3.2725620045909003 0.009398815939243878 -1 0 0
2220 20 76.52128944874507 3.2725620045909003 0.009398815939243878 -1 0 0
2427 14 75.10422853302725 5.726983508033902 0.009398815939243962 -1 0 0
2431 3 76.5212894487448 4.9088430068862055 1.2372645771210222 -1 0 0
2433 18 77.93835036446225 5.726983508033902 0.00939881593924396 -1 0 0
2210 13 75.10422853302725 0.8181405011478987 2.4651464153745484 -1 0 0
2216 17 77.93835036446225 0.8181405011478987 2.4651464153745484 -1 0 0
2213 15 73.68716761731007 3.2725620045909003 2.4651464153745484 -1 0 0
2219 19 76.52128944874507 3.2725620045909003 2.4651464153745484 -1 0 0
2426 13 75.10422853302725 5.726983508033902 2.4651464153745484 -1 0 0
2432 17 77.93835036446225 5.726983508033902 2.4651464153745484 -1 0 0
2221 1 79.3554112801798 2.0017472904383138e-13 1.2372645771210224 -1 0 0
2437 1 79.3554112801798 4.9088430068862055 1.2372645771210222 -1 0 0
2223 14 80.77247219589725 0.8181405011478986 0.009398815939243977 -1 0 0
2227 3 82.1895331116148 2.0016159203382014e-13 1.2372645771210224 -1 0 0
2229 18 83.60659402733225 0.8181405011478986 0.009398815939243917 -1 0 0
2233 1 85.02365494304979 2.0120560236978632e-13 1.2372645771210222 -1 0 0
2224 2 80.77247219589754 2.454421503443204 1.2372645771210222 -1 0 0
2230 4 83.60659402733255 2.4544215034432035 1.2372645771210222 -1 0 0
2226 16 79.35541128018006 3.2725620045909003 0.009398815939243878 -1 0 0
2232 20 82.18953311161506 3.2725620045909003 0.009398815939243858 -1 0 0
2439 14 80.77247219589725 5.726983508033902 0.009398815939243962 -1 0 0
2443 3 82.1895331116148 4.9088430068862055 1.2372645771210222 -1 0 0
2445 18 83.60659402733225 5.726983508033902 0.009398815939243927 -1 0 0
2449 1 85.02365494304979 4.908843006886206 1.237264577121022 -1 0 0
2222 13 80.77247219589725 0.8181405011478987 2.4651464153745484 -1 0 0
2228 17 83.60659402733225 0.8181405011478986 2.4651464153745484 -1 0 0
2225 15 79.35541128018006 3.2725620045909003 2.4651464153745484 -1 0 0
2231 19 82.18953311161506 3.2725620045909003 2.4651464153745484 -1 0 0
2438 13 80.77247219589725 5.726983508033902 2.4651464153745484 -1 0 0
2444 17 83.60659402733225 5.726983508033902 2.4651464153745484 -1 0 0
2238 16 85.02365494305008 3.2725620045909 0.009398815939245143 -1 0 0
2237 15 85.02365494305008 3.2725620045909 2.465146415374547 -1 0 0
2235 14 86.44071585876725 0.8181405011478986 0.009398815939243925 -1 0 0
2239 3 87.85777677448479 2.001605870334229e-13 1.2372645771210224 -1 0 0
2241 18 89.27483769020225 0.8181405011478986 0.00939881593924394 -1 0 0
2245 1 90.69189860591979 1.9976336879289255e-13 1.2372645771210224 -1 0 0
2236 2 86.44071585876755 2.4544215034432035 1.2372645771210222 -1 0 0
2242 4 89.27483769020255 2.454421503443204 1.2372645771210222 -1 0 0
2244 20 87.85777677448507 3.2725620045909003 0.009398815939243915 -1 0 0
2451 14 86.44071585876725 5.726983508033902 0.00939881593924391 -1 0 0
2455 3 87.85777677448479 4.9088430068862055 1.2372645771210222 -1 0 0
2457 18 89.27483769020225 5.726983508033902 0.00939881593924395 -1 0 0
2461 1 90.69189860591979 4.9088430068862055 1.237264577121022 -1 0 0
2234 13 86.44071585876725 0.8181405011478986 2.4651464153745484 -1 0 0
2240 17 89.27483769020225 0.8181405011478986 2.4651464153745484 -1 0 0
2243 19 87.85777677448507 3.2725620045909003 2.4651464153745484 -1 0 0
2450 13 86.44071585876725 5.726983508033902 2.4651464153745484 -1 0 0
2456 17 89.27483769020225 5.726983508033902 2.4651464153745484 -1 0 0
2250 16 90.69189860592007 3.2725620045909007 0.009398815939243488 -1 0 0
2249 15 90.69189860592007 3.272562004590901 2.465146415374549 -1 0 0
2247 14 92.10895952163725 0.818140501147898 0.009398815939244048 -1 0 0
2251 3 93.52602043735479 1.9983319918630848e-13 1.2372645771210224 -1 0 0
2253 18 94.94308135307224 0.818140501147899 0.009398815939243601 -1 0 0
2248 2 92.10895952163754 2.4544215034432053 1.2372645771210222 -1 0 0
2254 4 94.94308135307254 2.454421503443204 1.2372645771210222 -1 0 0
2256 20 93.52602043735507 3.2725620045909007 0.009398815939243462 -1 0 0
2463 14 92.10895952163725 5.726983508033901 0.009398815939244094 -1 0 0
2467 3 93.52602043735479 4.9088430068862055 1.237264577121022 -1 0 0
2469 18 94.94308135307224 5.726983508033902 0.00939881593924368 -1 0 0
2246 13 92.10895952163725 0.8181405011478982 2.4651464153745484 -1 0 0
2252 17 94.94308135307224 0.818140501147899 2.4651464153745484 -1 0 0
2255 19 93.52602043735507 3.2725620045909007 2.465146415374549 -1 0 0
2462 13 92.10895952163725 5.726983508033901 2.4651464153745484 -1 0 0
2468 17 94.94308135307224 5.726983508033902 2.465146415374549 -1 0 0
2257 1 96.36014226878979 2.012528636563037e-13 1.2372645771210222 -1 0 0
2473 1 96.36014226878979 4.908843006886206 1.2372645771210222 -1 0 0
2269 1 102.02838593165978 2.0075429791988397e-13 1.2372645771210218 -1 0 0
2485 1 102.02838593165978 4.9088430068862055 1.2372645771210216 -1 0 0
2259 14 97.77720318450724 0.8181405011478985 0.009398815939244435 -1 0 0
2263 3 99.19426410022479 1.99830202452425e-13 1.2372645771210224 -1 0 0
2265 18 100.61132501594226 0.8181405011478984 0.00939881593924398 -1 0 0
2260 2 97.77720318450754 2.4544215034432044 1.2372645771210222 -1 0 0
2266 4 100.61132501594255 2.4544215034432035 1.2372645771210224 -1 0 0
2262 16 96.36014226879007 3.2725620045909 0.009398815939243696 -1 0 0
2268 20 99.19426410022507 3.2725620045909003 0.009398815939243872 -1 0 0
2475 14 97.77720318450724 5.726983508033902 0.009398815939244453 -1 0 0
2479 3 99.19426410022479 4.9088430068862055 1.2372645771210222 -1 0 0
2481 18 100.61132501594226 5.726983508033902 0.00939881593924404 -1 0 0
2258 13 97.77720318450724 0.8181405011478985 2.465146415374548 -1 0 0
2264 17 100.61132501594224 0.8181405011478988 2.465146415374549 -1 0 0
2261 15 96.36014226879007 3.2725620045909 2.4651464153745484 -1 0 0
2267 19 99.19426410022507 3.2725620045909003 2.4651464153745484 -1 0 0
2474 13 97.77720318450724 5.726983508033902 2.465146415374548 -1 0 0
2480 17 100.61132501594224 5.726983508033902 2.465146415374549 -1 0 0
2488 2 1.4170609157175524 7.3632645103292065 1.2372645771210222 0 0 0
2494 4 4.251182747152554 7.3632645103292065 1.2372645771210222 0 0 0
2490 16 8.08051443719465e-14 8.181405011476901 0.009398815939244343 0 0 0
2496 20 2.8341218314350813 8.181405011476903 0.009398815939244111 0 0 0
2703 14 1.4170609157172493 10.635826514919899 0.009398815939243781 0 0 0
2707 3 2.834121831434792 9.817686013772205 1.237264577121022 0 0 0
2709 18 4.251182747152249 10.635826514919899 0.009398815939243908 0 0 0
2489 15 8.031987785528111e-14 8.181405011476903 2.4651464153745475 0 0 0
2495 19 2.8341218314350813 8.181405011476903 2.4651464153745484 0 0 0
2702 13 1.4170609157172491 10.635826514919899 2.4651464153745484 0 0 0
2708 17 4.251182747152249 10.635826514919899 2.4651464153745484 0 0 0
2713 1 5.668243662869792 9.817686013772205 1.2372645771210222 0 0 0
2500 2 7.085304578587555 7.3632645103292065 1.237264577121022 0 0 0
2506 4 9.919426410022552 7.3632645103292065 1.237264577121022 0 0 0
2502 16 5.668243662870084 8.181405011476903 0.00939881593924414 0 0 0
2508 20 8.502365494305083 8.181405011476903 0.009398815939244142 0 0 0
2715 14 7.085304578587249 10.635826514919899 0.009398815939243821 0 0 0
2719 3 8.502365494304792 9.817686013772205 1.2372645771210222 0 0 0
2721 18 9.919426410022249 10.635826514919899 0.009398815939243795 0 0 0
2501 15 5.668243662870084 8.181405011476903 2.4651464153745484 0 0 0
2507 19 8.502365494305083 8.181405011476903 2.4651464153745484 0 0 0
2714 13 7.085304578587249 10.635826514919899 2.4651464153745484 0 0 0
2720 17 9.919426410022249 10.635826514919899 2.4651464153745484 0 0 0
2725 1 11.336487325739792 9.817686013772205 1.237264577121022 0 0 0
2512 2 12.753548241457553 7.3632645103292065 1.237264577121022 0 0 0
2518 4 15.587670072892552 7.3632645103292065 1.237264577121022 0 0 0
2514 16 11.336487325740082 8.181405011476903 0.009398815939244094 0 0 0
2520 20 14.17060915717508 8.181405011476903 0.009398815939244087 0 0 0
2727 14 12.75354824145725 10.635826514919899 0.00939881593924373 0 0 0
2731 3 14.170609157174791 9.817686013772205 1.2372645771210222 0 0 0
2733 18 15.58767007289225 10.635826514919899 0.009398815939243887 0 0 0
2513 15 11.336487325740082 8.181405011476903 2.4651464153745484 0 0 0
2519 19 14.17060915717508 8.181405011476903 2.4651464153745484 0 0 0
2726 13 12.75354824145725 10.635826514919899 2.4651464153745484 0 0 0
2732 17 15.58767007289225 10.635826514919899 2.4651464153745484 0 0 0
2737 1 17.00473098860979 9.817686013772205 1.237264577121022 0 0 0
2524 2 18.421791904327552 7.3632645103292065 1.237264577121022 0 0 0
2530 4 21.25591373576255 7.3632645103292065 1.237264577121022 0 0 0
2526 16 17.00473098861008 8.181405011476903 0.009398815939244111 0 0 0
2532 20 19.83885282004508 8.181405011476903 0.009398815939244083 0 0 0
2739 14 18.421791904327247 10.635826514919899 0.009398815939243875 0 0 0
2745 18 21.255913735762245 10.635826514919899 0.009398815939243674 0 0 0
2743 3 19.83885282004479 9.817686013772205 1.237264577121022 0 0 0
2749 1 22.67297465147979 9.817686013772205 1.237264577121022 0 0 0
2525 15 17.00473098861008 8.181405011476903 2.4651464153745484 0 0 0
2531 19 19.83885282004508 8.181405011476903 2.4651464153745484 0 0 0
2738 13 18.421791904327247 10.635826514919899 2.4651464153745484 0 0 0
2744 17 21.255913735762245 10.635826514919899 2.465146415374549 0 0 0
2538 16 22.67297465148008 8.181405011476901 0.00939881593924435 0 0 0
2537 15 22.67297465148008 8.181405011476901 2.465146415374548 0 0 0
2536 2 24.09003556719755 7.363264510329206 1.2372645771210222 0 0 0
2542 4 26.924157398632552 7.3632645103292065 1.237264577121022 0 0 0
2544 20 25.50709648291508 8.181405011476903 0.009398815939244248 0 0 0
2751 14 24.090035567197248 10.635826514919899 0.009398815939243537 0 0 0
2755 3 25.50709648291479 9.817686013772205 1.2372645771210222 0 0 0
2757 18 26.924157398632246 10.635826514919899 0.009398815939243856 0 0 0
2761 1 28.34121831434979 9.817686013772205 1.2372645771210222 0 0 0
2543 19 25.50709648291508 8.181405011476901 2.465146415374548 0 0 0
2750 13 24.090035567197248 10.635826514919899 2.465146415374549 0 0 0
2756 17 26.924157398632246 10.635826514919899 2.4651464153745484 0 0 0
2550 16 28.34121831435008 8.181405011476903 0.009398815939243821 0 0 0
2549 15 28.34121831435008 8.181405011476903 2.4651464153745484 0 0 0
2548 2 29.758279230067554 7.363264510329207 1.237264577121022 0 0 0
2554 4 32.59240106150256 7.363264510329206 1.237264577121022 0 0 0
2556 20 31.175340145785086 8.181405011476903 0.00939881593924369 0 0 0
2763 14 29.758279230067245 10.635826514919897 0.009398815939244198 0 0 0
2767 3 31.17534014578479 9.817686013772205 1.2372645771210222 0 0 0
2769 18 32.592401061502244 10.635826514919899 0.009398815939244015 0 0 0
2555 19 31.175340145785086 8.181405011476903 2.465146415374549 0 0 0
2762 13 29.758279230067245 10.635826514919897 2.465146415374548 0 0 0
2768 17 32.592401061502244 10.635826514919899 2.4651464153745484 0 0 0
2773 1 34.00946197721979 9.817686013772205 1.237264577121022 0 0 0
2560 2 35.426522892937555 7.363264510329206 1.237264577121022 0 0 0
2566 4 38.260644724372554 7.3632645103292065 1.237264577121022 0 0 0
2562 16 34.009461977220084 8.181405011476901 0.00939881593924425 0 0 0
2568 20 36.84358380865508 8.181405011476903 0.009398815939244094 0 0 0
2775 14 35.42652289293726 10.635826514919899 0.009398815939243564 0 0 0
2779 3 36.8435838086548 9.817686013772205 1.237264577121022 0 0 0
2781 18 38.260644724372256 10.635826514919899 0.009398815939243884 0 0 0
2561 15 34.009461977220084 8.181405011476901 2.465146415374548 0 0 0
2567 19 36.84358380865508 8.181405011476903 2.4651464153745484 0 0 0
2774 13 35.42652289293726 10.635826514919899 2.465146415374549 0 0 0
2780 17 38.260644724372256 10.635826514919899 2.4651464153745484 0 0 0
2785 1 39.6777056400898 9.817686013772205 1.237264577121022 0 0 0
2572 2 41.09476655580755 7.3632645103292065 1.237264577121022 0 0 0
2578 4 43.92888838724255 7.3632645103292065 1.237264577121022 0 0 0
2574 16 39.67770564009008 8.181405011476903 0.009398815939244104 0 0 0
2580 20 42.51182747152508 8.181405011476903 0.009398815939244102 0 0 0
2787 14 41.094766555807254 10.635826514919899 0.009398815939243882 0 0 0
2791 3 42.511827471524796 9.817686013772205 1.237264577121022 0 0 0
2793 18 43.92888838724225 10.635826514919899 0.009398815939243882 0 0 0
2573 15 39.67770564009008 8.181405011476903 2.4651464153745484 0 0 0