LAMMPS data file via write_data, version 29 Aug 2024, timestep = 3, units = metal

10044 atoms
9 atom types

0 98.830488616016 xlo xhi
0 99.394506359892 ylo yhi
-50 50 zlo zhi

Masses

1 95.95
2 95.95
3 95.95
4 32.06
5 32.06
6 32.06
7 32.06
8 32.06
9 32.06

Atoms # atomic

1773 5 1.5940319157636738 1.8406219312944183 0.026919905428246897 0 0 0
1776 1 3.1878913403255655 2.7607624222453113 1.5867733959398864 0 0 0
1779 5 4.7821121936996756 1.840621931294418 0.02691990542824703 0 0 0
1774 5 3.1880720547316757 4.601580441291417 0.026919905428246963 0 0 0
1961 1 1.5938512013575648 5.521720932242311 1.5867733959398862 0 0 0
1967 1 4.781931479293565 5.521720932242311 1.5867733959398864 0 0 0
1782 1 6.375971618261565 2.7607624222453118 1.5867733959398866 0 0 0
1785 5 7.970192471635676 1.8406219312944185 0.02691990542824716 0 0 0
1788 1 9.564051896197565 2.7607624222453118 1.5867733959398866 0 0 0
1791 5 11.158272749571674 1.8406219312944185 0.026919905428247105 0 0 0
1780 5 6.376152332667674 4.601580441291417 0.026919905428246935 0 0 0
1786 5 9.564232610603675 4.601580441291417 0.02691990542824688 0 0 0
1973 1 7.970011757229566 5.521720932242311 1.5867733959398864 0 0 0
1979 1 11.158092035165565 5.521720932242311 1.5867733959398864 0 0 0
1794 1 12.752132174133566 2.7607624222453113 1.5867733959398866 0 0 0
1797 5 14.346353027507675 1.8406219312944183 0.026919905428247067 0 0 0
1800 1 15.940212452069568 2.7607624222453113 1.5867733959398866 0 0 0
1792 5 12.752312888539677 4.601580441291417 0.02691990542824674 0 0 0
1798 5 15.940393166475678 4.601580441291417 0.02691990542824711 0 0 0
1985 1 14.346172313101567 5.521720932242311 1.5867733959398864 0 0 0
1803 5 17.534433305443677 1.8406219312944183 0.02691990542824732 0 0 0
1806 1 19.128292730005565 2.7607624222453118 1.5867733959398864 0 0 0
1809 5 20.722513583379676 1.840621931294418 0.026919905428246998 0 0 0
1812 1 22.316373007941568 2.7607624222453118 1.5867733959398866 0 0 0
1804 5 19.128473444411675 4.601580441291417 0.026919905428247275 0 0 0
1810 5 22.316553722347674 4.601580441291417 0.026919905428246533 0 0 0
1991 1 17.534252591037568 5.521720932242311 1.5867733959398864 0 0 0
1997 1 20.722332868973567 5.521720932242311 1.5867733959398864 0 0 0
1815 5 23.91059386131568 1.8406219312944185 0.026919905428246783 0 0 0
1818 1 25.50445328587757 2.7607624222453113 1.5867733959398869 0 0 0
1821 5 27.098674139251678 1.8406219312944188 0.026919905428247702 0 0 0
1824 1 28.692533563813566 2.7607624222453113 1.5867733959398866 0 0 0
1816 5 25.504634000283676 4.601580441291417 0.02691990542824699 0 0 0
1822 5 28.692714278219675 4.601580441291417 0.026919905428247373 0 0 0
2003 1 23.91041314690957 5.521720932242311 1.5867733959398864 0 0 0
2009 1 27.098493424845568 5.521720932242311 1.5867733959398864 0 0 0
1827 5 30.286754417187673 1.8406219312944188 0.026919905428247248 0 0 0
1833 5 33.474834695123675 1.8406219312944183 0.026919905428246772 0 0 0
1830 1 31.880613841749565 2.7607624222453118 1.5867733959398864 0 0 0
1828 5 31.880794556155674 4.601580441291417 0.026919905428246835 0 0 0
2015 1 30.286573702781563 5.521720932242311 1.5867733959398864 0 0 0
2021 1 33.47465398071757 5.521720932242311 1.5867733959398864 0 0 0
1836 1 35.06869411968557 2.7607624222453113 1.5867733959398866 0 0 0
1839 5 36.66291497305968 1.840621931294418 0.026919905428246994 0 0 0
1842 1 38.25677439762157 2.7607624222453118 1.5867733959398864 0 0 0
1845 5 39.85099525099568 1.840621931294419 0.026919905428247345 0 0 0
1834 5 35.06887483409168 4.601580441291417 0.026919905428246602 0 0 0
1840 5 38.256955112027676 4.601580441291417 0.026919905428247036 0 0 0
2027 1 36.66273425865357 5.521720932242311 1.5867733959398864 0 0 0
2033 1 39.85081453658957 5.521720932242311 1.5867733959398864 0 0 0
1848 1 41.444854675557565 2.7607624222453113 1.5867733959398869 0 0 0
1851 5 43.039075528931676 1.840621931294418 0.026919905428247 0 0 0
1854 1 44.63293495349357 2.7607624222453113 1.5867733959398866 0 0 0
1857 5 46.22715580686768 1.840621931294418 0.026919905428247033 0 0 0
1846 5 41.44503538996368 4.601580441291417 0.02691990542824713 0 0 0
1852 5 44.63311566789968 4.601580441291417 0.026919905428246665 0 0 0
2039 1 43.03889481452557 5.52172093224231 1.5867733959398866 0 0 0
2045 1 46.22697509246157 5.521720932242311 1.5867733959398864 0 0 0
1860 1 47.82101523142957 2.7607624222453118 1.5867733959398864 0 0 0
1677 5 49.41523608480368 1.8406219312944185 0.026919905428247203 -1 0 0
1680 1 51.009095509365565 2.7607624222453113 1.5867733959398866 -1 0 0
1858 5 47.821195945835676 4.601580441291417 0.026919905428247116 0 0 0
1678 5 51.00927622377168 4.601580441291417 0.02691990542824697 -1 0 0
1865 1 49.41505537039757 5.521720932242311 1.5867733959398864 -1 0 0
1683 5 52.603316362739676 1.8406219312944185 0.02691990542824716 -1 0 0
1686 1 54.19717578730157 2.7607624222453118 1.5867733959398866 -1 0 0
1689 5 55.79139664067568 1.8406219312944183 0.0269199054282473 -1 0 0
1692 1 57.38525606523757 2.7607624222453113 1.5867733959398866 -1 0 0
1684 5 54.19735650170768 4.601580441291417 0.026919905428246828 -1 0 0
1690 5 57.385436779643676 4.601580441291417 0.02691990542824716 -1 0 0
1871 1 52.60313564833357 5.521720932242311 1.5867733959398864 -1 0 0
1877 1 55.791215926269565 5.52172093224231 1.5867733959398864 -1 0 0
1695 5 58.979476918611674 1.8406219312944185 0.026919905428247227 -1 0 0
1698 1 60.573336343173565 2.7607624222453118 1.5867733959398866 -1 0 0
1701 5 62.167557196547676 1.8406219312944183 0.02691990542824728 -1 0 0
1704 1 63.76141662110957 2.7607624222453113 1.586773395939887 -1 0 0
1696 5 60.57351705757968 4.601580441291417 0.026919905428247085 -1 0 0
1702 5 63.761597335515674 4.601580441291417 0.026919905428247185 -1 0 0
1883 1 58.97929620420557 5.521720932242311 1.5867733959398864 -1 0 0
1889 1 62.16737648214156 5.52172093224231 1.5867733959398866 -1 0 0
1707 5 65.35563747448367 1.8406219312944185 0.02691990542824749 -1 0 0
1710 1 66.94949689904556 2.7607624222453118 1.5867733959398866 -1 0 0
1713 5 68.54371775241967 1.840621931294418 0.026919905428247935 -1 0 0
1708 5 66.94967761345167 4.601580441291417 0.026919905428247605 -1 0 0
1895 1 65.35545676007756 5.521720932242311 1.5867733959398866 -1 0 0
1901 1 68.54353703801357 5.521720932242311 1.5867733959398864 -1 0 0
1716 1 70.13757717698157 2.7607624222453113 1.5867733959398864 -1 0 0
1719 5 71.73179803035566 1.8406219312944192 0.02691990542824653 -1 0 0
1722 1 73.32565745491756 2.760762422245312 1.5867733959398862 -1 0 0
1725 5 74.91987830829167 1.840621931294418 0.02691990542824704 -1 0 0
1714 5 70.13775789138766 4.601580441291417 0.026919905428246745 -1 0 0
1720 5 73.32583816932367 4.601580441291418 0.026919905428246297 -1 0 0
1907 1 71.73161731594956 5.521720932242311 1.5867733959398862 -1 0 0
1913 1 74.91969759388556 5.521720932242311 1.5867733959398864 -1 0 0
1728 1 76.51373773285356 2.760762422245311 1.5867733959398869 -1 0 0
1731 5 78.10795858622767 1.8406219312944179 0.026919905428247806 -1 0 0
1734 1 79.70181801078957 2.7607624222453118 1.5867733959398866 -1 0 0
1737 5 81.29603886416366 1.840621931294418 0.026919905428247022 -1 0 0
1726 5 76.51391844725967 4.601580441291417 0.02691990542824735 -1 0 0
1732 5 79.70199872519566 4.601580441291417 0.026919905428247654 -1 0 0
1919 1 78.10777787182155 5.521720932242311 1.5867733959398864 -1 0 0
1925 1 81.29585814975756 5.521720932242311 1.5867733959398864 -1 0 0
1740 1 82.88989828872556 2.7607624222453118 1.5867733959398866 -1 0 0
1743 5 84.48411914209967 1.840621931294419 0.02691990542824642 -1 0 0
1746 1 86.07797856666156 2.7607624222453118 1.5867733959398866 -1 0 0
1738 5 82.89007900313166 4.601580441291418 0.026919905428246186 -1 0 0
1744 5 86.07815928106767 4.601580441291416 0.02691990542824709 -1 0 0
1931 1 84.48393842769356 5.521720932242311 1.5867733959398864 -1 0 0
1749 5 87.67219942003567 1.840621931294418 0.026919905428248007 -1 0 0
1752 1 89.26605884459757 2.7607624222453113 1.5867733959398864 -1 0 0
1755 5 90.86027969797166 1.8406219312944192 0.02691990542824653 -1 0 0
1758 1 92.45413912253356 2.760762422245312 1.5867733959398862 -1 0 0
1750 5 89.26623955900367 4.601580441291417 0.026919905428246755 -1 0 0
1756 5 92.45431983693967 4.601580441291418 0.026919905428246297 -1 0 0
1937 1 87.67201870562957 5.521720932242311 1.5867733959398864 -1 0 0
1943 1 90.86009898356556 5.521720932242311 1.5867733959398862 -1 0 0
1770 1 98.83029967840557 2.7607624222453118 1.5867733959398862 -1 0 0
1768 5 98.83048039281168 4.601580441291417 0.026919905428246755 -1 0 0
1761 5 94.04835997590767 1.840621931294418 0.02691990542824705 -1 0 0
1764 1 95.64221940046956 2.760762422245311 1.5867733959398866 -1 0 0
1767 5 97.23644025384367 1.8406219312944183 0.026919905428247053 -1 0 0
1762 5 95.64240011487567 4.601580441291417 0.026919905428247088 -1 0 0
1949 1 94.04817926150156 5.521720932242311 1.5867733959398864 -1 0 0
1955 1 97.23625953943755 5.521720932242311 1.5867733959398864 -1 0 0
1959 5 1.5940319157636738 7.362538951288418 0.02691990542824658 0 0 0
1962 1 3.1878913403255655 8.282679442239312 1.5867733959398864 0 0 0
1965 5 4.7821121936996756 7.362538951288418 0.026919905428246665 0 0 0
1960 5 3.1880720547316757 10.123497461285417 0.026919905428246762 0 0 0
2147 1 1.5938512013575648 11.04363795223631 1.586773395939886 0 0 0
2153 1 4.781931479293565 11.04363795223631 1.5867733959398862 0 0 0
1968 1 6.375971618261565 8.282679442239312 1.5867733959398864 0 0 0
1971 5 7.970192471635676 7.362538951288418 0.02691990542824679 0 0 0
1974 1 9.564051896197565 8.282679442239312 1.5867733959398864 0 0 0
1977 5 11.158272749571674 7.362538951288418 0.026919905428246797 0 0 0
1966 5 6.376152332667674 10.123497461285417 0.026919905428246772 0 0 0
1972 5 9.564232610603675 10.123497461285417 0.02691990542824664 0 0 0
2159 1 7.970011757229566 11.04363795223631 1.5867733959398862 0 0 0
2165 1 11.158092035165565 11.04363795223631 1.5867733959398862 0 0 0
1980 1 12.752132174133566 8.282679442239312 1.5867733959398864 0 0 0
1983 5 14.346353027507675 7.362538951288418 0.026919905428246713 0 0 0
1986 1 15.940212452069568 8.282679442239312 1.5867733959398864 0 0 0
1978 5 12.752312888539677 10.123497461285417 0.02691990542824654 0 0 0
1984 5 15.940393166475678 10.123497461285417 0.026919905428246856 0 0 0
2171 1 14.346172313101567 11.04363795223631 1.5867733959398862 0 0 0
1989 5 17.534433305443677 7.362538951288418 0.026919905428246963 0 0 0
1992 1 19.128292730005565 8.282679442239312 1.5867733959398864 0 0 0
1995 5 20.722513583379676 7.362538951288418 0.026919905428246564 0 0 0
1998 1 22.316373007941568 8.282679442239312 1.5867733959398864 0 0 0
1990 5 19.128473444411675 10.123497461285417 0.02691990542824702 0 0 0
1996 5 22.316553722347674 10.123497461285417 0.0269199054282463 0 0 0
2177 1 17.534252591037568 11.04363795223631 1.5867733959398862 0 0 0
2183 1 20.722332868973567 11.04363795223631 1.5867733959398862 0 0 0
2001 5 23.91059386131568 7.362538951288418 0.026919905428246446 0 0 0
2004 1 25.50445328587757 8.282679442239312 1.5867733959398864 0 0 0
2007 5 27.098674139251678 7.3625389512884185 0.026919905428247338 0 0 0
2010 1 28.692533563813566 8.282679442239312 1.5867733959398864 0 0 0
2002 5 25.504634000283676 10.123497461285417 0.026919905428246908 0 0 0
2008 5 28.692714278219675 10.123497461285417 0.026919905428247213 0 0 0
2189 1 23.91041314690957 11.04363795223631 1.5867733959398862 0 0 0
2195 1 27.098493424845568 11.04363795223631 1.5867733959398862 0 0 0
2013 5 30.286754417187673 7.3625389512884185 0.026919905428246866 0 0 0
2019 5 33.474834695123675 7.362538951288418 0.026919905428246425 0 0 0
2016 1 31.880613841749565 8.282679442239312 1.5867733959398862 0 0 0
2014 5 31.880794556155674 10.123497461285417 0.026919905428246665 0 0 0
2201 1 30.286573702781563 11.04363795223631 1.5867733959398862 0 0 0
2207 1 33.47465398071757 11.04363795223631 1.5867733959398862 0 0 0
2022 1 35.06869411968557 8.282679442239312 1.5867733959398864 0 0 0
2025 5 36.66291497305968 7.362538951288417 0.026919905428246627 0 0 0
2028 1 38.25677439762157 8.282679442239312 1.5867733959398862 0 0 0
2031 5 39.85099525099568 7.3625389512884185 0.026919905428246987 0 0 0
2020 5 35.06887483409168 10.123497461285417 0.026919905428246346 0 0 0
2026 5 38.256955112027676 10.123497461285417 0.026919905428246828 0 0 0
2213 1 36.66273425865357 11.043637952236312 1.586773395939886 0 0 0
2219 1 39.85081453658957 11.04363795223631 1.5867733959398862 0 0 0
2034 1 41.444854675557565 8.282679442239312 1.5867733959398864 0 0 0
2037 5 43.039075528931676 7.362538951288418 0.026919905428246686 0 0 0
2040 1 44.63293495349357 8.282679442239312 1.5867733959398864 0 0 0
2043 5 46.22715580686768 7.362538951288417 0.026919905428246658 0 0 0
2032 5 41.44503538996368 10.123497461285417 0.026919905428246956 0 0 0
2038 5 44.63311566789968 10.123497461285417 0.026919905428246405 0 0 0
2225 1 43.03889481452557 11.04363795223631 1.5867733959398864 0 0 0
2231 1 46.22697509246157 11.043637952236312 1.586773395939886 0 0 0
2046 1 47.82101523142957 8.282679442239312 1.5867733959398862 0 0 0
1863 5 49.41523608480368 7.362538951288418 0.02691990542824684 -1 0 0
1866 1 51.009095509365565 8.282679442239312 1.5867733959398864 -1 0 0
2044 5 47.821195945835676 10.123497461285417 0.026919905428246807 0 0 0
1864 5 51.00927622377168 10.123497461285417 0.026919905428246797 -1 0 0
2051 1 49.41505537039757 11.04363795223631 1.586773395939886 -1 0 0
1869 5 52.603316362739676 7.362538951288418 0.0269199054282468 -1 0 0
1872 1 54.19717578730157 8.282679442239312 1.5867733959398864 -1 0 0
1875 5 55.79139664067568 7.362538951288418 0.026919905428246956 -1 0 0
1878 1 57.38525606523757 8.282679442239312 1.5867733959398864 -1 0 0
1870 5 54.19735650170768 10.123497461285417 0.02691990542824658 -1 0 0
1876 5 57.385436779643676 10.123497461285417 0.026919905428246946 -1 0 0
2057 1 52.60313564833357 11.04363795223631 1.5867733959398862 -1 0 0
2063 1 55.791215926269565 11.04363795223631 1.5867733959398862 -1 0 0
1881 5 58.979476918611674 7.362538951288418 0.02691990542824692 -1 0 0
1884 1 60.573336343173565 8.282679442239312 1.5867733959398864 -1 0 0
1887 5 62.167557196547676 7.362538951288418 0.026919905428246967 -1 0 0
1890 1 63.76141662110957 8.28267944223931 1.5867733959398866 -1 0 0
1882 5 60.57351705757968 10.123497461285417 0.026919905428246866 -1 0 0
1888 5 63.761597335515674 10.123497461285417 0.026919905428246987 -1 0 0
2069 1 58.97929620420557 11.04363795223631 1.586773395939886 -1 0 0
2075 1 62.16737648214156 11.04363795223631 1.5867733959398862 -1 0 0
1893 5 65.35563747448367 7.362538951288418 0.0269199054282471 -1 0 0
1896 1 66.94949689904556 8.282679442239312 1.5867733959398864 -1 0 0
1899 5 68.54371775241967 7.362538951288418 0.026919905428247567 -1 0 0
1894 5 66.94967761345167 10.123497461285416 0.02691990542824747 -1 0 0
2081 1 65.35545676007756 11.04363795223631 1.5867733959398864 -1 0 0
2087 1 68.54353703801357 11.04363795223631 1.5867733959398862 -1 0 0
1902 1 70.13757717698157 8.282679442239312 1.5867733959398862 -1 0 0
1905 5 71.73179803035566 7.3625389512884185 0.026919905428246203 -1 0 0
1908 1 73.32565745491756 8.282679442239312 1.586773395939886 -1 0 0
1911 5 74.91987830829167 7.362538951288418 0.026919905428246682 -1 0 0
1900 5 70.13775789138766 10.123497461285417 0.02691990542824665 -1 0 0
1906 5 73.32583816932367 10.123497461285417 0.026919905428246155 -1 0 0
2093 1 71.73161731594956 11.04363795223631 1.586773395939886 -1 0 0
2099 1 74.91969759388556 11.04363795223631 1.5867733959398862 -1 0 0
1914 1 76.51373773285356 8.28267944223931 1.5867733959398866 -1 0 0
1917 5 78.10795858622767 7.362538951288417 0.026919905428247428 -1 0 0
1920 1 79.70181801078957 8.282679442239312 1.5867733959398864 -1 0 0
1923 5 81.29603886416366 7.362538951288418 0.026919905428246696 -1 0 0
1912 5 76.51391844725967 10.123497461285417 0.02691990542824715 -1 0 0
1918 5 79.70199872519566 10.123497461285416 0.02691990542824759 -1 0 0
2105 1 78.10777787182155 11.04363795223631 1.5867733959398864 -1 0 0
2111 1 81.29585814975756 11.04363795223631 1.5867733959398862 -1 0 0
1926 1 82.88989828872556 8.282679442239312 1.5867733959398864 -1 0 0
1929 5 84.48411914209967 7.362538951288418 0.026919905428246158 -1 0 0
1932 1 86.07797856666156 8.282679442239312 1.5867733959398864 -1 0 0
1924 5 82.89007900313166 10.123497461285417 0.026919905428246075 -1 0 0
1930 5 86.07815928106767 10.123497461285416 0.026919905428246887 -1 0 0
2117 1 84.48393842769356 11.04363795223631 1.5867733959398862 -1 0 0
1935 5 87.67219942003567 7.362538951288418 0.026919905428247636 -1 0 0
1938 1 89.26605884459757 8.282679442239312 1.5867733959398862 -1 0 0
1941 5 90.86027969797166 7.3625389512884185 0.026919905428246203 -1 0 0
1944 1 92.45413912253356 8.282679442239312 1.586773395939886 -1 0 0
1936 5 89.26623955900367 10.123497461285417 0.026919905428246665 -1 0 0
1942 5 92.45431983693967 10.123497461285417 0.026919905428246155 -1 0 0
2123 1 87.67201870562957 11.04363795223631 1.5867733959398862 -1 0 0
2129 1 90.86009898356556 11.04363795223631 1.586773395939886 -1 0 0
1956 1 98.83029967840557 8.282679442239312 1.586773395939886 -1 0 0
1954 5 98.83048039281168 10.123497461285416 0.02691990542824654 -1 0 0
1947 5 94.04835997590767 7.362538951288418 0.026919905428246692 -1 0 0
1950 1 95.64221940046956 8.28267944223931 1.5867733959398864 -1 0 0
1953 5 97.23644025384367 7.362538951288418 0.026919905428246772 -1 0 0
1948 5 95.64240011487567 10.123497461285417 0.026919905428246856 -1 0 0
2135 1 94.04817926150156 11.04363795223631 1.5867733959398862 -1 0 0
2141 1 97.23625953943755 11.04363795223631 1.5867733959398862 -1 0 0
2145 5 1.5940319157636738 12.884455971282417 0.026919905428246575 0 0 0
2148 1 3.1878913403255655 13.80459646223331 1.5867733959398864 0 0 0
2151 5 4.7821121936996756 12.884455971282417 0.02691990542824671 0 0 0
2146 5 3.1880720547316757 15.645414481279415 0.026919905428247345 0 0 0
2333 1 1.5938512013575648 16.56555497223031 1.5867733959398869 0 0 0
2339 1 4.781931479293565 16.56555497223031 1.5867733959398869 0 0 0
2154 1 6.375971618261565 13.80459646223331 1.5867733959398866 0 0 0
2157 5 7.970192471635676 12.884455971282417 0.026919905428246814 0 0 0
2160 1 9.564051896197565 13.80459646223331 1.5867733959398866 0 0 0
2163 5 11.158272749571674 12.884455971282417 0.026919905428246835 0 0 0
2152 5 6.376152332667675 15.645414481279415 0.026919905428247345 0 0 0
2158 5 9.564232610603675 15.645414481279415 0.026919905428247206 0 0 0
2345 1 7.970011757229566 16.56555497223031 1.5867733959398869 0 0 0
2351 1 11.158092035165565 16.56555497223031 1.5867733959398869 0 0 0
2166 1 12.752132174133566 13.80459646223331 1.5867733959398866 0 0 0
2169 5 14.346353027507675 12.884455971282417 0.026919905428246647 0 0 0
2172 1 15.940212452069568 13.80459646223331 1.5867733959398866 0 0 0
2164 5 12.752312888539677 15.645414481279415 0.026919905428247192 0 0 0
2170 5 15.940393166475678 15.645414481279415 0.026919905428247466 0 0 0
2357 1 14.346172313101567 16.56555497223031 1.5867733959398869 0 0 0
2175 5 17.534433305443677 12.884455971282417 0.026919905428246977 0 0 0
2178 1 19.128292730005565 13.80459646223331 1.5867733959398866 0 0 0
2181 5 20.722513583379676 12.884455971282417 0.026919905428246606 0 0 0
2184 1 22.316373007941568 13.80459646223331 1.5867733959398866 0 0 0
2176 5 19.128473444411675 15.645414481279415 0.026919905428247664 0 0 0
2182 5 22.316553722347674 15.645414481279415 0.026919905428246915 0 0 0
2363 1 17.534252591037568 16.56555497223031 1.5867733959398869 0 0 0
2369 1 20.722332868973567 16.56555497223031 1.5867733959398866 0 0 0
2187 5 23.91059386131568 12.884455971282417 0.02691990542824658 0 0 0
2190 1 25.50445328587757 13.80459646223331 1.5867733959398866 0 0 0
2193 5 27.098674139251678 12.884455971282417 0.02691990542824734 0 0 0
2196 1 28.692533563813566 13.80459646223331 1.5867733959398866 0 0 0
2188 5 25.504634000283676 15.645414481279415 0.02691990542824744 0 0 0
2194 5 28.692714278219675 15.645414481279415 0.026919905428247744 0 0 0
2375 1 23.91041314690957 16.56555497223031 1.5867733959398869 0 0 0
2381 1 27.098493424845568 16.56555497223031 1.5867733959398869 0 0 0
2199 5 30.286754417187673 12.884455971282417 0.026919905428247005 0 0 0
2205 5 33.474834695123675 12.884455971282417 0.02691990542824643 0 0 0
2202 1 31.880613841749565 13.80459646223331 1.5867733959398864 0 0 0
2200 5 31.880794556155674 15.645414481279415 0.026919905428247192 0 0 0
2387 1 30.286573702781563 16.56555497223031 1.5867733959398866 0 0 0
2393 1 33.47465398071757 16.56555497223031 1.5867733959398869 0 0 0
2208 1 35.06869411968557 13.80459646223331 1.5867733959398866 0 0 0
2211 5 36.66291497305968 12.884455971282417 0.026919905428246724 0 0 0
2214 1 38.25677439762157 13.80459646223331 1.5867733959398864 0 0 0
2217 5 39.85099525099568 12.884455971282417 0.026919905428247046 0 0 0
2206 5 35.06887483409168 15.645414481279415 0.026919905428247046 0 0 0
2212 5 38.256955112027676 15.645414481279415 0.026919905428247494 0 0 0
2399 1 36.66273425865357 16.56555497223031 1.5867733959398866 0 0 0
2405 1 39.85081453658957 16.56555497223031 1.5867733959398869 0 0 0
2220 1 41.444854675557565 13.80459646223331 1.5867733959398869 0 0 0
2223 5 43.039075528931676 12.884455971282417 0.026919905428246654 0 0 0
2226 1 44.63293495349357 13.80459646223331 1.5867733959398866 0 0 0
2229 5 46.22715580686768 12.884455971282417 0.026919905428246686 0 0 0
2218 5 41.44503538996368 15.645414481279415 0.0269199054282475 0 0 0
2224 5 44.63311566789968 15.645414481279415 0.026919905428247078 0 0 0
2411 1 43.03889481452557 16.56555497223031 1.586773395939887 0 0 0
2417 1 46.22697509246157 16.56555497223031 1.5867733959398866 0 0 0
2232 1 47.82101523142957 13.80459646223331 1.5867733959398864 0 0 0
2049 5 49.41523608480368 12.884455971282417 0.026919905428246883 -1 0 0
2052 1 51.009095509365565 13.80459646223331 1.5867733959398866 -1 0 0
2230 5 47.821195945835676 15.645414481279415 0.026919905428247518 0 0 0
2050 5 51.00927622377168 15.645414481279415 0.02691990542824739 -1 0 0
2237 1 49.41505537039757 16.56555497223031 1.5867733959398869 -1 0 0
2055 5 52.603316362739676 12.884455971282417 0.026919905428246824 -1 0 0
2058 1 54.19717578730157 13.80459646223331 1.5867733959398864 -1 0 0
2061 5 55.79139664067568 12.884455971282417 0.026919905428246984 -1 0 0
2064 1 57.38525606523757 13.80459646223331 1.5867733959398866 -1 0 0
2056 5 54.19735650170768 15.645414481279415 0.026919905428247275 -1 0 0
2062 5 57.385436779643676 15.645414481279415 0.02691990542824755 -1 0 0
2243 1 52.60313564833357 16.56555497223031 1.5867733959398869 -1 0 0
2249 1 55.791215926269565 16.56555497223031 1.5867733959398869 -1 0 0
2067 5 58.979476918611674 12.884455971282417 0.026919905428246915 -1 0 0
2070 1 60.573336343173565 13.80459646223331 1.5867733959398864 -1 0 0
2073 5 62.167557196547676 12.884455971282417 0.02691990542824698 -1 0 0
2076 1 63.76141662110957 13.80459646223331 1.5867733959398869 -1 0 0
2068 5 60.57351705757968 15.645414481279415 0.026919905428247376 -1 0 0
2074 5 63.761597335515674 15.645414481279415 0.026919905428247595 -1 0 0
2255 1 58.97929620420557 16.56555497223031 1.5867733959398866 -1 0 0
2261 1 62.16737648214156 16.56555497223031 1.5867733959398869 -1 0 0
2079 5 65.35563747448367 12.884455971282417 0.026919905428247036 -1 0 0
2082 1 66.94949689904556 13.80459646223331 1.5867733959398866 -1 0 0
2085 5 68.54371775241967 12.884455971282417 0.02691990542824759 -1 0 0
2080 5 66.94967761345167 15.645414481279415 0.026919905428248084 -1 0 0
2267 1 65.35545676007756 16.56555497223031 1.586773395939887 -1 0 0
2273 1 68.54353703801357 16.56555497223031 1.5867733959398869 -1 0 0
2088 1 70.13757717698157 13.80459646223331 1.5867733959398864 -1 0 0
2091 5 71.73179803035566 12.884455971282417 0.02691990542824626 -1 0 0
2094 1 73.32565745491756 13.80459646223331 1.5867733959398862 -1 0 0
2097 5 74.91987830829167 12.884455971282417 0.026919905428246745 -1 0 0
2086 5 70.13775789138766 15.645414481279415 0.026919905428247237 -1 0 0
2092 5 73.32583816932367 15.645414481279415 0.026919905428246706 -1 0 0
2279 1 71.73161731594956 16.56555497223031 1.5867733959398866 -1 0 0
2285 1 74.91969759388556 16.56555497223031 1.5867733959398869 -1 0 0
2100 1 76.51373773285356 13.80459646223331 1.5867733959398869 -1 0 0
2103 5 78.10795858622767 12.884455971282417 0.026919905428247445 -1 0 0
2106 1 79.70181801078957 13.80459646223331 1.5867733959398866 -1 0 0
2109 5 81.29603886416366 12.884455971282417 0.026919905428246658 -1 0 0
2098 5 76.51391844725967 15.645414481279415 0.026919905428247844 -1 0 0
2104 5 79.70199872519566 15.645414481279415 0.02691990542824816 -1 0 0
2291 1 78.10777787182155 16.56555497223031 1.5867733959398869 -1 0 0
2297 1 81.29585814975756 16.56555497223031 1.5867733959398869 -1 0 0
2112 1 82.88989828872556 13.80459646223331 1.5867733959398866 -1 0 0
2115 5 84.48411914209967 12.884455971282417 0.026919905428246103 -1 0 0
2118 1 86.07797856666156 13.80459646223331 1.5867733959398866 -1 0 0
2110 5 82.89007900313166 15.645414481279415 0.026919905428246634 -1 0 0
2116 5 86.07815928106767 15.645414481279415 0.026919905428247487 -1 0 0
2303 1 84.48393842769356 16.56555497223031 1.5867733959398869 -1 0 0
2121 5 87.67219942003567 12.884455971282417 0.026919905428247546 -1 0 0
2124 1 89.26605884459757 13.80459646223331 1.5867733959398864 -1 0 0
2127 5 90.86027969797166 12.884455971282417 0.02691990542824626 -1 0 0
2130 1 92.45413912253356 13.80459646223331 1.5867733959398862 -1 0 0
2122 5 89.26623955900367 15.645414481279415 0.026919905428247248 -1 0 0
2128 5 92.45431983693967 15.645414481279415 0.026919905428246706 -1 0 0
2309 1 87.67201870562957 16.56555497223031 1.5867733959398869 -1 0 0
2315 1 90.86009898356556 16.56555497223031 1.5867733959398866 -1 0 0
2142 1 98.83029967840557 13.80459646223331 1.5867733959398862 -1 0 0
2140 5 98.83048039281168 15.645414481279415 0.026919905428247123 -1 0 0
2133 5 94.04835997590767 12.884455971282417 0.02691990542824676 -1 0 0
2136 1 95.64221940046956 13.80459646223331 1.5867733959398869 -1 0 0
2139 5 97.23644025384367 12.884455971282417 0.02691990542824668 -1 0 0
2134 5 95.64240011487567 15.645414481279415 0.02691990542824756 -1 0 0
2321 1 94.04817926150156 16.56555497223031 1.5867733959398869 -1 0 0
2327 1 97.23625953943755 16.56555497223031 1.5867733959398869 -1 0 0
2331 5 1.594031915763674 18.406372991276417 0.026919905428246314 0 0 0
2334 1 3.1878913403255655 19.32651348222731 1.586773395939886 0 0 0
2337 5 4.7821121936996756 18.406372991276417 0.026919905428246398 0 0 0
2332 5 3.1880720547316757 21.16733150127342 0.026919905428246214 0 0 0
2519 1 1.5938512013575648 22.087471992224312 1.5867733959398858 0 0 0
2525 1 4.781931479293565 22.087471992224312 1.586773395939886 0 0 0
2340 1 6.375971618261565 19.32651348222731 1.5867733959398862 0 0 0
2343 5 7.970192471635676 18.406372991276417 0.026919905428246467 0 0 0
2346 1 9.564051896197565 19.32651348222731 1.5867733959398862 0 0 0
2349 5 11.158272749571674 18.406372991276417 0.026919905428246422 0 0 0
2338 5 6.376152332667675 21.16733150127342 0.026919905428246266 0 0 0
2344 5 9.564232610603675 21.16733150127342 0.026919905428246075 0 0 0
2531 1 7.970011757229566 22.087471992224312 1.5867733959398858 0 0 0
2537 1 11.158092035165565 22.087471992224312 1.5867733959398858 0 0 0
2352 1 12.752132174133566 19.32651348222731 1.5867733959398862 0 0 0
2355 5 14.346353027507675 18.406372991276417 0.026919905428246297 0 0 0
2358 1 15.940212452069568 19.32651348222731 1.586773395939886 0 0 0
2350 5 12.752312888539677 21.16733150127342 0.02691990542824605 0 0 0
2356 5 15.940393166475678 21.16733150127342 0.026919905428246498 0 0 0
2543 1 14.346172313101567 22.087471992224312 1.5867733959398858 0 0 0
2361 5 17.534433305443677 18.406372991276417 0.026919905428246623 0 0 0
2364 1 19.128292730005565 19.32651348222731 1.586773395939886 0 0 0
2367 5 20.722513583379676 18.406372991276417 0.02691990542824623 0 0 0
2370 1 22.316373007941568 19.32651348222731 1.5867733959398862 0 0 0
2362 5 19.128473444411675 21.16733150127342 0.026919905428246696 0 0 0
2368 5 22.316553722347674 21.16733150127342 0.026919905428245957 0 0 0
2549 1 17.534252591037568 22.087471992224312 1.5867733959398858 0 0 0
2555 1 20.722332868973567 22.087471992224312 1.5867733959398858 0 0 0
2373 5 23.91059386131568 18.406372991276417 0.026919905428246127 0 0 0
2376 1 25.50445328587757 19.32651348222731 1.5867733959398862 0 0 0
2379 5 27.098674139251678 18.406372991276417 0.026919905428246977 0 0 0
2382 1 28.692533563813566 19.32651348222731 1.586773395939886 0 0 0
2374 5 25.504634000283676 21.16733150127342 0.026919905428246266 0 0 0
2380 5 28.692714278219675 21.16733150127342 0.02691990542824654 0 0 0
2561 1 23.91041314690957 22.087471992224312 1.586773395939886 0 0 0
2567 1 27.098493424845568 22.087471992224312 1.5867733959398858 0 0 0
2385 5 30.286754417187673 18.406372991276417 0.02691990542824663 0 0 0
2391 5 33.474834695123675 18.406372991276417 0.026919905428246044 0 0 0
2388 1 31.880613841749565 19.32651348222731 1.586773395939886 0 0 0
2386 5 31.880794556155674 21.16733150127342 0.026919905428246103 0 0 0
2573 1 30.286573702781563 22.087471992224312 1.5867733959398858 0 0 0
2579 1 33.47465398071757 22.087471992224312 1.586773395939886 0 0 0
2394 1 35.06869411968557 19.32651348222731 1.586773395939886 0 0 0
2397 5 36.66291497305968 18.406372991276417 0.0269199054282463 0 0 0
2400 1 38.25677439762157 19.32651348222731 1.586773395939886 0 0 0
2403 5 39.85099525099568 18.406372991276417 0.02691990542824665 0 0 0
2392 5 35.06887483409168 21.16733150127342 0.02691990542824599 0 0 0
2398 5 38.256955112027676 21.16733150127342 0.02691990542824633 0 0 0
2585 1 36.66273425865357 22.087471992224312 1.5867733959398858 0 0 0
2591 1 39.85081453658957 22.087471992224312 1.5867733959398858 0 0 0
2406 1 41.444854675557565 19.32651348222731 1.5867733959398862 0 0 0
2409 5 43.039075528931676 18.406372991276417 0.026919905428246245 0 0 0