LAMMPS data file via write_data, version 29 Aug 2024, timestep = 3, units = metal

6696 atoms
6 atom types

0 98.830488616016 xlo xhi
0 99.394506359892 ylo yhi
-50 50 zlo zhi

Masses

1 95.95
2 95.95
3 32.06
4 32.06
5 32.06
6 32.06

Atoms # atomic

1773 4 1.594032063381514 1.8406221184910248 0.02689123479609007 0 0 0
1776 1 3.1878933108278074 2.7607643575893137 1.5867736256521623 0 0 0
1779 4 4.782112341317515 1.8406221184910245 0.026891234796090034 0 0 0
1774 4 3.188072202349516 4.601580628488023 0.02689123479608946 0 0 0
1961 1 1.5938531718598064 5.521722867586313 1.5867736256521618 0 0 0
1967 1 4.781933449795807 5.521722867586313 1.5867736256521618 0 0 0
1782 1 6.375973588763807 2.7607643575893137 1.5867736256521623 0 0 0
1785 4 7.970192619253516 1.840622118491025 0.026891234796090086 0 0 0
1788 1 9.564053866699808 2.760764357589314 1.5867736256521623 0 0 0
1791 4 11.158272897189514 1.8406221184910248 0.026891234796090173 0 0 0
1780 4 6.376152480285515 4.601580628488023 0.026891234796089326 0 0 0
1786 4 9.564232758221516 4.601580628488023 0.02689123479608932 0 0 0
1973 1 7.970013727731808 5.5217228675863135 1.5867736256521618 0 0 0
1979 1 11.158094005667808 5.521722867586313 1.5867736256521618 0 0 0
1794 1 12.752134144635809 2.760764357589314 1.5867736256521623 0 0 0
1797 4 14.346353175125516 1.8406221184910245 0.026891234796089823 0 0 0
1800 1 15.94021442257181 2.7607643575893137 1.5867736256521623 0 0 0
1792 4 12.752313036157517 4.601580628488023 0.02689123479608918 0 0 0
1798 4 15.940393314093518 4.601580628488023 0.026891234796089472 0 0 0
1985 1 14.346174283603808 5.521722867586313 1.586773625652162 0 0 0
1803 4 17.534433453061517 1.840622118491025 0.026891234796090346 0 0 0
1806 1 19.12829470050781 2.7607643575893137 1.586773625652162 0 0 0
1809 4 20.722513730997512 1.8406221184910248 0.026891234796090038 0 0 0
1812 1 22.316374978443807 2.7607643575893137 1.5867736256521623 0 0 0
1804 4 19.128473592029515 4.601580628488023 0.026891234796089885 0 0 0
1810 4 22.316553869965514 4.601580628488023 0.026891234796088927 0 0 0
1991 1 17.534254561539807 5.521722867586313 1.5867736256521618 0 0 0
1997 1 20.722334839475806 5.521722867586313 1.5867736256521618 0 0 0
1815 4 23.91059400893352 1.8406221184910245 0.02689123479608976 0 0 0
1818 1 25.50445525637981 2.7607643575893137 1.5867736256521623 0 0 0
1821 4 27.098674286869517 1.840622118491025 0.02689123479609058 0 0 0
1824 1 28.69253553431581 2.7607643575893137 1.586773625652162 0 0 0
1816 4 25.50463414790152 4.601580628488023 0.026891234796089365 0 0 0
1822 4 28.692714425837515 4.601580628488024 0.02689123479608989 0 0 0
2003 1 23.91041511741181 5.521722867586313 1.5867736256521618 0 0 0
2009 1 27.098495395347808 5.521722867586313 1.586773625652162 0 0 0
1827 4 30.286754564805513 1.8406221184910248 0.026891234796090544 0 0 0
1833 4 33.474834842741515 1.8406221184910245 0.02689123479608957 0 0 0
1830 1 31.880615812251804 2.7607643575893137 1.586773625652162 0 0 0
1828 4 31.88079470377351 4.601580628488023 0.02689123479608937 0 0 0
2015 1 30.286575673283807 5.521722867586313 1.5867736256521618 0 0 0
2021 1 33.4746559512198 5.521722867586313 1.5867736256521618 0 0 0
1836 1 35.06869609018781 2.7607643575893137 1.5867736256521623 0 0 0
1839 4 36.66291512067752 1.8406221184910248 0.02689123479608977 0 0 0
1842 1 38.25677636812381 2.7607643575893137 1.586773625652162 0 0 0
1845 4 39.85099539861352 1.8406221184910252 0.026891234796090666 0 0 0
1834 4 35.06887498170952 4.601580628488023 0.02689123479608875 0 0 0
1840 4 38.25695525964552 4.601580628488023 0.026891234796089677 0 0 0
2027 1 36.66273622915581 5.521722867586313 1.5867736256521618 0 0 0
2033 1 39.85081650709181 5.521722867586313 1.5867736256521618 0 0 0
1848 1 41.444856646059804 2.7607643575893137 1.5867736256521623 0 0 0
1851 4 43.039075676549515 1.8406221184910245 0.026891234796089878 0 0 0
1854 1 44.63293692399581 2.7607643575893137 1.5867736256521623 0 0 0
1857 4 46.22715595448552 1.8406221184910248 0.02689123479608978 0 0 0
1846 4 41.44503553758152 4.601580628488023 0.026891234796089646 0 0 0
1852 4 44.63311581551752 4.601580628488023 0.026891234796088962 0 0 0
2039 1 43.0388967850278 5.521722867586313 1.586773625652162 0 0 0
2045 1 46.22697706296381 5.521722867586313 1.5867736256521618 0 0 0
1860 1 47.82101720193181 2.760764357589314 1.5867736256521623 0 0 0
1677 4 49.41523623242152 1.8406221184910248 0.026891234796090267 -1 0 0
1680 1 51.009097479867805 2.760764357589314 1.5867736256521623 -1 0 0
1858 4 47.82119609345352 4.601580628488023 0.026891234796089673 0 0 0
1678 4 51.00927637138952 4.601580628488024 0.02689123479608937 -1 0 0
1865 1 49.41505734089981 5.521722867586313 1.5867736256521618 -1 0 0
1683 4 52.603316510357516 1.8406221184910248 0.02689123479609013 -1 0 0
1686 1 54.19717775780381 2.7607643575893137 1.5867736256521623 -1 0 0
1689 4 55.79139678829352 1.840622118491025 0.026891234796090104 -1 0 0
1692 1 57.3852580357398 2.760764357589314 1.5867736256521623 -1 0 0
1684 4 54.19735664932552 4.601580628488023 0.0268912347960893 -1 0 0
1690 4 57.385436927261516 4.601580628488023 0.026891234796089413 -1 0 0
1871 1 52.6031376188358 5.521722867586313 1.5867736256521618 -1 0 0
1877 1 55.791217896771805 5.5217228675863135 1.5867736256521618 -1 0 0
1695 4 58.979477066229514 1.8406221184910248 0.02689123479609035 -1 0 0
1698 1 60.573338313675805 2.760764357589314 1.5867736256521623 -1 0 0
1701 4 62.167557344165516 1.8406221184910248 0.026891234796090003 -1 0 0
1704 1 63.76141859161181 2.7607643575893137 1.5867736256521625 -1 0 0
1696 4 60.57351720519752 4.601580628488023 0.026891234796089656 -1 0 0
1702 4 63.761597483133514 4.601580628488023 0.026891234796089337 -1 0 0
1883 1 58.97929817470781 5.521722867586313 1.586773625652162 -1 0 0
1889 1 62.1673784526438 5.521722867586313 1.586773625652162 -1 0 0
1707 4 65.35563762210151 1.8406221184910245 0.026891234796090256 -1 0 0
1710 1 66.94949886954781 2.7607643575893137 1.5867736256521623 -1 0 0
1713 4 68.5437179000375 1.8406221184910248 0.026891234796090804 -1 0 0
1708 4 66.94967776106951 4.601580628488023 0.02689123479608998 -1 0 0
1895 1 65.35545873057981 5.521722867586313 1.5867736256521623 -1 0 0
1901 1 68.54353900851581 5.5217228675863135 1.586773625652162 -1 0 0
1716 1 70.1375791474838 2.7607643575893137 1.5867736256521623 -1 0 0
1719 4 71.7317981779735 1.8406221184910254 0.0268912347960895 -1 0 0
1722 1 73.3256594254198 2.7607643575893146 1.586773625652162 -1 0 0
1725 4 74.91987845590951 1.8406221184910245 0.02689123479608999 -1 0 0
1714 4 70.1377580390055 4.601580628488023 0.026891234796089382 -1 0 0
1720 4 73.32583831694151 4.601580628488024 0.02689123479608871 -1 0 0
1907 1 71.7316192864518 5.5217228675863135 1.5867736256521618 -1 0 0
1913 1 74.91969956438781 5.5217228675863135 1.586773625652162 -1 0 0
1728 1 76.51373970335581 2.7607643575893133 1.5867736256521627 -1 0 0
1731 4 78.1079587338455 1.8406221184910245 0.026891234796090558 -1 0 0
1734 1 79.7018199812918 2.760764357589314 1.5867736256521623 -1 0 0
1737 4 81.2960390117815 1.8406221184910243 0.02689123479609013 -1 0 0
1726 4 76.51391859487751 4.601580628488023 0.026891234796089916 -1 0 0
1732 4 79.7019988728135 4.601580628488023 0.02689123479609007 -1 0 0
1919 1 78.10777984232381 5.521722867586313 1.586773625652162 -1 0 0
1925 1 81.2958601202598 5.521722867586313 1.5867736256521618 -1 0 0
1740 1 82.8899002592278 2.7607643575893137 1.5867736256521623 -1 0 0
1743 4 84.48411928971751 1.8406221184910252 0.02689123479608937 -1 0 0
1746 1 86.07798053716381 2.7607643575893137 1.5867736256521623 -1 0 0
1738 4 82.8900791507495 4.601580628488023 0.02689123479608883 -1 0 0
1744 4 86.07815942868551 4.601580628488023 0.026891234796089375 -1 0 0
1931 1 84.4839403981958 5.521722867586313 1.5867736256521618 -1 0 0
1749 4 87.67219956765351 1.8406221184910248 0.026891234796090728 -1 0 0
1752 1 89.2660608150998 2.7607643575893137 1.5867736256521623 -1 0 0
1755 4 90.8602798455895 1.8406221184910252 0.026891234796089673 -1 0 0
1758 1 92.4541410930358 2.7607643575893146 1.586773625652162 -1 0 0
1750 4 89.2662397066215 4.601580628488023 0.0268912347960894 -1 0 0
1756 4 92.45431998455751 4.601580628488024 0.02689123479608871 -1 0 0
1937 1 87.67202067613181 5.521722867586313 1.586773625652162 -1 0 0
1943 1 90.8601009540678 5.5217228675863135 1.5867736256521618 -1 0 0
1770 1 98.8303016489078 2.7607643575893137 1.586773625652162 -1 0 0
1768 4 98.83048054042952 4.601580628488023 0.026891234796089358 -1 0 0
1761 4 94.04836012352551 1.8406221184910245 0.026891234796089996 -1 0 0
1764 1 95.64222137097181 2.7607643575893133 1.5867736256521625 -1 0 0
1767 4 97.23644040146151 1.8406221184910248 0.02689123479609043 -1 0 0
1762 4 95.64240026249351 4.601580628488024 0.02689123479608994 -1 0 0
1949 1 94.04818123200381 5.5217228675863135 1.5867736256521618 -1 0 0
1955 1 97.23626150993981 5.5217228675863135 1.586773625652162 -1 0 0
1959 4 1.5940320633815142 7.362539138485023 0.026891234796089156 0 0 0
1962 1 3.1878933108278074 8.282681377583312 1.5867736256521618 0 0 0
1965 4 4.782112341317515 7.362539138485023 0.026891234796089233 0 0 0
1960 4 3.188072202349516 10.123497648482022 0.026891234796089312 0 0 0
2147 1 1.5938531718598064 11.043639887580312 1.5867736256521616 0 0 0
2153 1 4.781933449795807 11.043639887580312 1.5867736256521616 0 0 0
1968 1 6.375973588763807 8.282681377583312 1.5867736256521618 0 0 0
1971 4 7.970192619253516 7.362539138485023 0.026891234796089236 0 0 0
1974 1 9.564053866699808 8.282681377583312 1.5867736256521618 0 0 0
1977 4 11.158272897189514 7.362539138485023 0.026891234796089302 0 0 0
1966 4 6.376152480285515 10.123497648482022 0.0268912347960893 0 0 0
1972 4 9.564232758221516 10.123497648482022 0.02689123479608925 0 0 0
2159 1 7.970013727731808 11.043639887580312 1.5867736256521616 0 0 0
2165 1 11.158094005667808 11.043639887580312 1.5867736256521616 0 0 0
1980 1 12.752134144635809 8.282681377583312 1.586773625652162 0 0 0
1983 4 14.346353175125516 7.362539138485023 0.026891234796089097 0 0 0
1986 1 15.94021442257181 8.282681377583312 1.586773625652162 0 0 0
1978 4 12.752313036157517 10.123497648482022 0.02689123479608906 0 0 0
1984 4 15.940393314093518 10.123497648482022 0.026891234796089368 0 0 0
2171 1 14.346174283603808 11.043639887580312 1.5867736256521618 0 0 0
1989 4 17.534433453061517 7.362539138485023 0.026891234796089517 0 0 0
1992 1 19.12829470050781 8.282681377583312 1.5867736256521618 0 0 0
1995 4 20.722513730997512 7.362539138485023 0.026891234796089226 0 0 0
1998 1 22.316374978443807 8.282681377583312 1.5867736256521618 0 0 0
1990 4 19.128473592029515 10.123497648482024 0.02689123479608982 0 0 0
1996 4 22.316553869965514 10.123497648482022 0.02689123479608884 0 0 0
2177 1 17.534254561539807 11.043639887580312 1.5867736256521616 0 0 0
2183 1 20.722334839475806 11.043639887580312 1.5867736256521616 0 0 0
2001 4 23.91059400893352 7.362539138485023 0.026891234796088914 0 0 0
2004 1 25.50445525637981 8.282681377583312 1.586773625652162 0 0 0
2007 4 27.098674286869517 7.362539138485023 0.026891234796089705 0 0 0
2010 1 28.69253553431581 8.282681377583312 1.5867736256521618 0 0 0
2002 4 25.50463414790152 10.123497648482022 0.02689123479608934 0 0 0
2008 4 28.692714425837515 10.123497648482024 0.02689123479608968 0 0 0
2189 1 23.91041511741181 11.043639887580312 1.5867736256521618 0 0 0
2195 1 27.098495395347808 11.043639887580312 1.5867736256521616 0 0 0
2013 4 30.286754564805513 7.362539138485023 0.026891234796089666 0 0 0
2019 4 33.474834842741515 7.362539138485023 0.026891234796088688 0 0 0
2016 1 31.880615812251804 8.282681377583312 1.5867736256521618 0 0 0
2014 4 31.88079470377351 10.123497648482022 0.02689123479608922 0 0 0
2201 1 30.286575673283807 11.043639887580312 1.5867736256521616 0 0 0
2207 1 33.4746559512198 11.043639887580312 1.5867736256521616 0 0 0
2022 1 35.06869609018781 8.282681377583312 1.586773625652162 0 0 0
2025 4 36.66291512067752 7.362539138485023 0.02689123479608892 0 0 0
2028 1 38.25677636812381 8.282681377583312 1.5867736256521618 0 0 0
2031 4 39.85099539861352 7.362539138485023 0.02689123479608983 0 0 0
2020 4 35.06887498170952 10.123497648482022 0.026891234796088598 0 0 0
2026 4 38.25695525964552 10.123497648482024 0.026891234796089493 0 0 0
2213 1 36.66273622915581 11.043639887580312 1.5867736256521616 0 0 0
2219 1 39.85081650709181 11.043639887580312 1.5867736256521616 0 0 0
2034 1 41.444856646059804 8.282681377583312 1.586773625652162 0 0 0
2037 4 43.039075676549515 7.3625391384850225 0.026891234796089042 0 0 0
2040 1 44.63293692399581 8.282681377583312 1.586773625652162 0 0 0
2043 4 46.22715595448552 7.362539138485023 0.026891234796088986 0 0 0
2032 4 41.44503553758152 10.123497648482022 0.026891234796089444 0 0 0
2038 4 44.63311581551752 10.123497648482022 0.026891234796088768 0 0 0
2225 1 43.0388967850278 11.043639887580312 1.5867736256521618 0 0 0
2231 1 46.22697706296381 11.043639887580312 1.5867736256521616 0 0 0
2046 1 47.82101720193181 8.282681377583312 1.5867736256521618 0 0 0
1863 4 49.41523623242152 7.362539138485023 0.026891234796089455 -1 0 0
1866 1 51.009097479867805 8.282681377583312 1.5867736256521618 -1 0 0
2044 4 47.82119609345352 10.123497648482024 0.0268912347960896 0 0 0
1864 4 51.00927637138952 10.123497648482022 0.026891234796089254 -1 0 0
2051 1 49.41505734089981 11.043639887580312 1.5867736256521618 -1 0 0
1869 4 52.603316510357516 7.362539138485023 0.026891234796089306 -1 0 0
1872 1 54.19717775780381 8.282681377583312 1.586773625652162 -1 0 0
1875 4 55.79139678829352 7.362539138485023 0.026891234796089226 -1 0 0
1878 1 57.3852580357398 8.282681377583312 1.586773625652162 -1 0 0
1870 4 54.19735664932552 10.123497648482022 0.0268912347960892 -1 0 0
1876 4 57.385436927261516 10.123497648482022 0.02689123479608935 -1 0 0
2057 1 52.6031376188358 11.043639887580312 1.5867736256521618 -1 0 0
2063 1 55.791217896771805 11.043639887580312 1.5867736256521616 -1 0 0
1881 4 58.979477066229514 7.362539138485023 0.026891234796089587 -1 0 0
1884 1 60.573338313675805 8.282681377583312 1.586773625652162 -1 0 0
1887 4 62.167557344165516 7.362539138485023 0.026891234796089312 -1 0 0
1890 1 63.76141859161181 8.282681377583312 1.586773625652162 -1 0 0
1882 4 60.57351720519752 10.123497648482022 0.02689123479608962 -1 0 0
1888 4 63.761597483133514 10.123497648482022 0.02689123479608921 -1 0 0
2069 1 58.97929817470781 11.043639887580312 1.5867736256521618 -1 0 0
2075 1 62.1673784526438 11.043639887580312 1.5867736256521618 -1 0 0
1893 4 65.35563762210151 7.3625391384850225 0.026891234796089517 -1 0 0
1896 1 66.94949886954781 8.282681377583312 1.586773625652162 -1 0 0
1899 4 68.5437179000375 7.362539138485023 0.026891234796090055 -1 0 0
1894 4 66.94967776106951 10.123497648482022 0.026891234796089923 -1 0 0
2081 1 65.35545873057981 11.043639887580312 1.5867736256521618 -1 0 0
2087 1 68.54353900851581 11.043639887580312 1.5867736256521618 -1 0 0
1902 1 70.1375791474838 8.282681377583312 1.5867736256521618 -1 0 0
1905 4 71.7317981779735 7.362539138485024 0.026891234796088726 -1 0 0
1908 1 73.3256594254198 8.282681377583314 1.5867736256521616 -1 0 0
1911 4 74.91987845590951 7.362539138485023 0.026891234796089136 -1 0 0
1900 4 70.1377580390055 10.123497648482022 0.026891234796089288 -1 0 0
1906 4 73.32583831694151 10.123497648482022 0.026891234796088626 -1 0 0
2093 1 71.7316192864518 11.043639887580312 1.5867736256521616 -1 0 0
2099 1 74.91969956438781 11.043639887580312 1.5867736256521618 -1 0 0
1914 1 76.51373970335581 8.282681377583312 1.5867736256521623 -1 0 0
1917 4 78.1079587338455 7.3625391384850225 0.026891234796089698 -1 0 0
1920 1 79.7018199812918 8.282681377583312 1.586773625652162 -1 0 0
1923 4 81.2960390117815 7.362539138485023 0.026891234796089306 -1 0 0
1912 4 76.51391859487751 10.123497648482024 0.026891234796089784 -1 0 0
1918 4 79.7019988728135 10.123497648482024 0.026891234796089892 -1 0 0
2105 1 78.10777984232381 11.043639887580312 1.5867736256521618 -1 0 0
2111 1 81.2958601202598 11.043639887580312 1.5867736256521618 -1 0 0
1926 1 82.8899002592278 8.282681377583312 1.586773625652162 -1 0 0
1929 4 84.48411928971751 7.362539138485023 0.026891234796088567 -1 0 0
1932 1 86.07798053716381 8.282681377583312 1.5867736256521618 -1 0 0
1924 4 82.8900791507495 10.123497648482022 0.026891234796088657 -1 0 0
1930 4 86.07815942868551 10.123497648482022 0.02689123479608924 -1 0 0
2117 1 84.4839403981958 11.043639887580312 1.5867736256521616 -1 0 0
1935 4 87.67219956765351 7.3625391384850225 0.02689123479608989 -1 0 0
1938 1 89.2660608150998 8.282681377583312 1.5867736256521618 -1 0 0
1941 4 90.8602798455895 7.362539138485024 0.026891234796088893 -1 0 0
1944 1 92.4541410930358 8.282681377583314 1.5867736256521616 -1 0 0
1936 4 89.2662397066215 10.123497648482022 0.026891234796089288 -1 0 0
1942 4 92.45431998455751 10.123497648482022 0.026891234796088626 -1 0 0
2123 1 87.67202067613181 11.043639887580312 1.5867736256521618 -1 0 0
2129 1 90.8601009540678 11.043639887580312 1.5867736256521616 -1 0 0
1956 1 98.8303016489078 8.282681377583312 1.5867736256521618 -1 0 0
1954 4 98.83048054042952 10.123497648482022 0.026891234796089243 -1 0 0
1947 4 94.04836012352551 7.362539138485023 0.026891234796089167 -1 0 0
1950 1 95.64222137097181 8.282681377583312 1.5867736256521623 -1 0 0
1953 4 97.23644040146151 7.362539138485023 0.026891234796089604 -1 0 0
1948 4 95.64240026249351 10.123497648482024 0.026891234796089913 -1 0 0
2135 1 94.04818123200381 11.043639887580312 1.5867736256521618 -1 0 0
2141 1 97.23626150993981 11.043639887580312 1.5867736256521618 -1 0 0
2145 4 1.594032063381514 12.884456158479022 0.02689123479608923 0 0 0
2148 1 3.1878933108278074 13.80459839757731 1.5867736256521623 0 0 0
2151 4 4.782112341317515 12.884456158479022 0.02689123479608928 0 0 0
2146 4 3.188072202349516 15.64541466847602 0.02689123479608984 0 0 0
2333 1 1.5938531718598064 16.56555690757431 1.586773625652162 0 0 0
2339 1 4.781933449795807 16.56555690757431 1.5867736256521623 0 0 0
2154 1 6.375973588763807 13.80459839757731 1.586773625652162 0 0 0
2157 4 7.970192619253516 12.884456158479022 0.026891234796089323 0 0 0
2160 1 9.564053866699808 13.80459839757731 1.5867736256521623 0 0 0
2163 4 11.158272897189514 12.884456158479022 0.02689123479608929 0 0 0
2152 4 6.376152480285515 15.64541466847602 0.026891234796089774 0 0 0
2158 4 9.564232758221515 15.64541466847602 0.0268912347960897 0 0 0
2345 1 7.970013727731808 16.56555690757431 1.5867736256521623 0 0 0
2351 1 11.158094005667808 16.56555690757431 1.5867736256521623 0 0 0
2166 1 12.752134144635809 13.80459839757731 1.5867736256521623 0 0 0
2169 4 14.346353175125516 12.884456158479022 0.026891234796089115 0 0 0
2172 1 15.94021442257181 13.80459839757731 1.5867736256521623 0 0 0
2164 4 12.752313036157517 15.64541466847602 0.026891234796089493 0 0 0
2170 4 15.940393314093518 15.64541466847602 0.026891234796089986 0 0 0
2357 1 14.346174283603808 16.56555690757431 1.5867736256521623 0 0 0
2175 4 17.534433453061517 12.884456158479022 0.026891234796089673 0 0 0
2178 1 19.12829470050781 13.80459839757731 1.5867736256521623 0 0 0
2181 4 20.722513730997512 12.884456158479022 0.02689123479608928 0 0 0
2184 1 22.316374978443807 13.80459839757731 1.5867736256521623 0 0 0
2176 4 19.128473592029515 15.64541466847602 0.0268912347960903 0 0 0
2182 4 22.316553869965514 15.64541466847602 0.026891234796089288 0 0 0
2363 1 17.534254561539807 16.56555690757431 1.5867736256521623 0 0 0
2369 1 20.722334839475806 16.56555690757431 1.5867736256521623 0 0 0
2187 4 23.91059400893352 12.884456158479022 0.026891234796088903 0 0 0
2190 1 25.50445525637981 13.80459839757731 1.5867736256521623 0 0 0
2193 4 27.098674286869517 12.884456158479022 0.02689123479608982 0 0 0
2196 1 28.69253553431581 13.804598397577312 1.5867736256521623 0 0 0
2188 4 25.50463414790152 15.64541466847602 0.026891234796089812 0 0 0
2194 4 28.692714425837515 15.64541466847602 0.026891234796090395 0 0 0
2375 1 23.91041511741181 16.56555690757431 1.5867736256521623 0 0 0
2381 1 27.098495395347808 16.56555690757431 1.5867736256521623 0 0 0
2199 4 30.286754564805513 12.884456158479022 0.026891234796089836 0 0 0
2205 4 33.474834842741515 12.884456158479022 0.026891234796088705 0 0 0
2202 1 31.880615812251804 13.80459839757731 1.5867736256521623 0 0 0
2200 4 31.88079470377351 15.64541466847602 0.02689123479608981 0 0 0
2387 1 30.286575673283807 16.56555690757431 1.5867736256521623 0 0 0
2393 1 33.4746559512198 16.56555690757431 1.5867736256521623 0 0 0
2208 1 35.06869609018781 13.80459839757731 1.5867736256521623 0 0 0
2211 4 36.66291512067752 12.884456158479022 0.026891234796089007 0 0 0
2214 1 38.25677636812381 13.804598397577312 1.5867736256521623 0 0 0
2217 4 39.85099539861352 12.884456158479022 0.026891234796089895 0 0 0
2206 4 35.06887498170952 15.64541466847602 0.026891234796089236 0 0 0
2212 4 38.25695525964552 15.64541466847602 0.02689123479609011 0 0 0
2399 1 36.66273622915581 16.56555690757431 1.5867736256521623 0 0 0
2405 1 39.85081650709181 16.56555690757431 1.5867736256521623 0 0 0
2220 1 41.444856646059804 13.80459839757731 1.5867736256521623 0 0 0
2223 4 43.039075676549515 12.884456158479022 0.026891234796089052 0 0 0
2226 1 44.63293692399581 13.80459839757731 1.5867736256521623 0 0 0
2229 4 46.22715595448552 12.884456158479022 0.026891234796089035 0 0 0
2218 4 41.44503553758152 15.64541466847602 0.026891234796090013 0 0 0
2224 4 44.63311581551752 15.64541466847602 0.026891234796089424 0 0 0
2411 1 43.0388967850278 16.56555690757431 1.5867736256521625 0 0 0
2417 1 46.22697706296381 16.56555690757431 1.5867736256521623 0 0 0
2232 1 47.82101720193181 13.80459839757731 1.5867736256521623 0 0 0
2049 4 49.41523623242152 12.884456158479022 0.02689123479608953 -1 0 0
2052 1 51.009097479867805 13.80459839757731 1.5867736256521623 -1 0 0
2230 4 47.82119609345352 15.64541466847602 0.02689123479609005 0 0 0
2050 4 51.00927637138952 15.64541466847602 0.0268912347960897 -1 0 0
2237 1 49.41505734089981 16.56555690757431 1.5867736256521623 -1 0 0
2055 4 52.603316510357516 12.884456158479022 0.026891234796089326 -1 0 0
2058 1 54.19717775780381 13.80459839757731 1.5867736256521623 -1 0 0
2061 4 55.79139678829352 12.884456158479022 0.02689123479608925 -1 0 0
2064 1 57.3852580357398 13.80459839757731 1.5867736256521623 -1 0 0
2056 4 54.19735664932552 15.64541466847602 0.026891234796089653 -1 0 0
2062 4 57.385436927261516 15.64541466847602 0.0268912347960898 -1 0 0
2243 1 52.6031376188358 16.56555690757431 1.5867736256521623 -1 0 0
2249 1 55.791217896771805 16.56555690757431 1.5867736256521623 -1 0 0
2067 4 58.979477066229514 12.88445615847902 0.02689123479608955 -1 0 0
2070 1 60.573338313675805 13.80459839757731 1.5867736256521625 -1 0 0
2073 4 62.167557344165516 12.884456158479022 0.02689123479608933 -1 0 0
2076 1 63.76141859161181 13.80459839757731 1.5867736256521625 -1 0 0
2068 4 60.57351720519752 15.64541466847602 0.026891234796090208 -1 0 0
2074 4 63.761597483133514 15.64541466847602 0.02689123479608987 -1 0 0
2255 1 58.97929817470781 16.56555690757431 1.5867736256521625 -1 0 0
2261 1 62.1673784526438 16.56555690757431 1.5867736256521625 -1 0 0
2079 4 65.35563762210151 12.884456158479022 0.02689123479608944 -1 0 0
2082 1 66.94949886954781 13.80459839757731 1.5867736256521623 -1 0 0
2085 4 68.5437179000375 12.884456158479022 0.026891234796089968 -1 0 0
2080 4 66.94967776106951 15.64541466847602 0.02689123479609046 -1 0 0
2267 1 65.35545873057981 16.56555690757431 1.5867736256521625 -1 0 0
2273 1 68.54353900851581 16.56555690757431 1.5867736256521623 -1 0 0
2088 1 70.1375791474838 13.804598397577312 1.5867736256521623 -1 0 0
2091 4 71.7317981779735 12.884456158479022 0.02689123479608871 -1 0 0
2094 1 73.3256594254198 13.804598397577312 1.5867736256521618 -1 0 0
2097 4 74.91987845590951 12.884456158479022 0.026891234796089257 -1 0 0
2086 4 70.1377580390055 15.64541466847602 0.026891234796089947 -1 0 0
2092 4 73.32583831694151 15.64541466847602 0.02689123479608917 -1 0 0
2279 1 71.7316192864518 16.56555690757431 1.586773625652162 -1 0 0
2285 1 74.91969956438781 16.56555690757431 1.5867736256521623 -1 0 0
2100 1 76.51373970335581 13.80459839757731 1.5867736256521625 -1 0 0
2103 4 78.1079587338455 12.884456158479022 0.026891234796089875 -1 0 0
2106 1 79.7018199812918 13.80459839757731 1.5867736256521623 -1 0 0
2109 4 81.2960390117815 12.88445615847902 0.02689123479608941 -1 0 0
2098 4 76.51391859487751 15.645414668476022 0.02689123479609034 -1 0 0
2104 4 79.7019988728135 15.64541466847602 0.02689123479609037 -1 0 0
2291 1 78.10777984232381 16.56555690757431 1.5867736256521625 -1 0 0
2297 1 81.2958601202598 16.56555690757431 1.5867736256521623 -1 0 0
2112 1 82.8899002592278 13.80459839757731 1.5867736256521623 -1 0 0
2115 4 84.48411928971751 12.884456158479022 0.026891234796088546 -1 0 0
2118 1 86.07798053716381 13.80459839757731 1.586773625652162 -1 0 0
2110 4 82.8900791507495 15.64541466847602 0.02689123479608923 -1 0 0
2116 4 86.07815942868551 15.64541466847602 0.026891234796089833 -1 0 0
2303 1 84.4839403981958 16.56555690757431 1.5867736256521623 -1 0 0
2121 4 87.67219956765351 12.884456158479022 0.026891234796089895 -1 0 0
2124 1 89.2660608150998 13.80459839757731 1.586773625652162 -1 0 0
2127 4 90.8602798455895 12.884456158479022 0.026891234796088875 -1 0 0
2130 1 92.4541410930358 13.804598397577312 1.5867736256521618 -1 0 0
2122 4 89.2662397066215 15.64541466847602 0.026891234796089944 -1 0 0
2128 4 92.45431998455751 15.64541466847602 0.02689123479608917 -1 0 0
2309 1 87.67202067613181 16.56555690757431 1.5867736256521623 -1 0 0
2315 1 90.8601009540678 16.56555690757431 1.586773625652162 -1 0 0
2142 1 98.8303016489078 13.80459839757731 1.586773625652162 -1 0 0
2140 4 98.83048054042952 15.64541466847602 0.02689123479608973 -1 0 0
2133 4 94.04836012352551 12.884456158479022 0.026891234796089267 -1 0 0
2136 1 95.64222137097181 13.80459839757731 1.5867736256521625 -1 0 0
2139 4 97.23644040146151 12.884456158479022 0.0268912347960896 -1 0 0
2134 4 95.64240026249351 15.645414668476022 0.026891234796090336 -1 0 0
2321 1 94.04818123200381 16.56555690757431 1.5867736256521623 -1 0 0
2327 1 97.23626150993981 16.56555690757431 1.5867736256521625 -1 0 0
2331 4 1.5940320633815142 18.40637317847302 0.02689123479608889 0 0 0
2334 1 3.1878933108278074 19.32651541757131 1.5867736256521616 0 0 0
2337 4 4.782112341317515 18.40637317847302 0.026891234796088855 0 0 0
2332 4 3.188072202349516 21.16733168847002 0.026891234796088733 0 0 0
2519 1 1.5938531718598064 22.08747392756831 1.5867736256521614 0 0 0
2525 1 4.781933449795807 22.08747392756831 1.5867736256521614 0 0 0
2340 1 6.375973588763807 19.32651541757131 1.5867736256521616 0 0 0
2343 4 7.970192619253516 18.40637317847302 0.02689123479608879 0 0 0
2346 1 9.564053866699808 19.32651541757131 1.5867736256521616 0 0 0
2349 4 11.158272897189514 18.40637317847302 0.02689123479608886 0 0 0
2338 4 6.376152480285515 21.16733168847002 0.02689123479608873 0 0 0
2344 4 9.564232758221516 21.16733168847002 0.026891234796088712 0 0 0
2531 1 7.970013727731807 22.08747392756831 1.5867736256521614 0 0 0
2537 1 11.158094005667808 22.08747392756831 1.5867736256521614 0 0 0
2352 1 12.752134144635809 19.32651541757131 1.5867736256521616 0 0 0
2355 4 14.346353175125516 18.40637317847302 0.026891234796088726 0 0 0
2358 1 15.94021442257181 19.32651541757131 1.5867736256521616 0 0 0
2350 4 12.752313036157517 21.16733168847002 0.02689123479608857 0 0 0
2356 4 15.940393314093518 21.16733168847002 0.026891234796088837 0 0 0
2543 1 14.346174283603808 22.08747392756831 1.5867736256521614 0 0 0
2361 4 17.534433453061517 18.40637317847302 0.026891234796089087 0 0 0
2364 1 19.12829470050781 19.32651541757131 1.5867736256521616 0 0 0
2367 4 20.722513730997512 18.40637317847302 0.026891234796088886 0 0 0
2370 1 22.316374978443807 19.32651541757131 1.5867736256521614 0 0 0
2362 4 19.128473592029515 21.16733168847002 0.026891234796089188 0 0 0
2368 4 22.316553869965514 21.16733168847002 0.026891234796088164 0 0 0
2549 1 17.534254561539807 22.08747392756831 1.5867736256521614 0 0 0
2555 1 20.722334839475806 22.08747392756831 1.5867736256521614 0 0 0
2373 4 23.91059400893352 18.40637317847302 0.02689123479608855 0 0 0
2376 1 25.50445525637981 19.32651541757131 1.5867736256521616 0 0 0
2379 4 27.098674286869517 18.40637317847302 0.026891234796089354 0 0 0
2382 1 28.69253553431581 19.32651541757131 1.5867736256521616 0 0 0
2374 4 25.50463414790152 21.16733168847002 0.026891234796088744 0 0 0
2380 4 28.692714425837515 21.16733168847002 0.026891234796089267 0 0 0
2561 1 23.91041511741181 22.08747392756831 1.5867736256521616 0 0 0
2567 1 27.098495395347808 22.08747392756831 1.5867736256521616 0 0 0
2385 4 30.286754564805513 18.40637317847302 0.026891234796089354 0 0 0
2391 4 33.474834842741515 18.406373178473018 0.0268912347960883 0 0 0
2388 1 31.880615812251804 19.32651541757131 1.5867736256521616 0 0 0
2386 4 31.88079470377351 21.16733168847002 0.02689123479608866 0 0 0
2573 1 30.286575673283807 22.08747392756831 1.5867736256521614 0 0 0
2579 1 33.4746559512198 22.08747392756831 1.5867736256521614 0 0 0
2394 1 35.06869609018781 19.32651541757131 1.5867736256521614 0 0 0
2397 4 36.66291512067752 18.40637317847302 0.02689123479608865 0 0 0
2400 1 38.25677636812381 19.32651541757131 1.5867736256521616 0 0 0
2403 4 39.85099539861352 18.40637317847302 0.026891234796089437 0 0 0
2392 4 35.06887498170952 21.16733168847002 0.02689123479608804 0 0 0
2398 4 38.25695525964552 21.16733168847002 0.02689123479608902 0 0 0
2585 1 36.66273622915581 22.08747392756831 1.5867736256521614 0 0 0
2591 1 39.85081650709181 22.08747392756831 1.5867736256521614 0 0 0
2406 1 41.444856646059804 19.32651541757131 1.5867736256521616 0 0 0
2409 4 43.039075676549515 18.406373178473018 0.026891234796088626 0 0 0
2412 1 44.63293692399581 19.32651541757131 1.5867736256521616 0 0 0
2415 4 46.22715595448552 18.40637317847302 0.02689123479608865 0 0 0
2404 4 41.44503553758152 21.16733168847002 0.026891234796088875 0 0 0