LAMMPS data file via write_data, version 29 Aug 2024, timestep = 0, units = metal

3348 atoms
3 atom types

0 98.830488616016 xlo xhi
0 99.394506359892 ylo yhi
0 18.158273013182 zlo zhi

Masses

1 95.95
2 32.06
3 32.06

Atoms # atomic

1775 1 1.5940401389679977 0 1.5872886683839997 0 0 0
1781 1 4.782120416904 0 1.5872886683839997 0 0 0
1787 1 7.970200694840003 0 1.5872886683839997 0 0 0
1793 1 11.158280972775998 0 1.5872886683839997 0 0 0
1799 1 14.346361250712 0 1.5872886683839997 0 0 0
1805 1 17.534441528648003 0 1.5872886683839997 0 0 0
1811 1 20.722521806584 0 1.5872886683839997 0 0 0
1817 1 23.910602084520008 0 1.5872886683839997 0 0 0
1823 1 27.098682362456003 0 1.5872886683839997 0 0 0
1829 1 30.286762640392 0 1.5872886683839997 0 0 0
1835 1 33.474842918327994 0 1.5872886683839997 0 0 0
1841 1 36.662923196264 0 1.5872886683839997 0 0 0
1847 1 39.8510034742 0 1.5872886683839997 0 0 0
1853 1 43.039083752135994 0 1.5872886683839997 0 0 0
1859 1 46.227164030072004 0 1.5872886683839997 0 0 0
1679 1 49.415244308008 0 1.5872886683839997 -1 0 0
1685 1 52.603324585944 0 1.5872886683839997 -1 0 0
1691 1 55.79140486388 0 1.5872886683839997 -1 0 0
1697 1 58.979485141816 0 1.5872886683839997 -1 0 0
1703 1 62.167565419751995 0 1.5872886683839997 -1 0 0
1709 1 65.355645697688 0 1.5872886683839997 -1 0 0
1715 1 68.543725975624 0 1.5872886683839997 -1 0 0
1721 1 71.73180625356 0 1.5872886683839997 -1 0 0
1727 1 74.91988653149599 0 1.5872886683839997 -1 0 0
1733 1 78.107966809432 0 1.5872886683839997 -1 0 0
1739 1 81.296047087368 0 1.5872886683839997 -1 0 0
1745 1 84.484127365304 0 1.5872886683839997 -1 0 0
1751 1 87.67220764324 0 1.5872886683839997 -1 0 0
1757 1 90.860287921176 0 1.5872886683839997 -1 0 0
1763 1 94.04836819911199 0 1.5872886683839997 -1 0 0
1769 1 97.236448477048 0 1.5872886683839997 -1 0 0
1773 3 1.5940401389679977 1.8406390066650005 0 0 0 0
1770 1 0 2.760958509996996 1.5872886683839997 0 0 0
1776 1 3.1880802779360025 2.760958509996996 1.5872886683839997 0 0 0
1779 3 4.782120416904 1.8406390066650005 0 0 0 0
1782 1 6.376160555871998 2.760958509996996 1.5872886683839997 0 0 0
1785 3 7.970200694840003 1.8406390066650005 0 0 0 0
1788 1 9.564240833808 2.760958509996996 1.5872886683839997 0 0 0
1791 3 11.158280972775998 1.8406390066650005 0 0 0 0
1794 1 12.752321111744003 2.760958509996996 1.5872886683839997 0 0 0
1797 3 14.346361250712 1.8406390066650005 0 0 0 0
1803 3 17.534441528648003 1.8406390066650005 0 0 0 0
1800 1 15.940401389680005 2.760958509996996 1.5872886683839997 0 0 0
1806 1 19.128481667616 2.760958509996996 1.5872886683839997 0 0 0
1809 3 20.722521806584 1.8406390066650005 0 0 0 0
1812 1 22.316561945551996 2.760958509996996 1.5872886683839997 0 0 0
1815 3 23.910602084520008 1.8406390066650005 0 0 0 0
1818 1 25.504642223488005 2.760958509996996 1.5872886683839997 0 0 0
1821 3 27.098682362456003 1.8406390066650005 0 0 0 0
1824 1 28.692722501424 2.760958509996996 1.5872886683839997 0 0 0
1827 3 30.286762640392 1.8406390066650005 0 0 0 0
1833 3 33.474842918327994 1.8406390066650005 0 0 0 0
1830 1 31.880802779359996 2.760958509996996 1.5872886683839997 0 0 0
1836 1 35.068883057296006 2.760958509996996 1.5872886683839997 0 0 0
1839 3 36.662923196264 1.8406390066650005 0 0 0 0
1842 1 38.256963335232 2.760958509996996 1.5872886683839997 0 0 0
1845 3 39.8510034742 1.8406390066650005 0 0 0 0
1848 1 41.445043613168 2.760958509996996 1.5872886683839997 0 0 0
1851 3 43.039083752135994 1.8406390066650005 0 0 0 0
1854 1 44.633123891104006 2.760958509996996 1.5872886683839997 0 0 0
1857 3 46.227164030072004 1.8406390066650005 0 0 0 0
1860 1 47.82120416904 2.760958509996996 1.5872886683839997 0 0 0
1677 3 49.415244308008 1.8406390066650005 0 -1 0 0
1680 1 51.009284446976 2.760958509996996 1.5872886683839997 -1 0 0
1683 3 52.603324585944 1.8406390066650005 0 -1 0 0
1686 1 54.197364724912 2.760958509996996 1.5872886683839997 -1 0 0
1689 3 55.79140486388 1.8406390066650005 0 -1 0 0
1692 1 57.385445002848 2.760958509996996 1.5872886683839997 -1 0 0
1695 3 58.979485141816 1.8406390066650005 0 -1 0 0
1698 1 60.573525280784 2.760958509996996 1.5872886683839997 -1 0 0
1701 3 62.167565419751995 1.8406390066650005 0 -1 0 0
1704 1 63.76160555872 2.760958509996996 1.5872886683839997 -1 0 0
1707 3 65.355645697688 1.8406390066650005 0 -1 0 0
1710 1 66.949685836656 2.760958509996996 1.5872886683839997 -1 0 0
1713 3 68.543725975624 1.8406390066650005 0 -1 0 0
1716 1 70.137766114592 2.760958509996996 1.5872886683839997 -1 0 0
1719 3 71.73180625356 1.8406390066650005 0 -1 0 0
1722 1 73.325846392528 2.760958509996996 1.5872886683839997 -1 0 0
1725 3 74.91988653149599 1.8406390066650005 0 -1 0 0
1728 1 76.513926670464 2.760958509996996 1.5872886683839997 -1 0 0
1731 3 78.107966809432 1.8406390066650005 0 -1 0 0
1734 1 79.7020069484 2.760958509996996 1.5872886683839997 -1 0 0
1737 3 81.296047087368 1.8406390066650005 0 -1 0 0
1740 1 82.890087226336 2.760958509996996 1.5872886683839997 -1 0 0
1743 3 84.484127365304 1.8406390066650005 0 -1 0 0
1746 1 86.078167504272 2.760958509996996 1.5872886683839997 -1 0 0
1749 3 87.67220764324 1.8406390066650005 0 -1 0 0
1752 1 89.266247782208 2.760958509996996 1.5872886683839997 -1 0 0
1755 3 90.860287921176 1.8406390066650005 0 -1 0 0
1758 1 92.45432806014401 2.760958509996996 1.5872886683839997 -1 0 0
1761 3 94.04836819911199 1.8406390066650005 0 -1 0 0
1764 1 95.64240833808 2.760958509996996 1.5872886683839997 -1 0 0
1767 3 97.236448477048 1.8406390066650005 0 -1 0 0
1768 3 0 4.601597516661997 0 0 0 0
1774 3 3.1880802779360025 4.601597516661997 0 0 0 0
1780 3 6.376160555871998 4.601597516661997 0 0 0 0
1786 3 9.564240833808 4.601597516661997 0 0 0 0
1792 3 12.752321111744003 4.601597516661997 0 0 0 0
1798 3 15.940401389680005 4.601597516661997 0 0 0 0
1804 3 19.128481667616 4.601597516661997 0 0 0 0
1810 3 22.316561945551996 4.601597516661997 0 0 0 0
1816 3 25.504642223488005 4.601597516661997 0 0 0 0
1822 3 28.692722501424 4.601597516661997 0 0 0 0
1828 3 31.880802779359996 4.601597516661997 0 0 0 0
1834 3 35.068883057296006 4.601597516661997 0 0 0 0
1840 3 38.256963335232 4.601597516661997 0 0 0 0
1846 3 41.445043613168 4.601597516661997 0 0 0 0
1852 3 44.633123891104006 4.601597516661997 0 0 0 0
1858 3 47.82120416904 4.601597516661997 0 0 0 0
1678 3 51.009284446976 4.601597516661997 0 -1 0 0
1684 3 54.197364724912 4.601597516661997 0 -1 0 0
1690 3 57.385445002848 4.601597516661997 0 -1 0 0
1696 3 60.573525280784 4.601597516661997 0 -1 0 0
1702 3 63.76160555872 4.601597516661997 0 -1 0 0
1708 3 66.949685836656 4.601597516661997 0 -1 0 0
1714 3 70.137766114592 4.601597516661997 0 -1 0 0
1720 3 73.325846392528 4.601597516661997 0 -1 0 0
1726 3 76.513926670464 4.601597516661997 0 -1 0 0
1732 3 79.7020069484 4.601597516661997 0 -1 0 0
1738 3 82.890087226336 4.601597516661997 0 -1 0 0
1744 3 86.078167504272 4.601597516661997 0 -1 0 0
1750 3 89.266247782208 4.601597516661997 0 -1 0 0
1756 3 92.45432806014401 4.601597516661997 0 -1 0 0
1762 3 95.64240833808 4.601597516661997 0 -1 0 0
1961 1 1.5940401389679977 5.5219170199939995 1.5872886683839997 0 0 0
1967 1 4.782120416904 5.5219170199939995 1.5872886683839997 0 0 0
1973 1 7.970200694840003 5.5219170199939995 1.5872886683839997 0 0 0
1979 1 11.158280972775998 5.5219170199939995 1.5872886683839997 0 0 0
1985 1 14.346361250712 5.5219170199939995 1.5872886683839997 0 0 0
1991 1 17.534441528648003 5.5219170199939995 1.5872886683839997 0 0 0
1997 1 20.722521806584 5.5219170199939995 1.5872886683839997 0 0 0
2003 1 23.910602084520008 5.5219170199939995 1.5872886683839997 0 0 0
2009 1 27.098682362456003 5.5219170199939995 1.5872886683839997 0 0 0
2015 1 30.286762640392 5.5219170199939995 1.5872886683839997 0 0 0
2021 1 33.474842918327994 5.5219170199939995 1.5872886683839997 0 0 0
2027 1 36.662923196264 5.5219170199939995 1.5872886683839997 0 0 0
2033 1 39.8510034742 5.5219170199939995 1.5872886683839997 0 0 0
2039 1 43.039083752135994 5.5219170199939995 1.5872886683839997 0 0 0
2045 1 46.227164030072004 5.5219170199939995 1.5872886683839997 0 0 0
1865 1 49.415244308008 5.5219170199939995 1.5872886683839997 -1 0 0
1871 1 52.603324585944 5.5219170199939995 1.5872886683839997 -1 0 0
1877 1 55.79140486388 5.5219170199939995 1.5872886683839997 -1 0 0
1883 1 58.979485141816 5.5219170199939995 1.5872886683839997 -1 0 0
1889 1 62.167565419751995 5.5219170199939995 1.5872886683839997 -1 0 0
1895 1 65.355645697688 5.5219170199939995 1.5872886683839997 -1 0 0
1901 1 68.543725975624 5.5219170199939995 1.5872886683839997 -1 0 0
1907 1 71.73180625356 5.5219170199939995 1.5872886683839997 -1 0 0
1913 1 74.91988653149599 5.5219170199939995 1.5872886683839997 -1 0 0
1919 1 78.107966809432 5.5219170199939995 1.5872886683839997 -1 0 0
1925 1 81.296047087368 5.5219170199939995 1.5872886683839997 -1 0 0
1931 1 84.484127365304 5.5219170199939995 1.5872886683839997 -1 0 0
1937 1 87.67220764324 5.5219170199939995 1.5872886683839997 -1 0 0
1943 1 90.860287921176 5.5219170199939995 1.5872886683839997 -1 0 0
1949 1 94.04836819911199 5.5219170199939995 1.5872886683839997 -1 0 0
1955 1 97.236448477048 5.5219170199939995 1.5872886683839997 -1 0 0
1959 3 1.5940401389679977 7.362556026659 0 0 0 0
1956 1 0 8.282875529990996 1.5872886683839997 0 0 0
1962 1 3.1880802779360025 8.282875529990996 1.5872886683839997 0 0 0
1965 3 4.782120416904 7.362556026659 0 0 0 0
1968 1 6.376160555871998 8.282875529990996 1.5872886683839997 0 0 0
1971 3 7.970200694840003 7.362556026659 0 0 0 0
1974 1 9.564240833808 8.282875529990996 1.5872886683839997 0 0 0
1977 3 11.158280972775998 7.362556026659 0 0 0 0
1980 1 12.752321111744003 8.282875529990996 1.5872886683839997 0 0 0
1983 3 14.346361250712 7.362556026659 0 0 0 0
1989 3 17.534441528648003 7.362556026659 0 0 0 0
1986 1 15.940401389680005 8.282875529990996 1.5872886683839997 0 0 0
1992 1 19.128481667616 8.282875529990996 1.5872886683839997 0 0 0
1995 3 20.722521806584 7.362556026659 0 0 0 0
1998 1 22.316561945551996 8.282875529990996 1.5872886683839997 0 0 0
2001 3 23.910602084520008 7.362556026659 0 0 0 0
2004 1 25.504642223488005 8.282875529990996 1.5872886683839997 0 0 0
2007 3 27.098682362456003 7.362556026659 0 0 0 0
2010 1 28.692722501424 8.282875529990996 1.5872886683839997 0 0 0
2013 3 30.286762640392 7.362556026659 0 0 0 0
2019 3 33.474842918327994 7.362556026659 0 0 0 0
2016 1 31.880802779359996 8.282875529990996 1.5872886683839997 0 0 0
2022 1 35.068883057296006 8.282875529990996 1.5872886683839997 0 0 0
2025 3 36.662923196264 7.362556026659 0 0 0 0
2028 1 38.256963335232 8.282875529990996 1.5872886683839997 0 0 0
2031 3 39.8510034742 7.362556026659 0 0 0 0
2034 1 41.445043613168 8.282875529990996 1.5872886683839997 0 0 0
2037 3 43.039083752135994 7.362556026659 0 0 0 0
2040 1 44.633123891104006 8.282875529990996 1.5872886683839997 0 0 0
2043 3 46.227164030072004 7.362556026659 0 0 0 0
2046 1 47.82120416904 8.282875529990996 1.5872886683839997 0 0 0
1863 3 49.415244308008 7.362556026659 0 -1 0 0
1866 1 51.009284446976 8.282875529990996 1.5872886683839997 -1 0 0
1869 3 52.603324585944 7.362556026659 0 -1 0 0
1872 1 54.197364724912 8.282875529990996 1.5872886683839997 -1 0 0
1875 3 55.79140486388 7.362556026659 0 -1 0 0
1878 1 57.385445002848 8.282875529990996 1.5872886683839997 -1 0 0
1881 3 58.979485141816 7.362556026659 0 -1 0 0
1884 1 60.573525280784 8.282875529990996 1.5872886683839997 -1 0 0
1887 3 62.167565419751995 7.362556026659 0 -1 0 0
1890 1 63.76160555872 8.282875529990996 1.5872886683839997 -1 0 0
1893 3 65.355645697688 7.362556026659 0 -1 0 0
1896 1 66.949685836656 8.282875529990996 1.5872886683839997 -1 0 0
1899 3 68.543725975624 7.362556026659 0 -1 0 0
1902 1 70.137766114592 8.282875529990996 1.5872886683839997 -1 0 0
1905 3 71.73180625356 7.362556026659 0 -1 0 0
1908 1 73.325846392528 8.282875529990996 1.5872886683839997 -1 0 0
1911 3 74.91988653149599 7.362556026659 0 -1 0 0
1914 1 76.513926670464 8.282875529990996 1.5872886683839997 -1 0 0
1917 3 78.107966809432 7.362556026659 0 -1 0 0
1920 1 79.7020069484 8.282875529990996 1.5872886683839997 -1 0 0
1923 3 81.296047087368 7.362556026659 0 -1 0 0
1926 1 82.890087226336 8.282875529990996 1.5872886683839997 -1 0 0
1929 3 84.484127365304 7.362556026659 0 -1 0 0
1932 1 86.078167504272 8.282875529990996 1.5872886683839997 -1 0 0
1935 3 87.67220764324 7.362556026659 0 -1 0 0
1938 1 89.266247782208 8.282875529990996 1.5872886683839997 -1 0 0
1941 3 90.860287921176 7.362556026659 0 -1 0 0
1944 1 92.45432806014401 8.282875529990996 1.5872886683839997 -1 0 0
1947 3 94.04836819911199 7.362556026659 0 -1 0 0
1950 1 95.64240833808 8.282875529990996 1.5872886683839997 -1 0 0
1953 3 97.236448477048 7.362556026659 0 -1 0 0
1954 3 0 10.123514536655996 0 0 0 0
1960 3 3.1880802779360025 10.123514536655996 0 0 0 0
1966 3 6.376160555871998 10.123514536655996 0 0 0 0
1972 3 9.564240833808 10.123514536655996 0 0 0 0
1978 3 12.752321111744003 10.123514536655996 0 0 0 0
1984 3 15.940401389680005 10.123514536655996 0 0 0 0
1990 3 19.128481667616 10.123514536655996 0 0 0 0
1996 3 22.316561945551996 10.123514536655996 0 0 0 0
2002 3 25.504642223488005 10.123514536655996 0 0 0 0
2008 3 28.692722501424 10.123514536655996 0 0 0 0
2014 3 31.880802779359996 10.123514536655996 0 0 0 0
2020 3 35.068883057296006 10.123514536655996 0 0 0 0
2026 3 38.256963335232 10.123514536655996 0 0 0 0
2032 3 41.445043613168 10.123514536655996 0 0 0 0
2038 3 44.633123891104006 10.123514536655996 0 0 0 0
2044 3 47.82120416904 10.123514536655996 0 0 0 0
1864 3 51.009284446976 10.123514536655996 0 -1 0 0
1870 3 54.197364724912 10.123514536655996 0 -1 0 0
1876 3 57.385445002848 10.123514536655996 0 -1 0 0
1882 3 60.573525280784 10.123514536655996 0 -1 0 0
1888 3 63.76160555872 10.123514536655996 0 -1 0 0
1894 3 66.949685836656 10.123514536655996 0 -1 0 0
1900 3 70.137766114592 10.123514536655996 0 -1 0 0
1906 3 73.325846392528 10.123514536655996 0 -1 0 0
1912 3 76.513926670464 10.123514536655996 0 -1 0 0
1918 3 79.7020069484 10.123514536655996 0 -1 0 0
1924 3 82.890087226336 10.123514536655996 0 -1 0 0
1930 3 86.078167504272 10.123514536655996 0 -1 0 0
1936 3 89.266247782208 10.123514536655996 0 -1 0 0
1942 3 92.45432806014401 10.123514536655996 0 -1 0 0
1948 3 95.64240833808 10.123514536655996 0 -1 0 0
2147 1 1.5940401389679977 11.043834039987999 1.5872886683839997 0 0 0
2153 1 4.782120416904 11.043834039987999 1.5872886683839997 0 0 0
2159 1 7.970200694840003 11.043834039987999 1.5872886683839997 0 0 0
2165 1 11.158280972775998 11.043834039987999 1.5872886683839997 0 0 0
2171 1 14.346361250712 11.043834039987999 1.5872886683839997 0 0 0
2177 1 17.534441528648003 11.043834039987999 1.5872886683839997 0 0 0
2183 1 20.722521806584 11.043834039987999 1.5872886683839997 0 0 0
2189 1 23.910602084520008 11.043834039987999 1.5872886683839997 0 0 0
2195 1 27.098682362456003 11.043834039987999 1.5872886683839997 0 0 0
2201 1 30.286762640392 11.043834039987999 1.5872886683839997 0 0 0
2207 1 33.474842918327994 11.043834039987999 1.5872886683839997 0 0 0
2213 1 36.662923196264 11.043834039987999 1.5872886683839997 0 0 0
2219 1 39.8510034742 11.043834039987999 1.5872886683839997 0 0 0
2225 1 43.039083752135994 11.043834039987999 1.5872886683839997 0 0 0
2231 1 46.227164030072004 11.043834039987999 1.5872886683839997 0 0 0
2051 1 49.415244308008 11.043834039987999 1.5872886683839997 -1 0 0
2057 1 52.603324585944 11.043834039987999 1.5872886683839997 -1 0 0
2063 1 55.79140486388 11.043834039987999 1.5872886683839997 -1 0 0
2069 1 58.979485141816 11.043834039987999 1.5872886683839997 -1 0 0
2075 1 62.167565419751995 11.043834039987999 1.5872886683839997 -1 0 0
2081 1 65.355645697688 11.043834039987999 1.5872886683839997 -1 0 0
2087 1 68.543725975624 11.043834039987999 1.5872886683839997 -1 0 0
2093 1 71.73180625356 11.043834039987999 1.5872886683839997 -1 0 0
2099 1 74.91988653149599 11.043834039987999 1.5872886683839997 -1 0 0
2105 1 78.107966809432 11.043834039987999 1.5872886683839997 -1 0 0
2111 1 81.296047087368 11.043834039987999 1.5872886683839997 -1 0 0
2117 1 84.484127365304 11.043834039987999 1.5872886683839997 -1 0 0
2123 1 87.67220764324 11.043834039987999 1.5872886683839997 -1 0 0
2129 1 90.860287921176 11.043834039987999 1.5872886683839997 -1 0 0
2135 1 94.04836819911199 11.043834039987999 1.5872886683839997 -1 0 0
2141 1 97.236448477048 11.043834039987999 1.5872886683839997 -1 0 0
2145 3 1.5940401389679977 12.884473046653 0 0 0 0
2142 1 0 13.804792549984995 1.5872886683839997 0 0 0
2148 1 3.1880802779360025 13.804792549984995 1.5872886683839997 0 0 0
2151 3 4.782120416904 12.884473046653 0 0 0 0
2154 1 6.376160555871998 13.804792549984995 1.5872886683839997 0 0 0
2157 3 7.970200694840003 12.884473046653 0 0 0 0
2160 1 9.564240833808 13.804792549984995 1.5872886683839997 0 0 0
2163 3 11.158280972775998 12.884473046653 0 0 0 0
2166 1 12.752321111744003 13.804792549984995 1.5872886683839997 0 0 0
2169 3 14.346361250712 12.884473046653 0 0 0 0
2175 3 17.534441528648003 12.884473046653 0 0 0 0
2172 1 15.940401389680005 13.804792549984995 1.5872886683839997 0 0 0
2178 1 19.128481667616 13.804792549984995 1.5872886683839997 0 0 0
2181 3 20.722521806584 12.884473046653 0 0 0 0
2184 1 22.316561945551996 13.804792549984995 1.5872886683839997 0 0 0
2187 3 23.910602084520008 12.884473046653 0 0 0 0
2190 1 25.504642223488005 13.804792549984995 1.5872886683839997 0 0 0
2193 3 27.098682362456003 12.884473046653 0 0 0 0
2196 1 28.692722501424 13.804792549984995 1.5872886683839997 0 0 0
2199 3 30.286762640392 12.884473046653 0 0 0 0
2205 3 33.474842918327994 12.884473046653 0 0 0 0
2202 1 31.880802779359996 13.804792549984995 1.5872886683839997 0 0 0
2208 1 35.068883057296006 13.804792549984995 1.5872886683839997 0 0 0
2211 3 36.662923196264 12.884473046653 0 0 0 0
2214 1 38.256963335232 13.804792549984995 1.5872886683839997 0 0 0
2217 3 39.8510034742 12.884473046653 0 0 0 0
2220 1 41.445043613168 13.804792549984995 1.5872886683839997 0 0 0
2223 3 43.039083752135994 12.884473046653 0 0 0 0
2226 1 44.633123891104006 13.804792549984995 1.5872886683839997 0 0 0
2229 3 46.227164030072004 12.884473046653 0 0 0 0
2232 1 47.82120416904 13.804792549984995 1.5872886683839997 0 0 0
2049 3 49.415244308008 12.884473046653 0 -1 0 0
2052 1 51.009284446976 13.804792549984995 1.5872886683839997 -1 0 0
2055 3 52.603324585944 12.884473046653 0 -1 0 0
2058 1 54.197364724912 13.804792549984995 1.5872886683839997 -1 0 0
2061 3 55.79140486388 12.884473046653 0 -1 0 0
2064 1 57.385445002848 13.804792549984995 1.5872886683839997 -1 0 0
2067 3 58.979485141816 12.884473046653 0 -1 0 0
2070 1 60.573525280784 13.804792549984995 1.5872886683839997 -1 0 0
2073 3 62.167565419751995 12.884473046653 0 -1 0 0
2076 1 63.76160555872 13.804792549984995 1.5872886683839997 -1 0 0
2079 3 65.355645697688 12.884473046653 0 -1 0 0
2082 1 66.949685836656 13.804792549984995 1.5872886683839997 -1 0 0
2085 3 68.543725975624 12.884473046653 0 -1 0 0
2088 1 70.137766114592 13.804792549984995 1.5872886683839997 -1 0 0
2091 3 71.73180625356 12.884473046653 0 -1 0 0
2094 1 73.325846392528 13.804792549984995 1.5872886683839997 -1 0 0
2097 3 74.91988653149599 12.884473046653 0 -1 0 0
2100 1 76.513926670464 13.804792549984995 1.5872886683839997 -1 0 0
2103 3 78.107966809432 12.884473046653 0 -1 0 0
2106 1 79.7020069484 13.804792549984995 1.5872886683839997 -1 0 0
2109 3 81.296047087368 12.884473046653 0 -1 0 0
2112 1 82.890087226336 13.804792549984995 1.5872886683839997 -1 0 0
2115 3 84.484127365304 12.884473046653 0 -1 0 0
2118 1 86.078167504272 13.804792549984995 1.5872886683839997 -1 0 0
2121 3 87.67220764324 12.884473046653 0 -1 0 0
2124 1 89.266247782208 13.804792549984995 1.5872886683839997 -1 0 0
2127 3 90.860287921176 12.884473046653 0 -1 0 0
2130 1 92.45432806014401 13.804792549984995 1.5872886683839997 -1 0 0
2133 3 94.04836819911199 12.884473046653 0 -1 0 0
2136 1 95.64240833808 13.804792549984995 1.5872886683839997 -1 0 0
2139 3 97.236448477048 12.884473046653 0 -1 0 0
2140 3 0 15.645431556649996 0 0 0 0
2146 3 3.1880802779360025 15.645431556649996 0 0 0 0
2152 3 6.376160555871998 15.645431556649996 0 0 0 0
2158 3 9.564240833808 15.645431556649996 0 0 0 0
2164 3 12.752321111744003 15.645431556649996 0 0 0 0
2170 3 15.940401389680005 15.645431556649996 0 0 0 0
2176 3 19.128481667616 15.645431556649996 0 0 0 0
2182 3 22.316561945551996 15.645431556649996 0 0 0 0
2188 3 25.504642223488005 15.645431556649996 0 0 0 0
2194 3 28.692722501424 15.645431556649996 0 0 0 0
2200 3 31.880802779359996 15.645431556649996 0 0 0 0
2206 3 35.068883057296006 15.645431556649996 0 0 0 0
2212 3 38.256963335232 15.645431556649996 0 0 0 0
2218 3 41.445043613168 15.645431556649996 0 0 0 0
2224 3 44.633123891104006 15.645431556649996 0 0 0 0
2230 3 47.82120416904 15.645431556649996 0 0 0 0
2050 3 51.009284446976 15.645431556649996 0 -1 0 0
2056 3 54.197364724912 15.645431556649996 0 -1 0 0
2062 3 57.385445002848 15.645431556649996 0 -1 0 0
2068 3 60.573525280784 15.645431556649996 0 -1 0 0
2074 3 63.76160555872 15.645431556649996 0 -1 0 0
2080 3 66.949685836656 15.645431556649996 0 -1 0 0
2086 3 70.137766114592 15.645431556649996 0 -1 0 0
2092 3 73.325846392528 15.645431556649996 0 -1 0 0
2098 3 76.513926670464 15.645431556649996 0 -1 0 0
2104 3 79.7020069484 15.645431556649996 0 -1 0 0
2110 3 82.890087226336 15.645431556649996 0 -1 0 0
2116 3 86.078167504272 15.645431556649996 0 -1 0 0
2122 3 89.266247782208 15.645431556649996 0 -1 0 0
2128 3 92.45432806014401 15.645431556649996 0 -1 0 0
2134 3 95.64240833808 15.645431556649996 0 -1 0 0
2333 1 1.5940401389679977 16.56575105998199 1.5872886683839997 0 0 0
2339 1 4.782120416904 16.56575105998199 1.5872886683839997 0 0 0
2345 1 7.970200694840003 16.56575105998199 1.5872886683839997 0 0 0
2351 1 11.158280972775998 16.56575105998199 1.5872886683839997 0 0 0
2357 1 14.346361250712 16.56575105998199 1.5872886683839997 0 0 0
2363 1 17.534441528648003 16.56575105998199 1.5872886683839997 0 0 0
2369 1 20.722521806584 16.56575105998199 1.5872886683839997 0 0 0
2375 1 23.910602084520008 16.56575105998199 1.5872886683839997 0 0 0
2381 1 27.098682362456003 16.56575105998199 1.5872886683839997 0 0 0
2387 1 30.286762640392 16.56575105998199 1.5872886683839997 0 0 0
2393 1 33.474842918327994 16.56575105998199 1.5872886683839997 0 0 0
2399 1 36.662923196264 16.56575105998199 1.5872886683839997 0 0 0
2405 1 39.8510034742 16.56575105998199 1.5872886683839997 0 0 0
2411 1 43.039083752135994 16.56575105998199 1.5872886683839997 0 0 0
2417 1 46.227164030072004 16.56575105998199 1.5872886683839997 0 0 0
2237 1 49.415244308008 16.56575105998199 1.5872886683839997 -1 0 0
2243 1 52.603324585944 16.56575105998199 1.5872886683839997 -1 0 0
2249 1 55.79140486388 16.56575105998199 1.5872886683839997 -1 0 0
2255 1 58.979485141816 16.56575105998199 1.5872886683839997 -1 0 0
2261 1 62.167565419751995 16.56575105998199 1.5872886683839997 -1 0 0
2267 1 65.355645697688 16.56575105998199 1.5872886683839997 -1 0 0
2273 1 68.543725975624 16.56575105998199 1.5872886683839997 -1 0 0
2279 1 71.73180625356 16.56575105998199 1.5872886683839997 -1 0 0
2285 1 74.91988653149599 16.56575105998199 1.5872886683839997 -1 0 0
2291 1 78.107966809432 16.56575105998199 1.5872886683839997 -1 0 0
2297 1 81.296047087368 16.56575105998199 1.5872886683839997 -1 0 0
2303 1 84.484127365304 16.56575105998199 1.5872886683839997 -1 0 0
2309 1 87.67220764324 16.56575105998199 1.5872886683839997 -1 0 0
2315 1 90.860287921176 16.56575105998199 1.5872886683839997 -1 0 0
2321 1 94.04836819911199 16.56575105998199 1.5872886683839997 -1 0 0
2327 1 97.236448477048 16.56575105998199 1.5872886683839997 -1 0 0
2331 3 1.5940401389679977 18.406390066646992 0 0 0 0
2328 1 0 19.326709569979002 1.5872886683839997 0 0 0
2334 1 3.1880802779360025 19.326709569979002 1.5872886683839997 0 0 0
2337 3 4.782120416904 18.406390066646992 0 0 0 0
2340 1 6.376160555871998 19.326709569979002 1.5872886683839997 0 0 0
2343 3 7.970200694840003 18.406390066646992 0 0 0 0
2346 1 9.564240833808 19.326709569979002 1.5872886683839997 0 0 0
2349 3 11.158280972775998 18.406390066646992 0 0 0 0
2352 1 12.752321111744003 19.326709569979002 1.5872886683839997 0 0 0
2355 3 14.346361250712 18.406390066646992 0 0 0 0
2361 3 17.534441528648003 18.406390066646992 0 0 0 0
2358 1 15.940401389680005 19.326709569979002 1.5872886683839997 0 0 0
2364 1 19.128481667616 19.326709569979002 1.5872886683839997 0 0 0
2367 3 20.722521806584 18.406390066646992 0 0 0 0
2370 1 22.316561945551996 19.326709569979002 1.5872886683839997 0 0 0
2373 3 23.910602084520008 18.406390066646992 0 0 0 0
2376 1 25.504642223488005 19.326709569979002 1.5872886683839997 0 0 0
2379 3 27.098682362456003 18.406390066646992 0 0 0 0
2382 1 28.692722501424 19.326709569979002 1.5872886683839997 0 0 0
2385 3 30.286762640392 18.406390066646992 0 0 0 0
2391 3 33.474842918327994 18.406390066646992 0 0 0 0
2388 1 31.880802779359996 19.326709569979002 1.5872886683839997 0 0 0
2394 1 35.068883057296006 19.326709569979002 1.5872886683839997 0 0 0
2397 3 36.662923196264 18.406390066646992 0 0 0 0
2400 1 38.256963335232 19.326709569979002 1.5872886683839997 0 0 0
2403 3 39.8510034742 18.406390066646992 0 0 0 0
2406 1 41.445043613168 19.326709569979002 1.5872886683839997 0 0 0
2409 3 43.039083752135994 18.406390066646992 0 0 0 0
2412 1 44.633123891104006 19.326709569979002 1.5872886683839997 0 0 0
2415 3 46.227164030072004 18.406390066646992 0 0 0 0
2418 1 47.82120416904 19.326709569979002 1.5872886683839997 0 0 0
2235 3 49.415244308008 18.406390066646992 0 -1 0 0
2238 1 51.009284446976 19.326709569979002 1.5872886683839997 -1 0 0
2241 3 52.603324585944 18.406390066646992 0 -1 0 0
2244 1 54.197364724912 19.326709569979002 1.5872886683839997 -1 0 0
2247 3 55.79140486388 18.406390066646992 0 -1 0 0
2250 1 57.385445002848 19.326709569979002 1.5872886683839997 -1 0 0
2253 3 58.979485141816 18.406390066646992 0 -1 0 0
2256 1 60.573525280784 19.326709569979002 1.5872886683839997 -1 0 0
2259 3 62.167565419751995 18.406390066646992 0 -1 0 0
2262 1 63.76160555872 19.326709569979002 1.5872886683839997 -1 0 0
2265 3 65.355645697688 18.406390066646992 0 -1 0 0
2268 1 66.949685836656 19.326709569979002 1.5872886683839997 -1 0 0
2271 3 68.543725975624 18.406390066646992 0 -1 0 0
2274 1 70.137766114592 19.326709569979002 1.5872886683839997 -1 0 0
2277 3 71.73180625356 18.406390066646992 0 -1 0 0
2280 1 73.325846392528 19.326709569979002 1.5872886683839997 -1 0 0
2283 3 74.91988653149599 18.406390066646992 0 -1 0 0
2286 1 76.513926670464 19.326709569979002 1.5872886683839997 -1 0 0
2289 3 78.107966809432 18.406390066646992 0 -1 0 0
2292 1 79.7020069484 19.326709569979002 1.5872886683839997 -1 0 0
2295 3 81.296047087368 18.406390066646992 0 -1 0 0
2298 1 82.890087226336 19.326709569979002 1.5872886683839997 -1 0 0
2301 3 84.484127365304 18.406390066646992 0 -1 0 0
2304 1 86.078167504272 19.326709569979002 1.5872886683839997 -1 0 0
2307 3 87.67220764324 18.406390066646992 0 -1 0 0
2310 1 89.266247782208 19.326709569979002 1.5872886683839997 -1 0 0
2313 3 90.860287921176 18.406390066646992 0 -1 0 0
2316 1 92.45432806014401 19.326709569979002 1.5872886683839997 -1 0 0
2319 3 94.04836819911199 18.406390066646992 0 -1 0 0
2322 1 95.64240833808 19.326709569979002 1.5872886683839997 -1 0 0
2325 3 97.236448477048 18.406390066646992 0 -1 0 0
2326 3 0 21.167348576644002 0 0 0 0
2332 3 3.1880802779360025 21.167348576644002 0 0 0 0
2338 3 6.376160555871998 21.167348576644002 0 0 0 0
2344 3 9.564240833808 21.167348576644002 0 0 0 0
2350 3 12.752321111744003 21.167348576644002 0 0 0 0
2356 3 15.940401389680005 21.167348576644002 0 0 0 0
2362 3 19.128481667616 21.167348576644002 0 0 0 0
2368 3 22.316561945551996 21.167348576644002 0 0 0 0
2374 3 25.504642223488005 21.167348576644002 0 0 0 0
2380 3 28.692722501424 21.167348576644002 0 0 0 0
2386 3 31.880802779359996 21.167348576644002 0 0 0 0
2392 3 35.068883057296006 21.167348576644002 0 0 0 0
2398 3 38.256963335232 21.167348576644002 0 0 0 0
2404 3 41.445043613168 21.167348576644002 0 0 0 0
2410 3 44.633123891104006 21.167348576644002 0 0 0 0
2416 3 47.82120416904 21.167348576644002 0 0 0 0
2236 3 51.009284446976 21.167348576644002 0 -1 0 0
2242 3 54.197364724912 21.167348576644002 0 -1 0 0
2248 3 57.385445002848 21.167348576644002 0 -1 0 0
2254 3 60.573525280784 21.167348576644002 0 -1 0 0
2260 3 63.76160555872 21.167348576644002 0 -1 0 0
2266 3 66.949685836656 21.167348576644002 0 -1 0 0
2272 3 70.137766114592 21.167348576644002 0 -1 0 0
2278 3 73.325846392528 21.167348576644002 0 -1 0 0
2284 3 76.513926670464 21.167348576644002 0 -1 0 0
2290 3 79.7020069484 21.167348576644002 0 -1 0 0
2296 3 82.890087226336 21.167348576644002 0 -1 0 0
2302 3 86.078167504272 21.167348576644002 0 -1 0 0
2308 3 89.266247782208 21.167348576644002 0 -1 0 0
2314 3 92.45432806014401 21.167348576644002 0 -1 0 0
2320 3 95.64240833808 21.167348576644002 0 -1 0 0
2519 1 1.5940401389679977 22.087668079975998 1.5872886683839997 0 0 0
2525 1 4.782120416904 22.087668079975998 1.5872886683839997 0 0 0
2531 1 7.970200694840003 22.087668079975998 1.5872886683839997 0 0 0
2537 1 11.158280972775998 22.087668079975998 1.5872886683839997 0 0 0
2543 1 14.346361250712 22.087668079975998 1.5872886683839997 0 0 0
2549 1 17.534441528648003 22.087668079975998 1.5872886683839997 0 0 0
2555 1 20.722521806584 22.087668079975998 1.5872886683839997 0 0 0
2561 1 23.910602084520008 22.087668079975998 1.5872886683839997 0 0 0
2567 1 27.098682362456003 22.087668079975998 1.5872886683839997 0 0 0
2573 1 30.286762640392 22.087668079975998 1.5872886683839997 0 0 0
2579 1 33.474842918327994 22.087668079975998 1.5872886683839997 0 0 0
2585 1 36.662923196264 22.087668079975998 1.5872886683839997 0 0 0
2591 1 39.8510034742 22.087668079975998 1.5872886683839997 0 0 0
2597 1 43.039083752135994 22.087668079975998 1.5872886683839997 0 0 0
2603 1 46.227164030072004 22.087668079975998 1.5872886683839997 0 0 0