LAMMPS data file via write_data, version 29 Aug 2024, timestep = 3, units = metal

8352 atoms
9 atom types

0 101.705012810859 xlo xhi
0 97.190758385024 ylo yhi
-50 50 zlo zhi

Masses

1 183.84
2 183.84
3 183.84
4 127.6
5 127.6
6 127.6
7 127.6
8 127.6
9 127.6

Atoms # atomic

1485 5 1.7535505155094377 2.024800003969962 0.02851549402715565 0 0 0
1488 1 3.507222562751582 3.0370574543058138 1.8563821097072952 0 0 0
1491 5 5.260619922780436 2.0248000039699634 0.028515494027156044 0 0 0
1486 5 3.507085219144618 5.062011203501962 0.0285154940271556 0 0 0
1482 1 0.00015315548058936201 3.0370574543058138 1.856382109707295 0 0 0
1480 5 1.581187362376113e-05 5.062011203501962 0.02851549402715385 0 0 0
1494 1 7.01429197002258 3.0370574543058138 1.856382109707295 0 0 0
1497 5 8.767689330051436 2.024800003969963 0.028515494027155357 0 0 0
1500 1 10.521361377293578 3.0370574543058138 1.856382109707295 0 0 0
1492 5 7.014154626415616 5.062011203501962 0.028515494027155027 0 0 0
1498 5 10.521224033686618 5.062011203501962 0.028515494027154586 0 0 0
1503 5 12.274758737322438 2.0248000039699625 0.028515494027155433 0 0 0
1506 1 14.028430784564579 3.0370574543058138 1.856382109707295 0 0 0
1509 5 15.781828144593439 2.024800003969963 0.028515494027155648 0 0 0
1504 5 14.028293440957617 5.062011203501962 0.0285154940271546 0 0 0
1512 1 17.53550019183558 3.0370574543058138 1.856382109707295 0 0 0
1515 5 19.288897551864434 2.0248000039699634 0.028515494027155638 0 0 0
1518 1 21.04256959910658 3.0370574543058138 1.8563821097072952 0 0 0
1510 5 17.53536284822862 5.062011203501962 0.028515494027155093 0 0 0
1516 5 21.042432255499623 5.062011203501962 0.028515494027154996 0 0 0
1521 5 22.795966959135434 2.0248000039699625 0.028515494027155898 0 0 0
1524 1 24.549639006377582 3.0370574543058138 1.856382109707295 0 0 0
1527 5 26.303036366406438 2.024800003969963 0.028515494027155683 0 0 0
1530 1 28.05670841364858 3.0370574543058138 1.8563821097072948 0 0 0
1522 5 24.549501662770616 5.062011203501962 0.02851549402715482 0 0 0
1528 5 28.056571070041617 5.062011203501962 0.02851549402715514 0 0 0
1533 5 29.81010577367743 2.0248000039699634 0.028515494027155565 0 0 0
1536 1 31.56377782091958 3.0370574543058133 1.8563821097072952 0 0 0
1539 5 33.31717518094843 2.0248000039699625 0.02851549402715587 0 0 0
1534 5 31.56364047731262 5.062011203501963 0.028515494027155024 0 0 0
1542 1 35.07084722819058 3.0370574543058138 1.856382109707295 0 0 0
1545 5 36.824244588219436 2.0248000039699625 0.02851549402715513 0 0 0
1548 1 38.57791663546158 3.0370574543058138 1.856382109707295 0 0 0
1540 5 35.070709884583614 5.062011203501962 0.02851549402715491 0 0 0
1546 5 38.57777929185461 5.062011203501962 0.028515494027154493 0 0 0
1551 5 40.33131399549043 2.0248000039699625 0.02851549402715522 0 0 0
1554 1 42.08498604273258 3.0370574543058138 1.856382109707295 0 0 0
1557 5 43.83838340276143 2.024800003969963 0.028515494027155378 0 0 0
1552 5 42.084848699125615 5.062011203501962 0.02851549402715496 0 0 0
1560 1 45.592055450003585 3.0370574543058133 1.856382109707295 0 0 0
1563 5 47.345452810032434 2.024800003969963 0.02851549402715571 0 0 0
1566 1 49.09912485727458 3.0370574543058138 1.8563821097072952 0 0 0
1558 5 45.59191810639662 5.062011203501963 0.02851549402715493 0 0 0
1564 5 49.098987513667616 5.062011203501962 0.028515494027154833 0 0 0
1395 5 50.85252221730344 2.024800003969963 0.028515494027155294 -1 0 0
1398 1 52.60619426454558 3.0370574543058138 1.8563821097072948 -1 0 0
1401 5 54.359591624574435 2.0248000039699625 0.028515494027154743 -1 0 0
1404 1 56.11326367181658 3.0370574543058138 1.856382109707295 -1 0 0
1396 5 52.60605692093861 5.062011203501962 0.028515494027154743 -1 0 0
1402 5 56.11312632820962 5.062011203501962 0.028515494027154427 -1 0 0
1407 5 57.86666103184544 2.0248000039699625 0.028515494027155062 -1 0 0
1410 1 59.62033307908759 3.0370574543058138 1.8563821097072948 -1 0 0
1413 5 61.373730439116436 2.0248000039699625 0.02851549402715467 -1 0 0
1408 5 59.62019573548062 5.062011203501962 0.028515494027154902 -1 0 0
1416 1 63.127402486358584 3.0370574543058146 1.8563821097072954 -1 0 0
1419 5 64.88079984638745 2.024800003969963 0.028515494027155662 -1 0 0
1422 1 66.63447189362958 3.0370574543058124 1.856382109707295 -1 0 0
1414 5 63.12726514275162 5.062011203501962 0.028515494027153955 -1 0 0
1420 5 66.63433455002261 5.062011203501962 0.0285154940271554 -1 0 0
1425 5 68.38786925365845 2.024800003969963 0.028515494027155572 -1 0 0
1428 1 70.14154130090058 3.0370574543058146 1.856382109707295 -1 0 0
1431 5 71.89493866092945 2.0248000039699625 0.02851549402715486 -1 0 0
1426 5 70.14140395729362 5.062011203501962 0.028515494027154056 -1 0 0
1434 1 73.64861070817159 3.037057454305814 1.8563821097072948 -1 0 0
1437 5 75.40200806820046 2.024800003969963 0.028515494027155513 -1 0 0
1440 1 77.15568011544259 3.037057454305813 1.8563821097072952 -1 0 0
1443 5 78.90907747547145 2.0248000039699634 0.028515494027156436 -1 0 0
1432 5 73.64847336456462 5.062011203501962 0.028515494027154024 -1 0 0
1438 5 77.15554277183563 5.062011203501962 0.028515494027155818 -1 0 0
1446 1 80.66274952271358 3.0370574543058138 1.856382109707295 -1 0 0
1449 5 82.41614688274245 2.0248000039699625 0.028515494027155176 -1 0 0
1452 1 84.16981892998459 3.0370574543058146 1.856382109707295 -1 0 0
1444 5 80.66261217910662 5.062011203501962 0.02851549402715475 -1 0 0
1450 5 84.16968158637762 5.062011203501962 0.02851549402715429 -1 0 0
1455 5 85.92321629001346 2.024800003969963 0.028515494027155575 -1 0 0
1458 1 87.67688833725559 3.037057454305813 1.856382109707295 -1 0 0
1461 5 89.43028569728445 2.0248000039699634 0.028515494027156436 -1 0 0
1456 5 87.67675099364862 5.062011203501962 0.028515494027155853 -1 0 0
1464 1 91.18395774452658 3.0370574543058138 1.856382109707295 -1 0 0
1467 5 92.93735510455545 2.0248000039699625 0.028515494027155332 -1 0 0
1470 1 94.69102715179758 3.0370574543058146 1.8563821097072952 -1 0 0
1462 5 91.18382040091961 5.062011203501962 0.028515494027154788 -1 0 0
1468 5 94.69088980819062 5.062011203501962 0.028515494027154364 -1 0 0
1473 5 96.44442451182645 2.024800003969963 0.028515494027155586 -1 0 0
1476 1 98.19809655906859 3.037057454305813 1.856382109707295 -1 0 0
1479 5 99.95149391909744 2.0248000039699625 0.028515494027155024 -1 0 0
1474 5 98.19795921546162 5.062011203501962 0.028515494027155416 -1 0 0
1661 1 1.7536878591162115 6.074268653837812 1.8563821097072946 0 0 0
1667 1 5.260757266387211 6.074268653837813 1.8563821097072948 0 0 0
1659 5 1.7535505155094382 8.099222403033963 0.02851549402715478 0 0 0
1662 1 3.5072225627515814 9.111479853369813 1.8563821097072948 0 0 0
1665 5 5.260619922780436 8.099222403033961 0.028515494027155176 0 0 0
1660 5 3.507085219144617 11.136433602565962 0.028515494027154507 0 0 0
1656 1 0.00015315548058936201 9.111479853369813 1.856382109707295 0 0 0
1654 5 1.581187362376113e-05 11.136433602565962 0.028515494027153386 0 0 0
1673 1 8.76782667365821 6.074268653837814 1.8563821097072948 0 0 0
1668 1 7.014291970022579 9.111479853369813 1.8563821097072946 0 0 0
1671 5 8.767689330051436 8.099222403033961 0.02851549402715443 0 0 0
1674 1 10.521361377293578 9.111479853369813 1.8563821097072948 0 0 0
1666 5 7.014154626415616 11.136433602565962 0.028515494027154333 0 0 0
1672 5 10.521224033686618 11.136433602565962 0.028515494027153913 0 0 0
1679 1 12.274896080929212 6.074268653837813 1.8563821097072948 0 0 0
1685 1 15.781965488200212 6.074268653837813 1.8563821097072948 0 0 0
1677 5 12.274758737322438 8.099222403033961 0.02851549402715461 0 0 0
1680 1 14.028430784564579 9.111479853369813 1.8563821097072948 0 0 0
1683 5 15.781828144593439 8.099222403033961 0.02851549402715477 0 0 0
1678 5 14.028293440957617 11.136433602565962 0.028515494027153882 0 0 0
1691 1 19.28903489547121 6.074268653837813 1.8563821097072948 0 0 0
1686 1 17.53550019183558 9.111479853369813 1.8563821097072948 0 0 0
1689 5 19.288897551864434 8.099222403033961 0.02851549402715477 0 0 0
1692 1 21.04256959910658 9.111479853369813 1.856382109707295 0 0 0
1684 5 17.53536284822862 11.136433602565962 0.028515494027154434 0 0 0
1690 5 21.042432255499623 11.136433602565962 0.02851549402715418 0 0 0
1697 1 22.79610430274221 6.074268653837812 1.8563821097072948 0 0 0
1703 1 26.303173710013212 6.074268653837814 1.8563821097072948 0 0 0
1695 5 22.795966959135434 8.099222403033961 0.028515494027155096 0 0 0
1698 1 24.549639006377582 9.111479853369813 1.8563821097072946 0 0 0
1701 5 26.303036366406438 8.099222403033961 0.028515494027154763 0 0 0
1704 1 28.05670841364858 9.111479853369813 1.8563821097072946 0 0 0
1696 5 24.549501662770616 11.136433602565962 0.02851549402715416 0 0 0
1702 5 28.056571070041617 11.136433602565962 0.028515494027154527 0 0 0
1709 1 29.81024311728421 6.074268653837814 1.8563821097072948 0 0 0
1715 1 33.317312524555206 6.074268653837813 1.8563821097072948 0 0 0
1707 5 29.81010577367743 8.099222403033961 0.028515494027154736 0 0 0
1710 1 31.563777820919583 9.111479853369813 1.8563821097072948 0 0 0
1713 5 33.31717518094843 8.099222403033961 0.02851549402715511 0 0 0
1708 5 31.56364047731262 11.136433602565962 0.028515494027154302 0 0 0
1721 1 36.82438193182621 6.074268653837813 1.8563821097072946 0 0 0
1716 1 35.07084722819058 9.111479853369813 1.8563821097072948 0 0 0
1719 5 36.824244588219436 8.099222403033961 0.028515494027154614 0 0 0
1722 1 38.57791663546158 9.111479853369813 1.8563821097072946 0 0 0
1714 5 35.070709884583614 11.136433602565962 0.02851549402715422 0 0 0
1720 5 38.57777929185461 11.136433602565962 0.028515494027153882 0 0 0
1727 1 40.331451339097214 6.074268653837814 1.8563821097072948 0 0 0
1733 1 43.83852074636821 6.074268653837814 1.8563821097072948 0 0 0
1725 5 40.33131399549043 8.099222403033961 0.028515494027154663 0 0 0
1728 1 42.08498604273258 9.111479853369813 1.8563821097072946 0 0 0
1731 5 43.83838340276143 8.099222403033961 0.028515494027154448 0 0 0
1726 5 42.084848699125615 11.136433602565962 0.02851549402715427 0 0 0
1739 1 47.34559015363921 6.074268653837813 1.8563821097072948 0 0 0
1734 1 45.592055450003585 9.111479853369813 1.8563821097072948 0 0 0
1737 5 47.345452810032434 8.099222403033961 0.02851549402715497 0 0 0
1740 1 49.09912485727458 9.111479853369813 1.856382109707295 0 0 0
1732 5 45.59191810639662 11.136433602565962 0.02851549402715415 0 0 0
1738 5 49.098987513667616 11.136433602565962 0.028515494027154163 0 0 0
1571 1 50.85265956091021 6.074268653837813 1.8563821097072948 -1 0 0
1577 1 54.359728968181216 6.074268653837814 1.8563821097072948 -1 0 0
1569 5 50.85252221730344 8.099222403033961 0.028515494027154795 -1 0 0
1572 1 52.60619426454558 9.111479853369813 1.8563821097072946 -1 0 0
1575 5 54.359591624574435 8.099222403033961 0.028515494027154226 -1 0 0
1578 1 56.11326367181658 9.111479853369813 1.8563821097072948 -1 0 0
1570 5 52.60605692093861 11.136433602565962 0.028515494027154125 -1 0 0
1576 5 56.11312632820962 11.136433602565962 0.028515494027153754 -1 0 0
1583 1 57.86679837545221 6.074268653837813 1.8563821097072948 -1 0 0
1589 1 61.37386778272322 6.074268653837814 1.8563821097072948 -1 0 0
1581 5 57.86666103184544 8.099222403033961 0.02851549402715461 -1 0 0
1584 1 59.62033307908759 9.111479853369813 1.8563821097072946 -1 0 0
1587 5 61.373730439116436 8.099222403033961 0.02851549402715418 -1 0 0
1582 5 59.62019573548062 11.136433602565962 0.028515494027154198 -1 0 0
1595 1 64.88093718999421 6.074268653837813 1.8563821097072948 -1 0 0
1590 1 63.127402486358584 9.111479853369815 1.8563821097072952 -1 0 0
1593 5 64.88079984638745 8.099222403033961 0.028515494027154857 -1 0 0
1596 1 66.63447189362958 9.111479853369813 1.8563821097072946 -1 0 0
1588 5 63.12726514275162 11.136433602565964 0.028515494027153355 -1 0 0
1594 5 66.63433455002261 11.136433602565962 0.028515494027154697 -1 0 0
1601 1 68.38800659726522 6.074268653837813 1.8563821097072948 -1 0 0
1607 1 71.89507600453622 6.074268653837815 1.8563821097072948 -1 0 0
1599 5 68.38786925365845 8.099222403033961 0.028515494027154774 -1 0 0
1602 1 70.14154130090058 9.111479853369815 1.8563821097072948 -1 0 0
1605 5 71.89493866092945 8.099222403033961 0.028515494027154045 -1 0 0
1600 5 70.14140395729362 11.136433602565962 0.02851549402715353 -1 0 0
1613 1 75.40214541180723 6.074268653837813 1.856382109707295 -1 0 0
1619 1 78.90921481907822 6.074268653837812 1.8563821097072948 -1 0 0
1608 1 73.64861070817159 9.111479853369813 1.8563821097072946 -1 0 0
1611 5 75.40200806820046 8.099222403033961 0.02851549402715459 -1 0 0
1614 1 77.15568011544259 9.111479853369813 1.8563821097072948 -1 0 0
1617 5 78.90907747547145 8.099222403033963 0.028515494027155572 -1 0 0
1606 5 73.64847336456462 11.136433602565962 0.028515494027153455 -1 0 0
1612 5 77.15554277183563 11.136433602565964 0.028515494027155253 -1 0 0
1625 1 82.41628422634922 6.074268653837814 1.8563821097072948 -1 0 0
1620 1 80.66274952271358 9.111479853369813 1.8563821097072948 -1 0 0
1623 5 82.41614688274245 8.099222403033961 0.02851549402715428 -1 0 0
1626 1 84.16981892998459 9.111479853369815 1.8563821097072948 -1 0 0
1618 5 80.66261217910662 11.136433602565962 0.028515494027154076 -1 0 0
1624 5 84.16968158637762 11.136433602565962 0.02851549402715359 -1 0 0
1631 1 85.92335363362022 6.074268653837813 1.8563821097072948 -1 0 0
1637 1 89.43042304089121 6.074268653837812 1.8563821097072948 -1 0 0
1629 5 85.92321629001346 8.099222403033961 0.028515494027154628 -1 0 0
1632 1 87.67688833725559 9.111479853369813 1.8563821097072946 -1 0 0
1635 5 89.43028569728445 8.099222403033963 0.028515494027155572 -1 0 0
1630 5 87.67675099364862 11.136433602565964 0.028515494027155235 -1 0 0
1643 1 92.93749244816222 6.074268653837814 1.8563821097072948 -1 0 0
1638 1 91.18395774452658 9.111479853369813 1.8563821097072948 -1 0 0
1641 5 92.93735510455545 8.099222403033961 0.02851549402715442 -1 0 0
1644 1 94.69102715179758 9.111479853369815 1.856382109707295 -1 0 0
1636 5 91.18382040091961 11.136433602565962 0.028515494027154083 -1 0 0
1642 5 94.69088980819062 11.136433602565962 0.028515494027153695 -1 0 0
1649 1 96.44456185543322 6.074268653837813 1.8563821097072948 -1 0 0
1655 1 99.95163126270421 6.074268653837814 1.8563821097072948 -1 0 0
1647 5 96.44442451182645 8.099222403033961 0.028515494027154743 -1 0 0
1650 1 98.19809655906859 9.111479853369813 1.8563821097072948 -1 0 0
1653 5 99.95149391909744 8.09922240303396 0.02851549402715506 -1 0 0
1648 5 98.19795921546162 11.136433602565962 0.028515494027155284 -1 0 0
1835 1 1.7536878591162113 12.148691052901814 1.8563821097072946 0 0 0
1841 1 5.260757266387211 12.148691052901814 1.8563821097072946 0 0 0
1833 5 1.7535505155094377 14.173644802097963 0.02851549402715476 0 0 0
1836 1 3.507222562751582 15.185902252433815 1.856382109707295 0 0 0
1839 5 5.260619922780436 14.173644802097963 0.02851549402715485 0 0 0
1830 1 0.00015315548058936201 15.185902252433815 1.8563821097072948 0 0 0
1847 1 8.76782667365821 12.148691052901814 1.8563821097072946 0 0 0
1842 1 7.01429197002258 15.185902252433815 1.8563821097072946 0 0 0
1845 5 8.767689330051436 14.173644802097963 0.028515494027154153 0 0 0
1848 1 10.521361377293578 15.185902252433815 1.8563821097072946 0 0 0
1853 1 12.274896080929212 12.148691052901814 1.8563821097072946 0 0 0
1859 1 15.781965488200212 12.148691052901814 1.8563821097072943 0 0 0
1851 5 12.274758737322438 14.173644802097963 0.028515494027154257 0 0 0
1854 1 14.028430784564579 15.185902252433815 1.8563821097072946 0 0 0
1857 5 15.781828144593439 14.173644802097963 0.02851549402715433 0 0 0
1865 1 19.28903489547121 12.148691052901814 1.8563821097072946 0 0 0
1860 1 17.53550019183558 15.185902252433815 1.8563821097072946 0 0 0
1863 5 19.288897551864434 14.173644802097963 0.02851549402715438 0 0 0
1866 1 21.04256959910658 15.185902252433815 1.8563821097072948 0 0 0
1871 1 22.79610430274221 12.148691052901814 1.8563821097072946 0 0 0
1877 1 26.303173710013212 12.148691052901814 1.8563821097072946 0 0 0
1869 5 22.795966959135434 14.173644802097963 0.028515494027154774 0 0 0
1872 1 24.549639006377582 15.185902252433815 1.8563821097072946 0 0 0
1875 5 26.303036366406438 14.173644802097963 0.028515494027154496 0 0 0
1878 1 28.05670841364858 15.185902252433815 1.8563821097072943 0 0 0
1883 1 29.81024311728421 12.148691052901814 1.8563821097072946 0 0 0
1889 1 33.317312524555206 12.148691052901814 1.8563821097072946 0 0 0
1881 5 29.81010577367743 14.173644802097964 0.028515494027154396 0 0 0
1884 1 31.56377782091958 15.185902252433815 1.8563821097072948 0 0 0
1887 5 33.31717518094843 14.173644802097963 0.028515494027154774 0 0 0
1895 1 36.82438193182621 12.148691052901814 1.8563821097072943 0 0 0
1890 1 35.07084722819058 15.185902252433815 1.8563821097072948 0 0 0
1893 5 36.824244588219436 14.173644802097963 0.028515494027154337 0 0 0
1896 1 38.57791663546158 15.185902252433815 1.8563821097072943 0 0 0
1901 1 40.331451339097214 12.148691052901814 1.8563821097072946 0 0 0
1907 1 43.83852074636821 12.148691052901814 1.8563821097072946 0 0 0
1899 5 40.33131399549043 14.173644802097963 0.028515494027154344 0 0 0
1902 1 42.08498604273258 15.185902252433815 1.8563821097072946 0 0 0
1905 5 43.83838340276143 14.173644802097963 0.028515494027154118 0 0 0
1913 1 47.34559015363921 12.148691052901814 1.8563821097072946 0 0 0
1908 1 45.592055450003585 15.185902252433815 1.8563821097072948 0 0 0
1911 5 47.345452810032434 14.173644802097963 0.02851549402715466 0 0 0
1914 1 49.09912485727458 15.185902252433815 1.8563821097072948 0 0 0
1745 1 50.85265956091021 12.148691052901814 1.8563821097072943 -1 0 0
1751 1 54.359728968181216 12.148691052901814 1.8563821097072946 -1 0 0
1743 5 50.85252221730344 14.173644802097963 0.028515494027154437 -1 0 0
1746 1 52.60619426454558 15.185902252433815 1.8563821097072943 -1 0 0
1749 5 54.359591624574435 14.173644802097963 0.028515494027153938 -1 0 0
1752 1 56.11326367181658 15.185902252433815 1.8563821097072946 -1 0 0
1757 1 57.86679837545221 12.148691052901814 1.8563821097072946 -1 0 0
1763 1 61.37386778272322 12.148691052901814 1.8563821097072946 -1 0 0
1755 5 57.86666103184544 14.173644802097963 0.02851549402715431 -1 0 0
1758 1 59.62033307908759 15.185902252433815 1.8563821097072946 -1 0 0
1761 5 61.373730439116436 14.173644802097963 0.028515494027153875 -1 0 0
1769 1 64.88093718999421 12.148691052901814 1.8563821097072946 -1 0 0
1764 1 63.127402486358584 15.185902252433815 1.856382109707295 -1 0 0
1767 5 64.88079984638745 14.173644802097963 0.02851549402715446 -1 0 0
1770 1 66.63447189362958 15.185902252433813 1.8563821097072943 -1 0 0
1775 1 68.38800659726522 12.148691052901814 1.8563821097072946 -1 0 0
1781 1 71.89507600453622 12.148691052901816 1.8563821097072943 -1 0 0
1773 5 68.38786925365845 14.173644802097963 0.028515494027154302 -1 0 0
1776 1 70.14154130090058 15.185902252433815 1.8563821097072946 -1 0 0
1779 5 71.89493866092945 14.173644802097963 0.02851549402715372 -1 0 0
1787 1 75.40214541180723 12.148691052901814 1.8563821097072946 -1 0 0
1793 1 78.90921481907822 12.148691052901812 1.8563821097072946 -1 0 0
1782 1 73.64861070817159 15.185902252433815 1.8563821097072946 -1 0 0
1785 5 75.40200806820046 14.173644802097963 0.028515494027154233 -1 0 0
1788 1 77.15568011544259 15.185902252433813 1.8563821097072946 -1 0 0
1791 5 78.90907747547145 14.173644802097964 0.028515494027155246 -1 0 0
1799 1 82.41628422634922 12.148691052901816 1.8563821097072946 -1 0 0
1794 1 80.66274952271358 15.185902252433815 1.8563821097072948 -1 0 0
1797 5 82.41614688274245 14.173644802097963 0.02851549402715406 -1 0 0
1800 1 84.16981892998459 15.185902252433815 1.8563821097072946 -1 0 0
1805 1 85.92335363362022 12.148691052901814 1.8563821097072943 -1 0 0
1811 1 89.43042304089121 12.148691052901812 1.8563821097072946 -1 0 0
1803 5 85.92321629001346 14.173644802097963 0.028515494027154236 -1 0 0
1806 1 87.67688833725559 15.185902252433813 1.8563821097072946 -1 0 0
1809 5 89.43028569728445 14.173644802097964 0.028515494027155246 -1 0 0
1817 1 92.93749244816222 12.148691052901816 1.8563821097072946 -1 0 0
1812 1 91.18395774452658 15.185902252433815 1.8563821097072948 -1 0 0
1815 5 92.93735510455545 14.173644802097963 0.028515494027154118 -1 0 0
1818 1 94.69102715179758 15.185902252433815 1.8563821097072948 -1 0 0
1823 1 96.44456185543322 12.148691052901814 1.8563821097072946 -1 0 0
1829 1 99.95163126270421 12.148691052901814 1.8563821097072943 -1 0 0
1821 5 96.44442451182645 14.173644802097963 0.028515494027154354 -1 0 0
1824 1 98.19809655906859 15.185902252433813 1.8563821097072946 -1 0 0
1827 5 99.95149391909744 14.173644802097963 0.02851549402715425 -1 0 0
1834 5 3.507085219144618 17.210856001629963 0.02851549402715539 0 0 0
2009 1 1.7536878591162115 18.223113451965812 1.8563821097072948 0 0 0
2015 1 5.260757266387211 18.223113451965812 1.856382109707295 0 0 0
2007 5 1.753550515509438 20.248067201161962 0.028515494027155197 0 0 0
2010 1 3.5072225627515814 21.260324651497815 1.856382109707295 0 0 0
2013 5 5.260619922780436 20.248067201161962 0.028515494027155516 0 0 0
1828 5 1.581187362376113e-05 17.210856001629963 0.028515494027153768 0 0 0
2004 1 0.00015315548058936201 21.260324651497815 1.856382109707295 0 0 0
1840 5 7.014154626415616 17.210856001629963 0.02851549402715478 0 0 0
1846 5 10.521224033686618 17.210856001629963 0.0285154940271543 0 0 0
2021 1 8.76782667365821 18.223113451965816 1.8563821097072948 0 0 0
2016 1 7.01429197002258 21.260324651497815 1.8563821097072948 0 0 0
2019 5 8.767689330051436 20.248067201161962 0.028515494027154822 0 0 0
2022 1 10.521361377293578 21.260324651497815 1.8563821097072948 0 0 0
1852 5 14.028293440957617 17.210856001629963 0.028515494027154333 0 0 0
2027 1 12.274896080929212 18.223113451965812 1.8563821097072948 0 0 0
2033 1 15.781965488200212 18.223113451965816 1.8563821097072948 0 0 0
2025 5 12.274758737322438 20.248067201161962 0.02851549402715494 0 0 0
2028 1 14.028430784564579 21.260324651497815 1.8563821097072948 0 0 0
2031 5 15.781828144593439 20.248067201161962 0.02851549402715511 0 0 0
1858 5 17.53536284822862 17.210856001629963 0.028515494027154885 0 0 0
1864 5 21.042432255499623 17.210856001629963 0.02851549402715464 0 0 0
2039 1 19.28903489547121 18.223113451965816 1.8563821097072948 0 0 0
2034 1 17.53550019183558 21.260324651497815 1.856382109707295 0 0 0
2037 5 19.288897551864434 20.248067201161962 0.0285154940271551 0 0 0
2040 1 21.04256959910658 21.260324651497815 1.856382109707295 0 0 0
1870 5 24.549501662770616 17.210856001629963 0.028515494027154645 0 0 0
1876 5 28.056571070041617 17.210856001629963 0.028515494027154944 0 0 0
2045 1 22.79610430274221 18.223113451965812 1.856382109707295 0 0 0
2051 1 26.303173710013212 18.223113451965816 1.8563821097072948 0 0 0
2043 5 22.795966959135434 20.248067201161962 0.028515494027155454 0 0 0
2046 1 24.549639006377582 21.260324651497815 1.8563821097072948 0 0 0
2049 5 26.303036366406438 20.248067201161962 0.028515494027155183 0 0 0
2052 1 28.05670841364858 21.260324651497815 1.8563821097072948 0 0 0
1882 5 31.56364047731262 17.210856001629963 0.028515494027154767 0 0 0
2057 1 29.81024311728421 18.223113451965816 1.8563821097072948 0 0 0
2063 1 33.317312524555206 18.223113451965816 1.856382109707295 0 0 0
2055 5 29.81010577367743 20.248067201161962 0.02851549402715507 0 0 0
2058 1 31.56377782091958 21.260324651497815 1.856382109707295 0 0 0
2061 5 33.31717518094843 20.248067201161962 0.028515494027155433 0 0 0
1888 5 35.070709884583614 17.210856001629963 0.02851549402715471 0 0 0
1894 5 38.57777929185461 17.210856001629963 0.028515494027154257 0 0 0
2069 1 36.82438193182621 18.223113451965816 1.8563821097072948 0 0 0
2064 1 35.07084722819058 21.260324651497815 1.856382109707295 0 0 0
2067 5 36.824244588219436 20.248067201161962 0.028515494027154985 0 0 0
2070 1 38.57791663546158 21.260324651497815 1.8563821097072948 0 0 0
1900 5 42.084848699125615 17.210856001629963 0.0285154940271548 0 0 0
2075 1 40.331451339097214 18.223113451965816 1.8563821097072948 0 0 0
2081 1 43.83852074636821 18.223113451965816 1.8563821097072948 0 0 0
2073 5 40.33131399549043 20.248067201161962 0.028515494027155044 0 0 0
2076 1 42.08498604273258 21.260324651497815 1.8563821097072948 0 0 0
2079 5 43.83838340276143 20.248067201161962 0.028515494027154833 0 0 0
1906 5 45.59191810639662 17.210856001629963 0.02851549402715468 0 0 0
1912 5 49.098987513667616 17.210856001629963 0.028515494027154635 0 0 0
2087 1 47.34559015363921 18.223113451965812 1.856382109707295 0 0 0
2082 1 45.592055450003585 21.260324651497815 1.8563821097072948 0 0 0
2085 5 47.345452810032434 20.248067201161962 0.028515494027155346 0 0 0
2088 1 49.09912485727458 21.260324651497815 1.8563821097072948 0 0 0
1744 5 52.60605692093861 17.210856001629963 0.028515494027154503 -1 0 0
1750 5 56.11312632820962 17.210856001629963 0.02851549402715425 -1 0 0
1919 1 50.85265956091021 18.223113451965812 1.8563821097072948 -1 0 0
1925 1 54.359728968181216 18.223113451965816 1.856382109707295 -1 0 0
1917 5 50.85252221730344 20.248067201161962 0.028515494027155183 -1 0 0
1920 1 52.60619426454558 21.260324651497815 1.8563821097072948 -1 0 0
1923 5 54.359591624574435 20.248067201161962 0.028515494027154732 -1 0 0
1926 1 56.11326367181658 21.260324651497815 1.856382109707295 -1 0 0
1756 5 59.62019573548062 17.210856001629963 0.028515494027154756 -1 0 0
1931 1 57.86679837545221 18.223113451965816 1.8563821097072948 -1 0 0
1937 1 61.37386778272322 18.223113451965816 1.8563821097072948 -1 0 0
1929 5 57.86666103184544 20.248067201161962 0.028515494027154965 -1 0 0
1932 1 59.62033307908759 21.260324651497815 1.856382109707295 -1 0 0
1935 5 61.373730439116436 20.248067201161962 0.02851549402715452 -1 0 0
1762 5 63.12726514275162 17.210856001629963 0.028515494027153785 -1 0 0
1768 5 66.63433455002261 17.210856001629963 0.02851549402715517 -1 0 0
1943 1 64.88093718999421 18.223113451965812 1.856382109707295 -1 0 0
1938 1 63.127402486358584 21.260324651497815 1.8563821097072954 -1 0 0
1941 5 64.88079984638745 20.248067201161962 0.028515494027155218 -1 0 0
1944 1 66.63447189362958 21.260324651497815 1.8563821097072948 -1 0 0
1774 5 70.14140395729362 17.210856001629963 0.02851549402715384 -1 0 0
1949 1 68.38800659726522 18.223113451965816 1.8563821097072948 -1 0 0
1955 1 71.89507600453622 18.223113451965816 1.8563821097072948 -1 0 0
1947 5 68.38786925365845 20.248067201161962 0.028515494027155076 -1 0 0
1950 1 70.14154130090058 21.260324651497815 1.8563821097072948 -1 0 0
1953 5 71.89493866092945 20.248067201161962 0.028515494027154507 -1 0 0
1780 5 73.64847336456462 17.210856001629963 0.028515494027153813 -1 0 0
1786 5 77.15554277183563 17.210856001629963 0.028515494027155645 -1 0 0
1961 1 75.40214541180723 18.223113451965812 1.856382109707295 -1 0 0
1967 1 78.90921481907822 18.223113451965812 1.8563821097072948 -1 0 0
1956 1 73.64861070817159 21.260324651497815 1.8563821097072946 -1 0 0
1959 5 75.40200806820046 20.248067201161962 0.028515494027154968 -1 0 0
1962 1 77.15568011544259 21.260324651497815 1.8563821097072948 -1 0 0
1965 5 78.90907747547145 20.248067201161962 0.02851549402715601 -1 0 0
1792 5 80.66261217910662 17.210856001629963 0.0285154940271545 -1 0 0
1798 5 84.16968158637762 17.210856001629963 0.028515494027154007 -1 0 0
1973 1 82.41628422634922 18.223113451965816 1.8563821097072948 -1 0 0
1968 1 80.66274952271358 21.260324651497815 1.8563821097072948 -1 0 0
1971 5 82.41614688274245 20.248067201161962 0.028515494027154826 -1 0 0
1974 1 84.16981892998459 21.260324651497815 1.856382109707295 -1 0 0
1804 5 87.67675099364862 17.210856001629963 0.028515494027155634 -1 0 0
1979 1 85.92335363362022 18.223113451965816 1.8563821097072948 -1 0 0
1985 1 89.43042304089121 18.223113451965812 1.8563821097072948 -1 0 0
1977 5 85.92321629001346 20.248067201161962 0.02851549402715498 -1 0 0
1980 1 87.67688833725559 21.260324651497815 1.8563821097072948 -1 0 0
1983 5 89.43028569728445 20.248067201161962 0.028515494027156005 -1 0 0
1810 5 91.18382040091961 17.210856001629963 0.028515494027154538 -1 0 0
1816 5 94.69088980819062 17.210856001629963 0.028515494027154042 -1 0 0
1991 1 92.93749244816222 18.223113451965816 1.8563821097072948 -1 0 0
1986 1 91.18395774452658 21.260324651497815 1.8563821097072948 -1 0 0
1989 5 92.93735510455545 20.248067201161962 0.028515494027154913 -1 0 0
1992 1 94.69102715179758 21.260324651497815 1.856382109707295 -1 0 0
1822 5 98.19795921546162 17.210856001629963 0.02851549402715526 -1 0 0
1997 1 96.44456185543322 18.223113451965816 1.8563821097072948 -1 0 0
2003 1 99.95163126270421 18.223113451965816 1.8563821097072948 -1 0 0
1995 5 96.44442451182645 20.248067201161962 0.028515494027155072 -1 0 0
1998 1 98.19809655906859 21.260324651497815 1.856382109707295 -1 0 0
2001 5 99.95149391909744 20.248067201161962 0.028515494027155495 -1 0 0
2008 5 3.507085219144617 23.28527840069396 0.02851549402715459 0 0 0
2183 1 1.7536878591162113 24.297535851029814 1.8563821097072943 0 0 0
2189 1 5.260757266387211 24.297535851029814 1.8563821097072943 0 0 0
2181 5 1.7535505155094377 26.322489600225964 0.0285154940271542 0 0 0
2187 5 5.260619922780436 26.322489600225964 0.028515494027154694 0 0 0
2184 1 3.507222562751582 27.334747050561813 1.8563821097072948 0 0 0
2002 5 1.581187362376113e-05 23.28527840069396 0.028515494027153438 0 0 0
2178 1 0.00015315548058936201 27.334747050561813 1.856382109707295 0 0 0
2014 5 7.014154626415616 23.28527840069396 0.028515494027154555 0 0 0
2020 5 10.521224033686618 23.28527840069396 0.028515494027153945 0 0 0
2195 1 8.76782667365821 24.297535851029814 1.8563821097072943 0 0 0
2193 5 8.767689330051436 26.322489600225964 0.02851549402715405 0 0 0
2190 1 7.01429197002258 27.334747050561813 1.8563821097072948 0 0 0
2196 1 10.521361377293578 27.334747050561813 1.8563821097072946 0 0 0
2026 5 14.028293440957617 23.28527840069396 0.028515494027154045 0 0 0
2201 1 12.274896080929212 24.297535851029814 1.8563821097072943 0 0 0
2207 1 15.781965488200212 24.297535851029814 1.8563821097072943 0 0 0