LAMMPS data file via write_data, version 29 Aug 2024, timestep = 3, units = metal

5568 atoms
6 atom types

0 101.705012810859 xlo xhi
0 97.190758385024 ylo yhi
-50 50 zlo zhi

Masses

1 183.84
2 183.84
3 127.6
4 127.6
5 127.6
6 127.6

Atoms # atomic

1485 4 1.753550262073416 2.0248001943718927 0.028476761905162986 0 0 0
1488 1 3.5072200252245103 3.0370600007877764 1.856382396691051 0 0 0
1491 4 5.260619669344415 2.024800194371893 0.028476761905163746 0 0 0
1486 4 3.5070849657085943 5.0620113939038935 0.02847676190516381 0 0 0
1482 1 0.0001506179535084584 3.037060000787777 1.8563823966910509 0 0 0
1480 4 1.5558437596041585e-05 5.0620113939038935 0.02847676190516284 0 0 0
1494 1 7.0142894324955085 3.037060000787777 1.8563823966910513 0 0 0
1497 4 8.767689076615413 2.024800194371893 0.028476761905163076 0 0 0
1500 1 10.52135883976651 3.0370600007877764 1.856382396691051 0 0 0
1492 4 7.0141543729795925 5.0620113939038935 0.028476761905163604 0 0 0
1498 4 10.521223780250594 5.0620113939038935 0.028476761905163166 0 0 0
1503 4 12.274758483886416 2.0248001943718927 0.028476761905163094 0 0 0
1506 1 14.02842824703751 3.037060000787777 1.856382396691051 0 0 0
1509 4 15.781827891157418 2.0248001943718936 0.028476761905163336 0 0 0
1504 4 14.028293187521594 5.0620113939038935 0.02847676190516304 0 0 0
1512 1 17.53549765430851 3.037060000787777 1.856382396691051 0 0 0
1515 4 19.288897298428413 2.024800194371893 0.028476761905163548 0 0 0
1518 1 21.04256706157951 3.0370600007877764 1.8563823966910513 0 0 0
1510 4 17.535362594792595 5.062011393903893 0.028476761905163905 0 0 0
1516 4 21.042432002063595 5.0620113939038935 0.028476761905163527 0 0 0
1521 4 22.795966705699414 2.024800194371893 0.028476761905163572 0 0 0
1524 1 24.54963646885051 3.0370600007877764 1.856382396691051 0 0 0
1527 4 26.303036112970414 2.0248001943718936 0.02847676190516346 0 0 0
1530 1 28.05670587612151 3.0370600007877773 1.856382396691051 0 0 0
1522 4 24.549501409334592 5.0620113939038935 0.02847676190516348 0 0 0
1528 4 28.056570816605593 5.0620113939038935 0.028476761905163815 0 0 0
1533 4 29.81010552024141 2.024800194371893 0.028476761905163434 0 0 0
1536 1 31.56377528339251 3.037060000787776 1.856382396691051 0 0 0
1539 4 33.31717492751241 2.024800194371893 0.02847676190516363 0 0 0
1534 4 31.563640223876593 5.062011393903893 0.028476761905163534 0 0 0
1542 1 35.070844690663506 3.037060000787777 1.8563823966910513 0 0 0
1545 4 36.824244334783415 2.0248001943718927 0.02847676190516256 0 0 0
1548 1 38.57791409793451 3.037060000787777 1.8563823966910509 0 0 0
1540 4 35.070709631147594 5.0620113939038935 0.028476761905163326 0 0 0
1546 4 38.5777790384186 5.062011393903893 0.028476761905162695 0 0 0
1551 4 40.33131374205441 2.024800194371893 0.02847676190516303 0 0 0
1554 1 42.084983505205514 3.037060000787777 1.856382396691051 0 0 0
1557 4 43.83838314932541 2.0248001943718936 0.028476761905163767 0 0 0
1552 4 42.0848484456896 5.0620113939038935 0.028476761905163767 0 0 0
1560 1 45.59205291247651 3.037060000787776 1.856382396691051 0 0 0
1563 4 47.34545255659641 2.024800194371893 0.02847676190516377 0 0 0
1566 1 49.09912231974751 3.0370600007877764 1.8563823966910513 0 0 0
1558 4 45.5919178529606 5.062011393903893 0.028476761905163735 0 0 0
1564 4 49.098987260231596 5.0620113939038935 0.02847676190516334 0 0 0
1395 4 50.85252196386742 2.0248001943718927 0.028476761905162955 -1 0 0
1398 1 52.60619172701851 3.0370600007877764 1.8563823966910509 -1 0 0
1401 4 54.359591371138414 2.0248001943718927 0.028476761905162906 -1 0 0
1404 1 56.113261134289516 3.037060000787777 1.8563823966910513 -1 0 0
1396 4 52.6060566675026 5.062011393903893 0.028476761905163232 -1 0 0
1402 4 56.113126074773604 5.0620113939038935 0.028476761905163083 -1 0 0
1407 4 57.86666077840942 2.024800194371893 0.028476761905163617 -1 0 0
1410 1 59.62033054156051 3.0370600007877764 1.8563823966910509 -1 0 0
1413 4 61.373730185680415 2.0248001943718927 0.028476761905162414 -1 0 0
1408 4 59.6201954820446 5.0620113939038935 0.028476761905163656 -1 0 0
1416 1 63.12739994883152 3.037060000787777 1.8563823966910513 -1 0 0
1419 4 64.88079959295143 2.0248001943718927 0.02847676190516411 -1 0 0
1422 1 66.63446935610251 3.0370600007877764 1.8563823966910513 -1 0 0
1414 4 63.127264889315605 5.062011393903894 0.028476761905162726 -1 0 0
1420 4 66.63433429658659 5.062011393903894 0.028476761905164943 -1 0 0
1425 4 68.38786900022242 2.024800194371893 0.028476761905163288 -1 0 0
1428 1 70.14153876337352 3.037060000787777 1.8563823966910509 -1 0 0
1431 4 71.89493840749343 2.024800194371893 0.028476761905162892 -1 0 0
1426 4 70.14140370385759 5.062011393903893 0.02847676190516257 -1 0 0
1434 1 73.64860817064451 3.037060000787777 1.8563823966910509 -1 0 0
1437 4 75.40200781476443 2.024800194371893 0.028476761905163385 -1 0 0
1440 1 77.15567757791551 3.037060000787777 1.856382396691051 -1 0 0
1443 4 78.90907722203542 2.024800194371893 0.02847676190516327 -1 0 0
1432 4 73.6484731111286 5.062011393903893 0.028476761905162646 -1 0 0
1438 4 77.1555425183996 5.0620113939038935 0.028476761905164023 -1 0 0
1446 1 80.66274698518652 3.037060000787777 1.856382396691051 -1 0 0
1449 4 82.41614662930643 2.0248001943718927 0.028476761905163576 -1 0 0
1452 1 84.16981639245752 3.037060000787777 1.856382396691051 -1 0 0
1444 4 80.6626119256706 5.0620113939038935 0.02847676190516331 -1 0 0
1450 4 84.1696813329416 5.0620113939038935 0.028476761905163368 -1 0 0
1455 4 85.92321603657743 2.024800194371894 0.02847676190516357 -1 0 0
1458 1 87.67688579972851 3.037060000787777 1.856382396691051 -1 0 0
1461 4 89.43028544384842 2.024800194371893 0.028476761905163316 -1 0 0
1456 4 87.6767507402126 5.0620113939038935 0.028476761905164086 -1 0 0
1464 1 91.18395520699951 3.037060000787777 1.856382396691051 -1 0 0
1467 4 92.93735485111942 2.0248001943718927 0.028476761905163697 -1 0 0
1470 1 94.69102461427052 3.0370600007877764 1.8563823966910513 -1 0 0
1462 4 91.1838201474836 5.0620113939038935 0.028476761905163402 -1 0 0
1468 4 94.69088955475459 5.0620113939038935 0.028476761905163406 -1 0 0
1473 4 96.44442425839043 2.024800194371894 0.028476761905163437 -1 0 0
1476 1 98.19809402154151 3.037060000787777 1.856382396691051 -1 0 0
1479 4 99.95149366566142 2.024800194371893 0.028476761905163295 -1 0 0
1474 4 98.1979589620256 5.062011393903893 0.02847676190516377 -1 0 0
1661 1 1.7536853215891441 6.074271200319776 1.8563823966910509 0 0 0
1667 1 5.260754728860142 6.074271200319776 1.856382396691051 0 0 0
1659 4 1.7535502620734158 8.099222593435892 0.028476761905163038 0 0 0
1662 1 3.5072200252245103 9.111482399851777 1.856382396691051 0 0 0
1665 4 5.260619669344415 8.099222593435892 0.028476761905163715 0 0 0
1660 4 3.5070849657085943 11.136433792967892 0.028476761905163368 0 0 0
1656 1 0.0001506179535084584 9.111482399851777 1.8563823966910507 0 0 0
1654 4 1.5558437596041585e-05 11.136433792967894 0.02847676190516236 0 0 0
1673 1 8.767824136131141 6.074271200319777 1.856382396691051 0 0 0
1668 1 7.0142894324955085 9.111482399851777 1.856382396691051 0 0 0
1671 4 8.767689076615413 8.099222593435892 0.028476761905163107 0 0 0
1674 1 10.52135883976651 9.111482399851777 1.8563823966910509 0 0 0
1666 4 7.014154372979592 11.136433792967892 0.028476761905163045 0 0 0
1672 4 10.521223780250594 11.136433792967892 0.02847676190516264 0 0 0
1679 1 12.274893543402143 6.074271200319776 1.856382396691051 0 0 0
1685 1 15.781962950673146 6.074271200319776 1.8563823966910509 0 0 0
1677 4 12.274758483886416 8.099222593435892 0.028476761905163246 0 0 0
1680 1 14.02842824703751 9.111482399851777 1.856382396691051 0 0 0
1683 4 15.781827891157418 8.099222593435893 0.02847676190516343 0 0 0
1678 4 14.028293187521594 11.136433792967892 0.028476761905162577 0 0 0
1691 1 19.28903235794414 6.074271200319776 1.856382396691051 0 0 0
1686 1 17.53549765430851 9.111482399851777 1.8563823966910509 0 0 0
1689 4 19.288897298428413 8.099222593435893 0.028476761905163565 0 0 0
1692 1 21.04256706157951 9.111482399851777 1.856382396691051 0 0 0
1684 4 17.535362594792595 11.136433792967892 0.028476761905163416 0 0 0
1690 4 21.042432002063595 11.136433792967892 0.028476761905162993 0 0 0
1697 1 22.79610176521514 6.074271200319775 1.856382396691051 0 0 0
1703 1 26.30317117248614 6.074271200319777 1.856382396691051 0 0 0
1695 4 22.795966705699414 8.099222593435892 0.028476761905163517 0 0 0
1698 1 24.54963646885051 9.111482399851777 1.856382396691051 0 0 0
1701 4 26.303036112970414 8.099222593435893 0.028476761905163593 0 0 0
1704 1 28.05670587612151 9.111482399851777 1.8563823966910509 0 0 0
1696 4 24.549501409334592 11.136433792967892 0.02847676190516298 0 0 0
1702 4 28.056570816605593 11.136433792967892 0.028476761905163236 0 0 0
1709 1 29.81024057975714 6.074271200319776 1.856382396691051 0 0 0
1715 1 33.31730998702814 6.074271200319775 1.856382396691051 0 0 0
1707 4 29.81010552024141 8.099222593435893 0.02847676190516353 0 0 0
1710 1 31.56377528339251 9.111482399851775 1.8563823966910509 0 0 0
1713 4 33.31717492751241 8.099222593435892 0.028476761905163694 0 0 0
1708 4 31.563640223876593 11.136433792967892 0.028476761905163087 0 0 0
1721 1 36.82437939429914 6.074271200319777 1.856382396691051 0 0 0
1716 1 35.070844690663506 9.111482399851777 1.856382396691051 0 0 0
1719 4 36.824244334783415 8.099222593435892 0.02847676190516264 0 0 0
1722 1 38.57791409793451 9.111482399851777 1.8563823966910507 0 0 0
1714 4 35.070709631147594 11.136433792967892 0.028476761905162767 0 0 0
1720 4 38.5777790384186 11.136433792967892 0.02847676190516234 0 0 0
1727 1 40.33144880157014 6.074271200319777 1.856382396691051 0 0 0
1733 1 43.83851820884114 6.074271200319776 1.856382396691051 0 0 0
1725 4 40.33131374205441 8.099222593435892 0.0284767619051631 0 0 0
1728 1 42.084983505205514 9.111482399851777 1.8563823966910509 0 0 0
1731 4 43.83838314932541 8.099222593435893 0.028476761905163836 0 0 0
1726 4 42.0848484456896 11.136433792967892 0.02847676190516332 0 0 0
1739 1 47.34558761611214 6.074271200319775 1.8563823966910513 0 0 0
1734 1 45.59205291247651 9.111482399851777 1.856382396691051 0 0 0
1737 4 47.34545255659641 8.099222593435892 0.028476761905163718 0 0 0
1740 1 49.09912231974751 9.111482399851777 1.8563823966910513 0 0 0
1732 4 45.5919178529606 11.136433792967892 0.02847676190516307 0 0 0
1738 4 49.098987260231596 11.136433792967892 0.028476761905162774 0 0 0
1571 1 50.852657023383145 6.074271200319777 1.856382396691051 -1 0 0
1577 1 54.35972643065414 6.074271200319776 1.856382396691051 -1 0 0
1569 4 50.85252196386742 8.099222593435892 0.028476761905163107 -1 0 0
1572 1 52.60619172701851 9.111482399851777 1.8563823966910507 -1 0 0
1575 4 54.359591371138414 8.099222593435892 0.028476761905162976 -1 0 0
1578 1 56.113261134289516 9.111482399851777 1.856382396691051 -1 0 0
1570 4 52.6060566675026 11.136433792967892 0.02847676190516278 -1 0 0
1576 4 56.113126074773604 11.136433792967892 0.02847676190516262 -1 0 0
1583 1 57.866795837925146 6.074271200319776 1.856382396691051 -1 0 0
1589 1 61.37386524519614 6.074271200319777 1.856382396691051 -1 0 0
1581 4 57.86666077840942 8.099222593435892 0.028476761905163666 -1 0 0
1584 1 59.62033054156051 9.111482399851777 1.8563823966910507 -1 0 0
1587 4 61.373730185680415 8.099222593435892 0.028476761905162448 -1 0 0
1582 4 59.6201954820446 11.136433792967892 0.0284767619051632 -1 0 0
1595 1 64.88093465246715 6.074271200319775 1.8563823966910507 -1 0 0
1590 1 63.12739994883152 9.111482399851777 1.8563823966910513 -1 0 0
1593 4 64.88079959295143 8.099222593435892 0.028476761905164204 -1 0 0
1596 1 66.63446935610251 9.111482399851777 1.856382396691051 -1 0 0
1588 4 63.127264889315605 11.136433792967894 0.028476761905162205 -1 0 0
1594 4 66.63433429658659 11.136433792967894 0.028476761905164363 -1 0 0
1601 1 68.38800405973815 6.074271200319776 1.856382396691051 -1 0 0
1607 1 71.89507346700915 6.074271200319777 1.8563823966910513 -1 0 0
1599 4 68.38786900022242 8.099222593435892 0.02847676190516328 -1 0 0
1602 1 70.14153876337352 9.111482399851777 1.8563823966910509 -1 0 0
1605 4 71.89493840749343 8.099222593435893 0.028476761905162823 -1 0 0
1600 4 70.14140370385759 11.136433792967892 0.0284767619051622 -1 0 0
1613 1 75.40214287428014 6.074271200319776 1.856382396691051 -1 0 0
1619 1 78.90921228155115 6.074271200319776 1.856382396691051 -1 0 0
1608 1 73.64860817064451 9.111482399851777 1.8563823966910509 -1 0 0
1611 4 75.40200781476443 8.099222593435892 0.02847676190516329 -1 0 0
1614 1 77.15567757791551 9.111482399851777 1.8563823966910509 -1 0 0
1617 4 78.90907722203542 8.099222593435892 0.028476761905163274 -1 0 0
1606 4 73.6484731111286 11.136433792967892 0.028476761905162223 -1 0 0
1612 4 77.1555425183996 11.136433792967892 0.02847676190516353 -1 0 0
1625 1 82.41628168882215 6.074271200319776 1.8563823966910513 -1 0 0
1620 1 80.66274698518652 9.111482399851777 1.8563823966910509 -1 0 0
1623 4 82.41614662930643 8.099222593435892 0.02847676190516359 -1 0 0
1626 1 84.16981639245752 9.111482399851777 1.8563823966910509 -1 0 0
1618 4 80.6626119256706 11.136433792967892 0.028476761905162885 -1 0 0
1624 4 84.1696813329416 11.136433792967892 0.028476761905162847 -1 0 0
1631 1 85.92335109609316 6.074271200319776 1.856382396691051 -1 0 0
1637 1 89.43042050336415 6.074271200319776 1.856382396691051 -1 0 0
1629 4 85.92321603657743 8.099222593435893 0.02847676190516359 -1 0 0
1632 1 87.67688579972851 9.111482399851777 1.8563823966910509 -1 0 0
1635 4 89.43028544384842 8.099222593435892 0.02847676190516328 -1 0 0
1630 4 87.6767507402126 11.136433792967892 0.02847676190516351 -1 0 0
1643 1 92.93748991063515 6.074271200319776 1.856382396691051 -1 0 0
1638 1 91.18395520699951 9.111482399851777 1.8563823966910509 -1 0 0
1641 4 92.93735485111942 8.099222593435892 0.028476761905163735 -1 0 0
1644 1 94.69102461427052 9.111482399851777 1.8563823966910513 -1 0 0
1636 4 91.1838201474836 11.136433792967892 0.02847676190516292 -1 0 0
1642 4 94.69088955475459 11.136433792967892 0.028476761905162823 -1 0 0
1649 1 96.44455931790615 6.074271200319775 1.8563823966910509 -1 0 0
1655 1 99.95162872517714 6.074271200319778 1.856382396691051 -1 0 0
1647 4 96.44442425839043 8.099222593435893 0.02847676190516357 -1 0 0
1650 1 98.19809402154151 9.111482399851777 1.856382396691051 -1 0 0
1653 4 99.95149366566142 8.099222593435892 0.028476761905163312 -1 0 0
1648 4 98.1979589620256 11.136433792967892 0.02847676190516316 -1 0 0
1835 1 1.7536853215891441 12.148693599383776 1.8563823966910504 0 0 0
1841 1 5.260754728860142 12.148693599383776 1.8563823966910509 0 0 0
1833 4 1.7535502620734158 14.173644992499893 0.028476761905162733 0 0 0
1836 1 3.5072200252245107 15.185904798915777 1.856382396691051 0 0 0
1839 4 5.260619669344415 14.173644992499893 0.028476761905163447 0 0 0
1830 1 0.0001506179535084584 15.185904798915777 1.8563823966910507 0 0 0
1847 1 8.767824136131141 12.148693599383778 1.8563823966910509 0 0 0
1842 1 7.0142894324955085 15.185904798915777 1.856382396691051 0 0 0
1845 4 8.767689076615413 14.173644992499893 0.028476761905162903 0 0 0
1848 1 10.52135883976651 15.185904798915777 1.8563823966910509 0 0 0
1853 1 12.274893543402143 12.148693599383776 1.8563823966910507 0 0 0
1859 1 15.781962950673146 12.148693599383776 1.8563823966910507 0 0 0
1851 4 12.274758483886416 14.173644992499893 0.028476761905162903 0 0 0
1854 1 14.02842824703751 15.185904798915777 1.8563823966910509 0 0 0
1857 4 15.78182789115742 14.173644992499893 0.028476761905163135 0 0 0
1865 1 19.28903235794414 12.148693599383776 1.8563823966910509 0 0 0
1860 1 17.53549765430851 15.185904798915777 1.8563823966910509 0 0 0
1863 4 19.288897298428413 14.173644992499893 0.02847676190516326 0 0 0
1866 1 21.04256706157951 15.185904798915777 1.856382396691051 0 0 0
1871 1 22.79610176521514 12.148693599383776 1.8563823966910509 0 0 0
1877 1 26.30317117248614 12.148693599383778 1.8563823966910509 0 0 0
1869 4 22.795966705699414 14.173644992499893 0.0284767619051633 0 0 0
1872 1 24.54963646885051 15.185904798915777 1.8563823966910509 0 0 0
1875 4 26.303036112970414 14.173644992499895 0.028476761905163246 0 0 0
1878 1 28.05670587612151 15.185904798915777 1.8563823966910509 0 0 0
1883 1 29.81024057975714 12.148693599383776 1.8563823966910509 0 0 0
1889 1 33.31730998702814 12.148693599383776 1.8563823966910509 0 0 0
1881 4 29.81010552024141 14.173644992499893 0.028476761905163215 0 0 0
1884 1 31.56377528339251 15.185904798915777 1.8563823966910509 0 0 0
1887 4 33.31717492751241 14.173644992499893 0.028476761905163534 0 0 0
1895 1 36.82437939429914 12.148693599383778 1.8563823966910509 0 0 0
1890 1 35.070844690663506 15.185904798915777 1.856382396691051 0 0 0
1893 4 36.824244334783415 14.173644992499893 0.028476761905162417 0 0 0
1896 1 38.57791409793451 15.185904798915777 1.8563823966910509 0 0 0
1901 1 40.33144880157014 12.148693599383776 1.8563823966910507 0 0 0
1907 1 43.83851820884114 12.148693599383776 1.8563823966910507 0 0 0
1899 4 40.33131374205441 14.173644992499893 0.02847676190516276 0 0 0
1902 1 42.084983505205514 15.185904798915777 1.8563823966910509 0 0 0
1905 4 43.83838314932541 14.173644992499895 0.028476761905163524 0 0 0
1913 1 47.34558761611214 12.148693599383776 1.8563823966910509 0 0 0
1908 1 45.59205291247651 15.185904798915777 1.8563823966910509 0 0 0
1911 4 47.34545255659641 14.173644992499893 0.028476761905163486 0 0 0
1914 1 49.09912231974751 15.185904798915777 1.856382396691051 0 0 0
1745 1 50.852657023383145 12.148693599383778 1.8563823966910507 -1 0 0
1751 1 54.35972643065414 12.148693599383776 1.8563823966910507 -1 0 0
1743 4 50.85252196386742 14.173644992499893 0.028476761905162806 -1 0 0
1746 1 52.60619172701851 15.185904798915777 1.8563823966910507 -1 0 0
1749 4 54.359591371138414 14.173644992499893 0.028476761905162632 -1 0 0
1752 1 56.113261134289516 15.185904798915777 1.856382396691051 -1 0 0
1757 1 57.866795837925146 12.148693599383776 1.8563823966910507 -1 0 0
1763 1 61.37386524519614 12.148693599383778 1.8563823966910509 -1 0 0
1755 4 57.86666077840942 14.173644992499893 0.02847676190516329 -1 0 0
1758 1 59.62033054156051 15.185904798915777 1.8563823966910507 -1 0 0
1761 4 61.373730185680415 14.173644992499893 0.028476761905162136 -1 0 0
1769 1 64.88093465246715 12.148693599383774 1.8563823966910504 -1 0 0
1764 1 63.12739994883152 15.185904798915777 1.856382396691051 -1 0 0
1767 4 64.88079959295143 14.173644992499893 0.0284767619051638 -1 0 0
1770 1 66.63446935610251 15.185904798915777 1.856382396691051 -1 0 0
1775 1 68.38800405973815 12.148693599383776 1.8563823966910507 -1 0 0
1781 1 71.89507346700915 12.148693599383778 1.8563823966910509 -1 0 0
1773 4 68.38786900022242 14.173644992499893 0.02847676190516307 -1 0 0
1776 1 70.14153876337352 15.185904798915777 1.8563823966910509 -1 0 0
1779 4 71.89493840749343 14.173644992499895 0.028476761905162715 -1 0 0
1787 1 75.40214287428014 12.148693599383776 1.8563823966910507 -1 0 0
1793 1 78.90921228155115 12.148693599383776 1.8563823966910509 -1 0 0
1782 1 73.64860817064451 15.185904798915777 1.8563823966910507 -1 0 0
1785 4 75.40200781476443 14.173644992499893 0.0284767619051631 -1 0 0
1788 1 77.15567757791551 15.185904798915777 1.8563823966910509 -1 0 0
1791 4 78.90907722203542 14.173644992499893 0.02847676190516307 -1 0 0
1799 1 82.41628168882215 12.148693599383776 1.8563823966910507 -1 0 0
1794 1 80.66274698518652 15.185904798915777 1.8563823966910509 -1 0 0
1797 4 82.41614662930643 14.173644992499893 0.028476761905163416 -1 0 0
1800 1 84.16981639245752 15.185904798915777 1.8563823966910509 -1 0 0
1805 1 85.92335109609316 12.148693599383776 1.8563823966910507 -1 0 0
1811 1 89.43042050336415 12.148693599383776 1.8563823966910509 -1 0 0
1803 4 85.92321603657743 14.173644992499895 0.0284767619051633 -1 0 0
1806 1 87.67688579972851 15.185904798915777 1.8563823966910509 -1 0 0
1809 4 89.43028544384842 14.173644992499893 0.02847676190516307 -1 0 0
1817 1 92.93748991063515 12.148693599383776 1.856382396691051 -1 0 0
1812 1 91.18395520699951 15.185904798915777 1.8563823966910509 -1 0 0
1815 4 92.93735485111942 14.173644992499893 0.028476761905163756 -1 0 0
1818 1 94.6910246142705 15.185904798915777 1.856382396691051 -1 0 0
1823 1 96.44455931790615 12.148693599383776 1.8563823966910504 -1 0 0
1829 1 99.95162872517714 12.148693599383778 1.8563823966910507 -1 0 0
1821 4 96.44442425839043 14.173644992499893 0.02847676190516303 -1 0 0
1824 1 98.19809402154151 15.185904798915777 1.8563823966910509 -1 0 0
1827 4 99.95149366566142 14.173644992499893 0.028476761905163062 -1 0 0
1834 4 3.5070849657085943 17.210856192031894 0.02847676190516367 0 0 0
2009 1 1.7536853215891441 18.223115998447778 1.8563823966910509 0 0 0
2015 1 5.260754728860142 18.223115998447778 1.856382396691051 0 0 0
2007 4 1.7535502620734158 20.248067391563893 0.028476761905163524 0 0 0
2010 1 3.5072200252245103 21.260327197979777 1.8563823966910513 0 0 0
2013 4 5.260619669344415 20.248067391563893 0.028476761905164388 0 0 0
1828 4 1.5558437596041585e-05 17.210856192031894 0.02847676190516276 0 0 0
2004 1 0.0001506179535084584 21.260327197979777 1.856382396691051 0 0 0
1840 4 7.014154372979592 17.210856192031894 0.028476761905163375 0 0 0
1846 4 10.521223780250592 17.210856192031894 0.028476761905162948 0 0 0
2021 1 8.767824136131141 18.223115998447778 1.856382396691051 0 0 0
2016 1 7.0142894324955085 21.260327197979777 1.8563823966910513 0 0 0
2019 4 8.767689076615413 20.248067391563893 0.02847676190516367 0 0 0
2022 1 10.521358839766508 21.260327197979777 1.8563823966910513 0 0 0
1852 4 14.028293187521594 17.210856192031894 0.028476761905162698 0 0 0
2027 1 12.274893543402143 18.223115998447778 1.856382396691051 0 0 0
2033 1 15.781962950673146 18.223115998447778 1.856382396691051 0 0 0
2025 4 12.274758483886416 20.248067391563893 0.028476761905163735 0 0 0
2028 1 14.02842824703751 21.260327197979777 1.8563823966910513 0 0 0
2031 4 15.781827891157418 20.248067391563893 0.028476761905163888 0 0 0
1858 4 17.535362594792595 17.210856192031894 0.028476761905163652 0 0 0
1864 4 21.042432002063595 17.210856192031894 0.02847676190516329 0 0 0
2039 1 19.28903235794414 18.223115998447778 1.856382396691051 0 0 0
2034 1 17.53549765430851 21.260327197979777 1.8563823966910515 0 0 0
2037 4 19.288897298428413 20.248067391563893 0.02847676190516411 0 0 0
2040 1 21.04256706157951 21.260327197979777 1.8563823966910515 0 0 0
1870 4 24.549501409334592 17.210856192031894 0.02847676190516326 0 0 0
1876 4 28.056570816605593 17.210856192031894 0.028476761905163562 0 0 0
2045 1 22.79610176521514 18.223115998447778 1.856382396691051 0 0 0
2051 1 26.30317117248614 18.223115998447778 1.856382396691051 0 0 0
2043 4 22.795966705699414 20.248067391563893 0.02847676190516398 0 0 0
2046 1 24.54963646885051 21.260327197979777 1.856382396691051 0 0 0
2049 4 26.303036112970414 20.248067391563893 0.02847676190516407 0 0 0
2052 1 28.05670587612151 21.26032719797978 1.8563823966910513 0 0 0
1882 4 31.563640223876593 17.210856192031894 0.02847676190516332 0 0 0
2057 1 29.81024057975714 18.223115998447778 1.856382396691051 0 0 0
2063 1 33.31730998702814 18.223115998447778 1.8563823966910509 0 0 0
2055 4 29.81010552024141 20.248067391563893 0.02847676190516412 0 0 0
2058 1 31.56377528339251 21.260327197979777 1.8563823966910513 0 0 0
2061 4 33.31717492751241 20.248067391563893 0.02847676190516412 0 0 0
1888 4 35.070709631147594 17.210856192031894 0.028476761905163073 0 0 0
1894 4 38.5777790384186 17.210856192031894 0.028476761905162577 0 0 0
2069 1 36.82437939429914 18.223115998447778 1.856382396691051 0 0 0
2064 1 35.070844690663506 21.26032719797978 1.8563823966910515 0 0 0
2067 4 36.824244334783415 20.248067391563893 0.028476761905163163 0 0 0
2070 1 38.57791409793451 21.260327197979777 1.856382396691051 0 0 0
1900 4 42.0848484456896 17.210856192031894 0.02847676190516359 0 0 0
2075 1 40.33144880157014 18.223115998447778 1.8563823966910509 0 0 0
2081 1 43.83851820884114 18.223115998447778 1.8563823966910509 0 0 0
2073 4 40.33131374205441 20.248067391563893 0.028476761905163687 0 0 0
2076 1 42.084983505205514 21.260327197979777 1.8563823966910513 0 0 0
2079 4 43.838383149325416 20.248067391563893 0.028476761905164398 0 0 0
1906 4 45.5919178529606 17.210856192031894 0.02847676190516347 0 0 0
1912 4 49.098987260231596 17.210856192031894 0.028476761905163135 0 0 0
2087 1 47.34558761611214 18.223115998447774 1.8563823966910509 0 0 0
2082 1 45.59205291247651 21.260327197979777 1.8563823966910513 0 0 0
2085 4 47.34545255659641 20.248067391563893 0.02847676190516421 0 0 0
2088 1 49.09912231974751 21.26032719797978 1.8563823966910518 0 0 0
1744 4 52.6060566675026 17.210856192031894 0.028476761905163003 -1 0 0
1750 4 56.113126074773604 17.210856192031898 0.028476761905162882 -1 0 0
1919 1 50.852657023383145 18.223115998447778 1.8563823966910513 -1 0 0
1925 1 54.35972643065414 18.223115998447778 1.8563823966910509 -1 0 0
1917 4 50.85252196386742 20.248067391563893 0.028476761905163496 -1 0 0
1920 1 52.60619172701851 21.260327197979777 1.856382396691051 -1 0 0
1923 4 54.359591371138414 20.248067391563893 0.028476761905163562 -1 0 0
1926 1 56.113261134289516 21.260327197979777 1.8563823966910515 -1 0 0
1756 4 59.6201954820446 17.210856192031894 0.02847676190516342 -1 0 0
1931 1 57.866795837925146 18.223115998447778 1.8563823966910509 -1 0 0
1937 1 61.37386524519614 18.223115998447778 1.8563823966910513 -1 0 0
1929 4 57.86666077840942 20.248067391563893 0.02847676190516418 -1 0 0
1932 1 59.62033054156051 21.260327197979777 1.856382396691051 -1 0 0
1935 4 61.373730185680415 20.248067391563893 0.028476761905162976 -1 0 0
1762 4 63.127264889315605 17.210856192031894 0.02847676190516258 -1 0 0
1768 4 66.63433429658659 17.210856192031894 0.028476761905164745 -1 0 0
1943 1 64.88093465246715 18.223115998447774 1.8563823966910507 -1 0 0
1938 1 63.12739994883152 21.26032719797978 1.8563823966910515 -1 0 0
1941 4 64.88079959295143 20.248067391563893 0.028476761905164592 -1 0 0
1944 1 66.63446935610251 21.260327197979777 1.8563823966910515 -1 0 0
1774 4 70.14140370385759 17.210856192031894 0.028476761905162427 -1 0 0
1949 1 68.38800405973815 18.223115998447778 1.856382396691051 -1 0 0
1955 1 71.89507346700915 18.223115998447778 1.856382396691051 -1 0 0
1947 4 68.38786900022242 20.248067391563893 0.02847676190516391 -1 0 0
1950 1 70.14153876337352 21.260327197979777 1.856382396691051 -1 0 0
1953 4 71.89493840749343 20.248067391563893 0.02847676190516345 -1 0 0
1780 4 73.6484731111286 17.210856192031894 0.028476761905162462 -1 0 0
1786 4 77.1555425183996 17.210856192031894 0.028476761905163756 -1 0 0
1961 1 75.40214287428014 18.223115998447778 1.8563823966910509 -1 0 0
1967 1 78.90921228155115 18.223115998447778 1.856382396691051 -1 0 0
1956 1 73.64860817064451 21.260327197979777 1.856382396691051 -1 0 0
1959 4 75.40200781476443 20.248067391563893 0.02847676190516382 -1 0 0
1962 1 77.15567757791551 21.260327197979777 1.8563823966910513 -1 0 0
1965 4 78.90907722203542 20.248067391563893 0.028476761905163753 -1 0 0
1792 4 80.6626119256706 17.210856192031894 0.028476761905163146 -1 0 0
1798 4 84.1696813329416 17.210856192031894 0.028476761905163205 -1 0 0
1973 1 82.41628168882215 18.223115998447778 1.856382396691051 -1 0 0
1968 1 80.66274698518652 21.260327197979777 1.8563823966910513 -1 0 0
1971 4 82.41614662930643 20.248067391563893 0.028476761905164148 -1 0 0
1974 1 84.16981639245752 21.260327197979777 1.8563823966910513 -1 0 0
1804 4 87.6767507402126 17.210856192031894 0.028476761905163774 -1 0 0
1979 1 85.92335109609316 18.223115998447778 1.856382396691051 -1 0 0
1985 1 89.43042050336415 18.223115998447778 1.856382396691051 -1 0 0
1977 4 85.92321603657743 20.248067391563893 0.02847676190516405 -1 0 0
1980 1 87.67688579972851 21.260327197979777 1.8563823966910513 -1 0 0
1983 4 89.43028544384842 20.248067391563893 0.02847676190516376 -1 0 0
1810 4 91.1838201474836 17.210856192031894 0.028476761905163153 -1 0 0
1816 4 94.69088955475459 17.210856192031894 0.02847676190516318 -1 0 0
1991 1 92.93748991063515 18.223115998447778 1.8563823966910509 -1 0 0
1986 1 91.18395520699951 21.260327197979777 1.8563823966910513 -1 0 0
1989 4 92.93735485111942 20.248067391563893 0.028476761905164304 -1 0 0
1992 1 94.69102461427052 21.260327197979777 1.8563823966910515 -1 0 0
1822 4 98.1979589620256 17.210856192031894 0.028476761905163597 -1 0 0
1997 1 96.44455931790615 18.223115998447774 1.856382396691051 -1 0 0
2003 1 99.95162872517714 18.223115998447778 1.856382396691051 -1 0 0
1995 4 96.44442425839043 20.248067391563893 0.028476761905163975 -1 0 0
1998 1 98.19809402154151 21.260327197979777 1.8563823966910513 -1 0 0
2001 4 99.95149366566142 20.248067391563893 0.028476761905163815 -1 0 0
2008 4 3.5070849657085943 23.285278591095892 0.0284767619051633 0 0 0
2183 1 1.753685321589144 24.29753839751178 1.8563823966910504 0 0 0
2189 1 5.260754728860142 24.29753839751178 1.8563823966910507 0 0 0
2181 4 1.753550262073416 26.322489790627895 0.02847676190516255 0 0 0
2187 4 5.260619669344415 26.322489790627895 0.02847676190516328 0 0 0
2184 1 3.5072200252245103 27.33474959704378 1.8563823966910513 0 0 0
2002 4 1.5558437596041585e-05 23.285278591095892 0.028476761905162327 0 0 0
2178 1 0.0001506179535084584 27.33474959704378 1.856382396691051 0 0 0
2014 4 7.014154372979592 23.285278591095892 0.028476761905163024 0 0 0
2020 4 10.521223780250592 23.285278591095892 0.028476761905162545 0 0 0
2195 1 8.767824136131141 24.29753839751178 1.8563823966910507 0 0 0
2193 4 8.767689076615413 26.322489790627895 0.028476761905162563 0 0 0
2190 1 7.0142894324955085 27.33474959704378 1.856382396691051 0 0 0
2196 1 10.521358839766508 27.33474959704378 1.8563823966910509 0 0 0
2026 4 14.028293187521594 23.285278591095892 0.028476761905162393 0 0 0
2201 1 12.274893543402143 24.29753839751178 1.8563823966910507 0 0 0
2207 1 15.781962950673146 24.29753839751178 1.8563823966910507 0 0 0
2199 4 12.274758483886416 26.322489790627895 0.02847676190516256 0 0 0