LAMMPS data file via write_data, version 29 Aug 2024, timestep = 0, units = metal

2784 atoms
3 atom types

0 101.705012810859 xlo xhi
0 97.190758385024 ylo yhi
0 18.73393522954 zlo zhi

Masses

1 183.84
2 127.6
3 127.6

Atoms # atomic

1487 1 1.753534703635502 0 1.857210336944 0 0 0
1493 1 5.260604110906499 0 1.857210336944 0 0 0
1499 1 8.767673518177496 0 1.857210336944 0 0 0
1505 1 12.2747429254485 0 1.857210336944 0 0 0
1511 1 15.781812332719504 0 1.857210336944 0 0 0
1517 1 19.288881739990494 0 1.857210336944 0 0 0
1523 1 22.795951147261498 0 1.857210336944 0 0 0
1529 1 26.3030205545325 0 1.857210336944 0 0 0
1535 1 29.81008996180349 0 1.857210336944 0 0 0
1541 1 33.317159369074496 0 1.857210336944 0 0 0
1547 1 36.8242287763455 0 1.857210336944 0 0 0
1553 1 40.331298183616504 0 1.857210336944 0 0 0
1559 1 43.83836759088749 0 1.857210336944 0 0 0
1565 1 47.3454369981585 0 1.857210336944 0 0 0
1397 1 50.8525064054295 0 1.857210336944 -1 0 0
1403 1 54.3595758127005 0 1.857210336944 -1 0 0
1409 1 57.8666452199715 0 1.857210336944 -1 0 0
1415 1 61.3737146272425 0 1.857210336944 -1 0 0
1421 1 64.88078403451351 0 1.857210336944 -1 0 0
1427 1 68.3878534417845 0 1.857210336944 -1 0 0
1433 1 71.8949228490555 0 1.857210336944 -1 0 0
1439 1 75.40199225632651 0 1.857210336944 -1 0 0
1445 1 78.9090616635975 0 1.857210336944 -1 0 0
1451 1 82.4161310708685 0 1.857210336944 -1 0 0
1457 1 85.9232004781395 0 1.857210336944 -1 0 0
1463 1 89.4302698854105 0 1.857210336944 -1 0 0
1469 1 92.9373392926815 0 1.857210336944 -1 0 0
1475 1 96.4444086999525 0 1.857210336944 -1 0 0
1481 1 99.9514781072235 0 1.857210336944 -1 0 0
1485 3 1.753534703635502 2.024807466355 0 0 0 0
1488 1 3.5070694072704995 3.0372111995320026 1.857210336944 0 0 0
1491 3 5.260604110906499 2.024807466355 0 0 0 0
1494 1 7.0141388145414965 3.0372111995320026 1.857210336944 0 0 0
1497 3 8.767673518177496 2.024807466355 0 0 0 0
1500 1 10.5212082218125 3.0372111995320026 1.857210336944 0 0 0
1503 3 12.2747429254485 2.024807466355 0 0 0 0
1506 1 14.028277629083497 3.0372111995320026 1.857210336944 0 0 0
1509 3 15.781812332719504 2.024807466355 0 0 0 0
1512 1 17.5353470363545 3.0372111995320026 1.857210336944 0 0 0
1515 3 19.288881739990494 2.024807466355 0 0 0 0
1518 1 21.042416443625505 3.0372111995320026 1.857210336944 0 0 0
1521 3 22.795951147261498 2.024807466355 0 0 0 0
1524 1 24.549485850896495 3.0372111995320026 1.857210336944 0 0 0
1527 3 26.3030205545325 2.024807466355 0 0 0 0
1530 1 28.0565552581675 3.0372111995320026 1.857210336944 0 0 0
1533 3 29.81008996180349 2.024807466355 0 0 0 0
1536 1 31.563624665438503 3.0372111995320026 1.857210336944 0 0 0
1539 3 33.317159369074496 2.024807466355 0 0 0 0
1542 1 35.07069407270949 3.0372111995320026 1.857210336944 0 0 0
1545 3 36.8242287763455 2.024807466355 0 0 0 0
1548 1 38.5777634799805 3.0372111995320026 1.857210336944 0 0 0
1551 3 40.331298183616504 2.024807466355 0 0 0 0
1554 1 42.0848328872515 3.0372111995320026 1.857210336944 0 0 0
1557 3 43.83836759088749 2.024807466355 0 0 0 0
1560 1 45.591902294522505 3.0372111995320026 1.857210336944 0 0 0
1563 3 47.3454369981585 2.024807466355 0 0 0 0
1566 1 49.098971701793495 3.0372111995320026 1.857210336944 0 0 0
1395 3 50.8525064054295 2.024807466355 0 -1 0 0
1398 1 52.6060411090645 3.0372111995320026 1.857210336944 -1 0 0
1401 3 54.3595758127005 2.024807466355 0 -1 0 0
1404 1 56.1131105163355 3.0372111995320026 1.857210336944 -1 0 0
1407 3 57.8666452199715 2.024807466355 0 -1 0 0
1410 1 59.6201799236065 3.0372111995320026 1.857210336944 -1 0 0
1413 3 61.3737146272425 2.024807466355 0 -1 0 0
1416 1 63.127249330877504 3.0372111995320026 1.857210336944 -1 0 0
1419 3 64.88078403451351 2.024807466355 0 -1 0 0
1425 3 68.3878534417845 2.024807466355 0 -1 0 0
1422 1 66.6343187381485 3.0372111995320026 1.857210336944 -1 0 0
1428 1 70.1413881454195 3.0372111995320026 1.857210336944 -1 0 0
1431 3 71.8949228490555 2.024807466355 0 -1 0 0
1434 1 73.6484575526905 3.0372111995320026 1.857210336944 -1 0 0
1437 3 75.40199225632651 2.024807466355 0 -1 0 0
1440 1 77.1555269599615 3.0372111995320026 1.857210336944 -1 0 0
1443 3 78.9090616635975 2.024807466355 0 -1 0 0
1446 1 80.66259636723251 3.0372111995320026 1.857210336944 -1 0 0
1449 3 82.4161310708685 2.024807466355 0 -1 0 0
1455 3 85.9232004781395 2.024807466355 0 -1 0 0
1452 1 84.1696657745035 3.0372111995320026 1.857210336944 -1 0 0
1458 1 87.6767351817745 3.0372111995320026 1.857210336944 -1 0 0
1461 3 89.4302698854105 2.024807466355 0 -1 0 0
1464 1 91.18380458904551 3.0372111995320026 1.857210336944 -1 0 0
1467 3 92.9373392926815 2.024807466355 0 -1 0 0
1470 1 94.6908739963165 3.0372111995320026 1.857210336944 -1 0 0
1473 3 96.4444086999525 2.024807466355 0 -1 0 0
1476 1 98.1979434035875 3.0372111995320026 1.857210336944 -1 0 0
1479 3 99.9514781072235 2.024807466355 0 -1 0 0
1482 1 101.7050128108585 3.0372111995320026 1.857210336944 -1 0 0
1486 3 3.5070694072704995 5.0620186658870026 0 0 0 0
1492 3 7.0141388145414965 5.0620186658870026 0 0 0 0
1498 3 10.5212082218125 5.0620186658870026 0 0 0 0
1504 3 14.028277629083497 5.0620186658870026 0 0 0 0
1510 3 17.5353470363545 5.0620186658870026 0 0 0 0
1516 3 21.042416443625505 5.0620186658870026 0 0 0 0
1522 3 24.549485850896495 5.0620186658870026 0 0 0 0
1528 3 28.0565552581675 5.0620186658870026 0 0 0 0
1534 3 31.563624665438503 5.0620186658870026 0 0 0 0
1540 3 35.07069407270949 5.0620186658870026 0 0 0 0
1546 3 38.5777634799805 5.0620186658870026 0 0 0 0
1552 3 42.0848328872515 5.0620186658870026 0 0 0 0
1558 3 45.591902294522505 5.0620186658870026 0 0 0 0
1564 3 49.098971701793495 5.0620186658870026 0 0 0 0
1396 3 52.6060411090645 5.0620186658870026 0 -1 0 0
1402 3 56.1131105163355 5.0620186658870026 0 -1 0 0
1408 3 59.6201799236065 5.0620186658870026 0 -1 0 0
1414 3 63.127249330877504 5.0620186658870026 0 -1 0 0
1420 3 66.6343187381485 5.0620186658870026 0 -1 0 0
1426 3 70.1413881454195 5.0620186658870026 0 -1 0 0
1432 3 73.6484575526905 5.0620186658870026 0 -1 0 0
1438 3 77.1555269599615 5.0620186658870026 0 -1 0 0
1444 3 80.66259636723251 5.0620186658870026 0 -1 0 0
1450 3 84.1696657745035 5.0620186658870026 0 -1 0 0
1456 3 87.6767351817745 5.0620186658870026 0 -1 0 0
1462 3 91.18380458904551 5.0620186658870026 0 -1 0 0
1468 3 94.6908739963165 5.0620186658870026 0 -1 0 0
1474 3 98.1979434035875 5.0620186658870026 0 -1 0 0
1480 3 101.7050128108585 5.0620186658870026 0 -1 0 0
1661 1 1.753534703635502 6.074422399063998 1.857210336944 0 0 0
1667 1 5.260604110906499 6.074422399063998 1.857210336944 0 0 0
1673 1 8.767673518177496 6.074422399063998 1.857210336944 0 0 0
1679 1 12.2747429254485 6.074422399063998 1.857210336944 0 0 0
1685 1 15.781812332719504 6.074422399063998 1.857210336944 0 0 0
1691 1 19.288881739990494 6.074422399063998 1.857210336944 0 0 0
1697 1 22.795951147261498 6.074422399063998 1.857210336944 0 0 0
1703 1 26.3030205545325 6.074422399063998 1.857210336944 0 0 0
1709 1 29.81008996180349 6.074422399063998 1.857210336944 0 0 0
1715 1 33.317159369074496 6.074422399063998 1.857210336944 0 0 0
1721 1 36.8242287763455 6.074422399063998 1.857210336944 0 0 0
1727 1 40.331298183616504 6.074422399063998 1.857210336944 0 0 0
1733 1 43.83836759088749 6.074422399063998 1.857210336944 0 0 0
1739 1 47.3454369981585 6.074422399063998 1.857210336944 0 0 0
1571 1 50.8525064054295 6.074422399063998 1.857210336944 -1 0 0
1577 1 54.3595758127005 6.074422399063998 1.857210336944 -1 0 0
1583 1 57.8666452199715 6.074422399063998 1.857210336944 -1 0 0
1589 1 61.3737146272425 6.074422399063998 1.857210336944 -1 0 0
1595 1 64.88078403451351 6.074422399063998 1.857210336944 -1 0 0
1601 1 68.3878534417845 6.074422399063998 1.857210336944 -1 0 0
1607 1 71.8949228490555 6.074422399063998 1.857210336944 -1 0 0
1613 1 75.40199225632651 6.074422399063998 1.857210336944 -1 0 0
1619 1 78.9090616635975 6.074422399063998 1.857210336944 -1 0 0
1625 1 82.4161310708685 6.074422399063998 1.857210336944 -1 0 0
1631 1 85.9232004781395 6.074422399063998 1.857210336944 -1 0 0
1637 1 89.4302698854105 6.074422399063998 1.857210336944 -1 0 0
1643 1 92.9373392926815 6.074422399063998 1.857210336944 -1 0 0
1649 1 96.4444086999525 6.074422399063998 1.857210336944 -1 0 0
1655 1 99.9514781072235 6.074422399063998 1.857210336944 -1 0 0
1659 3 1.753534703635502 8.099229865418998 0 0 0 0
1662 1 3.5070694072704995 9.111633598596 1.857210336944 0 0 0
1665 3 5.260604110906499 8.099229865418998 0 0 0 0
1668 1 7.0141388145414965 9.111633598596 1.857210336944 0 0 0
1671 3 8.767673518177496 8.099229865418998 0 0 0 0
1674 1 10.5212082218125 9.111633598596 1.857210336944 0 0 0
1677 3 12.2747429254485 8.099229865418998 0 0 0 0
1680 1 14.028277629083497 9.111633598596 1.857210336944 0 0 0
1683 3 15.781812332719504 8.099229865418998 0 0 0 0
1686 1 17.5353470363545 9.111633598596 1.857210336944 0 0 0
1689 3 19.288881739990494 8.099229865418998 0 0 0 0
1692 1 21.042416443625505 9.111633598596 1.857210336944 0 0 0
1695 3 22.795951147261498 8.099229865418998 0 0 0 0
1698 1 24.549485850896495 9.111633598596 1.857210336944 0 0 0
1701 3 26.3030205545325 8.099229865418998 0 0 0 0
1704 1 28.0565552581675 9.111633598596 1.857210336944 0 0 0
1707 3 29.81008996180349 8.099229865418998 0 0 0 0
1710 1 31.563624665438503 9.111633598596 1.857210336944 0 0 0
1713 3 33.317159369074496 8.099229865418998 0 0 0 0
1716 1 35.07069407270949 9.111633598596 1.857210336944 0 0 0
1719 3 36.8242287763455 8.099229865418998 0 0 0 0
1722 1 38.5777634799805 9.111633598596 1.857210336944 0 0 0
1725 3 40.331298183616504 8.099229865418998 0 0 0 0
1728 1 42.0848328872515 9.111633598596 1.857210336944 0 0 0
1731 3 43.83836759088749 8.099229865418998 0 0 0 0
1734 1 45.591902294522505 9.111633598596 1.857210336944 0 0 0
1737 3 47.3454369981585 8.099229865418998 0 0 0 0
1740 1 49.098971701793495 9.111633598596 1.857210336944 0 0 0
1569 3 50.8525064054295 8.099229865418998 0 -1 0 0
1572 1 52.6060411090645 9.111633598596 1.857210336944 -1 0 0
1575 3 54.3595758127005 8.099229865418998 0 -1 0 0
1578 1 56.1131105163355 9.111633598596 1.857210336944 -1 0 0
1581 3 57.8666452199715 8.099229865418998 0 -1 0 0
1584 1 59.6201799236065 9.111633598596 1.857210336944 -1 0 0
1587 3 61.3737146272425 8.099229865418998 0 -1 0 0
1590 1 63.127249330877504 9.111633598596 1.857210336944 -1 0 0
1593 3 64.88078403451351 8.099229865418998 0 -1 0 0
1599 3 68.3878534417845 8.099229865418998 0 -1 0 0
1596 1 66.6343187381485 9.111633598596 1.857210336944 -1 0 0
1602 1 70.1413881454195 9.111633598596 1.857210336944 -1 0 0
1605 3 71.8949228490555 8.099229865418998 0 -1 0 0
1608 1 73.6484575526905 9.111633598596 1.857210336944 -1 0 0
1611 3 75.40199225632651 8.099229865418998 0 -1 0 0
1614 1 77.1555269599615 9.111633598596 1.857210336944 -1 0 0
1617 3 78.9090616635975 8.099229865418998 0 -1 0 0
1620 1 80.66259636723251 9.111633598596 1.857210336944 -1 0 0
1623 3 82.4161310708685 8.099229865418998 0 -1 0 0
1629 3 85.9232004781395 8.099229865418998 0 -1 0 0
1626 1 84.1696657745035 9.111633598596 1.857210336944 -1 0 0
1632 1 87.6767351817745 9.111633598596 1.857210336944 -1 0 0
1635 3 89.4302698854105 8.099229865418998 0 -1 0 0
1638 1 91.18380458904551 9.111633598596 1.857210336944 -1 0 0
1641 3 92.9373392926815 8.099229865418998 0 -1 0 0
1644 1 94.6908739963165 9.111633598596 1.857210336944 -1 0 0
1647 3 96.4444086999525 8.099229865418998 0 -1 0 0
1650 1 98.1979434035875 9.111633598596 1.857210336944 -1 0 0
1653 3 99.9514781072235 8.099229865418998 0 -1 0 0
1656 1 101.7050128108585 9.111633598596 1.857210336944 -1 0 0
1660 3 3.5070694072704995 11.136441064951 0 0 0 0
1666 3 7.0141388145414965 11.136441064951 0 0 0 0
1672 3 10.5212082218125 11.136441064951 0 0 0 0
1678 3 14.028277629083497 11.136441064951 0 0 0 0
1684 3 17.5353470363545 11.136441064951 0 0 0 0
1690 3 21.042416443625505 11.136441064951 0 0 0 0
1696 3 24.549485850896495 11.136441064951 0 0 0 0
1702 3 28.0565552581675 11.136441064951 0 0 0 0
1708 3 31.563624665438503 11.136441064951 0 0 0 0
1714 3 35.07069407270949 11.136441064951 0 0 0 0
1720 3 38.5777634799805 11.136441064951 0 0 0 0
1726 3 42.0848328872515 11.136441064951 0 0 0 0
1732 3 45.591902294522505 11.136441064951 0 0 0 0
1738 3 49.098971701793495 11.136441064951 0 0 0 0
1570 3 52.6060411090645 11.136441064951 0 -1 0 0
1576 3 56.1131105163355 11.136441064951 0 -1 0 0
1582 3 59.6201799236065 11.136441064951 0 -1 0 0
1588 3 63.127249330877504 11.136441064951 0 -1 0 0
1594 3 66.6343187381485 11.136441064951 0 -1 0 0
1600 3 70.1413881454195 11.136441064951 0 -1 0 0
1606 3 73.6484575526905 11.136441064951 0 -1 0 0
1612 3 77.1555269599615 11.136441064951 0 -1 0 0
1618 3 80.66259636723251 11.136441064951 0 -1 0 0
1624 3 84.1696657745035 11.136441064951 0 -1 0 0
1630 3 87.6767351817745 11.136441064951 0 -1 0 0
1636 3 91.18380458904551 11.136441064951 0 -1 0 0
1642 3 94.6908739963165 11.136441064951 0 -1 0 0
1648 3 98.1979434035875 11.136441064951 0 -1 0 0
1654 3 101.7050128108585 11.136441064951 0 -1 0 0
1835 1 1.753534703635502 12.148844798128003 1.857210336944 0 0 0
1841 1 5.260604110906499 12.148844798128003 1.857210336944 0 0 0
1847 1 8.767673518177496 12.148844798128003 1.857210336944 0 0 0
1853 1 12.2747429254485 12.148844798128003 1.857210336944 0 0 0
1859 1 15.781812332719504 12.148844798128003 1.857210336944 0 0 0
1865 1 19.288881739990494 12.148844798128003 1.857210336944 0 0 0
1871 1 22.795951147261498 12.148844798128003 1.857210336944 0 0 0
1877 1 26.3030205545325 12.148844798128003 1.857210336944 0 0 0
1883 1 29.81008996180349 12.148844798128003 1.857210336944 0 0 0
1889 1 33.317159369074496 12.148844798128003 1.857210336944 0 0 0
1895 1 36.8242287763455 12.148844798128003 1.857210336944 0 0 0
1901 1 40.331298183616504 12.148844798128003 1.857210336944 0 0 0
1907 1 43.83836759088749 12.148844798128003 1.857210336944 0 0 0
1913 1 47.3454369981585 12.148844798128003 1.857210336944 0 0 0
1745 1 50.8525064054295 12.148844798128003 1.857210336944 -1 0 0
1751 1 54.3595758127005 12.148844798128003 1.857210336944 -1 0 0
1757 1 57.8666452199715 12.148844798128003 1.857210336944 -1 0 0
1763 1 61.3737146272425 12.148844798128003 1.857210336944 -1 0 0
1769 1 64.88078403451351 12.148844798128003 1.857210336944 -1 0 0
1775 1 68.3878534417845 12.148844798128003 1.857210336944 -1 0 0
1781 1 71.8949228490555 12.148844798128003 1.857210336944 -1 0 0
1787 1 75.40199225632651 12.148844798128003 1.857210336944 -1 0 0
1793 1 78.9090616635975 12.148844798128003 1.857210336944 -1 0 0
1799 1 82.4161310708685 12.148844798128003 1.857210336944 -1 0 0
1805 1 85.9232004781395 12.148844798128003 1.857210336944 -1 0 0
1811 1 89.4302698854105 12.148844798128003 1.857210336944 -1 0 0
1817 1 92.9373392926815 12.148844798128003 1.857210336944 -1 0 0
1823 1 96.4444086999525 12.148844798128003 1.857210336944 -1 0 0
1829 1 99.9514781072235 12.148844798128003 1.857210336944 -1 0 0
1833 3 1.753534703635502 14.173652264483003 0 0 0 0
1836 1 3.5070694072704995 15.186055997659999 1.857210336944 0 0 0
1839 3 5.260604110906499 14.173652264483003 0 0 0 0
1842 1 7.0141388145414965 15.186055997659999 1.857210336944 0 0 0
1845 3 8.767673518177496 14.173652264483003 0 0 0 0
1848 1 10.5212082218125 15.186055997659999 1.857210336944 0 0 0
1851 3 12.2747429254485 14.173652264483003 0 0 0 0
1854 1 14.028277629083497 15.186055997659999 1.857210336944 0 0 0
1857 3 15.781812332719504 14.173652264483003 0 0 0 0
1860 1 17.5353470363545 15.186055997659999 1.857210336944 0 0 0
1863 3 19.288881739990494 14.173652264483003 0 0 0 0
1866 1 21.042416443625505 15.186055997659999 1.857210336944 0 0 0
1869 3 22.795951147261498 14.173652264483003 0 0 0 0
1872 1 24.549485850896495 15.186055997659999 1.857210336944 0 0 0
1875 3 26.3030205545325 14.173652264483003 0 0 0 0
1878 1 28.0565552581675 15.186055997659999 1.857210336944 0 0 0
1881 3 29.81008996180349 14.173652264483003 0 0 0 0
1884 1 31.563624665438503 15.186055997659999 1.857210336944 0 0 0
1887 3 33.317159369074496 14.173652264483003 0 0 0 0
1890 1 35.07069407270949 15.186055997659999 1.857210336944 0 0 0
1893 3 36.8242287763455 14.173652264483003 0 0 0 0
1896 1 38.5777634799805 15.186055997659999 1.857210336944 0 0 0
1899 3 40.331298183616504 14.173652264483003 0 0 0 0
1902 1 42.0848328872515 15.186055997659999 1.857210336944 0 0 0
1905 3 43.83836759088749 14.173652264483003 0 0 0 0
1908 1 45.591902294522505 15.186055997659999 1.857210336944 0 0 0
1911 3 47.3454369981585 14.173652264483003 0 0 0 0
1914 1 49.098971701793495 15.186055997659999 1.857210336944 0 0 0
1743 3 50.8525064054295 14.173652264483003 0 -1 0 0
1746 1 52.6060411090645 15.186055997659999 1.857210336944 -1 0 0
1749 3 54.3595758127005 14.173652264483003 0 -1 0 0
1752 1 56.1131105163355 15.186055997659999 1.857210336944 -1 0 0
1755 3 57.8666452199715 14.173652264483003 0 -1 0 0
1758 1 59.6201799236065 15.186055997659999 1.857210336944 -1 0 0
1761 3 61.3737146272425 14.173652264483003 0 -1 0 0
1764 1 63.127249330877504 15.186055997659999 1.857210336944 -1 0 0
1767 3 64.88078403451351 14.173652264483003 0 -1 0 0
1773 3 68.3878534417845 14.173652264483003 0 -1 0 0
1770 1 66.6343187381485 15.186055997659999 1.857210336944 -1 0 0
1776 1 70.1413881454195 15.186055997659999 1.857210336944 -1 0 0
1779 3 71.8949228490555 14.173652264483003 0 -1 0 0
1782 1 73.6484575526905 15.186055997659999 1.857210336944 -1 0 0
1785 3 75.40199225632651 14.173652264483003 0 -1 0 0
1788 1 77.1555269599615 15.186055997659999 1.857210336944 -1 0 0
1791 3 78.9090616635975 14.173652264483003 0 -1 0 0
1794 1 80.66259636723251 15.186055997659999 1.857210336944 -1 0 0
1797 3 82.4161310708685 14.173652264483003 0 -1 0 0
1803 3 85.9232004781395 14.173652264483003 0 -1 0 0
1800 1 84.1696657745035 15.186055997659999 1.857210336944 -1 0 0
1806 1 87.6767351817745 15.186055997659999 1.857210336944 -1 0 0
1809 3 89.4302698854105 14.173652264483003 0 -1 0 0
1812 1 91.18380458904551 15.186055997659999 1.857210336944 -1 0 0
1815 3 92.9373392926815 14.173652264483003 0 -1 0 0
1818 1 94.6908739963165 15.186055997659999 1.857210336944 -1 0 0
1821 3 96.4444086999525 14.173652264483003 0 -1 0 0
1824 1 98.1979434035875 15.186055997659999 1.857210336944 -1 0 0
1827 3 99.9514781072235 14.173652264483003 0 -1 0 0
1830 1 101.7050128108585 15.186055997659999 1.857210336944 -1 0 0
1834 3 3.5070694072704995 17.210863464015006 0 0 0 0
1840 3 7.0141388145414965 17.210863464015006 0 0 0 0
1846 3 10.5212082218125 17.210863464015006 0 0 0 0
1852 3 14.028277629083497 17.210863464015006 0 0 0 0
1858 3 17.5353470363545 17.210863464015006 0 0 0 0
1864 3 21.042416443625505 17.210863464015006 0 0 0 0
1870 3 24.549485850896495 17.210863464015006 0 0 0 0
1876 3 28.0565552581675 17.210863464015006 0 0 0 0
1882 3 31.563624665438503 17.210863464015006 0 0 0 0
1888 3 35.07069407270949 17.210863464015006 0 0 0 0
1894 3 38.5777634799805 17.210863464015006 0 0 0 0
1900 3 42.0848328872515 17.210863464015006 0 0 0 0
1906 3 45.591902294522505 17.210863464015006 0 0 0 0
1912 3 49.098971701793495 17.210863464015006 0 0 0 0
1744 3 52.6060411090645 17.210863464015006 0 -1 0 0
1750 3 56.1131105163355 17.210863464015006 0 -1 0 0
1756 3 59.6201799236065 17.210863464015006 0 -1 0 0
1762 3 63.127249330877504 17.210863464015006 0 -1 0 0
1768 3 66.6343187381485 17.210863464015006 0 -1 0 0
1774 3 70.1413881454195 17.210863464015006 0 -1 0 0
1780 3 73.6484575526905 17.210863464015006 0 -1 0 0
1786 3 77.1555269599615 17.210863464015006 0 -1 0 0
1792 3 80.66259636723251 17.210863464015006 0 -1 0 0
1798 3 84.1696657745035 17.210863464015006 0 -1 0 0
1804 3 87.6767351817745 17.210863464015006 0 -1 0 0
1810 3 91.18380458904551 17.210863464015006 0 -1 0 0
1816 3 94.6908739963165 17.210863464015006 0 -1 0 0
1822 3 98.1979434035875 17.210863464015006 0 -1 0 0
1828 3 101.7050128108585 17.210863464015006 0 -1 0 0
2009 1 1.753534703635502 18.223267197192 1.857210336944 0 0 0
2015 1 5.260604110906499 18.223267197192 1.857210336944 0 0 0
2021 1 8.767673518177496 18.223267197192 1.857210336944 0 0 0
2027 1 12.2747429254485 18.223267197192 1.857210336944 0 0 0
2033 1 15.781812332719504 18.223267197192 1.857210336944 0 0 0
2039 1 19.288881739990494 18.223267197192 1.857210336944 0 0 0
2045 1 22.795951147261498 18.223267197192 1.857210336944 0 0 0
2051 1 26.3030205545325 18.223267197192 1.857210336944 0 0 0
2057 1 29.81008996180349 18.223267197192 1.857210336944 0 0 0
2063 1 33.317159369074496 18.223267197192 1.857210336944 0 0 0
2069 1 36.8242287763455 18.223267197192 1.857210336944 0 0 0
2075 1 40.331298183616504 18.223267197192 1.857210336944 0 0 0
2081 1 43.83836759088749 18.223267197192 1.857210336944 0 0 0
2087 1 47.3454369981585 18.223267197192 1.857210336944 0 0 0
1919 1 50.8525064054295 18.223267197192 1.857210336944 -1 0 0
1925 1 54.3595758127005 18.223267197192 1.857210336944 -1 0 0
1931 1 57.8666452199715 18.223267197192 1.857210336944 -1 0 0
1937 1 61.3737146272425 18.223267197192 1.857210336944 -1 0 0
1943 1 64.88078403451351 18.223267197192 1.857210336944 -1 0 0
1949 1 68.3878534417845 18.223267197192 1.857210336944 -1 0 0
1955 1 71.8949228490555 18.223267197192 1.857210336944 -1 0 0
1961 1 75.40199225632651 18.223267197192 1.857210336944 -1 0 0
1967 1 78.9090616635975 18.223267197192 1.857210336944 -1 0 0
1973 1 82.4161310708685 18.223267197192 1.857210336944 -1 0 0
1979 1 85.9232004781395 18.223267197192 1.857210336944 -1 0 0
1985 1 89.4302698854105 18.223267197192 1.857210336944 -1 0 0
1991 1 92.9373392926815 18.223267197192 1.857210336944 -1 0 0
1997 1 96.4444086999525 18.223267197192 1.857210336944 -1 0 0
2003 1 99.9514781072235 18.223267197192 1.857210336944 -1 0 0
2007 3 1.753534703635502 20.248074663547 0 0 0 0
2010 1 3.5070694072704995 21.260478396723997 1.857210336944 0 0 0
2013 3 5.260604110906499 20.248074663547 0 0 0 0
2016 1 7.0141388145414965 21.260478396723997 1.857210336944 0 0 0
2019 3 8.767673518177496 20.248074663547 0 0 0 0
2022 1 10.5212082218125 21.260478396723997 1.857210336944 0 0 0
2025 3 12.2747429254485 20.248074663547 0 0 0 0
2028 1 14.028277629083497 21.260478396723997 1.857210336944 0 0 0
2031 3 15.781812332719504 20.248074663547 0 0 0 0
2034 1 17.5353470363545 21.260478396723997 1.857210336944 0 0 0
2037 3 19.288881739990494 20.248074663547 0 0 0 0
2040 1 21.042416443625505 21.260478396723997 1.857210336944 0 0 0
2043 3 22.795951147261498 20.248074663547 0 0 0 0
2046 1 24.549485850896495 21.260478396723997 1.857210336944 0 0 0
2049 3 26.3030205545325 20.248074663547 0 0 0 0
2052 1 28.0565552581675 21.260478396723997 1.857210336944 0 0 0
2055 3 29.81008996180349 20.248074663547 0 0 0 0
2058 1 31.563624665438503 21.260478396723997 1.857210336944 0 0 0
2061 3 33.317159369074496 20.248074663547 0 0 0 0
2064 1 35.07069407270949 21.260478396723997 1.857210336944 0 0 0
2067 3 36.8242287763455 20.248074663547 0 0 0 0
2070 1 38.5777634799805 21.260478396723997 1.857210336944 0 0 0
2073 3 40.331298183616504 20.248074663547 0 0 0 0
2076 1 42.0848328872515 21.260478396723997 1.857210336944 0 0 0
2079 3 43.83836759088749 20.248074663547 0 0 0 0
2082 1 45.591902294522505 21.260478396723997 1.857210336944 0 0 0
2085 3 47.3454369981585 20.248074663547 0 0 0 0
2088 1 49.098971701793495 21.260478396723997 1.857210336944 0 0 0
1917 3 50.8525064054295 20.248074663547 0 -1 0 0
1920 1 52.6060411090645 21.260478396723997 1.857210336944 -1 0 0
1923 3 54.3595758127005 20.248074663547 0 -1 0 0
1926 1 56.1131105163355 21.260478396723997 1.857210336944 -1 0 0
1929 3 57.8666452199715 20.248074663547 0 -1 0 0
1932 1 59.6201799236065 21.260478396723997 1.857210336944 -1 0 0
1935 3 61.3737146272425 20.248074663547 0 -1 0 0
1938 1 63.127249330877504 21.260478396723997 1.857210336944 -1 0 0
1941 3 64.88078403451351 20.248074663547 0 -1 0 0
1947 3 68.3878534417845 20.248074663547 0 -1 0 0
1944 1 66.6343187381485 21.260478396723997 1.857210336944 -1 0 0
1950 1 70.1413881454195 21.260478396723997 1.857210336944 -1 0 0
1953 3 71.8949228490555 20.248074663547 0 -1 0 0
1956 1 73.6484575526905 21.260478396723997 1.857210336944 -1 0 0
1959 3 75.40199225632651 20.248074663547 0 -1 0 0
1962 1 77.1555269599615 21.260478396723997 1.857210336944 -1 0 0
1965 3 78.9090616635975 20.248074663547 0 -1 0 0
1968 1 80.66259636723251 21.260478396723997 1.857210336944 -1 0 0
1971 3 82.4161310708685 20.248074663547 0 -1 0 0
1977 3 85.9232004781395 20.248074663547 0 -1 0 0
1974 1 84.1696657745035 21.260478396723997 1.857210336944 -1 0 0
1980 1 87.6767351817745 21.260478396723997 1.857210336944 -1 0 0
1983 3 89.4302698854105 20.248074663547 0 -1 0 0
1986 1 91.18380458904551 21.260478396723997 1.857210336944 -1 0 0
1989 3 92.9373392926815 20.248074663547 0 -1 0 0
1992 1 94.6908739963165 21.260478396723997 1.857210336944 -1 0 0
1995 3 96.4444086999525 20.248074663547 0 -1 0 0
1998 1 98.1979434035875 21.260478396723997 1.857210336944 -1 0 0
2001 3 99.9514781072235 20.248074663547 0 -1 0 0
2004 1 101.7050128108585 21.260478396723997 1.857210336944 -1 0 0
2008 3 3.5070694072704995 23.285285863078997 0 0 0 0
2014 3 7.0141388145414965 23.285285863078997 0 0 0 0
2020 3 10.5212082218125 23.285285863078997 0 0 0 0
2026 3 14.028277629083497 23.285285863078997 0 0 0 0
2032 3 17.5353470363545 23.285285863078997 0 0 0 0
2038 3 21.042416443625505 23.285285863078997 0 0 0 0
2044 3 24.549485850896495 23.285285863078997 0 0 0 0
2050 3 28.0565552581675 23.285285863078997 0 0 0 0
2056 3 31.563624665438503 23.285285863078997 0 0 0 0
2062 3 35.07069407270949 23.285285863078997 0 0 0 0
2068 3 38.5777634799805 23.285285863078997 0 0 0 0
2074 3 42.0848328872515 23.285285863078997 0 0 0 0
2080 3 45.591902294522505 23.285285863078997 0 0 0 0
2086 3 49.098971701793495 23.285285863078997 0 0 0 0
1918 3 52.6060411090645 23.285285863078997 0 -1 0 0
1924 3 56.1131105163355 23.285285863078997 0 -1 0 0
1930 3 59.6201799236065 23.285285863078997 0 -1 0 0
1936 3 63.127249330877504 23.285285863078997 0 -1 0 0
1942 3 66.6343187381485 23.285285863078997 0 -1 0 0
1948 3 70.1413881454195 23.285285863078997 0 -1 0 0
1954 3 73.6484575526905 23.285285863078997 0 -1 0 0
1960 3 77.1555269599615 23.285285863078997 0 -1 0 0
1966 3 80.66259636723251 23.285285863078997 0 -1 0 0
1972 3 84.1696657745035 23.285285863078997 0 -1 0 0
1978 3 87.6767351817745 23.285285863078997 0 -1 0 0
1984 3 91.18380458904551 23.285285863078997 0 -1 0 0
1990 3 94.6908739963165 23.285285863078997 0 -1 0 0
1996 3 98.1979434035875 23.285285863078997 0 -1 0 0
2002 3 101.7050128108585 23.285285863078997 0 -1 0 0
2183 1 1.753534703635502 24.297689596256006 1.857210336944 0 0 0
2189 1 5.260604110906499 24.297689596256006 1.857210336944 0 0 0
2195 1 8.767673518177496 24.297689596256006 1.857210336944 0 0 0
2201 1 12.2747429254485 24.297689596256006 1.857210336944 0 0 0
2207 1 15.781812332719504 24.297689596256006 1.857210336944 0 0 0
2213 1 19.288881739990494 24.297689596256006 1.857210336944 0 0 0
2219 1 22.795951147261498 24.297689596256006 1.857210336944 0 0 0
2225 1 26.3030205545325 24.297689596256006 1.857210336944 0 0 0
2231 1 29.81008996180349 24.297689596256006 1.857210336944 0 0 0
2237 1 33.317159369074496 24.297689596256006 1.857210336944 0 0 0
2243 1 36.8242287763455 24.297689596256006 1.857210336944 0 0 0
2249 1 40.331298183616504 24.297689596256006 1.857210336944 0 0 0
2255 1 43.83836759088749 24.297689596256006 1.857210336944 0 0 0
2261 1 47.3454369981585 24.297689596256006 1.857210336944 0 0 0
2093 1 50.8525064054295 24.297689596256006 1.857210336944 -1 0 0
2099 1 54.3595758127005 24.297689596256006 1.857210336944 -1 0 0
2105 1 57.8666452199715 24.297689596256006 1.857210336944 -1 0 0
2111 1 61.3737146272425 24.297689596256006 1.857210336944 -1 0 0
2117 1 64.88078403451351 24.297689596256006 1.857210336944 -1 0 0
2123 1 68.3878534417845 24.297689596256006 1.857210336944 -1 0 0
2129 1 71.8949228490555 24.297689596256006 1.857210336944 -1 0 0
2135 1 75.40199225632651 24.297689596256006 1.857210336944 -1 0 0
2141 1 78.9090616635975 24.297689596256006 1.857210336944 -1 0 0
2147 1 82.4161310708685 24.297689596256006 1.857210336944 -1 0 0
2153 1 85.9232004781395 24.297689596256006 1.857210336944 -1 0 0
2159 1 89.4302698854105 24.297689596256006 1.857210336944 -1 0 0
2165 1 92.9373392926815 24.297689596256006 1.857210336944 -1 0 0
2171 1 96.4444086999525 24.297689596256006 1.857210336944 -1 0 0
2177 1 99.9514781072235 24.297689596256006 1.857210336944 -1 0 0
2181 3 1.753534703635502 26.322497062611006 0 0 0 0
2187 3 5.260604110906499 26.322497062611006 0 0 0 0
2193 3 8.767673518177496 26.322497062611006 0 0 0 0
2199 3 12.2747429254485 26.322497062611006 0 0 0 0
2205 3 15.781812332719504 26.322497062611006 0 0 0 0
2211 3 19.288881739990494 26.322497062611006 0 0 0 0
2217 3 22.795951147261498 26.322497062611006 0 0 0 0
2223 3 26.3030205545325 26.322497062611006 0 0 0 0
2229 3 29.81008996180349 26.322497062611006 0 0 0 0
2235 3 33.317159369074496 26.322497062611006 0 0 0 0
2241 3 36.8242287763455 26.322497062611006 0 0 0 0
2247 3 40.331298183616504 26.322497062611006 0 0 0 0
2253 3 43.83836759088749 26.322497062611006 0 0 0 0
2259 3 47.3454369981585 26.322497062611006 0 0 0 0
2091 3 50.8525064054295 26.322497062611006 0 -1 0 0
2097 3 54.3595758127005 26.322497062611006 0 -1 0 0
2103 3 57.8666452199715 26.322497062611006 0 -1 0 0
2109 3 61.3737146272425 26.322497062611006 0 -1 0 0
2115 3 64.88078403451351 26.322497062611006 0 -1 0 0
2121 3 68.3878534417845 26.322497062611006 0 -1 0 0
2127 3 71.8949228490555 26.322497062611006 0 -1 0 0
2133 3 75.40199225632651 26.322497062611006 0 -1 0 0
2139 3 78.9090616635975 26.322497062611006 0 -1 0 0
2145 3 82.4161310708685 26.322497062611006 0 -1 0 0
2151 3 85.9232004781395 26.322497062611006 0 -1 0 0
2157 3 89.4302698854105 26.322497062611006 0 -1 0 0
2163 3 92.9373392926815 26.322497062611006 0 -1 0 0
2169 3 96.4444086999525 26.322497062611006 0 -1 0 0
2175 3 99.9514781072235 26.322497062611006 0 -1 0 0
2184 1 3.5070694072704995 27.334900795788002 1.857210336944 0 0 0
2190 1 7.0141388145414965 27.334900795788002 1.857210336944 0 0 0