LAMMPS data file via write_data, version 29 Aug 2024, timestep = 2, units = metal

2392 atoms
4 atom types

0 101.051722140604 xlo xhi
0 98.928144357302 ylo yhi
-50 50 zlo zhi

Masses

1 26.9815385
2 26.9815385
3 121.76
4 121.76

Atoms # atomic

602 1 4.392216931546918 1.26627415023493 0.07985020427809082 0 0 0
695 3 4.393472722135701 3.804106068746549 0.56249286033328 0 0 0
693 1 2.195440363272918 5.071202779361938 0.07985020427809286 0 0 0
606 1 8.78577006809492 1.266274150234933 0.07985020427809278 0 0 0
699 3 8.787025858683704 3.8041060687465458 0.5624928603332783 0 0 0
697 1 6.5889934998209165 5.071202779361939 0.07985020427809254 0 0 0
701 1 10.982546636368914 5.071202779361938 0.07985020427809274 0 0 0
610 1 13.17932320464292 1.266274150234933 0.07985020427809272 0 0 0
614 1 17.572876341190916 1.2662741502349368 0.07985020427809414 0 0 0
703 3 13.180578995231704 3.8041060687465458 0.5624928603332784 0 0 0
707 3 17.5741321317797 3.8041060687465422 0.5624928603332767 0 0 0
705 1 15.376099772916916 5.071202779361937 0.07985020427809318 0 0 0
618 1 21.966429477738913 1.2662741502349297 0.07985020427809077 0 0 0
711 3 21.9676852683277 3.8041060687465493 0.5624928603332803 0 0 0
709 1 19.76965290946492 5.071202779361935 0.07985020427809096 0 0 0
622 1 26.359982614286913 1.2662741502349362 0.07985020427809456 0 0 0
715 3 26.3612384048757 3.8041060687465427 0.5624928603332765 0 0 0
713 1 24.16320604601292 5.071202779361942 0.07985020427809472 0 0 0
717 1 28.55675918256092 5.071202779361935 0.0798502042780909 0 0 0
626 1 30.753535750834917 1.2662741502349293 0.07985020427809109 0 0 0
630 1 35.147088887382914 1.266274150234936 0.07985020427809456 0 0 0
719 3 30.754791541423696 3.8041060687465484 0.5624928603332806 0 0 0
723 3 35.1483446779717 3.8041060687465436 0.5624928603332758 0 0 0
721 1 32.95031231910892 5.0712027793619425 0.07985020427809439 0 0 0
634 1 39.540642023930914 1.26627415023493 0.07985020427809078 0 0 0
727 3 39.5418978145197 3.804106068746548 0.5624928603332808 0 0 0
725 1 37.34386545565692 5.071202779361935 0.07985020427809095 0 0 0
638 1 43.934195160478914 1.266274150234936 0.07985020427809456 0 0 0
731 3 43.9354509510677 3.8041060687465436 0.5624928603332758 0 0 0
729 1 41.73741859220492 5.071202779361942 0.07985020427809472 0 0 0
733 1 46.13097172875292 5.071202779361935 0.07985020427809095 0 0 0
642 1 48.327748297026915 1.2662741502349297 0.07985020427809082 0 0 0
554 1 52.72130143357492 1.266274150234933 0.0798502042780928 -1 0 0
735 3 48.3290040876157 3.804106068746548 0.5624928603332807 0 0 0
647 3 52.7225572241637 3.8041060687465458 0.5624928603332782 -1 0 0
645 1 50.52452486530092 5.071202779361942 0.07985020427809454 -1 0 0
558 1 57.11485457012292 1.266274150234933 0.07985020427809275 -1 0 0
651 3 57.1161103607117 3.8041060687465458 0.5624928603332783 -1 0 0
649 1 54.91807800184892 5.071202779361935 0.07985020427809106 -1 0 0
653 1 59.31163113839692 5.071202779361942 0.07985020427809468 -1 0 0
562 1 61.50840770667092 1.266274150234933 0.07985020427809275 -1 0 0
655 3 61.5096634972597 3.8041060687465458 0.5624928603332782 -1 0 0
657 1 63.70518427494492 5.071202779361935 0.07985020427809109 -1 0 0
566 1 65.90196084321892 1.2662741502349342 0.07985020427809213 -1 0 0
570 1 70.29551397976691 1.266274150234935 0.07985020427809512 -1 0 0
659 3 65.9032166338077 3.8041060687465458 0.5624928603332783 -1 0 0
663 3 70.2967697703557 3.8041060687465436 0.5624928603332758 -1 0 0
661 1 68.09873741149292 5.071202779361942 0.07985020427809476 -1 0 0
574 1 74.68906711631492 1.2662741502349315 0.07985020427808971 -1 0 0
667 3 74.6903229069037 3.8041060687465476 0.5624928603332812 -1 0 0
665 1 72.49229054804093 5.071202779361934 0.0798502042780916 -1 0 0
669 1 76.88584368458892 5.071202779361936 0.07985020427808998 -1 0 0
578 1 79.08262025286291 1.2662741502349308 0.07985020427809024 -1 0 0
671 3 79.0838760434517 3.8041060687465484 0.5624928603332807 -1 0 0
673 1 81.27939682113691 5.0712027793619425 0.07985020427809404 -1 0 0
582 1 83.47617338941092 1.2662741502349344 0.07985020427809546 -1 0 0
586 1 87.86972652595891 1.266274150234935 0.07985020427809505 -1 0 0
675 3 83.4774291799997 3.8041060687465444 0.5624928603332756 -1 0 0
679 3 87.8709823165477 3.8041060687465436 0.562492860333276 -1 0 0
677 1 85.67294995768492 5.07120277936194 0.07985020427809554 -1 0 0
590 1 92.26327966250692 1.2662741502349315 0.0798502042780897 -1 0 0
683 3 92.2645354530957 3.8041060687465476 0.5624928603332812 -1 0 0
681 1 90.06650309423293 5.071202779361934 0.0798502042780916 -1 0 0
685 1 94.46005623078092 5.071202779361936 0.07985020427808996 -1 0 0
598 1 101.05038593560292 1.2662741502349346 0.07985020427809549 -1 0 0
691 3 101.0516417261917 3.8041060687465436 0.562492860333276 -1 0 0
594 1 96.65683279905491 1.2662741502349308 0.07985020427809024 -1 0 0
687 3 96.6580885896437 3.804106068746548 0.5624928603332808 -1 0 0
689 1 98.85360936732891 5.0712027793619425 0.0798502042780941 -1 0 0
696 3 2.196696153861701 7.609034697873543 0.5624928603332788 0 0 0
694 1 4.392216931546918 8.876131408488932 0.07985020427809174 0 0 0
787 3 4.3934727221357015 11.413963327000546 0.5624928603332817 0 0 0
700 3 6.590249290409699 7.609034697873542 0.5624928603332792 0 0 0
704 3 10.983802426957697 7.609034697873543 0.5624928603332789 0 0 0
698 1 8.78577006809492 8.876131408488936 0.07985020427809342 0 0 0
791 3 8.787025858683704 11.413963327000543 0.56249286033328 0 0 0
708 3 15.3773555635057 7.609034697873544 0.5624928603332783 0 0 0
702 1 13.17932320464292 8.876131408488936 0.07985020427809367 0 0 0
706 1 17.572876341190916 8.87613140848894 0.07985020427809482 0 0 0
795 3 13.180578995231704 11.413963327000543 0.5624928603332802 0 0 0
799 3 17.5741321317797 11.41396332700054 0.5624928603332786 0 0 0
712 3 19.770908700053702 7.609034697873546 0.5624928603332809 0 0 0
710 1 21.966429477738913 8.876131408488932 0.07985020427809138 0 0 0
803 3 21.9676852683277 11.413963327000546 0.5624928603332819 0 0 0
716 3 24.164461836601703 7.609034697873541 0.5624928603332766 0 0 0
720 3 28.558014973149703 7.609034697873546 0.562492860333281 0 0 0
714 1 26.359982614286913 8.87613140848894 0.07985020427809535 0 0 0
807 3 26.3612384048757 11.413963327000541 0.562492860333278 0 0 0
724 3 32.9515681096977 7.60903469787354 0.5624928603332768 0 0 0
718 1 30.753535750834917 8.876131408488932 0.07985020427809175 0 0 0
722 1 35.147088887382914 8.87613140848894 0.07985020427809535 0 0 0
811 3 30.754791541423696 11.413963327000546 0.5624928603332823 0 0 0
815 3 35.1483446779717 11.413963327000541 0.5624928603332774 0 0 0
728 3 37.345121246245704 7.609034697873547 0.5624928603332807 0 0 0
726 1 39.540642023930914 8.876131408488932 0.07985020427809145 0 0 0
819 3 39.5418978145197 11.413963327000546 0.5624928603332826 0 0 0
732 3 41.738674382793704 7.60903469787354 0.5624928603332768 0 0 0
736 3 46.132227519341704 7.609034697873546 0.5624928603332807 0 0 0
730 1 43.934195160478914 8.87613140848894 0.07985020427809535 0 0 0
823 3 43.9354509510677 11.413963327000541 0.5624928603332774 0 0 0
648 3 50.525780655889704 7.60903469787354 0.5624928603332771 -1 0 0
734 1 48.327748297026915 8.876131408488932 0.07985020427809145 0 0 0
646 1 52.72130143357492 8.876131408488936 0.07985020427809357 -1 0 0
827 3 48.3290040876157 11.413963327000546 0.5624928603332826 0 0 0
739 3 52.7225572241637 11.413963327000545 0.5624928603332798 -1 0 0
652 3 54.919333792437705 7.609034697873547 0.5624928603332804 -1 0 0
656 3 59.312886928985705 7.60903469787354 0.562492860333277 -1 0 0
650 1 57.11485457012292 8.876131408488936 0.07985020427809349 -1 0 0
743 3 57.1161103607117 11.413963327000545 0.5624928603332799 -1 0 0
660 3 63.706440065533705 7.609034697873547 0.5624928603332803 -1 0 0
654 1 61.50840770667092 8.876131408488936 0.07985020427809354 -1 0 0
747 3 61.5096634972597 11.413963327000545 0.5624928603332799 -1 0 0
664 3 68.0999932020817 7.609034697873541 0.5624928603332768 -1 0 0
658 1 65.90196084321892 8.876131408488936 0.07985020427809285 -1 0 0
662 1 70.29551397976691 8.876131408488938 0.07985020427809594 -1 0 0
751 3 65.9032166338077 11.413963327000545 0.5624928603332799 -1 0 0
755 3 70.2967697703557 11.413963327000541 0.5624928603332775 -1 0 0
668 3 72.49354633862971 7.609034697873548 0.56249286033328 -1 0 0
672 3 76.8870994751777 7.609034697873545 0.5624928603332818 -1 0 0
666 1 74.68906711631492 8.876131408488934 0.07985020427809061 -1 0 0
759 3 74.6903229069037 11.413963327000545 0.5624928603332827 -1 0 0
676 3 81.2806526117257 7.609034697873539 0.5624928603332776 -1 0 0
670 1 79.08262025286291 8.876131408488934 0.07985020427809086 -1 0 0
763 3 79.0838760434517 11.413963327000546 0.5624928603332824 -1 0 0
680 3 85.6742057482737 7.6090346978735415 0.5624928603332762 -1 0 0
674 1 83.47617338941092 8.876131408488938 0.07985020427809637 -1 0 0
678 1 87.86972652595891 8.876131408488938 0.07985020427809589 -1 0 0
767 3 83.4774291799997 11.413963327000543 0.5624928603332771 -1 0 0
771 3 87.8709823165477 11.413963327000541 0.5624928603332775 -1 0 0
684 3 90.06775888482171 7.609034697873548 0.56249286033328 -1 0 0
688 3 94.46131202136971 7.609034697873545 0.5624928603332817 -1 0 0
682 1 92.26327966250692 8.876131408488934 0.0798502042780906 -1 0 0
775 3 92.2645354530957 11.413963327000545 0.5624928603332827 -1 0 0
690 1 101.05038593560292 8.876131408488938 0.07985020427809628 -1 0 0
783 3 101.0516417261917 11.413963327000541 0.5624928603332776 -1 0 0
692 3 98.8548651579177 7.609034697873539 0.5624928603332774 -1 0 0
686 1 96.65683279905491 8.876131408488934 0.07985020427809088 -1 0 0
779 3 96.6580885896437 11.413963327000546 0.5624928603332825 -1 0 0
785 1 2.195440363272918 12.681060037615936 0.07985020427809031 0 0 0
788 3 2.1966961538617014 15.218891956127543 0.5624928603332793 0 0 0
786 1 4.392216931546918 16.485988666742934 0.07985020427809204 0 0 0
789 1 6.5889934998209165 12.681060037615936 0.0798502042780899 0 0 0
793 1 10.982546636368914 12.681060037615934 0.0798502042780903 0 0 0
792 3 6.590249290409698 15.218891956127543 0.5624928603332798 0 0 0
796 3 10.983802426957697 15.218891956127543 0.5624928603332796 0 0 0
790 1 8.78577006809492 16.485988666742937 0.07985020427809408 0 0 0
797 1 15.376099772916916 12.681060037615934 0.07985020427809081 0 0 0
800 3 15.3773555635057 15.218891956127544 0.5624928603332788 0 0 0
794 1 13.17932320464292 16.485988666742937 0.07985020427809424 0 0 0
798 1 17.572876341190916 16.48598866674294 0.07985020427809529 0 0 0
801 1 19.76965290946492 12.68106003761593 0.07985020427808844 0 0 0
804 3 19.770908700053702 15.218891956127546 0.5624928603332816 0 0 0
802 1 21.966429477738913 16.485988666742934 0.07985020427809206 0 0 0
805 1 24.16320604601292 12.681060037615937 0.07985020427809209 0 0 0
809 1 28.55675918256092 12.68106003761593 0.07985020427808838 0 0 0
808 3 24.164461836601703 15.21889195612754 0.5624928603332774 0 0 0
812 3 28.558014973149703 15.218891956127546 0.5624928603332816 0 0 0
806 1 26.359982614286913 16.48598866674294 0.07985020427809596 0 0 0
813 1 32.95031231910892 12.681060037615937 0.07985020427809181 0 0 0
816 3 32.9515681096977 15.21889195612754 0.5624928603332777 0 0 0
810 1 30.753535750834917 16.485988666742934 0.07985020427809238 0 0 0
814 1 35.147088887382914 16.48598866674294 0.07985020427809592 0 0 0
817 1 37.34386545565692 12.68106003761593 0.07985020427808834 0 0 0
820 3 37.345121246245704 15.218891956127546 0.5624928603332814 0 0 0
818 1 39.540642023930914 16.485988666742934 0.07985020427809207 0 0 0
821 1 41.73741859220492 12.681060037615937 0.0798502042780921 0 0 0
825 1 46.13097172875292 12.68106003761593 0.07985020427808835 0 0 0
824 3 41.738674382793704 15.21889195612754 0.5624928603332777 0 0 0
828 3 46.132227519341704 15.218891956127546 0.5624928603332815 0 0 0
822 1 43.934195160478914 16.48598866674294 0.0798502042780959 0 0 0
737 1 50.52452486530092 12.681060037615937 0.07985020427809203 -1 0 0
740 3 50.525780655889704 15.21889195612754 0.562492860333278 -1 0 0
826 1 48.327748297026915 16.485988666742934 0.07985020427809188 0 0 0
738 1 52.72130143357492 16.485988666742937 0.07985020427809421 -1 0 0
741 1 54.91807800184892 12.68106003761593 0.07985020427808863 -1 0 0
745 1 59.31163113839692 12.681060037615937 0.07985020427809211 -1 0 0
744 3 54.919333792437705 15.218891956127546 0.5624928603332813 -1 0 0
748 3 59.312886928985705 15.21889195612754 0.5624928603332779 -1 0 0
742 1 57.11485457012292 16.485988666742937 0.0798502042780942 -1 0 0
749 1 63.70518427494492 12.68106003761593 0.07985020427808863 -1 0 0
752 3 63.706440065533705 15.218891956127546 0.5624928603332813 -1 0 0
746 1 61.50840770667092 16.485988666742937 0.07985020427809425 -1 0 0
753 1 68.09873741149292 12.681060037615937 0.0798502042780923 -1 0 0
756 3 68.0999932020817 15.21889195612754 0.5624928603332776 -1 0 0
750 1 65.90196084321892 16.485988666742937 0.07985020427809357 -1 0 0
754 1 70.29551397976691 16.485988666742937 0.07985020427809647 -1 0 0
757 1 72.49229054804093 12.68106003761593 0.07985020427808898 -1 0 0
761 1 76.88584368458892 12.681060037615932 0.07985020427808745 -1 0 0
760 3 72.49354633862971 15.218891956127548 0.5624928603332807 -1 0 0
764 3 76.8870994751777 15.218891956127546 0.5624928603332824 -1 0 0
758 1 74.68906711631492 16.485988666742934 0.07985020427809096 -1 0 0
765 1 81.27939682113691 12.68106003761594 0.07985020427809143 -1 0 0
768 3 81.2806526117257 15.218891956127539 0.5624928603332784 -1 0 0
762 1 79.08262025286291 16.485988666742934 0.07985020427809149 -1 0 0
769 1 85.67294995768492 12.681060037615936 0.07985020427809304 -1 0 0
772 3 85.6742057482737 15.218891956127543 0.5624928603332767 -1 0 0
766 1 83.47617338941092 16.485988666742937 0.07985020427809696 -1 0 0
770 1 87.86972652595891 16.485988666742937 0.07985020427809641 -1 0 0
773 1 90.06650309423293 12.68106003761593 0.07985020427808898 -1 0 0
777 1 94.46005623078092 12.681060037615932 0.07985020427808744 -1 0 0
776 3 90.06775888482171 15.218891956127548 0.5624928603332807 -1 0 0
780 3 94.46131202136971 15.218891956127546 0.5624928603332824 -1 0 0
774 1 92.26327966250692 16.485988666742934 0.07985020427809095 -1 0 0
782 1 101.0503859356029 16.485988666742937 0.07985020427809685 -1 0 0
781 1 98.85360936732891 12.68106003761594 0.0798502042780915 -1 0 0
784 3 98.8548651579177 15.218891956127539 0.5624928603332782 -1 0 0
778 1 96.65683279905491 16.485988666742934 0.0798502042780915 -1 0 0
877 1 2.195440363272918 20.290917295869935 0.07985020427809554 0 0 0
879 3 4.3934727221357015 19.023820585254548 0.5624928603332785 0 0 0
880 3 2.1966961538617005 22.82874921438154 0.5624928603332785 0 0 0
881 1 6.588993499820916 20.29091729586994 0.07985020427809508 0 0 0
883 3 8.787025858683704 19.023820585254544 0.5624928603332764 0 0 0
885 1 10.982546636368914 20.29091729586994 0.0798502042780953 0 0 0
884 3 6.590249290409699 22.82874921438154 0.5624928603332789 0 0 0
888 3 10.983802426957697 22.82874921438154 0.5624928603332785 0 0 0
887 3 13.180578995231704 19.023820585254544 0.5624928603332765 0 0 0
889 1 15.376099772916916 20.290917295869935 0.0798502042780958 0 0 0
891 3 17.5741321317797 19.02382058525454 0.562492860333275 0 0 0
892 3 15.3773555635057 22.828749214381542 0.5624928603332778 0 0 0
893 1 19.76965290946492 20.29091729586993 0.07985020427809345 0 0 0
895 3 21.9676852683277 19.023820585254548 0.5624928603332784 0 0 0
896 3 19.770908700053702 22.828749214381546 0.5624928603332807 0 0 0
897 1 24.16320604601292 20.29091729586994 0.07985020427809726 0 0 0
899 3 26.3612384048757 19.02382058525454 0.5624928603332745 0 0 0
901 1 28.55675918256092 20.29091729586993 0.07985020427809339 0 0 0
900 3 24.164461836601703 22.82874921438154 0.5624928603332764 0 0 0
904 3 28.558014973149703 22.828749214381542 0.5624928603332808 0 0 0
903 3 30.754791541423696 19.023820585254548 0.5624928603332787 0 0 0
905 1 32.95031231910892 20.29091729586994 0.07985020427809693 0 0 0
907 3 35.1483446779717 19.023820585254544 0.562492860333274 0 0 0
908 3 32.9515681096977 22.82874921438154 0.5624928603332766 0 0 0
909 1 37.34386545565692 20.29091729586993 0.07985020427809333 0 0 0
911 3 39.5418978145197 19.023820585254548 0.5624928603332789 0 0 0
912 3 37.345121246245704 22.828749214381546 0.5624928603332805 0 0 0
913 1 41.73741859220492 20.29091729586994 0.07985020427809726 0 0 0
915 3 43.9354509510677 19.023820585254544 0.562492860333274 0 0 0
917 1 46.13097172875292 20.29091729586993 0.0798502042780933 0 0 0
916 3 41.738674382793704 22.82874921438154 0.5624928603332766 0 0 0
920 3 46.132227519341704 22.828749214381546 0.5624928603332804 0 0 0
919 3 48.3290040876157 19.023820585254548 0.5624928603332789 0 0 0
829 1 50.52452486530092 20.29091729586994 0.07985020427809704 -1 0 0
831 3 52.7225572241637 19.023820585254544 0.5624928603332762 -1 0 0
832 3 50.525780655889704 22.82874921438154 0.562492860333277 -1 0 0
833 1 54.91807800184892 20.290917295869935 0.07985020427809333 -1 0 0
835 3 57.1161103607117 19.023820585254544 0.5624928603332762 -1 0 0
837 1 59.31163113839692 20.29091729586994 0.07985020427809715 -1 0 0
836 3 54.919333792437705 22.828749214381542 0.5624928603332804 -1 0 0
840 3 59.312886928985705 22.82874921438154 0.5624928603332767 -1 0 0
839 3 61.5096634972597 19.023820585254544 0.5624928603332762 -1 0 0
841 1 63.70518427494492 20.290917295869935 0.07985020427809335 -1 0 0
844 3 63.706440065533705 22.828749214381542 0.5624928603332804 -1 0 0
843 3 65.9032166338077 19.023820585254544 0.5624928603332762 -1 0 0
845 1 68.09873741149292 20.29091729586994 0.07985020427809739 -1 0 0
847 3 70.2967697703557 19.023820585254544 0.5624928603332741 -1 0 0
848 3 68.0999932020817 22.82874921438154 0.5624928603332764 -1 0 0
849 1 72.49229054804093 20.29091729586993 0.07985020427809406 -1 0 0
851 3 74.6903229069037 19.023820585254548 0.5624928603332793 -1 0 0
853 1 76.88584368458892 20.290917295869935 0.07985020427809257 -1 0 0
852 3 72.49354633862971 22.828749214381546 0.5624928603332799 -1 0 0
856 3 76.8870994751777 22.828749214381542 0.5624928603332816 -1 0 0
855 3 79.0838760434517 19.023820585254548 0.5624928603332788 -1 0 0
857 1 81.27939682113691 20.290917295869942 0.07985020427809655 -1 0 0
860 3 81.2806526117257 22.828749214381535 0.5624928603332773 -1 0 0
859 3 83.4774291799997 19.023820585254544 0.5624928603332736 -1 0 0
861 1 85.67294995768492 20.29091729586994 0.07985020427809812 -1 0 0
863 3 87.8709823165477 19.02382058525454 0.5624928603332741 -1 0 0
864 3 85.6742057482737 22.82874921438154 0.5624928603332756 -1 0 0
865 1 90.06650309423293 20.29091729586993 0.07985020427809404 -1 0 0
867 3 92.2645354530957 19.023820585254548 0.5624928603332792 -1 0 0
869 1 94.46005623078092 20.290917295869935 0.07985020427809256 -1 0 0
868 3 90.06775888482171 22.828749214381546 0.5624928603332799 -1 0 0
872 3 94.46131202136971 22.828749214381542 0.5624928603332816 -1 0 0
875 3 101.0516417261917 19.02382058525454 0.5624928603332742 -1 0 0
871 3 96.6580885896437 19.023820585254548 0.5624928603332788 -1 0 0
873 1 98.85360936732891 20.290917295869942 0.07985020427809662 -1 0 0
876 3 98.8548651579177 22.82874921438154 0.5624928603332771 -1 0 0
878 1 4.392216931546918 24.09584592499694 0.07985020427808887 0 0 0
971 3 4.3934727221357015 26.63367784350854 0.5624928603332827 0 0 0
969 1 2.1954403632729176 27.90077455412394 0.07985020427809314 0 0 0
882 1 8.78577006809492 24.095845924996944 0.07985020427809061 0 0 0
975 3 8.787025858683704 26.63367784350854 0.5624928603332809 0 0 0
973 1 6.5889934998209165 27.90077455412394 0.07985020427809272 0 0 0
977 1 10.982546636368914 27.90077455412394 0.07985020427809317 0 0 0
886 1 13.17932320464292 24.095845924996944 0.07985020427809077 0 0 0
890 1 17.572876341190916 24.095845924996947 0.07985020427809184 0 0 0
979 3 13.180578995231704 26.63367784350854 0.5624928603332809 0 0 0
983 3 17.5741321317797 26.633677843508536 0.5624928603332795 0 0 0
981 1 15.376099772916916 27.90077455412394 0.07985020427809361 0 0 0
894 1 21.966429477738913 24.09584592499694 0.07985020427808855 0 0 0
987 3 21.9676852683277 26.633677843508544 0.5624928603332829 0 0 0
985 1 19.76965290946492 27.900774554123938 0.07985020427809122 0 0 0
898 1 26.359982614286913 24.095845924996944 0.07985020427809246 0 0 0
991 3 26.3612384048757 26.633677843508536 0.562492860333279 0 0 0
989 1 24.16320604601292 27.900774554123945 0.07985020427809508 0 0 0
993 1 28.55675918256092 27.900774554123938 0.0798502042780912 0 0 0
902 1 30.753535750834917 24.095845924996937 0.07985020427808888 0 0 0
906 1 35.147088887382914 24.095845924996944 0.07985020427809252 0 0 0
995 3 30.754791541423696 26.633677843508544 0.5624928603332832 0 0 0
999 3 35.1483446779717 26.633677843508536 0.5624928603332784 0 0 0
997 1 32.95031231910892 27.900774554123945 0.0798502042780948 0 0 0
910 1 39.540642023930914 24.09584592499694 0.07985020427808857 0 0 0
1003 3 39.5418978145197 26.633677843508544 0.5624928603332835 0 0 0
1001 1 37.34386545565692 27.900774554123938 0.07985020427809121 0 0 0
914 1 43.934195160478914 24.095845924996944 0.07985020427809252 0 0 0
1007 3 43.9354509510677 26.633677843508536 0.5624928603332784 0 0 0
1005 1 41.73741859220492 27.900774554123945 0.0798502042780951 0 0 0
1009 1 46.13097172875292 27.900774554123938 0.07985020427809121 0 0 0
918 1 48.327748297026915 24.09584592499694 0.07985020427808862 0 0 0
830 1 52.72130143357492 24.095845924996944 0.0798502042780909 -1 0 0
1011 3 48.3290040876157 26.633677843508544 0.5624928603332835 0 0 0
923 3 52.7225572241637 26.63367784350854 0.5624928603332808 -1 0 0
921 1 50.52452486530092 27.900774554123945 0.07985020427809483 -1 0 0
834 1 57.11485457012292 24.095845924996944 0.07985020427809078 -1 0 0
927 3 57.1161103607117 26.63367784350854 0.5624928603332807 -1 0 0
925 1 54.91807800184892 27.900774554123938 0.07985020427809114 -1 0 0
929 1 59.31163113839692 27.900774554123945 0.07985020427809496 -1 0 0
838 1 61.50840770667092 24.095845924996944 0.07985020427809085 -1 0 0
931 3 61.5096634972597 26.63367784350854 0.5624928603332808 -1 0 0
933 1 63.70518427494492 27.900774554123938 0.07985020427809114 -1 0 0
842 1 65.90196084321892 24.095845924996944 0.07985020427809016 -1 0 0
846 1 70.29551397976692 24.095845924996944 0.079850204278093 -1 0 0
935 3 65.9032166338077 26.63367784350854 0.5624928603332807 -1 0 0
939 3 70.2967697703557 26.633677843508536 0.5624928603332785 -1 0 0
937 1 68.09873741149292 27.900774554123945 0.07985020427809524 -1 0 0
850 1 74.68906711631492 24.09584592499694 0.07985020427808802 -1 0 0
943 3 74.6903229069037 26.63367784350854 0.5624928603332835 -1 0 0
941 1 72.49229054804093 27.900774554123938 0.07985020427809168 -1 0 0
945 1 76.88584368458892 27.900774554123938 0.07985020427809017 -1 0 0
854 1 79.08262025286291 24.09584592499694 0.07985020427808807 -1 0 0
947 3 79.0838760434517 26.633677843508544 0.5624928603332834 -1 0 0
949 1 81.27939682113691 27.900774554123945 0.0798502042780944 -1 0 0
858 1 83.47617338941092 24.095845924996944 0.07985020427809347 -1 0 0
862 1 87.86972652595891 24.095845924996944 0.07985020427809295 -1 0 0
951 3 83.4774291799997 26.633677843508536 0.5624928603332782 -1 0 0
955 3 87.8709823165477 26.633677843508536 0.5624928603332786 -1 0 0
953 1 85.67294995768492 27.90077455412394 0.07985020427809597 -1 0 0
866 1 92.26327966250692 24.09584592499694 0.079850204278088 -1 0 0
959 3 92.2645354530957 26.63367784350854 0.5624928603332835 -1 0 0
957 1 90.06650309423293 27.900774554123938 0.07985020427809168 -1 0 0
961 1 94.46005623078092 27.90077455412394 0.07985020427808999 -1 0 0
874 1 101.0503859356029 24.095845924996944 0.07985020427809335 -1 0 0
967 3 101.0516417261917 26.633677843508536 0.5624928603332786 -1 0 0
870 1 96.65683279905491 24.09584592499694 0.07985020427808844 -1 0 0
963 3 96.6580885896437 26.633677843508544 0.5624928603332836 -1 0 0
965 1 98.85360936732891 27.900774554123945 0.0798502042780943 -1 0 0
972 3 2.1966961538617014 30.438606472635545 0.5624928603332762 0 0 0
970 1 4.392216931546918 31.705703183250925 0.07985020427809196 0 0 0
1063 3 4.393472722135701 34.24353510176255 0.5624928603332836 0 0 0
976 3 6.590249290409699 30.438606472635545 0.5624928603332766 0 0 0
980 3 10.983802426957697 30.438606472635545 0.5624928603332764 0 0 0
974 1 8.78577006809492 31.70570318325093 0.07985020427809345 0 0 0
1067 3 8.787025858683704 34.243535101762546 0.5624928603332815 0 0 0
984 3 15.3773555635057 30.43860647263555 0.562492860333276 0 0 0
978 1 13.17932320464292 31.70570318325093 0.0798502042780936 0 0 0
982 1 17.572876341190916 31.705703183250932 0.07985020427809501 0 0 0
1071 3 13.180578995231704 34.243535101762546 0.5624928603332816 0 0 0
1075 3 17.5741321317797 34.243535101762546 0.56249286033328 0 0 0
988 3 19.770908700053702 30.43860647263555 0.5624928603332786 0 0 0
986 1 21.966429477738913 31.705703183250925 0.07985020427809203 0 0 0
1079 3 21.967685268327696 34.24353510176255 0.5624928603332832 0 0 0
992 3 24.164461836601703 30.43860647263554 0.5624928603332742 0 0 0
996 3 28.558014973149703 30.43860647263555 0.5624928603332787 0 0 0
990 1 26.359982614286913 31.705703183250932 0.07985020427809561 0 0 0
1083 3 26.361238404875696 34.243535101762546 0.5624928603332795 0 0 0
1000 3 32.9515681096977 30.43860647263554 0.5624928603332744 0 0 0
994 1 30.753535750834914 31.705703183250925 0.07985020427809235 0 0 0
998 1 35.147088887382914 31.705703183250932 0.07985020427809561 0 0 0
1087 3 30.754791541423696 34.24353510176255 0.5624928603332835 0 0 0
1091 3 35.1483446779717 34.243535101762546 0.5624928603332789 0 0 0
1004 3 37.345121246245704 30.43860647263555 0.5624928603332784 0 0 0
1002 1 39.540642023930914 31.705703183250925 0.07985020427809206 0 0 0
1095 3 39.5418978145197 34.24353510176255 0.5624928603332837 0 0 0
1008 3 41.738674382793704 30.43860647263554 0.5624928603332745 0 0 0
1012 3 46.132227519341704 30.43860647263555 0.5624928603332783 0 0 0
1006 1 43.934195160478914 31.705703183250932 0.07985020427809561 0 0 0
1099 3 43.9354509510677 34.243535101762546 0.5624928603332789 0 0 0
924 3 50.525780655889704 30.43860647263554 0.5624928603332747 -1 0 0
1010 1 48.327748297026915 31.705703183250925 0.07985020427809207 0 0 0
922 1 52.72130143357492 31.705703183250925 0.07985020427809364 -1 0 0
1103 3 48.3290040876157 34.24353510176255 0.5624928603332837 0 0 0
1015 3 52.7225572241637 34.243535101762546 0.562492860333281 -1 0 0
928 3 54.919333792437705 30.43860647263555 0.5624928603332783 -1 0 0
932 3 59.312886928985705 30.43860647263554 0.5624928603332746 -1 0 0
926 1 57.11485457012292 31.705703183250925 0.07985020427809358 -1 0 0
1019 3 57.1161103607117 34.243535101762546 0.5624928603332812 -1 0 0
936 3 63.706440065533705 30.43860647263555 0.5624928603332783 -1 0 0
930 1 61.50840770667092 31.705703183250925 0.07985020427809364 -1 0 0
1023 3 61.5096634972597 34.243535101762546 0.562492860333281 -1 0 0
940 3 68.0999932020817 30.43860647263554 0.5624928603332744 -1 0 0
934 1 65.90196084321892 31.70570318325093 0.07985020427809292 -1 0 0
938 1 70.29551397976692 31.70570318325093 0.07985020427809617 -1 0 0
1027 3 65.9032166338077 34.243535101762546 0.5624928603332812 -1 0 0
1031 3 70.2967697703557 34.243535101762546 0.5624928603332789 -1 0 0
944 3 72.49354633862971 30.438606472635552 0.5624928603332776 -1 0 0
948 3 76.8870994751777 30.43860647263555 0.5624928603332793 -1 0 0
942 1 74.68906711631492 31.70570318325093 0.07985020427809107 -1 0 0
1035 3 74.6903229069037 34.24353510176255 0.5624928603332842 -1 0 0
952 3 81.2806526117257 30.43860647263554 0.5624928603332752 -1 0 0
946 1 79.08262025286291 31.705703183250925 0.0798502042780915 -1 0 0
1039 3 79.0838760434517 34.24353510176255 0.5624928603332835 -1 0 0
956 3 85.6742057482737 30.438606472635545 0.5624928603332736 -1 0 0
950 1 83.47617338941092 31.70570318325093 0.0798502042780965 -1 0 0
954 1 87.86972652595891 31.70570318325093 0.07985020427809611 -1 0 0
1043 3 83.4774291799997 34.243535101762546 0.5624928603332785 -1 0 0
1047 3 87.8709823165477 34.243535101762546 0.562492860333279 -1 0 0
960 3 90.06775888482171 30.438606472635552 0.5624928603332776 -1 0 0
964 3 94.46131202136971 30.43860647263555 0.5624928603332793 -1 0 0
958 1 92.26327966250692 31.70570318325093 0.07985020427809107 -1 0 0
1051 3 92.2645354530957 34.24353510176255 0.5624928603332842 -1 0 0
966 1 101.0503859356029 31.70570318325093 0.07985020427809641 -1 0 0
1059 3 101.0516417261917 34.243535101762546 0.562492860333279 -1 0 0
968 3 98.8548651579177 30.43860647263554 0.562492860333275 -1 0 0
962 1 96.65683279905491 31.705703183250925 0.0798502042780915 -1 0 0
1055 3 96.6580885896437 34.24353510176255 0.5624928603332837 -1 0 0
1061 1 2.1954403632729176 35.51063181237793 0.07985020427808967 0 0 0
1064 3 2.1966961538617005 38.04846373088955 0.5624928603332775 0 0 0
1062 1 4.392216931546918 39.31556044150493 0.07985020427809365 0 0 0
1065 1 6.5889934998209165 35.51063181237793 0.07985020427808939 0 0 0
1069 1 10.982546636368914 35.51063181237793 0.07985020427808999 0 0 0
1068 3 6.590249290409699 38.04846373088955 0.5624928603332783 0 0 0
1072 3 10.983802426957697 38.04846373088955 0.5624928603332779 0 0 0
1066 1 8.78577006809492 39.31556044150493 0.07985020427809511 0 0 0
1073 1 15.376099772916916 35.51063181237792 0.07985020427809034 0 0 0
1076 3 15.3773555635057 38.04846373088955 0.5624928603332772 0 0 0
1070 1 13.17932320464292 39.31556044150493 0.07985020427809522 0 0 0
1074 1 17.572876341190916 39.315560441504935 0.0798502042780963 0 0 0
1077 1 19.76965290946492 35.51063181237793 0.07985020427808816 0 0 0
1080 3 19.770908700053702 38.04846373088956 0.5624928603332799 0 0 0
1078 1 21.966429477738913 39.315560441504935 0.07985020427809324 0 0 0
1081 1 24.16320604601292 35.51063181237793 0.07985020427809195 0 0 0
1085 1 28.55675918256092 35.51063181237793 0.07985020427808814 0 0 0
1084 3 24.164461836601703 38.04846373088955 0.5624928603332761 0 0 0
1088 3 28.558014973149703 38.04846373088956 0.56249286033328 0 0 0
1082 1 26.359982614286913 39.315560441504935 0.07985020427809676 0 0 0