LAMMPS data file via write_data, version 29 Aug 2024, timestep = 2, units = metal

3588 atoms
6 atom types

0 101.051722140604 xlo xhi
0 98.928144357302 ylo yhi
-50 50 zlo zhi

Masses

1 26.9815385
2 26.9815385
3 26.9815385
4 121.76
5 121.76
6 121.76

Atoms # atomic

602 1 4.392886925572446 1.2669869437905474 0.07841306152788792 0 0 0
695 4 4.392863124647356 3.8035978148776124 0.5630758691223166 0 0 0
693 1 2.1961103572984437 5.071915572917545 0.07841306152789018 0 0 0
606 1 8.786440062120445 1.2669869437905477 0.07841306152789002 0 0 0
699 4 8.786416261195354 3.8035978148776124 0.5630758691223144 0 0 0
697 1 6.589663493846447 5.071915572917545 0.07841306152788986 0 0 0
701 1 10.983216630394447 5.071915572917545 0.07841306152789008 0 0 0
610 1 13.179993198668445 1.2669869437905479 0.07841306152788992 0 0 0
614 1 17.573546335216445 1.2669869437905488 0.07841306152789176 0 0 0
703 4 13.179969397743355 3.8035978148776124 0.5630758691223146 0 0 0
707 4 17.573522534291357 3.8035978148776115 0.5630758691223126 0 0 0
705 1 15.376769766942449 5.071915572917544 0.07841306152789045 0 0 0
618 1 21.96709947176445 1.2669869437905474 0.07841306152788768 0 0 0
711 4 21.967075670839357 3.8035978148776124 0.5630758691223169 0 0 0
709 1 19.77032290349044 5.071915572917544 0.07841306152788775 0 0 0
622 1 26.360652608312446 1.2669869437905483 0.078413061527892 0 0 0
715 4 26.360628807387354 3.8035978148776124 0.5630758691223123 0 0 0
713 1 24.163876040038446 5.071915572917545 0.07841306152789243 0 0 0
717 1 28.557429176586442 5.071915572917544 0.07841306152788768 0 0 0
626 1 30.75420574486045 1.2669869437905474 0.07841306152788767 0 0 0
630 1 35.14775888140844 1.2669869437905483 0.078413061527892 0 0 0
719 4 30.754181943935357 3.8035978148776124 0.5630758691223169 0 0 0
723 4 35.14773508048336 3.803597814877612 0.5630758691223123 0 0 0
721 1 32.950982313134446 5.071915572917545 0.07841306152789242 0 0 0
634 1 39.54131201795645 1.2669869437905474 0.07841306152788766 0 0 0
727 4 39.54128821703136 3.803597814877613 0.5630758691223167 0 0 0
725 1 37.344535449682446 5.071915572917544 0.07841306152788795 0 0 0
638 1 43.93486515450444 1.2669869437905483 0.07841306152789201 0 0 0
731 4 43.93484135357936 3.803597814877612 0.5630758691223124 0 0 0
729 1 41.73808858623045 5.071915572917545 0.07841306152789224 0 0 0
733 1 46.13164172277845 5.071915572917544 0.07841306152788795 0 0 0
642 1 48.32841829105245 1.2669869437905474 0.07841306152788771 0 0 0
554 1 52.721971427600444 1.2669869437905477 0.07841306152789006 -1 0 0
735 4 48.32839449012736 3.803597814877613 0.5630758691223167 0 0 0
647 4 52.72194762667535 3.8035978148776124 0.5630758691223144 -1 0 0
645 1 50.52519485932645 5.071915572917546 0.07841306152789214 -1 0 0
558 1 57.11552456414845 1.2669869437905479 0.07841306152788995 -1 0 0
651 4 57.11550076322336 3.8035978148776124 0.5630758691223146 -1 0 0
649 1 54.91874799587445 5.071915572917545 0.0784130615278877 -1 0 0
653 1 59.31230113242245 5.071915572917544 0.07841306152789261 -1 0 0
562 1 61.509077700696444 1.2669869437905479 0.07841306152789003 -1 0 0
655 4 61.50905389977135 3.8035978148776124 0.5630758691223144 -1 0 0
657 1 63.70585426897045 5.071915572917545 0.07841306152788771 -1 0 0
566 1 65.90263083724444 1.2669869437905488 0.07841306152788953 -1 0 0
570 1 70.29618397379244 1.2669869437905477 0.07841306152789237 -1 0 0
659 4 65.90260703631935 3.8035978148776124 0.5630758691223144 -1 0 0
663 4 70.29616017286736 3.803597814877613 0.5630758691223121 -1 0 0
661 1 68.09940740551845 5.071915572917546 0.0784130615278923 -1 0 0
574 1 74.68973711034045 1.2669869437905483 0.07841306152788717 -1 0 0
667 4 74.68971330941537 3.8035978148776115 0.5630758691223172 -1 0 0
665 1 72.49296054206644 5.071915572917543 0.07841306152788836 -1 0 0
669 1 76.88651367861445 5.071915572917545 0.07841306152788743 -1 0 0
578 1 79.08329024688844 1.266986943790548 0.07841306152788732 -1 0 0
671 4 79.08326644596336 3.803597814877612 0.563075869122317 -1 0 0
673 1 81.28006681516244 5.071915572917546 0.07841306152789178 -1 0 0
582 1 83.47684338343645 1.2669869437905474 0.07841306152789258 -1 0 0
586 1 87.87039651998444 1.2669869437905477 0.07841306152789236 -1 0 0
675 4 83.47681958251135 3.803597814877613 0.563075869122312 -1 0 0
679 4 87.87037271905936 3.8035978148776124 0.5630758691223121 -1 0 0
677 1 85.67361995171045 5.071915572917545 0.07841306152789275 -1 0 0
590 1 92.26394965653245 1.2669869437905483 0.07841306152788717 -1 0 0
683 4 92.26392585560737 3.8035978148776115 0.5630758691223172 -1 0 0
681 1 90.06717308825844 5.071915572917543 0.07841306152788836 -1 0 0
685 1 94.46072622480645 5.071915572917545 0.07841306152788742 -1 0 0
598 1 101.05105592962845 1.2669869437905472 0.07841306152789274 -1 0 0
691 4 101.05103212870335 3.8035978148776115 0.5630758691223124 -1 0 0
594 1 96.65750279308044 1.266986943790548 0.07841306152788731 -1 0 0
687 4 96.65747899215536 3.803597814877612 0.5630758691223171 -1 0 0
689 1 98.85427936135444 5.071915572917546 0.07841306152789183 -1 0 0
696 4 2.1960865563733534 7.608526444004615 0.5630758691223159 0 0 0
694 1 4.392886925572446 8.876844202044547 0.07841306152788961 0 0 0
787 4 4.392863124647356 11.413455073131608 0.5630758691223189 0 0 0
700 4 6.589639692921357 7.608526444004614 0.5630758691223162 0 0 0
704 4 10.983192829469354 7.608526444004615 0.5630758691223161 0 0 0
698 1 8.786440062120445 8.876844202044547 0.07841306152789185 0 0 0
791 4 8.786416261195354 11.413455073131608 0.5630758691223168 0 0 0
708 4 15.376745966017356 7.608526444004615 0.5630758691223158 0 0 0
702 1 13.179993198668445 8.876844202044547 0.07841306152789176 0 0 0
706 1 17.573546335216445 8.876844202044547 0.07841306152789353 0 0 0
795 4 13.179969397743355 11.413455073131608 0.5630758691223169 0 0 0
799 4 17.573522534291357 11.413455073131606 0.5630758691223149 0 0 0
712 4 19.770299102565353 7.608526444004615 0.5630758691223182 0 0 0
710 1 21.96709947176445 8.876844202044547 0.07841306152788949 0 0 0
803 4 21.967075670839357 11.413455073131608 0.5630758691223192 0 0 0
716 4 24.163852239113357 7.608526444004614 0.5630758691223139 0 0 0
720 4 28.557405375661354 7.608526444004615 0.5630758691223181 0 0 0
714 1 26.360652608312446 8.876844202044548 0.0784130615278938 0 0 0
807 4 26.360628807387354 11.413455073131608 0.5630758691223147 0 0 0
724 4 32.95095851220936 7.608526444004614 0.5630758691223139 0 0 0
718 1 30.75420574486045 8.876844202044547 0.07841306152788949 0 0 0
722 1 35.14775888140844 8.876844202044548 0.07841306152789382 0 0 0
811 4 30.754181943935357 11.413455073131608 0.5630758691223192 0 0 0
815 4 35.14773508048336 11.413455073131608 0.5630758691223148 0 0 0
728 4 37.344511648757354 7.608526444004615 0.5630758691223181 0 0 0
726 1 39.54131201795645 8.876844202044547 0.07841306152788949 0 0 0
819 4 39.54128821703136 11.413455073131608 0.563075869122319 0 0 0
732 4 41.73806478530536 7.608526444004614 0.5630758691223139 0 0 0
736 4 46.131617921853355 7.608526444004615 0.5630758691223181 0 0 0
730 1 43.93486515450444 8.876844202044548 0.07841306152789382 0 0 0
823 4 43.93484135357936 11.413455073131608 0.5630758691223149 0 0 0
648 4 50.525171058401355 7.608526444004614 0.5630758691223141 -1 0 0
734 1 48.32841829105245 8.876844202044547 0.0784130615278895 0 0 0
646 1 52.721971427600444 8.876844202044547 0.0784130615278918 -1 0 0
827 4 48.32839449012736 11.413455073131608 0.563075869122319 0 0 0
739 4 52.72194762667535 11.413455073131608 0.5630758691223168 -1 0 0
652 4 54.918724194949355 7.608526444004615 0.563075869122318 -1 0 0
656 4 59.312277331497356 7.608526444004613 0.563075869122314 -1 0 0
650 1 57.11552456414845 8.876844202044547 0.07841306152789175 -1 0 0
743 4 57.11550076322336 11.413455073131608 0.5630758691223168 -1 0 0
660 4 63.705830468045356 7.608526444004615 0.563075869122318 -1 0 0
654 1 61.509077700696444 8.876844202044547 0.0784130615278918 -1 0 0
747 4 61.50905389977135 11.413455073131608 0.5630758691223168 -1 0 0
664 4 68.09938360459336 7.608526444004614 0.5630758691223138 -1 0 0
658 1 65.90263083724444 8.876844202044548 0.07841306152789135 -1 0 0
662 1 70.29618397379244 8.876844202044547 0.07841306152789417 -1 0 0
751 4 65.90260703631935 11.413455073131608 0.5630758691223168 -1 0 0
755 4 70.29616017286736 11.413455073131608 0.5630758691223144 -1 0 0
668 4 72.49293674114135 7.608526444004614 0.5630758691223184 -1 0 0
672 4 76.88648987768934 7.608526444004614 0.5630758691223188 -1 0 0
666 1 74.68973711034045 8.876844202044548 0.07841306152788897 -1 0 0
759 4 74.68971330941537 11.413455073131608 0.5630758691223197 -1 0 0
676 4 81.28004301423735 7.608526444004614 0.5630758691223136 -1 0 0
670 1 79.08329024688844 8.876844202044547 0.07841306152788914 -1 0 0
763 4 79.08326644596336 11.413455073131608 0.5630758691223194 -1 0 0
680 4 85.67359615078536 7.608526444004615 0.5630758691223133 -1 0 0
674 1 83.47684338343645 8.876844202044547 0.07841306152789435 -1 0 0
678 1 87.87039651998444 8.876844202044547 0.07841306152789414 -1 0 0
767 4 83.47681958251135 11.413455073131608 0.5630758691223142 -1 0 0
771 4 87.87037271905936 11.413455073131608 0.5630758691223146 -1 0 0
684 4 90.06714928733335 7.608526444004614 0.5630758691223184 -1 0 0
688 4 94.46070242388134 7.608526444004614 0.5630758691223188 -1 0 0
682 1 92.26394965653245 8.876844202044548 0.07841306152788895 -1 0 0
775 4 92.26392585560737 11.413455073131608 0.5630758691223197 -1 0 0
690 1 101.05105592962845 8.876844202044547 0.07841306152789446 -1 0 0
783 4 101.05103212870335 11.413455073131608 0.5630758691223148 -1 0 0
692 4 98.85425556042935 7.608526444004615 0.5630758691223136 -1 0 0
686 1 96.65750279308044 8.876844202044547 0.07841306152788914 -1 0 0
779 4 96.65747899215536 11.413455073131608 0.5630758691223196 -1 0 0
785 1 2.196110357298444 12.681772831171545 0.0784130615278874 0 0 0
788 4 2.1960865563733534 15.218383702258613 0.5630758691223163 0 0 0
786 1 4.392886925572446 16.486701460298548 0.07841306152788997 0 0 0
789 1 6.589663493846447 12.681772831171545 0.07841306152788706 0 0 0
793 1 10.983216630394445 12.681772831171545 0.07841306152788725 0 0 0
792 4 6.589639692921357 15.218383702258613 0.5630758691223164 0 0 0
796 4 10.983192829469354 15.218383702258613 0.5630758691223163 0 0 0
790 1 8.786440062120445 16.486701460298548 0.07841306152789208 0 0 0
797 1 15.376769766942449 12.681772831171545 0.07841306152788768 0 0 0
800 4 15.376745966017356 15.218383702258613 0.563075869122316 0 0 0
794 1 13.179993198668445 16.486701460298548 0.07841306152789201 0 0 0
798 1 17.573546335216445 16.486701460298548 0.07841306152789382 0 0 0
801 1 19.77032290349044 12.681772831171545 0.07841306152788492 0 0 0
804 4 19.770299102565353 15.218383702258613 0.5630758691223186 0 0 0
802 1 21.96709947176445 16.486701460298544 0.0784130615278896 0 0 0
805 1 24.163876040038446 12.681772831171545 0.07841306152788965 0 0 0
809 1 28.557429176586442 12.681772831171545 0.07841306152788487 0 0 0
808 4 24.163852239113357 15.218383702258613 0.5630758691223143 0 0 0
812 4 28.557405375661354 15.218383702258613 0.5630758691223187 0 0 0
806 1 26.360652608312446 16.486701460298544 0.07841306152789404 0 0 0
813 1 32.950982313134446 12.681772831171545 0.07841306152788965 0 0 0
816 4 32.950958512209354 15.218383702258613 0.5630758691223143 0 0 0
810 1 30.75420574486045 16.486701460298544 0.07841306152788959 0 0 0
814 1 35.14775888140844 16.486701460298544 0.07841306152789407 0 0 0
817 1 37.344535449682446 12.681772831171545 0.07841306152788512 0 0 0
820 4 37.344511648757354 15.218383702258613 0.5630758691223187 0 0 0
818 1 39.54131201795645 16.486701460298544 0.0784130615278896 0 0 0
821 1 41.73808858623045 12.681772831171545 0.07841306152788946 0 0 0
825 1 46.13164172277845 12.681772831171545 0.07841306152788513 0 0 0
824 4 41.738064785305355 15.218383702258613 0.5630758691223143 0 0 0
828 4 46.131617921853355 15.218383702258613 0.5630758691223186 0 0 0
822 1 43.93486515450444 16.486701460298544 0.07841306152789407 0 0 0
737 1 50.52519485932645 12.681772831171546 0.07841306152788925 -1 0 0
740 4 50.525171058401355 15.218383702258613 0.5630758691223143 -1 0 0
826 1 48.32841829105245 16.486701460298544 0.07841306152788964 0 0 0
738 1 52.721971427600444 16.486701460298548 0.07841306152789206 -1 0 0
741 1 54.91874799587445 12.681772831171545 0.07841306152788485 -1 0 0
745 1 59.31230113242245 12.681772831171545 0.07841306152788975 -1 0 0
744 4 54.918724194949355 15.218383702258613 0.5630758691223182 -1 0 0
748 4 59.312277331497356 15.218383702258613 0.5630758691223142 -1 0 0
742 1 57.11552456414845 16.486701460298548 0.07841306152789201 -1 0 0
749 1 63.70585426897045 12.681772831171545 0.07841306152788485 -1 0 0
752 4 63.705830468045356 15.218383702258613 0.5630758691223182 -1 0 0
746 1 61.509077700696444 16.486701460298548 0.07841306152789204 -1 0 0
753 1 68.09940740551845 12.681772831171545 0.07841306152788953 -1 0 0
756 4 68.09938360459336 15.218383702258613 0.5630758691223142 -1 0 0
750 1 65.90263083724444 16.486701460298548 0.07841306152789156 -1 0 0
754 1 70.29618397379244 16.486701460298544 0.07841306152789441 -1 0 0
757 1 72.49296054206644 12.681772831171543 0.07841306152788557 -1 0 0
761 1 76.88651367861445 12.681772831171545 0.07841306152788464 -1 0 0
760 4 72.49293674114135 15.218383702258613 0.5630758691223189 -1 0 0
764 4 76.88648987768934 15.218383702258613 0.5630758691223191 -1 0 0
758 1 74.68973711034045 16.486701460298548 0.07841306152788931 -1 0 0
765 1 81.28006681516244 12.681772831171546 0.07841306152788897 -1 0 0
768 4 81.28004301423735 15.218383702258613 0.563075869122314 -1 0 0
762 1 79.08329024688844 16.486701460298544 0.07841306152788922 -1 0 0
769 1 85.67361995171045 12.681772831171543 0.0784130615278899 -1 0 0
772 4 85.67359615078536 15.218383702258613 0.5630758691223139 -1 0 0
766 1 83.47684338343645 16.486701460298544 0.0784130615278946 -1 0 0
770 1 87.87039651998444 16.486701460298544 0.07841306152789443 -1 0 0
773 1 90.06717308825844 12.681772831171543 0.07841306152788557 -1 0 0
777 1 94.46072622480645 12.681772831171545 0.07841306152788463 -1 0 0
776 4 90.06714928733335 15.218383702258613 0.5630758691223189 -1 0 0
780 4 94.46070242388134 15.218383702258613 0.5630758691223191 -1 0 0
774 1 92.26394965653245 16.486701460298548 0.07841306152788925 -1 0 0
782 1 101.05105592962845 16.486701460298544 0.07841306152789473 -1 0 0
781 1 98.85427936135444 12.681772831171546 0.07841306152788906 -1 0 0
784 4 98.85425556042935 15.218383702258613 0.5630758691223139 -1 0 0
778 1 96.65750279308044 16.486701460298544 0.07841306152788922 -1 0 0
877 1 2.1961103572984437 20.29163008942555 0.07841306152789282 0 0 0
879 4 4.392863124647356 19.02331233138561 0.5630758691223154 0 0 0
880 4 2.196086556373354 22.82824096051261 0.5630758691223148 0 0 0
881 1 6.589663493846447 20.29163008942555 0.07841306152789258 0 0 0
883 4 8.786416261195354 19.02331233138561 0.5630758691223134 0 0 0
885 1 10.983216630394447 20.29163008942555 0.07841306152789289 0 0 0
884 4 6.589639692921356 22.82824096051261 0.5630758691223151 0 0 0
888 4 10.983192829469354 22.82824096051261 0.5630758691223151 0 0 0
887 4 13.179969397743355 19.02331233138561 0.5630758691223134 0 0 0
889 1 15.376769766942449 20.29163008942555 0.0784130615278932 0 0 0
891 4 17.573522534291357 19.02331233138561 0.5630758691223113 0 0 0
892 4 15.376745966017356 22.828240960512613 0.5630758691223148 0 0 0
893 1 19.77032290349044 20.291630089425546 0.07841306152789046 0 0 0
895 4 21.967075670839357 19.02331233138561 0.5630758691223158 0 0 0
896 4 19.770299102565353 22.82824096051261 0.5630758691223169 0 0 0
897 1 24.163876040038446 20.291630089425546 0.07841306152789522 0 0 0
899 4 26.360628807387354 19.02331233138561 0.563075869122311 0 0 0
901 1 28.557429176586442 20.291630089425546 0.07841306152789042 0 0 0
900 4 24.163852239113357 22.82824096051261 0.5630758691223127 0 0 0
904 4 28.557405375661354 22.82824096051261 0.563075869122317 0 0 0
903 4 30.754181943935357 19.02331233138561 0.5630758691223158 0 0 0
905 1 32.950982313134446 20.291630089425546 0.07841306152789522 0 0 0
907 4 35.14773508048336 19.02331233138561 0.5630758691223111 0 0 0
908 4 32.950958512209354 22.82824096051261 0.5630758691223126 0 0 0
909 1 37.344535449682446 20.291630089425546 0.07841306152789065 0 0 0
911 4 39.54128821703136 19.02331233138561 0.5630758691223156 0 0 0
912 4 37.344511648757354 22.82824096051261 0.563075869122317 0 0 0
913 1 41.73808858623045 20.29163008942555 0.07841306152789501 0 0 0
915 4 43.93484135357936 19.02331233138561 0.5630758691223112 0 0 0
917 1 46.13164172277845 20.291630089425546 0.07841306152789063 0 0 0
916 4 41.738064785305355 22.82824096051261 0.5630758691223126 0 0 0
920 4 46.131617921853355 22.82824096051261 0.5630758691223169 0 0 0
919 4 48.32839449012736 19.02331233138561 0.5630758691223156 0 0 0
829 1 50.52519485932645 20.29163008942555 0.07841306152789483 -1 0 0
831 4 52.72194762667535 19.02331233138561 0.5630758691223134 -1 0 0
832 4 50.525171058401355 22.82824096051261 0.5630758691223128 -1 0 0
833 1 54.91874799587445 20.29163008942555 0.07841306152789024 -1 0 0
835 4 57.11550076322336 19.02331233138561 0.5630758691223136 -1 0 0
837 1 59.31230113242245 20.291630089425546 0.07841306152789529 -1 0 0
836 4 54.918724194949355 22.82824096051261 0.5630758691223169 -1 0 0
840 4 59.312277331497356 22.82824096051261 0.5630758691223127 -1 0 0
839 4 61.50905389977135 19.02331233138561 0.5630758691223136 -1 0 0
841 1 63.70585426897045 20.29163008942555 0.07841306152789024 -1 0 0
844 4 63.705830468045356 22.82824096051261 0.5630758691223169 -1 0 0
843 4 65.90260703631935 19.02331233138561 0.5630758691223136 -1 0 0
845 1 68.09940740551845 20.29163008942555 0.078413061527895 -1 0 0
847 4 70.29616017286736 19.02331233138561 0.5630758691223109 -1 0 0
848 4 68.09938360459336 22.82824096051261 0.5630758691223126 -1 0 0
849 1 72.49296054206644 20.291630089425546 0.07841306152789097 -1 0 0
851 4 74.68971330941537 19.02331233138561 0.5630758691223161 -1 0 0
853 1 76.88651367861445 20.29163008942555 0.07841306152788996 -1 0 0
852 4 72.49293674114135 22.82824096051261 0.5630758691223172 -1 0 0
856 4 76.88648987768934 22.82824096051261 0.5630758691223176 -1 0 0
855 4 79.08326644596336 19.02331233138561 0.5630758691223159 -1 0 0
857 1 81.28006681516244 20.29163008942555 0.0784130615278945 -1 0 0
860 4 81.28004301423735 22.82824096051261 0.5630758691223122 -1 0 0
859 4 83.47681958251135 19.02331233138561 0.5630758691223108 -1 0 0
861 1 85.67361995171045 20.291630089425546 0.07841306152789547 -1 0 0
863 4 87.87037271905936 19.02331233138561 0.563075869122311 -1 0 0
864 4 85.67359615078536 22.82824096051261 0.5630758691223121 -1 0 0
865 1 90.06717308825844 20.291630089425546 0.07841306152789096 -1 0 0
867 4 92.26392585560737 19.02331233138561 0.5630758691223161 -1 0 0
869 1 94.46072622480645 20.29163008942555 0.07841306152788995 -1 0 0
868 4 90.06714928733335 22.82824096051261 0.5630758691223172 -1 0 0
872 4 94.46070242388134 22.82824096051261 0.5630758691223176 -1 0 0
875 4 101.05103212870335 19.02331233138561 0.5630758691223111 -1 0 0
871 4 96.65747899215536 19.02331233138561 0.563075869122316 -1 0 0
873 1 98.85427936135444 20.29163008942555 0.07841306152789455 -1 0 0
876 4 98.85425556042935 22.82824096051261 0.5630758691223122 -1 0 0
878 1 4.392886925572446 24.096558718552544 0.07841306152788566 0 0 0
971 4 4.392863124647356 26.633169589639618 0.5630758691223204 0 0 0
969 1 2.1961103572984437 27.901487347679552 0.07841306152789142 0 0 0
882 1 8.786440062120445 24.096558718552544 0.07841306152788774 0 0 0
975 4 8.786416261195354 26.633169589639614 0.5630758691223181 0 0 0
973 1 6.589663493846447 27.901487347679552 0.07841306152789108 0 0 0
977 1 10.983216630394447 27.901487347679552 0.07841306152789136 0 0 0
886 1 13.179993198668445 24.096558718552544 0.07841306152788766 0 0 0
890 1 17.573546335216445 24.096558718552544 0.07841306152788952 0 0 0
979 4 13.179969397743355 26.633169589639614 0.5630758691223183 0 0 0
983 4 17.573522534291357 26.633169589639614 0.5630758691223164 0 0 0
981 1 15.376769766942449 27.90148734767955 0.07841306152789174 0 0 0
894 1 21.96709947176445 24.096558718552544 0.07841306152788567 0 0 0
987 4 21.967075670839357 26.633169589639614 0.5630758691223209 0 0 0
985 1 19.77032290349044 27.90148734767955 0.07841306152788884 0 0 0
898 1 26.360652608312446 24.096558718552544 0.07841306152788982 0 0 0
991 4 26.360628807387354 26.633169589639614 0.5630758691223161 0 0 0
989 1 24.163876040038446 27.90148734767955 0.07841306152789362 0 0 0
993 1 28.557429176586442 27.90148734767955 0.07841306152788881 0 0 0
902 1 30.75420574486045 24.096558718552544 0.07841306152788566 0 0 0
906 1 35.14775888140844 24.096558718552544 0.07841306152788984 0 0 0
995 4 30.754181943935357 26.633169589639614 0.5630758691223209 0 0 0
999 4 35.14773508048336 26.633169589639614 0.5630758691223163 0 0 0
997 1 32.950982313134446 27.90148734767955 0.07841306152789362 0 0 0
910 1 39.54131201795645 24.096558718552544 0.07841306152788566 0 0 0
1003 4 39.54128821703136 26.633169589639618 0.5630758691223207 0 0 0
1001 1 37.344535449682446 27.90148734767955 0.07841306152788902 0 0 0
914 1 43.93486515450444 24.096558718552544 0.07841306152788984 0 0 0
1007 4 43.93484135357936 26.633169589639614 0.5630758691223162 0 0 0
1005 1 41.73808858623045 27.90148734767955 0.07841306152789346 0 0 0
1009 1 46.13164172277845 27.90148734767955 0.07841306152788902 0 0 0
918 1 48.32841829105245 24.096558718552544 0.07841306152788569 0 0 0
830 1 52.721971427600444 24.096558718552544 0.07841306152788792 -1 0 0
1011 4 48.32839449012736 26.633169589639618 0.5630758691223207 0 0 0
923 4 52.72194762667535 26.633169589639614 0.5630758691223182 -1 0 0
921 1 50.52519485932645 27.90148734767955 0.07841306152789329 -1 0 0
834 1 57.11552456414845 24.096558718552544 0.07841306152788782 -1 0 0
927 4 57.11550076322336 26.633169589639614 0.5630758691223182 -1 0 0
925 1 54.91874799587445 27.901487347679552 0.07841306152788899 -1 0 0
929 1 59.31230113242245 27.90148734767955 0.07841306152789382 -1 0 0
838 1 61.509077700696444 24.096558718552544 0.07841306152788788 -1 0 0
931 4 61.50905389977135 26.633169589639614 0.5630758691223182 -1 0 0
933 1 63.70585426897045 27.901487347679552 0.07841306152788899 -1 0 0
842 1 65.90263083724444 24.096558718552544 0.07841306152788738 -1 0 0
846 1 70.29618397379244 24.096558718552544 0.07841306152789021 -1 0 0
935 4 65.90260703631935 26.633169589639614 0.5630758691223182 -1 0 0
939 4 70.29616017286736 26.633169589639614 0.5630758691223159 -1 0 0
937 1 68.09940740551845 27.90148734767955 0.07841306152789357 -1 0 0
850 1 74.68973711034045 24.096558718552547 0.07841306152788512 -1 0 0
943 4 74.68971330941537 26.633169589639614 0.5630758691223213 -1 0 0
941 1 72.49296054206644 27.90148734767955 0.07841306152788949 -1 0 0
945 1 76.88651367861445 27.901487347679552 0.07841306152788863 -1 0 0
854 1 79.08329024688844 24.096558718552547 0.07841306152788531 -1 0 0
947 4 79.08326644596336 26.633169589639614 0.5630758691223209 -1 0 0
949 1 81.28006681516244 27.901487347679552 0.07841306152789296 -1 0 0
858 1 83.47684338343645 24.096558718552544 0.07841306152789038 -1 0 0
862 1 87.87039651998444 24.096558718552544 0.07841306152789018 -1 0 0
951 4 83.47681958251135 26.633169589639614 0.5630758691223158 -1 0 0
955 4 87.87037271905936 26.633169589639614 0.5630758691223159 -1 0 0
953 1 85.67361995171045 27.90148734767955 0.07841306152789407 -1 0 0
866 1 92.26394965653245 24.096558718552547 0.0784130615278851 -1 0 0
959 4 92.26392585560737 26.633169589639614 0.5630758691223212 -1 0 0
957 1 90.06717308825844 27.90148734767955 0.07841306152788949 -1 0 0
961 1 94.46072622480645 27.901487347679552 0.07841306152788861 -1 0 0
874 1 101.05105592962845 24.096558718552544 0.0784130615278905 -1 0 0
967 4 101.05103212870335 26.633169589639614 0.5630758691223162 -1 0 0
870 1 96.65750279308044 24.096558718552547 0.0784130615278853 -1 0 0
963 4 96.65747899215536 26.633169589639614 0.5630758691223211 -1 0 0
965 1 98.85427936135444 27.90148734767955 0.07841306152789305 -1 0 0
972 4 2.1960865563733534 30.438098218766612 0.5630758691223134 0 0 0
970 1 4.392886925572446 31.706415976806543 0.07841306152788968 0 0 0
1063 4 4.392863124647356 34.24302684789361 0.563075869122321 0 0 0
976 4 6.589639692921357 30.438098218766612 0.5630758691223137 0 0 0
980 4 10.983192829469354 30.438098218766612 0.5630758691223134 0 0 0
974 1 8.786440062120445 31.706415976806543 0.07841306152789201 0 0 0
1067 4 8.786416261195354 34.24302684789361 0.5630758691223189 0 0 0
984 4 15.376745966017356 30.438098218766612 0.5630758691223131 0 0 0
978 1 13.179993198668445 31.706415976806543 0.07841306152789193 0 0 0
982 1 17.573546335216445 31.706415976806543 0.07841306152789405 0 0 0
1071 4 13.179969397743355 34.24302684789361 0.5630758691223191 0 0 0
1075 4 17.573522534291357 34.24302684789361 0.563075869122317 0 0 0
988 4 19.770299102565353 30.438098218766612 0.5630758691223154 0 0 0
986 1 21.96709947176445 31.706415976806543 0.07841306152788968 0 0 0
1079 4 21.967075670839357 34.24302684789361 0.5630758691223213 0 0 0
992 4 24.163852239113357 30.438098218766612 0.5630758691223112 0 0 0
996 4 28.557405375661354 30.438098218766612 0.5630758691223157 0 0 0
990 1 26.360652608312446 31.706415976806543 0.07841306152789433 0 0 0
1083 4 26.360628807387354 34.24302684789361 0.5630758691223168 0 0 0
1000 4 32.950958512209354 30.438098218766612 0.5630758691223112 0 0 0
994 1 30.75420574486045 31.706415976806543 0.07841306152788967 0 0 0
998 1 35.14775888140844 31.706415976806543 0.07841306152789435 0 0 0
1087 4 30.754181943935357 34.24302684789361 0.5630758691223213 0 0 0
1091 4 35.14773508048335 34.24302684789361 0.5630758691223169 0 0 0
1004 4 37.344511648757354 30.438098218766612 0.5630758691223156 0 0 0
1002 1 39.54131201795645 31.706415976806543 0.07841306152788968 0 0 0
1095 4 39.54128821703136 34.24302684789361 0.5630758691223211 0 0 0
1008 4 41.738064785305355 30.438098218766612 0.5630758691223112 0 0 0
1012 4 46.131617921853355 30.438098218766612 0.5630758691223156 0 0 0
1006 1 43.93486515450444 31.706415976806543 0.07841306152789435 0 0 0
1099 4 43.93484135357935 34.24302684789361 0.5630758691223169 0 0 0
924 4 50.525171058401355 30.438098218766612 0.5630758691223113 -1 0 0
1010 1 48.32841829105245 31.706415976806543 0.07841306152788972 0 0 0
922 1 52.721971427600444 31.706415976806543 0.07841306152789204 -1 0 0
1103 4 48.32839449012736 34.24302684789361 0.5630758691223211 0 0 0
1015 4 52.72194762667535 34.24302684789361 0.5630758691223191 -1 0 0
928 4 54.918724194949355 30.438098218766612 0.5630758691223153 -1 0 0
932 4 59.312277331497356 30.438098218766612 0.5630758691223112 -1 0 0
926 1 57.11552456414845 31.706415976806543 0.07841306152789196 -1 0 0
1019 4 57.11550076322336 34.24302684789361 0.5630758691223191 -1 0 0
936 4 63.705830468045356 30.438098218766612 0.5630758691223152 -1 0 0
930 1 61.509077700696444 31.706415976806543 0.07841306152789203 -1 0 0
1023 4 61.50905389977135 34.24302684789361 0.5630758691223192 -1 0 0
940 4 68.09938360459336 30.438098218766612 0.5630758691223111 -1 0 0
934 1 65.90263083724444 31.706415976806543 0.07841306152789154 -1 0 0
938 1 70.29618397379244 31.706415976806543 0.0784130615278947 -1 0 0
1027 4 65.90260703631935 34.24302684789361 0.5630758691223191 -1 0 0
1031 4 70.29616017286736 34.24302684789361 0.5630758691223167 -1 0 0
944 4 72.49293674114135 30.438098218766612 0.5630758691223159 -1 0 0
948 4 76.88648987768934 30.438098218766612 0.5630758691223162 -1 0 0
942 1 74.68973711034045 31.706415976806543 0.07841306152788906 -1 0 0
1035 4 74.68971330941537 34.24302684789361 0.5630758691223218 -1 0 0
952 4 81.28004301423735 30.438098218766612 0.5630758691223109 -1 0 0
946 1 79.08329024688844 31.706415976806543 0.07841306152788918 -1 0 0
1039 4 79.08326644596336 34.24302684789361 0.5630758691223214 -1 0 0
956 4 85.67359615078536 30.438098218766612 0.5630758691223108 -1 0 0
950 1 83.47684338343645 31.706415976806543 0.0784130615278948 -1 0 0
954 1 87.87039651998444 31.706415976806543 0.07841306152789466 -1 0 0
1043 4 83.47681958251135 34.24302684789361 0.5630758691223162 -1 0 0
1047 4 87.87037271905936 34.24302684789361 0.5630758691223167 -1 0 0
960 4 90.06714928733335 30.438098218766612 0.5630758691223159 -1 0 0
964 4 94.46070242388134 30.438098218766612 0.5630758691223161 -1 0 0
958 1 92.26394965653245 31.706415976806543 0.07841306152788904 -1 0 0
1051 4 92.26392585560737 34.24302684789361 0.5630758691223218 -1 0 0
966 1 101.05105592962845 31.706415976806543 0.07841306152789496 -1 0 0
1059 4 101.05103212870335 34.24302684789361 0.5630758691223167 -1 0 0
968 4 98.85425556042935 30.438098218766612 0.5630758691223109 -1 0 0
962 1 96.65750279308044 31.706415976806543 0.07841306152788918 -1 0 0
1055 4 96.65747899215536 34.24302684789361 0.5630758691223215 -1 0 0
1061 1 2.1961103572984446 35.51134460593355 0.0784130615278871 0 0 0
1064 4 2.1960865563733534 38.047955477020615 0.5630758691223143 0 0 0
1062 1 4.392886925572446 39.31627323506054 0.07841306152789038 0 0 0
1065 1 6.589663493846447 35.51134460593355 0.07841306152788691 0 0 0
1069 1 10.983216630394447 35.51134460593355 0.07841306152788705 0 0 0
1068 4 6.589639692921357 38.047955477020615 0.5630758691223146 0 0 0
1072 4 10.983192829469354 38.047955477020615 0.5630758691223143 0 0 0
1066 1 8.786440062120445 39.31627323506054 0.07841306152789267 0 0 0
1073 1 15.376769766942447 35.51134460593355 0.0784130615278873 0 0 0
1076 4 15.376745966017356 38.047955477020615 0.563075869122314 0 0 0
1070 1 13.179993198668445 39.31627323506054 0.0784130615278926 0 0 0
1074 1 17.573546335216445 39.31627323506054 0.07841306152789475 0 0 0
1077 1 19.770322903490445 35.511344605933544 0.07841306152788476 0 0 0
1080 4 19.770299102565353 38.047955477020615 0.563075869122316 0 0 0
1078 1 21.96709947176445 39.31627323506054 0.07841306152789025 0 0 0
1081 1 24.163876040038446 35.51134460593355 0.07841306152788949 0 0 0
1085 1 28.557429176586446 35.511344605933544 0.07841306152788471 0 0 0