LAMMPS data file via write_data, version 29 Aug 2024, timestep = 169, units = metal

8568 atoms
36 atom types

0 97.16470052912 xlo xhi
0 102.178620225632 ylo yhi
-50 50 zlo zhi

Masses

1 51.9961
2 51.9961
3 51.9961
4 51.9961
5 51.9961
6 51.9961
7 51.9961
8 51.9961
9 51.9961
10 51.9961
11 51.9961
12 51.9961
13 127.6
14 127.6
15 127.6
16 127.6
17 127.6
18 127.6
19 127.6
20 127.6
21 127.6
22 127.6
23 127.6
24 127.6
25 127.6
26 127.6
27 127.6
28 127.6
29 127.6
30 127.6
31 127.6
32 127.6
33 127.6
34 127.6
35 127.6
36 127.6

Atoms # atomic

1434 4 0.7130547801537186 0.8191746695397668 0.2939359431825746 0 0 0
1432 18 1.515548756145378 1.43375348666538 2.669703952715272 0 0 0
1440 16 3.6285114011867288 0.6778746823770048 2.1986762543100995 0 0 0
1603 19 3.4808913029126645 3.8035710491768198 2.633076474501384 0 0 0
1599 2 3.8891877614807004 2.525670801425599 0.41267757402475325 0 0 0
1605 14 3.647648816472081 4.027520826531363 2.5042170887943414 0 0 0
1439 15 1.5737779491567332 1.4262823398086795 2.646467073753856 0 0 0
1598 1 1.193635498706361 3.8316259369023924 1.7903996787519014 0 0 0
1446 4 7.65339053242155 0.8191746691388525 0.2939359432269522 0 0 0
1444 18 8.45588450819564 1.4337534865516472 2.6697039532106417 0 0 0
1452 16 10.568847153460116 0.677874682521616 2.1986762540010267 0 0 0
1609 17 6.026808823315889 2.7567306497821527 0.7730263057370503 0 0 0
1615 19 10.421227055109357 3.803571048797246 2.6330764740340054 0 0 0
1611 2 10.829523513437021 2.525670802174931 0.4126775756688576 0 0 0
1617 14 10.587984568564517 4.027520826193647 2.5042170883068366 0 0 0
1606 20 5.890883837743451 5.517757183016213 1.6523235789299846 0 0 0
1451 15 8.514113701282335 1.4262823396695379 2.6464670741559897 0 0 0
1610 1 8.133971250840036 3.831625936897093 1.7903996786884449 0 0 0
1458 4 14.59372628420084 0.8191746693017264 0.293935943012242 0 0 0
1456 18 15.396220260405752 1.4337534865145172 2.6697039529157434 0 0 0
1621 17 12.967144575262173 2.7567306500284565 0.7730263058633384 0 0 0
1618 20 12.831219589862354 5.517757183011695 1.6523235787632786 0 0 0
1622 1 15.074307002900698 3.8316259369811245 1.7903996785772094 0 0 0
1463 15 15.454449453362015 1.426282339687156 2.6464670738617366 0 0 0
1623 2 17.76985926566494 2.5256708023862586 0.41267757610135963 0 0 0
1464 16 17.50918290556989 0.677874682672514 2.1986762540072586 0 0 0
1470 4 21.534062036442094 0.8191746693913947 0.2939359431031011 0 0 0
1468 18 22.336556012453787 1.4337534865187864 2.6697039530868527 0 0 0
1627 19 17.361562807320105 3.803571048830192 2.6330764738769714 0 0 0
1633 17 19.907480327402393 2.756730649896655 0.7730263058943037 0 0 0
1629 14 17.528320320624154 4.027520826120387 2.5042170882393444 0 0 0
1630 20 19.771555342043573 5.517757182750569 1.6523235787999146 0 0 0
1634 1 22.014642754831346 3.8316259370436736 1.790399678713223 0 0 0
1475 15 22.39478520533037 1.4262823396855595 2.6464670740304035 0 0 0
1635 2 24.7101950175046 2.525670802396853 0.41267757610423217 0 0 0
1476 16 24.449518657544775 0.6778746826412555 2.198676254008967 0 0 0
1482 4 28.474397788627826 0.8191746695287773 0.2939359431340819 0 0 0
1639 19 24.301898559334678 3.803571048894519 2.63307647397276 0 0 0
1645 17 26.847816079494468 2.7567306501182354 0.7730263057865674 0 0 0
1641 14 24.4686560726597 4.027520826194881 2.504217088281581 0 0 0
1642 20 26.711891094237252 5.51775718285051 1.6523235789580233 0 0 0
1480 18 29.276891764512463 1.4337534865855874 2.6697039530392166 0 0 0
1488 16 31.38985440944215 0.6778746822714695 2.198676254351225 0 0 0
1651 19 31.24223431111061 3.8035710492238106 2.6330764747977575 0 0 0
1647 2 31.650530769700904 2.525670801209404 0.4126775734104913 0 0 0
1653 14 31.408991824814343 4.027520826600232 2.504217089096073 0 0 0
1657 17 33.78815183159057 2.756730649852412 0.7730263057547282 0 0 0
1654 20 33.65222684608861 5.517757182896533 1.6523235789913002 0 0 0
1487 15 29.335120957372546 1.4262823397496096 2.6464670740637857 0 0 0
1646 1 28.954978506874095 3.831625937008925 1.7903996789174788 0 0 0
1494 4 35.41473354069517 0.819174669241186 0.29393594309238835 0 0 0
1492 18 36.21722751645722 1.4337534866504806 2.669703953118279 0 0 0
1500 16 38.33019016189496 0.6778746828327271 2.1986762538375912 0 0 0
1663 19 38.18257006375096 3.8035710484805203 2.63307647332477 0 0 0
1659 2 38.59086652166585 2.5256708030921273 0.4126775780325359 0 0 0
1665 14 38.34932757686391 4.027520825793147 2.50421708763035 0 0 0
1499 15 36.27545670968056 1.4262823397684152 2.6464670740063343 0 0 0
1658 1 35.895314259286174 3.831625936955329 1.7903996786338816 0 0 0
1506 4 42.35506929252787 0.8191746693228045 0.2939359430158884 0 0 0
1504 18 43.15756326874435 1.4337534864252108 2.6697039526854205 0 0 0
1512 16 45.27052591376272 0.6778746824722947 2.1986762542141993 0 0 0
1669 17 40.72848758357932 2.75673064979108 0.7730263057224491 0 0 0
1675 19 45.12290581542557 3.8035710492446335 2.633076474189621 0 0 0
1671 2 45.531202273864984 2.5256708017465876 0.4126775748251401 0 0 0
1677 14 45.28966332882683 4.027520826402131 2.504217088567299 0 0 0
1666 20 40.592562598242026 5.517757182976597 1.6523235789021402 0 0 0
1511 15 43.21579246141469 1.4262823396204933 2.646467073700317 0 0 0
1670 1 42.835650010895314 3.831625936848187 1.7903996784839262 0 0 0
1350 4 49.295405045115956 0.8191746695016986 0.29393594315144417 -1 0 0
1348 18 50.09789902049638 1.433753486704343 2.669703952914373 -1 0 0
1513 17 47.668823335847314 2.756730649893662 0.773026305368763 -1 0 0
1678 20 47.532898350317666 5.517757182847735 1.652323579103462 0 0 0
1514 1 49.77598576303124 3.8316259368271086 1.7903996788213494 -1 0 0
1355 15 50.15612821349759 1.4262823398079965 2.6464670739592657 -1 0 0
1515 2 52.471538025934734 2.5256708001466865 0.41267757056025245 -1 0 0
1356 16 52.210861665598344 0.677874682022475 2.1986762546237433 -1 0 0
1362 4 56.23574079716841 0.8191746694753083 0.29393594335188067 -1 0 0
1519 19 52.06324156696684 3.8035710498798116 2.6330764755777323 -1 0 0
1525 17 54.60915908776427 2.7567306499680018 0.7730263054383159 -1 0 0
1521 14 52.229999080937866 4.027520827204584 2.5042170898360316 -1 0 0
1360 18 57.03823477219437 1.433753486785807 2.669703953064909 -1 0 0
1522 20 54.473234102383074 5.517757182545891 1.6523235787052086 -1 0 0
1367 15 57.09646396572131 1.4262823397788524 2.6464670740266634 -1 0 0
1526 1 56.71632151556391 3.8316259367083463 1.7903996791213934 -1 0 0
1368 16 59.151197417779535 0.6778746822532882 2.198676254256035 -1 0 0
1531 19 59.003577319538394 3.8035710492517802 2.633076474868743 -1 0 0
1537 17 61.54949483971513 2.7567306501091364 0.7730263057777014 -1 0 0
1527 2 59.411873778097856 2.5256708015089964 0.41267757400797406 -1 0 0
1533 14 59.17033483304849 4.027520826622763 2.5042170890824424 -1 0 0
1534 20 61.41356985467864 5.517757182962579 1.6523235790840376 -1 0 0
1374 4 63.17607654905449 0.8191746695154734 0.29393594320030414 -1 0 0
1372 18 63.97857052482257 1.433753486768986 2.669703953113598 -1 0 0
1380 16 66.0915331700408 0.677874682594115 2.198676254204869 -1 0 0
1543 19 65.9439130718523 3.8035710486901326 2.6330764740103594 -1 0 0
1539 2 66.35220952995508 2.5256708021412866 0.4126775759519146 -1 0 0
1545 14 66.11067058521996 4.02752082615726 2.504217088234528 -1 0 0
1549 17 68.48983059186882 2.756730649628532 0.7730263056252341 -1 0 0
1546 20 68.35390560636982 5.517757182719302 1.6523235791168502 -1 0 0
1379 15 64.03679971802134 1.4262823398982416 2.6464670740978673 -1 0 0
1538 1 63.65665726742522 3.8316259370008536 1.7903996789098713 -1 0 0
1386 4 70.11641230075604 0.8191746689765756 0.29393594305873033 -1 0 0
1384 18 70.91890627701748 1.4337534863632784 2.6697039525731667 -1 0 0
1392 16 73.03186892224967 0.6778746826206701 2.198676253880416 -1 0 0
1555 19 72.88424882406039 3.803571048643319 2.6330764733878333 -1 0 0
1551 2 73.29254528231125 2.52567080272316 0.41267757755101797 -1 0 0
1557 14 73.0510063371805 4.027520825759434 2.5042170878128087 -1 0 0
1391 15 70.97713546991751 1.426282339523913 2.6464670735607565 -1 0 0
1550 1 70.5969930196202 3.8316259366434835 1.7903996782285998 -1 0 0
1398 4 77.0567480533394 0.819174669358245 0.29393594296815406 -1 0 0
1396 18 77.85924202902801 1.4337534865505535 2.6697039529041233 -1 0 0
1404 16 79.97220467414817 0.6778746824345206 2.1986762541230322 -1 0 0
1561 17 75.43016634420276 2.7567306498193207 0.773026305457996 -1 0 0
1567 19 79.82458457605618 3.803571048663293 2.6330764735695937 -1 0 0
1569 14 79.99134208928231 4.02752082587728 2.504217087895752 -1 0 0
1558 20 75.29424135849658 5.5177571834490795 1.652323579562982 -1 0 0
1403 15 77.9174712219038 1.4262823397475999 2.6464670738496574 -1 0 0
1562 1 77.53732877138175 3.8316259369413523 1.7903996785914227 -1 0 0
1563 2 80.23288103378542 2.52567080197261 0.4126775761759175 -1 0 0
1410 4 83.99708380521687 0.8191746684921284 0.2939359431263839 -1 0 0
1408 18 84.79957778121383 1.4337534862456474 2.669703952886385 -1 0 0
1573 17 82.3705020963939 2.7567306490991093 0.7730263053919727 -1 0 0
1570 20 82.23457711022105 5.51775718366791 1.6523235788318316 -1 0 0
1574 1 84.4776645235505 3.831625936498674 1.790399678048942 -1 0 0
1415 15 84.85780697397486 1.426282339391006 2.6464670738756206 -1 0 0
1575 2 87.17321678660944 2.525670801263457 0.41267757381790254 -1 0 0
1416 16 86.91254042642849 0.6778746822420821 2.19867625418229 -1 0 0
1422 4 90.93741955725491 0.8191746690505238 0.2939359432557359 -1 0 0
1579 19 86.76492032771932 3.803571049151767 2.633076474273057 -1 0 0
1585 17 89.3108378482 2.7567306497329476 0.7730263054824705 -1 0 0
1581 14 86.93167784131276 4.0275208263996705 2.5042170886102473 -1 0 0
1582 20 89.17491286264926 5.517757182861021 1.6523235787250445 -1 0 0
1586 1 91.41800027577695 3.8316259367670464 1.7903996786027643 -1 0 0
1597 17 96.25117360009817 2.756730650203403 0.7730263056695411 -1 0 0
1420 18 91.73991353299402 1.4337534865424082 2.6697039530610165 -1 0 0
1428 16 93.85287617848869 0.6778746824965654 2.1986762539862625 -1 0 0
1591 19 93.70525608010449 3.8035710489455843 2.6330764740681585 -1 0 0
1587 2 94.11355253855038 2.5256708022348966 0.4126775757975092 -1 0 0
1593 14 93.8720135934567 4.0275208262279 2.504217088373702 -1 0 0
1594 20 96.11524861495951 5.5177571831859415 1.6523235788799824 -1 0 0
1427 15 91.79814272614631 1.4262823396135276 2.646467074023011 -1 0 0
1602 4 0.713054780483724 6.829681741516401 0.293935943199955 0 0 0
1600 18 1.5155487558134164 7.444260558837967 2.6697039530647406 0 0 0
1608 16 3.6285114012880855 6.6883817545017825 2.1986762542044533 0 0 0
1771 19 3.480891303009786 9.814078121216374 2.6330764744207444 0 0 0
1767 2 3.8891877613344676 8.536177873820877 0.4126775746349745 0 0 0
1773 14 3.647648816473216 10.038027898528481 2.5042170886900705 0 0 0
1607 15 1.5737779491330686 7.436789411903061 2.6464670740144047 0 0 0
1766 1 1.1936354988198785 9.842133008954388 1.7903996788510501 0 0 0
1614 4 7.653390532266513 6.829681741379153 0.2939359431266504 0 0 0
1612 18 8.45588450810161 7.444260558668417 2.6697039528002784 0 0 0
1620 16 10.568847153420311 6.6883817545926725 2.1986762541368496 0 0 0
1777 17 6.026808823115505 8.767237721915858 0.7730263056283063 0 0 0
1783 19 10.421227055096955 9.814078121106819 2.6330764740760784 0 0 0
1779 2 10.829523513493367 8.536177874072653 0.4126775754143987 0 0 0
1785 14 10.58798456844704 10.038027898375612 2.504217088390568 0 0 0
1619 15 8.514113701163662 7.43678941178615 2.646467073778561 0 0 0
1778 1 8.133971250759972 9.842133008862659 1.7903996786332572 0 0 0
1626 4 14.593726284466747 6.829681741482752 0.2939359431241198 0 0 0
1624 18 15.396220260203107 7.444260558690004 2.6697039528987214 0 0 0
1789 17 12.96714457532371 8.767237721995178 0.7730263055607193 0 0 0
1790 1 15.074307002818276 9.842133008946146 1.7903996786972645 0 0 0
1631 15 15.45444945318279 7.436789411826068 2.6464670738988696 0 0 0
1791 2 17.769859265382742 8.536177874341748 0.41267757626727297 0 0 0
1632 16 17.509182905492736 6.688381754658379 2.1986762541302913 0 0 0
1638 4 21.534062036543432 6.8296817412567785 0.29393594300615433 0 0 0
1636 18 22.336556012449304 7.444260558574609 2.6697039527972564 0 0 0
1795 19 17.361562807380594 9.8140781209538 2.633076473867107 0 0 0
1801 17 19.90748032751124 8.767237721764136 0.7730263055376227 0 0 0
1797 14 17.52832032058072 10.038027898161623 2.504217088220064 0 0 0
1802 1 22.014642754814 9.842133008867554 1.790399678409893 0 0 0
1643 15 22.39478520526572 7.436789411751975 2.64646707378889 0 0 0
1803 2 24.710195017603382 8.536177873507759 0.41267757422356705 0 0 0
1644 16 24.449518657456327 6.688381754431384 2.198676254248799 0 0 0
1650 4 28.474397788785602 6.829681741191368 0.2939359430431052 0 0 0
1807 19 24.301898559105513 9.814078121195823 2.6330764742791892 0 0 0
1813 17 26.847816079756857 8.767237721748739 0.7730263055441549 0 0 0
1809 14 24.468656072641213 10.038027898449217 2.5042170886323003 0 0 0
1648 18 29.276891764335264 7.444260558627534 2.6697039531810756 0 0 0
1656 16 31.389854409713436 6.688381754576047 2.1986762540102274 0 0 0
1819 19 31.2422343114139 9.814078120894301 2.6330764739303136 0 0 0
1815 2 31.65053076956619 8.536177874214937 0.4126775757483787 0 0 0
1821 14 31.408991824760133 10.03802789816433 2.5042170882585424 0 0 0
1825 17 33.78815183165377 8.767237721769428 0.7730263057293151 0 0 0
1655 15 29.335120957429066 7.436789411762178 2.646467074065324 0 0 0
1814 1 28.954978507054054 9.842133008953246 1.7903996785674074 0 0 0
1662 4 35.41473354060385 6.829681741206184 0.29393594302171905 0 0 0
1660 18 36.217227516586846 7.444260558526231 2.669703953006741 0 0 0
1668 16 38.33019016180021 6.688381754642581 2.1986762540278004 0 0 0
1831 19 38.18257006354112 9.814078121009219 2.633076473932996 0 0 0
1827 2 38.59086652185568 8.536177874305496 0.41267757586626874 0 0 0
1833 14 38.34932757681624 10.038027898244174 2.5042170882880477 0 0 0
1667 15 36.275456709508454 7.436789411685245 2.6464670739270666 0 0 0
1826 1 35.89531425904066 9.842133008937145 1.7903996785066625 0 0 0
1674 4 42.35506929280454 6.829681741417411 0.2939359430898657 0 0 0
1672 18 43.15756326871275 7.4442605586510995 2.6697039530934634 0 0 0
1680 16 45.270525913742524 6.6883817546234186 2.1986762540665232 0 0 0
1837 17 40.728487583710375 8.767237721992338 0.7730263057503058 0 0 0
1843 19 45.12290581559555 9.814078120787812 2.6330764739063723 0 0 0
1839 2 45.53120227371506 8.53617787429443 0.4126775760987953 0 0 0
1845 14 45.289663328981895 10.038027898143362 2.504217088204293 0 0 0
1679 15 43.21579246161431 7.436789411827329 2.646467074054878 0 0 0
1838 1 42.83565001115345 9.84213300908549 1.790399678668474 0 0 0
1518 4 49.29540504475037 6.829681741175978 0.293935943022197 -1 0 0
1516 18 50.09789902086628 7.444260558585367 2.669703952999718 -1 0 0
1681 17 47.668823335805556 8.767237721763552 0.7730263057250332 -1 0 0
1682 1 49.77598576328941 9.84213300901016 1.7903996783637808 -1 0 0
1523 15 50.15612821378167 7.436789411772459 2.646467073929245 -1 0 0
1683 2 52.47153802580723 8.536177875283345 0.41267757876552924 -1 0 0
1524 16 52.2108616660484 6.6883817549165405 2.1986762538686535 -1 0 0
1530 4 56.23574079686272 6.829681741133457 0.29393594288531405 -1 0 0
1687 19 52.06324156798207 9.814078120400179 2.6330764730682885 -1 0 0
1693 17 54.60915908798478 8.767237721725278 0.7730263055290707 -1 0 0
1689 14 52.229999081028865 10.038027897673427 2.504217087422705 -1 0 0
1528 18 57.03823477303203 7.444260558413121 2.6697039526987862 -1 0 0
1535 15 57.096463965639465 7.436789411661807 2.646467073679244 -1 0 0
1694 1 56.71632151509455 9.842133008884133 1.790399678224138 -1 0 0
1536 16 59.15119741780862 6.68838175424824 2.1986762542177463 -1 0 0
1699 19 59.00357731931169 9.814078121242416 2.6330764743797332 -1 0 0
1705 17 61.54949484024271 8.767237721668032 0.773026305521721 -1 0 0
1695 2 59.411873778000384 8.536177873080183 0.4126775732697097 -1 0 0
1701 14 59.17033483303076 10.038027898470085 2.504217088766409 -1 0 0
1542 4 63.176076549255285 6.829681741122425 0.29393594309627497 -1 0 0
1540 18 63.97857052464486 7.444260558662326 2.669703953318128 -1 0 0
1548 16 66.09153317030106 6.688381754786876 2.198676253891645 -1 0 0
1711 19 65.94391307215086 9.814078120724801 2.6330764735177974 -1 0 0
1707 2 66.35220952999373 8.536177874944883 0.41267757749163597 -1 0 0
1713 14 66.110670585158 10.038027897947599 2.5042170878365932 -1 0 0
1717 17 68.48983059189703 8.767237721794785 0.7730263058142804 -1 0 0
1547 15 64.03679971794573 7.436789411755912 2.6464670741360568 -1 0 0
1706 1 63.65665726759461 9.842133008977285 1.7903996785715992 -1 0 0
1554 4 70.11641230089113 6.829681741090675 0.29393594312647187 -1 0 0
1552 18 70.91890627717493 7.44426055839365 2.669703952958012 -1 0 0
1560 16 73.03186892200048 6.688381754200358 2.1986762542635323 -1 0 0
1723 19 72.8842488232687 9.814078121392336 2.633076474869872 -1 0 0
1719 2 73.29254528234479 8.536177872654925 0.4126775716594041 -1 0 0
1725 14 73.05100633718732 10.038027898844675 2.504217089139291 -1 0 0
1559 15 70.97713546977184 7.436789411594678 2.6464670739927247 -1 0 0
1718 1 70.59699301919113 9.8421330088867 1.7903996785323493 -1 0 0
1566 4 77.05674805312108 6.829681741265837 0.29393594336847617 -1 0 0
1564 18 77.85924202898121 7.444260558711739 2.6697039535572706 -1 0 0
1572 16 79.97220467438612 6.688381754754264 2.1986762539224434 -1 0 0
1729 17 75.43016634414201 8.76723772205079 0.7730263059331308 -1 0 0
1735 19 79.82458457597203 9.814078121034646 2.6330764745603874 -1 0 0
1737 14 79.9913420894789 10.038027898531576 2.504217088788003 -1 0 0
1571 15 77.91747122234815 7.436789411757449 2.646467074459353 -1 0 0
1730 1 77.5373287718728 9.842133009177438 1.7903996788996839 -1 0 0
1731 2 80.23288103471336 8.536177874775102 0.4126775759542981 -1 0 0
1578 4 83.99708380476596 6.829681742213937 0.2939359432510832 -1 0 0
1576 18 84.79957778110666 7.44426055891747 2.6697039527194644 -1 0 0
1741 17 82.37050209534051 8.767237722903017 0.7730263061725317 -1 0 0
1742 1 84.4776645236938 9.842133009331208 1.79039967926089 -1 0 0
1583 15 84.85780697421225 7.436789412072748 2.6464670737661216 -1 0 0
1743 2 87.17321678603533 8.536177875471889 0.41267757897546986 -1 0 0
1584 16 86.91254042619904 6.688381755046855 2.1986762539022067 -1 0 0
1590 4 90.93741955716841 6.8296817415040465 0.29393594315766375 -1 0 0
1747 19 86.76492032841509 9.814078120387522 2.6330764732140186 -1 0 0
1753 17 89.31083784816427 8.76723772203919 0.7730263057298237 -1 0 0
1749 14 86.93167784143147 10.03802789782034 2.504217087457129 -1 0 0
1754 1 91.41800027545922 9.842133008984794 1.7903996785746312 -1 0 0
1765 17 96.25117360035327 8.767237722072938 0.7730263054894544 -1 0 0
1588 18 91.73991353355031 7.444260558551481 2.669703952614992 -1 0 0
1596 16 93.85287617815302 6.68838175430343 2.1986762544515606 -1 0 0
1759 19 93.70525607963661 9.814078121579358 2.6330764749126025 -1 0 0
1755 2 94.11355253857533 8.536177872969205 0.41267757265889576 -1 0 0
1761 14 93.87201359350696 10.038027898926297 2.5042170892301683 -1 0 0
1595 15 91.7981427261314 7.436789411760812 2.6464670737458493 -1 0 0
1770 4 0.713054780225812 12.840188813326222 0.2939359431729516 0 0 0
1768 18 1.515548756092225 13.454767630726284 2.669703952879354 0 0 0
1776 16 3.6285114013799293 12.698888826744735 2.198676253967657 0 0 0
1939 19 3.480891303125446 15.824585192954526 2.6330764738007066 0 0 0
1935 2 3.889187761429136 14.54668494653683 0.4126775763077239 0 0 0
1941 14 3.6476488164502068 16.0485349702537 2.504217088116138 0 0 0
1775 15 1.5737779491592334 13.447296483845928 2.6464670738497666 0 0 0
1934 1 1.1936354988532045 15.852640080946932 1.7903996785105925 0 0 0
1774 20 5.890883837814529 11.52826425503888 1.6523235788801145 0 0 0
1782 4 7.653390532355262 12.840188813492423 0.2939359430623075 0 0 0
1780 18 8.45588450831733 13.45476763071016 2.669703952994457 0 0 0
1788 16 10.568847153331825 12.698888826560829 2.1986762542168576 0 0 0
1945 17 6.0268088233195405 14.777744794079156 0.7730263057091545 0 0 0
1951 19 10.421227055017251 15.824585193222386 2.633076474361996 0 0 0
1947 2 10.829523513459913 14.546684945758681 0.4126775744193507 0 0 0
1953 14 10.587984568549894 16.048534970564326 2.5042170886702264 0 0 0
1787 15 8.514113701223334 13.447296483887301 2.6464670739551863 0 0 0
1946 1 8.133971250657526 15.852640081139441 1.7903996786243443 0 0 0
1786 20 12.831219589924347 11.52826425508351 1.6523235791647135 0 0 0
1794 4 14.593726284464664 12.840188813302783 0.29393594310805754 0 0 0
1792 18 15.396220260334253 13.454767630688004 2.6697039531525073 0 0 0
1957 17 12.967144575463399 14.777744794007367 0.7730263057535319 0 0 0
1958 1 15.07430700300098 15.852640081080553 1.7903996786228915 0 0 0
1799 15 15.454449453406575 13.447296483827726 2.646467074066195 0 0 0
1959 2 17.76985926559973 14.546684946533546 0.41267757617110057 0 0 0
1800 16 17.50918290554364 12.698888826732365 2.1986762539399347 0 0 0
1798 20 19.77155534197612 11.528264255023092 1.6523235792446505 0 0 0
1806 4 21.534062036407335 12.840188813296882 0.2939359429908043 0 0 0
1804 18 22.33655601267168 13.454767630611839 2.6697039532684346 0 0 0
1963 19 17.361562807359377 15.82458519287983 2.633076473866739 0 0 0
1969 17 19.9074803275155 14.777744794020418 0.7730263060434505 0 0 0
1965 14 17.528320320670773 16.04853497021077 2.504217088198605 0 0 0
1970 1 22.014642754971543 15.852640081289392 1.7903996785089922 0 0 0
1811 15 22.39478520554491 13.447296483827213 2.646467074137437 0 0 0
1971 2 24.710195017565617 14.546684947026687 0.41267757738402017 0 0 0
1812 16 24.449518657678947 12.698888826926765 2.198676253797404 0 0 0
1810 20 26.711891093892024 11.528264255032834 1.6523235791527278 0 0 0
1818 4 28.474397788346483 12.840188813299905 0.2939359430291194 0 0 0
1975 19 24.30189855951951 15.824585192587943 2.6330764734106906 0 0 0
1981 17 26.84781607954045 14.777744793959256 0.7730263060251663 0 0 0
1977 14 24.46865607277812 16.048534969963313 2.5042170877346446 0 0 0
1816 18 29.2768917647772 13.454767630537564 2.669703953110675 0 0 0
1824 16 31.389854409806286 12.698888826998834 2.198676253734027 0 0 0
1822 20 33.6522268460432 11.528264255046299 1.6523235787628145 0 0 0
1987 19 31.242234311657484 15.824585192606634 2.6330764732466196 0 0 0
1983 2 31.6505307696815 14.546684947413851 0.4126775783510564 0 0 0
1989 14 31.40899182482219 16.04853496991801 2.5042170875979077 0 0 0
1993 17 33.788151831609305 14.777744794250037 0.7730263058671377 0 0 0
1823 15 29.3351209575301 13.447296483749579 2.646467074017418 0 0 0
1982 1 28.954978506971788 15.85264008123894 1.7903996784822924 0 0 0
1830 4 35.41473354057691 12.840188813632908 0.29393594299553677 0 0 0
1828 18 36.217227516862906 13.45476763069102 2.6697039529339412 0 0 0
1836 16 38.3301901615935 12.69888882664207 2.198676254270996 0 0 0
1999 19 38.18257006335171 15.82458519322593 2.6330764743609176 0 0 0
1995 2 38.590866521769726 14.54668494581524 0.4126775745080343 0 0 0
2001 14 38.34932757690259 16.04853497056022 2.504217088717413 0 0 0
1835 15 36.27545670954007 13.447296483935151 2.6464670739361855 0 0 0
1994 1 35.89531425889519 15.852640081277872 1.7903996786043446 0 0 0
1834 20 40.59256259833775 11.52826425502504 1.652323579050159 0 0 0
1842 4 42.35506929284733 12.840188813332105 0.29393594300770004 0 0 0
1840 18 43.15756326864964 13.45476763069343 2.6697039532129647 0 0 0
1848 16 45.27052591385959 12.69888882680668 2.1986762538827973 0 0 0
2005 17 40.72848758386539 14.77774479398611 0.7730263057961251 0 0 0
2011 19 45.12290581567548 15.824585192766747 2.633076473693598 0 0 0
2007 2 45.531202273742835 14.546684946692654 0.4126775765358009 0 0 0
2013 14 45.28966332896216 16.04853497008501 2.5042170880362473 0 0 0
1847 15 43.21579246169447 13.44729648386348 2.6464670740785867 0 0 0
2006 1 42.83565001131783 15.852640081172702 1.7903996785646097 0 0 0
1846 20 47.53289835028939 11.528264254960126 1.6523235791111646 0 0 0
1686 4 49.295405044769154 12.840188813270638 0.2939359429428074 -1 0 0
1684 18 50.09789902093176 13.454767630517894 2.6697039533382267 -1 0 0
1849 17 47.66882333594032 14.777744793951781 0.7730263060491546 -1 0 0
1850 1 49.775985763212006 15.85264008127621 1.7903996785949596 -1 0 0
1691 15 50.15612821375137 13.447296483734885 2.6464670741801775 -1 0 0
1851 2 52.47153802589181 14.546684946676965 0.41267757645350955 -1 0 0
1692 16 52.21086166596495 12.698888826793304 2.1986762538422324 -1 0 0
1690 20 54.47323410228708 11.52826425510566 1.6523235794087077 -1 0 0
1698 4 56.23574079671947 12.840188813264112 0.29393594310012966 -1 0 0
1855 19 52.06324156774985 15.824585192736713 2.6330764736889987 -1 0 0
1861 17 54.60915908787076 14.777744793956144 0.7730263061285414 -1 0 0
1857 14 52.22999908105153 16.04853497008528 2.504217088016084 -1 0 0
1696 18 57.03823477315513 13.45476763059847 2.66970395337526 -1 0 0
1703 15 57.096463965958314 13.44729648378623 2.6464670742815852 -1 0 0
1862 1 56.716321515251956 15.852640081343747 1.7903996785621408 -1 0 0
1704 16 59.15119741817219 12.698888826989434 2.198676253811969 -1 0 0
1702 20 61.41356985406598 11.528264255374573 1.6523235787665833 -1 0 0
1867 19 59.00357731979652 15.824585192786259 2.6330764736613728 -1 0 0
1873 17 61.5494948396099 14.777744794520608 0.7730263059286044 -1 0 0
1863 2 59.41187377812011 14.546684947121967 0.4126775771779789 -1 0 0
1869 14 59.17033483317128 16.048534970235817 2.504217087936458 -1 0 0
1710 4 63.17607654867327 12.840188813821241 0.293935943114664 -1 0 0
1708 18 63.978570525004116 13.45476763073807 2.6697039527698525 -1 0 0
1716 16 66.09153316990162 12.698888826715116 2.1986762540681672 -1 0 0
1714 20 68.3539056065227 11.528264255362126 1.652323578730687 -1 0 0
1879 19 65.94391307170577 15.824585193157555 2.633076474242319 -1 0 0
1875 2 66.352209530173 14.546684946300042 0.4126775754460064 -1 0 0
1881 14 66.11067058520787 16.048534970481654 2.504217088570735 -1 0 0
1885 17 68.48983059171356 14.777744794226493 0.7730263057319102 -1 0 0
1715 15 64.03679971782658 13.447296483925184 2.646467073810461 -1 0 0
1874 1 63.65665726737997 15.85264008125546 1.790399678847965 -1 0 0
1722 4 70.11641230104891 12.840188813931789 0.2939359432417848 -1 0 0
1720 18 70.9189062768684 13.454767631018072 2.6697039529291935 -1 0 0
1728 16 73.03186892223016 12.698888827264504 2.198676254061039 -1 0 0
1891 19 72.88424882438227 15.824585192663754 2.6330764731256036 -1 0 0
1887 2 73.29254528177307 14.546684947900697 0.41267757999904475 -1 0 0
1893 14 73.05100633718273 16.048534969899563 2.504217087412835 -1 0 0
1727 15 70.97713546999236 13.44729648414479 2.6464670739332266 -1 0 0
1886 1 70.59699301942537 15.852640081297876 1.7903996788583234 -1 0 0
1726 20 75.29424135841485 11.528264254642332 1.6523235779791015 -1 0 0
1734 4 77.05674805300848 12.84018881373801 0.2939359430023783 -1 0 0
1732 18 77.85924202894606 13.45476763068038 2.669703951844938 -1 0 0
1740 16 79.97220467377313 12.698888826022888 2.1986762547935066 -1 0 0
1897 17 75.4301663437541 14.777744794112667 0.7730263050708118 -1 0 0
1903 19 79.824584575203 15.824585194041335 2.6330764750696467 -1 0 0
1905 14 79.99134208904327 16.048534971084713 2.5042170895095306 -1 0 0
1739 15 77.91747122137002 13.44729648389616 2.6464670731119884 -1 0 0
1898 1 77.53732877104038 15.852640080639766 1.790399678462952 -1 0 0
1899 2 80.23288103404258 14.546684943725605 0.4126775703283543 -1 0 0
1738 20 82.23457711127571 11.528264254814188 1.652323578784921 -1 0 0
1746 4 83.99708380600867 12.840188813051803 0.2939359432681935 -1 0 0
1744 18 84.79957778044663 13.454767630846616 2.6697039532676 -1 0 0
1909 17 82.37050209683224 14.77774479327649 0.7730263048444336 -1 0 0
1910 1 84.47766452370219 15.852640080643864 1.7903996785688037 -1 0 0
1751 15 84.85780697392318 13.447296483813076 2.6464670741699137 -1 0 0
1911 2 87.1732167865206 14.546684944291188 0.41267757050196807 -1 0 0
1752 16 86.9125404262238 12.698888826062605 2.1986762546159992 -1 0 0
1750 20 89.17491286275197 11.528264255301501 1.652323579065219 -1 0 0
1758 4 90.93741955737165 12.840188813527583 0.29393594326261063 -1 0 0
1915 19 86.76492032749458 15.824585194209934 2.633076475747734 -1 0 0
1921 17 89.31083784788855 14.77774479414723 0.7730263053377815 -1 0 0
1917 14 86.93167784131538 16.048534971415634 2.5042170899855187 -1 0 0
1922 1 91.41800027584857 15.85264008076486 1.790399678937797 -1 0 0
1933 17 96.25117360029184 14.777744793957245 0.7730263056011867 -1 0 0
1756 18 91.73991353257783 13.454767630986769 2.6697039528748014 -1 0 0
1764 16 93.85287617836714 12.69888882655254 2.1986762542461347 -1 0 0
1762 20 96.11524861479602 11.5282642550923 1.6523235790698934 -1 0 0
1927 19 93.70525608002073 15.824585193292656 2.6330764743510087 -1 0 0
1923 2 94.11355253844876 14.54668494573464 0.41267757439499864 -1 0 0
1929 14 93.87201359334536 16.04853497059179 2.5042170886205044 -1 0 0
1763 15 91.79814272606767 13.447296483983235 2.64646707387225 -1 0 0
1936 18 1.515548756057525 19.46527470283607 2.6697039528472986 0 0 0
1938 4 0.713054780127726 18.85069588557195 0.2939359431471588 0 0 0
1944 16 3.628511401294749 18.709395898787864 2.1986762540806537 0 0 0
2103 2 3.88918776138527 20.55719201828506 0.4126775754522732 0 0 0
2107 19 3.48089130305413 21.83509226517786 2.633076474003759 0 0 0
2109 14 3.6476488163953604 22.059042042450596 2.5042170883420396 0 0 0
1943 15 1.573777949061202 19.457803555972347 2.64646707385039 0 0 0
2102 1 1.1936354987104012 21.863147153100243 1.7903996786593706 0 0 0
1942 20 5.890883837848119 17.538771327187398 1.652323578970916 0 0 0
1948 18 8.455884508270413 19.465274702831984 2.669703953100074 0 0 0
1950 4 7.653390532384472 18.85069588556069 0.2939359431152923 0 0 0
1956 16 10.568847153457432 18.70939589889737 2.1986762539765645 0 0 0
2113 17 6.026808823344669 20.788251866133 0.7730263057317339 0 0 0
2115 2 10.82952351335704 20.557192018750097 0.41267757652920434 0 0 0
2119 19 10.421227055217216 21.83509226498758 2.6330764737982286 0 0 0
2121 14 10.587984568563012 22.05904204233701 2.5042170880968797 0 0 0
1955 15 8.51411370125134 19.457803555985194 2.6464670740398124 0 0 0