LAMMPS data file via write_data, version 29 Aug 2024, timestep = 156, units = metal

5712 atoms
24 atom types

0 97.16470052912 xlo xhi
0 102.178620225632 ylo yhi
-50 50 zlo zhi

Masses

1 51.9961
2 51.9961
3 51.9961
4 51.9961
5 51.9961
6 51.9961
7 51.9961
8 51.9961
9 127.6
10 127.6
11 127.6
12 127.6
13 127.6
14 127.6
15 127.6
16 127.6
17 127.6
18 127.6
19 127.6
20 127.6
21 127.6
22 127.6
23 127.6
24 127.6

Atoms # atomic

1434 4 0.7043024285787907 0.9349571660601833 0.03016130076938722 0 0 0
1432 14 1.755625357218839 1.7132850555383632 2.248983655725799 0 0 0
1440 12 3.5594089011763628 1.1289919391268466 1.8662516816187653 0 0 0
1603 15 3.6443403210968777 3.9777227765994057 2.383945548728956 0 0 0
1599 2 4.303028950408405 2.8791366240706284 0.12780611617104792 0 0 0
1605 10 3.747121527023454 4.42331805892021 2.1171919578854346 0 0 0
1439 11 1.8177758599158087 1.7131894426870198 2.2304064101821997 0 0 0
1598 1 1.3687847524914947 4.043549906492481 1.21378986717649 0 0 0
1446 4 7.644638180657371 0.9349571660583992 0.03016130076660984 0 0 0
1444 14 8.695961109297272 1.7132850555339052 2.248983655724565 0 0 0
1452 12 10.499744653266903 1.1289919391261591 1.866251681612252 0 0 0
1609 13 6.089220866265989 2.935077272596803 0.5103876337956965 0 0 0
1615 15 10.584676073181578 3.9777227765904937 2.3839455487138705 0 0 0
1611 2 11.243364702479587 2.8791366240779586 0.12780611620264973 0 0 0
1617 10 10.687457279107988 4.423318058910059 2.117191957874948 0 0 0
1445 3 6.220601266694512 2.0249844939512576 2.9143780874473197 0 0 0
1451 11 8.758111611994318 1.7131894426817689 2.230406410179397 0 0 0
1610 1 8.309120504572869 4.043549906490789 1.2137898671774976 0 0 0
1458 4 14.584973932735393 0.9349571660601671 0.03016130076759431 0 0 0
1456 14 15.636296861375623 1.7132850555349615 2.248983655726059 0 0 0
1621 13 13.029556618346133 2.9350772725988774 0.5103876337949688 0 0 0
1457 3 13.160937018767093 2.024984493962096 2.914378087450543 0 0 0
1622 1 15.249456256650713 4.04354990649152 1.2137898671770353 0 0 0
1463 11 15.698447364074509 1.7131894426820733 2.2304064101791177 0 0 0
1623 2 18.183700454562867 2.8791366240718266 0.12780611618825993 0 0 0
1464 12 17.440080405339252 1.1289919391243532 1.8662516816169281 0 0 0
1470 4 21.52530968481778 0.9349571660589462 0.030161300767435797 0 0 0
1468 14 22.576632613456326 1.713285055536497 2.248983655726042 0 0 0
1627 15 17.52501182525858 3.9777227765961394 2.3839455487207504 0 0 0
1633 13 19.969892370428383 2.935077272597853 0.5103876337950758 0 0 0
1629 10 17.627793031187384 4.423318058915078 2.1171919578803804 0 0 0
1469 3 20.101272770850372 2.0249844939569703 2.914378087449172 0 0 0
1634 1 22.189792008727338 4.0435499064912594 1.213789867174884 0 0 0
1475 11 22.63878311615334 1.7131894426843595 2.2304064101789987 0 0 0
1635 2 25.12403620665136 2.879136624072919 0.12780611616294768 0 0 0
1476 12 24.38041615742828 1.1289919391262802 1.8662516816225803 0 0 0
1482 4 28.465645436897056 0.9349571660597376 0.030161300767269396 0 0 0
1639 15 24.465347577335184 3.9777227766002494 2.383945548733045 0 0 0
1645 13 26.910228122503796 2.9350772725963004 0.5103876337976364 0 0 0
1641 10 24.568128783260715 4.423318058926516 2.1171919578912526 0 0 0
1481 3 27.041608522937 2.0249844939484762 2.9143780874484864 0 0 0
1480 14 29.516968365537195 1.7132850555346992 2.2489836557247007 0 0 0
1488 12 31.320751909495474 1.1289919391313654 1.8662516816036436 0 0 0
1651 15 31.4056833294276 3.977722776581531 2.383945548702164 0 0 0
1647 2 32.064371958708826 2.8791366240847185 0.1278061162269432 0 0 0
1653 10 31.508464535349756 4.423318058906022 2.117191957864051 0 0 0
1657 13 33.85056387458679 2.9350772725953864 0.5103876337937655 0 0 0
1487 11 29.5791188682346 1.7131894426829999 2.23040641017904 0 0 0
1646 1 29.130127760813757 4.043549906493093 1.213789867179196 0 0 0
1493 3 33.98194427500143 2.0249844939671378 2.9143780874526906 0 0 0
1494 4 35.40598118897835 0.934957166059285 0.030161300769061452 0 0 0
1492 14 36.45730411761672 1.7132850555356722 2.2489836557295817 0 0 0
1500 12 38.26108766157242 1.1289919391288343 1.8662516816129506 0 0 0
1663 15 38.34601908149934 3.977722776594404 2.383945548721114 0 0 0
1659 2 39.0047077108032 2.879136624076514 0.12780611618572366 0 0 0
1665 10 38.44880028742768 4.423318058919342 2.1171919578813707 0 0 0
1499 11 36.5194546203159 1.7131894426824075 2.2304064101802137 0 0 0
1658 1 36.07046351288958 4.043549906491633 1.2137898671780605 0 0 0
1506 4 42.34631694105657 0.9349571660598541 0.030161300767795773 0 0 0
1504 14 43.3976398696972 1.713285055533997 2.2489836557262897 0 0 0
1512 12 45.201423413659164 1.1289919391262715 1.8662516816085193 0 0 0
1669 13 40.79089962666603 2.9350772725983907 0.51038763379526 0 0 0
1675 15 45.28635483358321 3.9777227765879033 2.38394554870768 0 0 0
1677 10 45.389136039512636 4.423318058905254 2.117191957869408 0 0 0
1505 3 40.92228002709181 2.0249844939577035 2.914378087448953 0 0 0
1511 11 43.45979037239538 1.7131894426815553 2.2304064101800285 0 0 0
1670 1 43.010799264975304 4.0435499064915295 1.213789867178439 0 0 0
1671 2 45.945043462876534 2.8791366240772462 0.1278061162133551 0 0 0
1350 4 49.28665269313858 0.9349571660597443 0.030161300769181523 -1 0 0
1348 14 50.337975621777076 1.7132850555378716 2.248983655728735 -1 0 0
1513 13 47.73123537874948 2.9350772725993077 0.5103876337943091 -1 0 0
1349 3 47.86261577916452 2.024984493966059 2.9143780874513467 -1 0 0
1514 1 49.951135017045374 4.043549906491003 1.21378986717546 -1 0 0
1355 11 50.400126124475484 1.713189442685068 2.2304064101813683 -1 0 0
1515 2 52.88537921497865 2.8791366240620584 0.12780611613494802 -1 0 0
1356 12 52.14175916573032 1.1289919391234569 1.8662516816278898 -1 0 0
1362 4 56.22698844521648 0.9349571660573354 0.030161300764460993 -1 0 0
1519 15 52.22669058564904 3.97772277661155 2.3839455487461993 -1 0 0
1525 13 54.67157113082328 2.9350772725948095 0.5103876337962736 -1 0 0
1521 10 52.32947179157937 4.423318058933071 2.117191957901086 -1 0 0
1361 3 54.80295153126221 2.024984493939999 2.9143780874442027 -1 0 0
1526 1 56.89147076913405 4.043549906492385 1.2137898671759049 -1 0 0
1360 14 57.278311373856475 1.713285055534154 2.248983655721068 -1 0 0
1368 12 59.08209491784188 1.1289919391311285 1.8662516816069465 -1 0 0
1531 15 59.167026337748574 3.977722776577882 2.3839455486994203 -1 0 0
1537 13 61.61190688290305 2.9350772725962297 0.5103876337955914 -1 0 0
1527 2 59.82571496702944 2.8791366240903358 0.1278061162349548 -1 0 0
1533 10 59.26980754366702 4.423318058905632 2.1171919578621528 -1 0 0
1367 11 57.34046187655139 1.7131894426832335 2.2304064101766063 -1 0 0
1373 3 61.743287283320655 2.0249844939693875 2.9143780874550465 -1 0 0
1374 4 63.167324197292494 0.934957166060322 0.030161300768003184 -1 0 0
1372 14 64.218647125935 1.7132850555328207 2.2489836557262257 -1 0 0
1380 12 66.0224306698956 1.1289919391293148 1.8662516816038521 -1 0 0
1543 15 66.10736208982787 3.9777227765813716 2.3839455486966816 -1 0 0
1539 2 66.76605071910714 2.8791366240836074 0.12780611623769655 -1 0 0
1545 10 66.21014329575465 4.423318058903246 2.117191957860799 -1 0 0
1549 13 68.55224263499194 2.935077272600009 0.5103876337933114 -1 0 0
1379 11 64.2807976286349 1.7131894426793288 2.23040641017656 -1 0 0
1538 1 63.83180652121374 4.043549906492743 1.2137898671788048 -1 0 0
1386 4 70.10765994937866 0.9349571660609706 0.03016130076949928 -1 0 0
1384 14 71.15898287801635 1.713285055538331 2.248983655730354 -1 0 0
1392 12 72.96276642198305 1.1289919391244472 1.8662516816319905 -1 0 0
1555 15 73.04769784188831 3.9777227766120338 2.383945548750971 -1 0 0
1551 2 73.7063864712242 2.879136624064618 0.1278061161249042 -1 0 0
1557 10 73.15047904781864 4.423318058939673 2.117191957907684 -1 0 0
1385 3 68.68362303539948 2.0249844939726525 2.91437808745323 -1 0 0
1391 11 71.22113338071529 1.7131894426850516 2.2304064101798784 -1 0 0
1550 1 70.77214227328393 4.043549906491307 1.213789867174364 -1 0 0
1398 4 77.04799570146075 0.9349571660584104 0.030161300768742495 -1 0 0
1396 14 78.09931863009956 1.713285055538091 2.2489836557256107 -1 0 0
1404 12 79.90310217404758 1.1289919391342285 1.866251681606538 -1 0 0
1561 13 75.49257838706447 2.935077272595398 0.5103876337995273 -1 0 0
1567 15 79.98803359398309 3.9777227765890704 2.3839455487165337 -1 0 0
1397 3 75.62395878750638 2.0249844939383723 2.914378087446601 -1 0 0
1403 11 78.16146913279495 1.7131894426871848 2.2304064101819594 -1 0 0
1562 1 77.71247802537094 4.043549906493382 1.2137898671784957 -1 0 0
1563 2 80.64672222327654 2.8791366240831855 0.12780611619685925 -1 0 0
1410 4 83.98833145353137 0.9349571660565682 0.03016130076337487 -1 0 0
1408 14 85.03965438217489 1.7132850555283088 2.2489836557213057 -1 0 0
1573 13 82.43291413913983 2.9350772725925784 0.5103876337928369 -1 0 0
1569 10 80.09081479990235 4.423318058917814 2.1171919578745566 -1 0 0
1409 3 82.56429453956724 2.024984493955675 2.9143780874476577 -1 0 0
1574 1 84.65281377745936 4.04354990649032 1.2137898671779823 -1 0 0
1415 11 85.10180488487248 1.71318944267542 2.230406410174006 -1 0 0
1575 2 87.58705797533469 2.8791366240922147 0.12780611628651187 -1 0 0
1416 12 86.84343792615928 1.1289919391268846 1.8662516815958439 -1 0 0
1422 4 90.92866720561526 0.9349571660614715 0.03016130076985532 -1 0 0
1579 15 86.92836934607584 3.9777227765678123 2.383945548673833 -1 0 0
1585 13 89.37324989123057 2.935077272599733 0.5103876337916065 -1 0 0
1581 10 87.03115055199969 4.4233180588834005 2.117191957840657 -1 0 0
1421 3 89.50463029162643 2.0249844939864055 2.9143780874575316 -1 0 0
1597 13 96.31358564330753 2.9350772726006413 0.5103876337985703 -1 0 0
1420 14 91.97999013425256 1.7132850555360553 2.2489836557318914 -1 0 0
1428 12 93.78377367821943 1.128991939121747 1.8662516816297023 -1 0 0
1591 15 93.86870509812915 3.9777227766100984 2.383945548743748 -1 0 0
1587 2 94.52739372745997 2.8791366240631406 0.1278061161380563 -1 0 0
1593 10 93.97148630406488 4.423318058932885 2.117191957903904 -1 0 0
1433 3 96.44496604374446 2.0249844939469193 2.9143780874471266 -1 0 0
1427 11 92.04214063695369 1.713189442681402 2.230406410179656 -1 0 0
1586 1 91.59314952952468 4.043549906490827 1.213789867176064 -1 0 0
1602 4 0.7043024285781496 6.945464238154729 0.030161300766310833 0 0 0
1600 14 1.7556253572191167 7.7237921276311505 2.248983655722783 0 0 0
1608 12 3.559408901188805 7.139499011221181 1.8662516816136534 0 0 0
1771 15 3.644340321100755 9.988229848688519 2.3839455487166976 0 0 0
1767 2 4.303028950402365 8.889643696171282 0.12780611619682067 0 0 0
1773 10 3.747121527026648 10.433825131005063 2.117191957875229 0 0 0
1607 11 1.8177758599148648 7.723696514780022 2.2304064101802683 0 0 0
1766 1 1.3687847524947725 10.05405697858696 1.213789867176298 0 0 0
1606 16 5.944546171390103 5.8239070660397285 1.6161560615289066 0 0 0
1614 4 7.644638180657559 6.945464238155522 0.03016130076724848 0 0 0
1612 14 8.695961109295892 7.723792127631577 2.248983655726311 0 0 0
1620 12 10.499744653258821 7.139499011222748 1.866251681616092 0 0 0
1777 13 6.0892208662662854 8.945584344693044 0.5103876337949659 0 0 0
1783 15 10.584676073178418 9.988229848691885 2.38394554872348 0 0 0
1779 2 11.243364702483518 8.889643696170955 0.12780611618266974 0 0 0
1785 10 10.687457279105002 10.433825131015016 2.117191957883507 0 0 0
1613 3 6.220601266687408 8.03549156605454 2.9143780874497605 0 0 0
1619 11 8.758111611994009 7.723696514778889 2.2304064101797003 0 0 0
1778 1 8.309120504569139 10.054056978587727 1.2137898671775633 0 0 0
1618 16 12.884881923467455 5.823907066040567 1.616156061528445 0 0 0
1626 4 14.584973932734837 6.945464238155678 0.03016130076665617 0 0 0
1624 14 15.636296861376158 7.723792127629347 2.24898365572426 0 0 0
1789 13 13.029556618345595 8.945584344694574 0.5103876337954718 0 0 0
1625 3 13.160937018772488 8.035491566051935 2.9143780874485388 0 0 0
1790 1 15.249456256654208 10.054056978587278 1.2137898671770533 0 0 0
1631 11 15.698447364074108 7.723696514776917 2.2304064101780225 0 0 0
1791 2 18.183700454555993 8.889643696173309 0.12780611621529236 0 0 0
1632 12 17.44008040534987 7.139499011220943 1.8662516816119767 0 0 0
1630 16 19.825217675554253 5.823907066041227 1.6161560615336157 0 0 0
1638 4 21.52530968482085 6.9454642381566964 0.030161300770265444 0 0 0
1636 14 22.576632613457107 7.723792127635268 2.2489836557306213 0 0 0
1795 15 17.52501182526349 9.988229848683018 2.383945548707551 0 0 0
1801 13 19.969892370430614 8.945584344694788 0.5103876337954905 0 0 0
1797 10 17.62779303119096 10.433825131001138 2.1171919578689877 0 0 0
1637 3 20.101272770844062 8.035491566061033 2.914378087452616 0 0 0
1802 1 22.18979200872293 10.054056978587937 1.2137898671767275 0 0 0
1643 11 22.638783116155693 7.723696514782556 2.230406410182465 0 0 0
1803 2 25.124036206660758 8.889643696160173 0.1278061161220206 0 0 0
1644 12 24.380416157404408 7.139499011222757 1.866251681627439 0 0 0
1642 16 26.765553427627427 5.82390706603372 1.616156061520307 0 0 0
1650 4 28.465645436897404 6.945464238153829 0.030161300765036238 0 0 0
1807 15 24.465347577328394 9.988229848708334 2.3839455487519707 0 0 0
1813 13 26.91022812250299 8.945584344691424 0.5103876337972173 0 0 0
1809 10 24.56812878325682 10.433825131036187 2.1171919579073983 0 0 0
1649 3 27.041608522946696 8.035491566032618 2.914378087443296 0 0 0
1648 14 29.51696836553862 7.723792127629442 2.2489836557214016 0 0 0
1656 12 31.32075190950862 7.13949901122681 1.866251681600424 0 0 0
1654 16 33.70588917971148 5.823907066042946 1.616156061534616 0 0 0
1819 15 31.405683329430932 9.98822984867184 2.3839455486925796 0 0 0
1815 2 32.064371958704655 8.88964369618505 0.1278061162477451 0 0 0
1821 10 31.508464535350726 10.433825130993636 2.1171919578548706 0 0 0
1825 13 33.85056387458643 8.945584344691918 0.5103876337932731 0 0 0
1655 11 29.579118868234048 7.723696514778539 2.2304064101778613 0 0 0
1814 1 29.130127760817224 10.054056978588195 1.2137898671779 0 0 0
1661 3 33.98194427499597 8.035491566068584 2.914378087454389 0 0 0
1662 4 35.40598118897617 6.9454642381557745 0.030161300768106077 0 0 0
1660 14 36.4573041176152 7.723792127630672 2.248983655728708 0 0 0
1668 12 38.261087661572894 7.139499011223337 1.8662516816138168 0 0 0
1831 15 38.34601908149923 9.988229848690601 2.3839455487186174 0 0 0
1827 2 39.00470771080126 8.889643696171428 0.1278061161904989 0 0 0
1833 10 38.44880028742879 10.433825131014018 2.117191957880188 0 0 0
1667 11 36.51945462031477 7.723696514777035 2.2304064101783947 0 0 0
1826 1 36.07046351288916 10.05405697858784 1.2137898671779161 0 0 0
1666 16 40.64622493178655 5.8239070660422065 1.616156061529677 0 0 0
1674 4 42.34631694105421 6.945464238155288 0.030161300766612192 0 0 0
1672 14 43.39763986969535 7.72379212763005 2.248983655724619 0 0 0
1680 12 45.20142341367471 7.139499011221112 1.8662516816142523 0 0 0
1837 13 40.790899626665485 8.94558434469435 0.5103876337941682 0 0 0
1843 15 45.28635483358284 9.988229848685059 2.383945548709661 0 0 0
1845 10 45.38913603951043 10.433825131004236 2.117191957871516 0 0 0
1673 3 40.92228002709014 8.035491566055445 2.914378087448919 0 0 0
1679 11 43.45979037239319 7.723696514777484 2.2304064101775998 0 0 0
1838 1 43.010799264973926 10.054056978587504 1.2137898671756993 0 0 0
1839 2 45.94504346287872 8.889643696174144 0.12780611621188598 0 0 0
1678 16 47.58656068386934 5.8239070660442085 1.616156061534057 0 0 0
1518 4 49.28665269313603 6.94546423815661 0.030161300769220953 -1 0 0
1516 14 50.33797562177604 7.723792127632548 2.2489836557272924 -1 0 0
1681 13 47.73123537874916 8.945584344696163 0.5103876337959844 -1 0 0
1517 3 47.86261577916629 8.035491566061857 2.9143780874527554 -1 0 0
1682 1 49.95113501704852 10.054056978587768 1.2137898671754794 -1 0 0
1523 11 50.400126124474305 7.723696514779644 2.2304064101793757 -1 0 0
1683 2 52.88537921497193 8.88964369616697 0.12780611616308182 -1 0 0
1524 12 52.14175916574712 7.139499011221305 1.8662516816224168 -1 0 0
1522 16 54.52689643595317 5.823907066036406 1.6161560615260329 -1 0 0
1530 4 56.22698844522178 6.945464238156424 0.030161300768493087 -1 0 0
1687 15 52.22669058565531 9.988229848696337 2.383945548731524 -1 0 0
1693 13 54.671571130826536 8.945584344692765 0.5103876337972161 -1 0 0
1689 10 52.3294717915846 10.433825131020926 2.1171919578905767 -1 0 0
1529 3 54.80295153125617 8.035491566044373 2.914378087448152 -1 0 0
1694 1 56.89147076912767 10.054056978589239 1.2137898671790133 -1 0 0
1528 14 57.2783113738584 7.723792127634375 2.2489836557276233 -1 0 0
1536 12 59.08209491779952 7.139499011227144 1.866251681614028 -1 0 0
1534 16 61.46723218802907 5.823907066036581 1.6161560615240775 -1 0 0
1699 15 59.167026337738086 9.988229848693447 2.3839455487293724 -1 0 0
1705 13 61.61190688290485 8.94558434469139 0.510387633795222 -1 0 0
1695 2 59.8257149670434 8.889643696170513 0.1278061161709409 -1 0 0
1701 10 59.26980754366052 10.433825131021377 2.117191957886314 -1 0 0
1535 11 57.34046187655582 7.723696514782781 2.2304064101824532 -1 0 0
1541 3 61.743287283335974 8.035491566045872 2.9143780874465426 -1 0 0
1542 4 63.16732419729665 6.945464238154594 0.0301613007650269 -1 0 0
1540 14 64.2186471259385 7.723792127628243 2.2489836557227636 -1 0 0
1548 12 66.02243066992024 7.139499011226152 1.8662516816024424 -1 0 0
1546 16 68.40756794011641 5.823907066043792 1.6161560615383672 -1 0 0
1711 15 66.10736208983178 9.988229848668226 2.3839455486883883 -1 0 0
1707 2 66.76605071910475 8.889643696186294 0.12780611625511898 -1 0 0
1713 10 66.21014329575456 10.43382513099233 2.117191957852814 -1 0 0
1717 13 68.55224263499028 8.945584344695162 0.5103876337956565 -1 0 0
1547 11 64.28079762863487 7.723696514776255 2.23040641017585 -1 0 0
1706 1 63.831806521217764 10.054056978588049 1.2137898671776548 -1 0 0
1554 4 70.10765994938053 6.9454642381584355 0.030161300772028107 -1 0 0
1552 14 71.15898287801785 7.723792127635397 2.248983655733486 -1 0 0
1560 12 72.96276642194209 7.139499011223614 1.8662516816227244 -1 0 0
1723 15 73.0476978418885 9.988229848709476 2.3839455487492356 -1 0 0
1719 2 73.70638647121739 8.889643696157759 0.12780611612556017 -1 0 0
1725 10 73.1504790478202 10.433825131035249 2.1171919579051544 -1 0 0
1553 3 68.68362303539561 8.035491566072269 2.9143780874570973 -1 0 0
1559 11 71.22113338071816 7.723696514781771 2.2304064101832943 -1 0 0
1718 1 70.7721422732832 10.054056978588859 1.2137898671791705 -1 0 0
1558 16 75.34790369218655 5.823907066033155 1.6161560615205677 -1 0 0
1566 4 77.04799570145666 6.945464238151703 0.03016130076361196 -1 0 0
1564 14 78.09931863009813 7.723792127629353 2.248983655720563 -1 0 0
1572 12 79.90310217408746 7.1394990112210115 1.8662516816150074 -1 0 0
1729 13 75.49257838706554 8.945584344692133 0.5103876337943932 -1 0 0
1735 15 79.98803359398278 9.988229848684975 2.383945548711686 -1 0 0
1565 3 75.62395878750492 8.035491566034619 2.9143780874412712 -1 0 0
1571 11 78.16146913279219 7.723696514778348 2.2304064101765424 -1 0 0
1730 1 77.71247802537422 10.054056978585669 1.2137898671734453 -1 0 0
1731 2 80.64672222328034 8.889643696176961 0.12780611621101995 -1 0 0
1570 16 82.28823944426418 5.823907066044725 1.6161560615297936 -1 0 0
1578 4 83.98833145353122 6.945464238156602 0.03016130076601225 -1 0 0
1576 14 85.03965438217294 7.723792127628035 2.248983655723628 -1 0 0
1741 13 82.43291413914322 8.945584344693886 0.5103876337954233 -1 0 0
1737 10 80.09081479990425 10.433825131003735 2.1171919578713423 -1 0 0
1577 3 82.56429453956491 8.035491566059017 2.914378087451861 -1 0 0
1742 1 84.65281377745549 10.054056978588706 1.2137898671781848 -1 0 0
1583 11 85.10180488487184 7.723696514774656 2.2304064101755103 -1 0 0
1743 2 87.58705797534665 8.889643696182521 0.12780611624652213 -1 0 0
1584 12 86.84343792615807 7.139499011223074 1.866251681606533 -1 0 0
1582 16 89.22857519635441 5.823907066046616 1.6161560615412423 -1 0 0
1590 4 90.92866720561867 6.945464238157894 0.03016130077256377 -1 0 0
1747 15 86.92836934606972 9.988229848673718 2.3839455486930907 -1 0 0
1753 13 89.37324989123057 8.945584344696124 0.5103876337953506 -1 0 0
1749 10 87.03115055199603 10.43382513099513 2.117191957859845 -1 0 0
1589 3 89.50463029163859 8.03549156607297 2.914378087456911 -1 0 0
1765 13 96.31358564330667 8.945584344695385 0.510387633796947 -1 0 0
1588 14 91.97999013425633 7.7237921276353205 2.2489836557329714 -1 0 0
1596 12 93.783773678202 7.13949901122122 1.8662516816275818 -1 0 0
1594 16 96.16891094842745 5.823907066036442 1.6161560615227906 -1 0 0
1759 15 93.86870509812823 9.98822984870895 2.3839455487488235 -1 0 0
1755 2 94.5273937274612 8.889643696157322 0.12780611612622583 -1 0 0
1761 10 93.9714863040627 10.433825131032895 2.1171919579052894 -1 0 0
1601 3 96.44496604374619 8.035491566037328 2.9143780874434433 -1 0 0
1595 11 92.0421406369572 7.72369651478148 2.230406410182989 -1 0 0
1754 1 91.59314952952488 10.054056978588127 1.213789867177129 -1 0 0
1770 4 0.7043024285767081 12.955971310252092 0.03016130076724721 0 0 0
1768 14 1.755625357216696 13.734299199728243 2.248983655723828 0 0 0
1776 12 3.559408901184848 13.150006083318235 1.8662516816157921 0 0 0
1939 15 3.6443403210989955 15.9987369207876 2.383945548722588 0 0 0
1935 2 4.303028950404809 14.900150768267261 0.12780611618476834 0 0 0
1941 10 3.7471215270250933 16.444332203108104 2.117191957882312 0 0 0
1775 11 1.8177758599136336 13.734203586876664 2.230406410179973 0 0 0
1934 1 1.3687847524919532 16.064564050684137 1.2137898671766056 0 0 0
1774 16 5.944546171388884 11.834414138135465 1.6161560615294397 0 0 0
1782 4 7.644638180655958 12.955971310250831 0.030161300767138705 0 0 0
1780 14 8.695961109295846 13.734299199726433 2.248983655725208 0 0 0
1788 12 10.499744653262246 13.150006083317543 1.8662516816144685 0 0 0
1945 13 6.089220866265348 14.956091416789112 0.5103876337955056 0 0 0
1951 15 10.584676073180209 15.998736920785776 2.383945548717377 0 0 0
1947 2 11.243364702480589 14.900150768267313 0.12780611619583468 0 0 0
1953 10 10.68745727910705 16.44433220310491 2.1171919578775356 0 0 0
1781 3 6.220601266691063 14.045998638147845 2.914378087449222 0 0 0
1787 11 8.758111611993915 13.734203586873953 2.2304064101790706 0 0 0
1946 1 8.309120504571146 16.06456405068311 1.2137898671771257 0 0 0
1786 16 12.884881923467626 11.834414138137669 1.6161560615295183 0 0 0
1794 4 14.58497393273503 12.955971310251526 0.030161300766600847 0 0 0
1792 14 15.63629686137507 13.734299199726236 2.248983655724933 0 0 0
1957 13 13.029556618346572 14.956091416790393 0.510387633794631 0 0 0
1793 3 13.160937018768506 14.04599863815161 2.9143780874494594 0 0 0
1958 1 15.24945625665114 16.064564050683135 1.2137898671759748 0 0 0
1799 11 15.698447364073113 13.734203586873637 2.230406410177823 0 0 0
1959 2 18.183700454563407 14.900150768267242 0.1278061161929974 0 0 0
1800 12 17.44008040535291 13.15000608331634 1.8662516816178993 0 0 0
1798 16 19.82521767555096 11.834414138137044 1.6161560615325956 0 0 0
1806 4 21.525309684817586 12.955971310251648 0.03016130076893565 0 0 0
1804 14 22.576632613456905 13.734299199729387 2.2489836557270135 0 0 0
1963 15 17.525011825259774 15.99873692078562 2.3839455487187724 0 0 0
1969 13 19.96989237042812 14.956091416790454 0.5103876337967961 0 0 0
1965 10 17.62779303118736 16.44433220310648 2.117191957879941 0 0 0
1805 3 20.1012727708505 14.0459986381514 2.9143780874516616 0 0 0
1970 1 22.18979200872703 16.064564050684016 1.2137898671759906 0 0 0
1811 11 22.638783116154855 13.734203586877143 2.2304064101797922 0 0 0
1971 2 25.124036206651343 14.900150768262188 0.12780611615728768 0 0 0
1812 12 24.38041615741197 13.150006083319067 1.8662516816204338 0 0 0
1810 16 26.765553427625434 11.834414138133011 1.6161560615233006 0 0 0
1818 4 28.465645436894636 12.955971310249648 0.030161300764589612 0 0 0
1975 15 24.465347577333937 15.998736920795592 2.3839455487351304 0 0 0
1981 13 26.91022812250265 14.95609141678731 0.5103876337950544 0 0 0
1977 10 24.56812878326133 16.444332203119853 2.117191957892358 0 0 0
1817 3 27.041608522936396 14.045998638138345 2.9143780874456247 0 0 0
1816 14 29.51696836553511 13.734299199724225 2.248983655722183 0 0 0
1824 12 31.320751909511646 13.150006083319521 1.8662516816052162 0 0 0
1822 16 33.705889179708066 11.834414138140831 1.616156061535728 0 0 0
1987 15 31.405683329428 15.998736920773698 2.3839455486987338 0 0 0
1983 2 32.06437195870891 14.900150768277694 0.12780611623673072 0 0 0
1989 10 31.50846453535018 16.444332203092916 2.117191957862109 0 0 0
1993 13 33.850563874585845 14.956091416788842 0.5103876337937042 0 0 0
1823 11 29.579118868231973 13.734203586872578 2.2304064101768293 0 0 0
1982 1 29.130127760814858 16.06456405068318 1.213789867177109 0 0 0
1829 3 33.981944274998945 14.045998638163223 2.9143780874540783 0 0 0
1830 4 35.40598118897312 12.955971310251176 0.030161300767950625 0 0 0
1828 14 36.457304117613425 13.73429919972584 2.248983655727087 0 0 0
1836 12 38.26108766158995 13.150006083317955 1.866251681615329 0 0 0
1999 15 38.346019081500756 15.998736920784395 2.383945548715713 0 0 0
1995 2 39.00470771080217 14.900150768270093 0.127806116198128 0 0 0
2001 10 38.44880028742977 16.44433220310701 2.1171919578787843 0 0 0
1835 11 36.5194546203129 13.73420358687227 2.2304064101770025 0 0 0
1994 1 36.07046351289045 16.064564050683266 1.2137898671761131 0 0 0
1834 16 40.64622493178857 11.834414138140277 1.6161560615321977 0 0 0
1842 4 42.34631694105608 12.955971310253576 0.03016130076896706 0 0 0
1840 14 43.3976398696959 13.734299199728047 2.248983655727474 0 0 0
1848 12 45.20142341365509 13.150006083317146 1.866251681617086 0 0 0
2005 13 40.79089962666742 14.956091416792617 0.5103876337960936 0 0 0
2011 15 45.28635483357781 15.998736920789494 2.3839455487229286 0 0 0
2013 10 45.38913603950868 16.444332203108324 2.117191957882798 0 0 0
1841 3 40.92228002708926 14.045998638154531 2.9143780874514027 0 0 0
1847 11 43.45979037239513 13.734203586875356 2.230406410180469 0 0 0
2006 1 43.01079926497154 16.06456405068433 1.2137898671777714 0 0 0
2007 2 45.94504346288508 14.900150768262773 0.12780611618284346 0 0 0
1846 16 47.58656068387143 11.834414138136347 1.6161560615314818 0 0 0
1686 4 49.286652693139054 12.955971310251451 0.03016130076889675 -1 0 0
1684 14 50.3379756217781 13.73429919972978 2.2489836557272436 -1 0 0
1849 13 47.73123537875015 14.956091416791915 0.5103876337960155 -1 0 0
1685 3 47.862615779172934 14.045998638150019 2.914378087449487 -1 0 0
1850 1 49.95113501704715 16.06456405068295 1.213789867175094 -1 0 0
1691 11 50.40012612447549 13.734203586877683 2.2304064101810885 -1 0 0
1851 2 52.88537921497957 14.900150768257019 0.12780611613934817 -1 0 0
1692 12 52.141759165739664 13.150006083316002 1.8662516816276282 -1 0 0
1690 16 54.526896435945524 11.83441413813349 1.6161560615237602 -1 0 0
1698 4 56.22698844521478 12.955971310250423 0.03016130076516671 -1 0 0
1855 15 52.22669058565015 15.99873692080187 2.3839455487446055 -1 0 0
1861 13 54.67157113082441 14.956091416790034 0.5103876337974647 -1 0 0
1857 10 52.32947179157941 16.44433220312337 2.1171919579005096 -1 0 0
1697 3 54.80295153126267 14.045998638135334 2.914378087445521 -1 0 0
1862 1 56.891470769134266 16.064564050683842 1.2137898671758294 -1 0 0
1696 14 57.27831137385684 13.734299199725942 2.248983655720817 -1 0 0
1704 12 59.08209491783483 13.150006083319024 1.8662516816100505 -1 0 0
1702 16 61.467232188029286 11.8344141381383 1.6161560615312922 -1 0 0
1867 15 59.16702633774507 15.998736920777894 2.38394554870655 -1 0 0
1873 13 61.61190688290614 14.956091416788706 0.5103876337943946 -1 0 0
1863 2 59.82571496703466 14.900150768274402 0.12780611621961135 -1 0 0
1869 10 59.269807543667355 16.44433220309838 2.117191957867865 -1 0 0
1703 11 57.340461876552816 13.734203586874633 2.2304064101767276 -1 0 0
1709 3 61.7432872833223 14.04599863815647 2.914378087452288 -1 0 0
1710 4 63.16732419729559 12.955971310251817 0.03016130076691827 -1 0 0
1708 14 64.21864712593428 13.734299199726918 2.2489836557266036 -1 0 0
1716 12 66.02243066990064 13.150006083319443 1.866251681616241 -1 0 0
1714 16 68.40756794010609 11.834414138139085 1.616156061531024 -1 0 0
1879 15 66.10736208981874 15.998736920788566 2.3839455487227763 -1 0 0
1875 2 66.7660507191237 14.900150768269619 0.1278061161864795 -1 0 0
1881 10 66.21014329574483 16.444332203113184 2.1171919578847183 -1 0 0
1885 13 68.55224263498609 14.956091416791784 0.5103876337961399 -1 0 0
1715 11 64.280797628633 13.734203586873942 2.230406410177561 -1 0 0
1874 1 63.83180652120825 16.064564050683995 1.2137898671769305 -1 0 0
1722 4 70.10765994937215 12.955971310251812 0.03016130076612561 -1 0 0
1720 14 71.1589828780158 13.734299199726514 2.2489836557224043 -1 0 0
1728 12 72.96276642200489 13.150006083317509 1.8662516816170096 -1 0 0
1891 15 73.04769784190314 15.998736920780386 2.383945548711033 -1 0 0
1887 2 73.70638647120022 14.900150768271589 0.1278061162092748 -1 0 0
1893 10 73.1504790478287 16.44433220310327 2.1171919578724006 -1 0 0
1721 3 68.68362303541315 14.04599863815081 2.9143780874500975 -1 0 0
1727 11 71.22113338071323 13.73420358687411 2.230406410174404 -1 0 0
1886 1 70.77214227329307 16.06456405068425 1.2137898671738003 -1 0 0
1726 16 75.3479036921907 11.834414138138394 1.6161560615320532 -1 0 0
1734 4 77.04799570145873 12.955971310252734 0.030161300770082767 -1 0 0
1732 14 78.09931863009552 13.734299199728968 2.2489836557300995 -1 0 0
1740 12 79.90310217404226 13.1500060833205 1.8662516816156807 -1 0 0
1897 13 75.49257838706794 14.956091416789699 0.510387633796455 -1 0 0
1903 15 79.98803359397515 15.998736920793794 2.3839455487332217 -1 0 0
1733 3 75.62395878748535 14.04599863815421 2.914378087453175 -1 0 0
1739 11 78.16146913279464 13.734203586876202 2.230406410182074 -1 0 0
1898 1 77.71247802536703 16.064564050684183 1.213789867178944 -1 0 0
1899 2 80.64672222328893 14.900150768264396 0.1278061161600693 -1 0 0
1738 16 82.28823944426807 11.834414138132455 1.6161560615264525 -1 0 0
1746 4 83.98833145353576 12.95597131024996 0.03016130076655459 -1 0 0