LAMMPS data file via write_data, version 29 Aug 2024, timestep = 0, units = metal

2856 atoms
12 atom types

0 97.16470052912 xlo xhi
0 102.178620225632 ylo yhi
0 18.412472625593 zlo zhi

Masses

1 127.6
2 127.6
3 127.6
4 51.9961
5 127.6
6 127.6
7 127.6
8 127.6
9 51.9961
10 51.9961
11 51.9961
12 127.6

Atoms # atomic

1434 4 0 1.0017511786830013 0 0 0 0
1432 10 1.7350839380200043 0 1.7062363127959994 0 0 0
1440 8 3.4701678760400014 1.0017511786830013 0 0 0 0
1438 12 5.205251814059999 0 1.7062363127959994 0 0 0
1446 4 6.940335752080003 1.0017511786830013 0 0 0 0
1444 10 8.6754196901 0 1.7062363127959994 0 0 0
1452 8 10.410503628120004 1.0017511786830013 0 0 0 0
1450 12 12.145587566140001 0 1.7062363127959994 0 0 0
1458 4 13.880671504159999 1.0017511786830013 0 0 0 0
1456 10 15.615755442179996 0 1.7062363127959994 0 0 0
1464 8 17.350839380200007 1.0017511786830013 0 0 0 0
1462 12 19.085923318220004 0 1.7062363127959994 0 0 0
1470 4 20.82100725624 1.0017511786830013 0 0 0 0
1476 8 24.291175132279996 1.0017511786830013 0 0 0 0
1468 10 22.55609119426 0 1.7062363127959994 0 0 0
1474 12 26.026259070300007 0 1.7062363127959994 0 0 0
1482 4 27.761343008320004 1.0017511786830013 0 0 0 0
1480 10 29.49642694634 0 1.7062363127959994 0 0 0
1488 8 31.23151088436 1.0017511786830013 0 0 0 0
1486 12 32.966594822379996 0 1.7062363127959994 0 0 0
1494 4 34.70167876040001 1.0017511786830013 0 0 0 0
1492 10 36.436762698420004 0 1.7062363127959994 0 0 0
1500 8 38.17184663644 1.0017511786830013 0 0 0 0
1498 12 39.90693057446 0 1.7062363127959994 0 0 0
1506 4 41.642014512479996 1.0017511786830013 0 0 0 0
1504 10 43.37709845050001 0 1.7062363127959994 0 0 0
1512 8 45.112182388520004 1.0017511786830013 0 0 0 0
1510 12 46.84726632654 0 1.7062363127959994 0 0 0
1350 4 48.58235026456 1.0017511786830013 0 -1 0 0
1348 10 50.317434202579996 0 1.7062363127959994 -1 0 0
1356 8 52.0525181406 1.0017511786830013 0 -1 0 0
1354 12 53.78760207862 0 1.7062363127959994 -1 0 0
1362 4 55.52268601664 1.0017511786830013 0 -1 0 0
1360 10 57.25776995466 0 1.7062363127959994 -1 0 0
1368 8 58.99285389268 1.0017511786830013 0 -1 0 0
1366 12 60.7279378307 0 1.7062363127959994 -1 0 0
1374 4 62.46302176872 1.0017511786830013 0 -1 0 0
1372 10 64.19810570674 0 1.7062363127959994 -1 0 0
1380 8 65.93318964476 1.0017511786830013 0 -1 0 0
1378 12 67.66827358278 0 1.7062363127959994 -1 0 0
1386 4 69.4033575208 1.0017511786830013 0 -1 0 0
1384 10 71.13844145882 0 1.7062363127959994 -1 0 0
1392 8 72.87352539684 1.0017511786830013 0 -1 0 0
1390 12 74.60860933486 0 1.7062363127959994 -1 0 0
1398 4 76.34369327288 1.0017511786830013 0 -1 0 0
1396 10 78.0787772109 0 1.7062363127959994 -1 0 0
1404 8 79.81386114892 1.0017511786830013 0 -1 0 0
1402 12 81.54894508694 0 1.7062363127959994 -1 0 0
1410 4 83.28402902496 1.0017511786830013 0 -1 0 0
1408 10 85.01911296297999 0 1.7062363127959994 -1 0 0
1416 8 86.754196901 1.0017511786830013 0 -1 0 0
1414 12 88.48928083902 0 1.7062363127959994 -1 0 0
1422 4 90.22436477704 1.0017511786830013 0 -1 0 0
1420 10 91.95944871506 0 1.7062363127959994 -1 0 0
1428 8 93.69453265307999 1.0017511786830013 0 -1 0 0
1426 12 95.4296165911 0 1.7062363127959994 -1 0 0
1597 9 0 3.005253536048002 1.7062363127959994 0 0 0
1603 11 3.4701678760400014 3.005253536048002 1.7062363127959994 0 0 0
1609 9 6.940335752080003 3.005253536048002 1.7062363127959994 0 0 0
1615 11 10.410503628120004 3.005253536048002 1.7062363127959994 0 0 0
1621 9 13.880671504159999 3.005253536048002 1.7062363127959994 0 0 0
1627 11 17.350839380200007 3.005253536048002 1.7062363127959994 0 0 0
1633 9 20.82100725624 3.005253536048002 1.7062363127959994 0 0 0
1639 11 24.291175132279996 3.005253536048002 1.7062363127959994 0 0 0
1645 9 27.761343008320004 3.005253536048002 1.7062363127959994 0 0 0
1651 11 31.23151088436 3.005253536048002 1.7062363127959994 0 0 0
1657 9 34.70167876040001 3.005253536048002 1.7062363127959994 0 0 0
1663 11 38.17184663644 3.005253536048002 1.7062363127959994 0 0 0
1669 9 41.642014512479996 3.005253536048002 1.7062363127959994 0 0 0
1675 11 45.112182388520004 3.005253536048002 1.7062363127959994 0 0 0
1513 9 48.58235026456 3.005253536048002 1.7062363127959994 -1 0 0
1519 11 52.0525181406 3.005253536048002 1.7062363127959994 -1 0 0
1525 9 55.52268601664 3.005253536048002 1.7062363127959994 -1 0 0
1531 11 58.99285389268 3.005253536048002 1.7062363127959994 -1 0 0
1537 9 62.46302176872 3.005253536048002 1.7062363127959994 -1 0 0
1543 11 65.93318964476 3.005253536048002 1.7062363127959994 -1 0 0
1549 9 69.4033575208 3.005253536048002 1.7062363127959994 -1 0 0
1555 11 72.87352539684 3.005253536048002 1.7062363127959994 -1 0 0
1561 9 76.34369327288 3.005253536048002 1.7062363127959994 -1 0 0
1567 11 79.81386114892 3.005253536048002 1.7062363127959994 -1 0 0
1573 9 83.28402902496 3.005253536048002 1.7062363127959994 -1 0 0
1579 11 86.754196901 3.005253536048002 1.7062363127959994 -1 0 0
1585 9 90.22436477704 3.005253536048002 1.7062363127959994 -1 0 0
1591 11 93.69453265307999 3.005253536048002 1.7062363127959994 -1 0 0
1599 2 1.7350839380200043 4.007004714730996 0 0 0 0
1605 6 5.205251814059999 4.007004714730996 0 0 0 0
1611 2 8.6754196901 4.007004714730996 0 0 0 0
1617 6 12.145587566140001 4.007004714730996 0 0 0 0
1623 2 15.615755442179996 4.007004714730996 0 0 0 0
1629 6 19.085923318220004 4.007004714730996 0 0 0 0
1635 2 22.55609119426 4.007004714730996 0 0 0 0
1641 6 26.026259070300007 4.007004714730996 0 0 0 0
1647 2 29.49642694634 4.007004714730996 0 0 0 0
1653 6 32.966594822379996 4.007004714730996 0 0 0 0
1659 2 36.436762698420004 4.007004714730996 0 0 0 0
1665 6 39.90693057446 4.007004714730996 0 0 0 0
1671 2 43.37709845050001 4.007004714730996 0 0 0 0
1677 6 46.84726632654 4.007004714730996 0 0 0 0
1515 2 50.317434202579996 4.007004714730996 0 -1 0 0
1521 6 53.78760207862 4.007004714730996 0 -1 0 0
1527 2 57.25776995466 4.007004714730996 0 -1 0 0
1533 6 60.7279378307 4.007004714730996 0 -1 0 0
1539 2 64.19810570674 4.007004714730996 0 -1 0 0
1545 6 67.66827358278 4.007004714730996 0 -1 0 0
1551 2 71.13844145882 4.007004714730996 0 -1 0 0
1557 6 74.60860933486 4.007004714730996 0 -1 0 0
1563 2 78.0787772109 4.007004714730996 0 -1 0 0
1569 6 81.54894508694 4.007004714730996 0 -1 0 0
1575 2 85.01911296297999 4.007004714730996 0 -1 0 0
1581 6 88.48928083902 4.007004714730996 0 -1 0 0
1587 2 91.95944871506 4.007004714730996 0 -1 0 0
1593 6 95.4296165911 4.007004714730996 0 -1 0 0
1602 4 0 7.012258250778999 0 0 0 0
1600 10 1.7350839380200043 6.010507072095997 1.7062363127959994 0 0 0
1608 8 3.4701678760400014 7.012258250778999 0 0 0 0
1606 12 5.205251814059999 6.010507072095997 1.7062363127959994 0 0 0
1614 4 6.940335752080003 7.012258250778999 0 0 0 0
1612 10 8.6754196901 6.010507072095997 1.7062363127959994 0 0 0
1620 8 10.410503628120004 7.012258250778999 0 0 0 0
1618 12 12.145587566140001 6.010507072095997 1.7062363127959994 0 0 0
1626 4 13.880671504159999 7.012258250778999 0 0 0 0
1624 10 15.615755442179996 6.010507072095997 1.7062363127959994 0 0 0
1632 8 17.350839380200007 7.012258250778999 0 0 0 0
1630 12 19.085923318220004 6.010507072095997 1.7062363127959994 0 0 0
1638 4 20.82100725624 7.012258250778999 0 0 0 0
1644 8 24.291175132279996 7.012258250778999 0 0 0 0
1636 10 22.55609119426 6.010507072095997 1.7062363127959994 0 0 0
1642 12 26.026259070300007 6.010507072095997 1.7062363127959994 0 0 0
1650 4 27.761343008320004 7.012258250778999 0 0 0 0
1648 10 29.49642694634 6.010507072095997 1.7062363127959994 0 0 0
1656 8 31.23151088436 7.012258250778999 0 0 0 0
1654 12 32.966594822379996 6.010507072095997 1.7062363127959994 0 0 0
1662 4 34.70167876040001 7.012258250778999 0 0 0 0
1660 10 36.436762698420004 6.010507072095997 1.7062363127959994 0 0 0
1668 8 38.17184663644 7.012258250778999 0 0 0 0
1666 12 39.90693057446 6.010507072095997 1.7062363127959994 0 0 0
1674 4 41.642014512479996 7.012258250778999 0 0 0 0
1672 10 43.37709845050001 6.010507072095997 1.7062363127959994 0 0 0
1680 8 45.112182388520004 7.012258250778999 0 0 0 0
1678 12 46.84726632654 6.010507072095997 1.7062363127959994 0 0 0
1518 4 48.58235026456 7.012258250778999 0 -1 0 0
1516 10 50.317434202579996 6.010507072095997 1.7062363127959994 -1 0 0
1524 8 52.0525181406 7.012258250778999 0 -1 0 0
1522 12 53.78760207862 6.010507072095997 1.7062363127959994 -1 0 0
1530 4 55.52268601664 7.012258250778999 0 -1 0 0
1528 10 57.25776995466 6.010507072095997 1.7062363127959994 -1 0 0
1536 8 58.99285389268 7.012258250778999 0 -1 0 0
1534 12 60.7279378307 6.010507072095997 1.7062363127959994 -1 0 0
1542 4 62.46302176872 7.012258250778999 0 -1 0 0
1540 10 64.19810570674 6.010507072095997 1.7062363127959994 -1 0 0
1548 8 65.93318964476 7.012258250778999 0 -1 0 0
1546 12 67.66827358278 6.010507072095997 1.7062363127959994 -1 0 0
1554 4 69.4033575208 7.012258250778999 0 -1 0 0
1552 10 71.13844145882 6.010507072095997 1.7062363127959994 -1 0 0
1560 8 72.87352539684 7.012258250778999 0 -1 0 0
1558 12 74.60860933486 6.010507072095997 1.7062363127959994 -1 0 0
1566 4 76.34369327288 7.012258250778999 0 -1 0 0
1564 10 78.0787772109 6.010507072095997 1.7062363127959994 -1 0 0
1572 8 79.81386114892 7.012258250778999 0 -1 0 0
1570 12 81.54894508694 6.010507072095997 1.7062363127959994 -1 0 0
1578 4 83.28402902496 7.012258250778999 0 -1 0 0
1576 10 85.01911296297999 6.010507072095997 1.7062363127959994 -1 0 0
1584 8 86.754196901 7.012258250778999 0 -1 0 0
1582 12 88.48928083902 6.010507072095997 1.7062363127959994 -1 0 0
1590 4 90.22436477704 7.012258250778999 0 -1 0 0
1588 10 91.95944871506 6.010507072095997 1.7062363127959994 -1 0 0
1596 8 93.69453265307999 7.012258250778999 0 -1 0 0
1594 12 95.4296165911 6.010507072095997 1.7062363127959994 -1 0 0
1765 9 0 9.015760608144 1.7062363127959994 0 0 0
1771 11 3.4701678760400014 9.015760608144 1.7062363127959994 0 0 0
1777 9 6.940335752080003 9.015760608144 1.7062363127959994 0 0 0
1783 11 10.410503628120004 9.015760608144 1.7062363127959994 0 0 0
1789 9 13.880671504159999 9.015760608144 1.7062363127959994 0 0 0
1795 11 17.350839380200007 9.015760608144 1.7062363127959994 0 0 0
1801 9 20.82100725624 9.015760608144 1.7062363127959994 0 0 0
1807 11 24.291175132279996 9.015760608144 1.7062363127959994 0 0 0
1813 9 27.761343008320004 9.015760608144 1.7062363127959994 0 0 0
1819 11 31.23151088436 9.015760608144 1.7062363127959994 0 0 0
1825 9 34.70167876040001 9.015760608144 1.7062363127959994 0 0 0
1831 11 38.17184663644 9.015760608144 1.7062363127959994 0 0 0
1837 9 41.642014512479996 9.015760608144 1.7062363127959994 0 0 0
1843 11 45.112182388520004 9.015760608144 1.7062363127959994 0 0 0
1681 9 48.58235026456 9.015760608144 1.7062363127959994 -1 0 0
1687 11 52.0525181406 9.015760608144 1.7062363127959994 -1 0 0
1693 9 55.52268601664 9.015760608144 1.7062363127959994 -1 0 0
1699 11 58.99285389268 9.015760608144 1.7062363127959994 -1 0 0
1705 9 62.46302176872 9.015760608144 1.7062363127959994 -1 0 0
1711 11 65.93318964476 9.015760608144 1.7062363127959994 -1 0 0
1717 9 69.4033575208 9.015760608144 1.7062363127959994 -1 0 0
1723 11 72.87352539684 9.015760608144 1.7062363127959994 -1 0 0
1729 9 76.34369327288 9.015760608144 1.7062363127959994 -1 0 0
1735 11 79.81386114892 9.015760608144 1.7062363127959994 -1 0 0
1741 9 83.28402902496 9.015760608144 1.7062363127959994 -1 0 0
1747 11 86.754196901 9.015760608144 1.7062363127959994 -1 0 0
1753 9 90.22436477704 9.015760608144 1.7062363127959994 -1 0 0
1759 11 93.69453265307999 9.015760608144 1.7062363127959994 -1 0 0
1767 2 1.7350839380200043 10.017511786827 0 0 0 0
1773 6 5.205251814059999 10.017511786827 0 0 0 0
1779 2 8.6754196901 10.017511786827 0 0 0 0
1785 6 12.145587566140001 10.017511786827 0 0 0 0
1791 2 15.615755442179996 10.017511786827 0 0 0 0
1797 6 19.085923318220004 10.017511786827 0 0 0 0
1803 2 22.55609119426 10.017511786827 0 0 0 0
1809 6 26.026259070300007 10.017511786827 0 0 0 0
1815 2 29.49642694634 10.017511786827 0 0 0 0
1821 6 32.966594822379996 10.017511786827 0 0 0 0
1827 2 36.436762698420004 10.017511786827 0 0 0 0
1833 6 39.90693057446 10.017511786827 0 0 0 0
1839 2 43.37709845050001 10.017511786827 0 0 0 0
1845 6 46.84726632654 10.017511786827 0 0 0 0
1683 2 50.317434202579996 10.017511786827 0 -1 0 0
1689 6 53.78760207862 10.017511786827 0 -1 0 0
1695 2 57.25776995466 10.017511786827 0 -1 0 0
1701 6 60.7279378307 10.017511786827 0 -1 0 0
1707 2 64.19810570674 10.017511786827 0 -1 0 0
1713 6 67.66827358278 10.017511786827 0 -1 0 0
1719 2 71.13844145882 10.017511786827 0 -1 0 0
1725 6 74.60860933486 10.017511786827 0 -1 0 0
1731 2 78.0787772109 10.017511786827 0 -1 0 0
1737 6 81.54894508694 10.017511786827 0 -1 0 0
1743 2 85.01911296297999 10.017511786827 0 -1 0 0
1749 6 88.48928083902 10.017511786827 0 -1 0 0
1755 2 91.95944871506 10.017511786827 0 -1 0 0
1761 6 95.4296165911 10.017511786827 0 -1 0 0
1770 4 0 13.022765322874996 0 0 0 0
1768 10 1.7350839380200043 12.021014144192002 1.7062363127959994 0 0 0
1776 8 3.4701678760400014 13.022765322874996 0 0 0 0
1774 12 5.205251814059999 12.021014144192002 1.7062363127959994 0 0 0
1782 4 6.940335752080003 13.022765322874996 0 0 0 0
1780 10 8.6754196901 12.021014144192002 1.7062363127959994 0 0 0
1788 8 10.410503628120004 13.022765322874996 0 0 0 0
1786 12 12.145587566140001 12.021014144192002 1.7062363127959994 0 0 0
1794 4 13.880671504159999 13.022765322874996 0 0 0 0
1792 10 15.615755442179996 12.021014144192002 1.7062363127959994 0 0 0
1800 8 17.350839380200007 13.022765322874996 0 0 0 0
1798 12 19.085923318220004 12.021014144192002 1.7062363127959994 0 0 0
1806 4 20.82100725624 13.022765322874996 0 0 0 0
1812 8 24.291175132279996 13.022765322874996 0 0 0 0
1804 10 22.55609119426 12.021014144192002 1.7062363127959994 0 0 0
1810 12 26.026259070300007 12.021014144192002 1.7062363127959994 0 0 0
1818 4 27.761343008320004 13.022765322874996 0 0 0 0
1816 10 29.49642694634 12.021014144192002 1.7062363127959994 0 0 0
1824 8 31.23151088436 13.022765322874996 0 0 0 0
1822 12 32.966594822379996 12.021014144192002 1.7062363127959994 0 0 0
1830 4 34.70167876040001 13.022765322874996 0 0 0 0
1828 10 36.436762698420004 12.021014144192002 1.7062363127959994 0 0 0
1836 8 38.17184663644 13.022765322874996 0 0 0 0
1834 12 39.90693057446 12.021014144192002 1.7062363127959994 0 0 0
1842 4 41.642014512479996 13.022765322874996 0 0 0 0
1840 10 43.37709845050001 12.021014144192002 1.7062363127959994 0 0 0
1848 8 45.112182388520004 13.022765322874996 0 0 0 0
1846 12 46.84726632654 12.021014144192002 1.7062363127959994 0 0 0
1686 4 48.58235026456 13.022765322874996 0 -1 0 0
1684 10 50.317434202579996 12.021014144192002 1.7062363127959994 -1 0 0
1692 8 52.0525181406 13.022765322874996 0 -1 0 0
1690 12 53.78760207862 12.021014144192002 1.7062363127959994 -1 0 0
1698 4 55.52268601664 13.022765322874996 0 -1 0 0
1696 10 57.25776995466 12.021014144192002 1.7062363127959994 -1 0 0
1704 8 58.99285389268 13.022765322874996 0 -1 0 0
1702 12 60.7279378307 12.021014144192002 1.7062363127959994 -1 0 0
1710 4 62.46302176872 13.022765322874996 0 -1 0 0
1708 10 64.19810570674 12.021014144192002 1.7062363127959994 -1 0 0
1716 8 65.93318964476 13.022765322874996 0 -1 0 0
1714 12 67.66827358278 12.021014144192002 1.7062363127959994 -1 0 0
1722 4 69.4033575208 13.022765322874996 0 -1 0 0
1720 10 71.13844145882 12.021014144192002 1.7062363127959994 -1 0 0
1728 8 72.87352539684 13.022765322874996 0 -1 0 0
1726 12 74.60860933486 12.021014144192002 1.7062363127959994 -1 0 0
1734 4 76.34369327288 13.022765322874996 0 -1 0 0
1732 10 78.0787772109 12.021014144192002 1.7062363127959994 -1 0 0
1740 8 79.81386114892 13.022765322874996 0 -1 0 0
1738 12 81.54894508694 12.021014144192002 1.7062363127959994 -1 0 0
1746 4 83.28402902496 13.022765322874996 0 -1 0 0
1744 10 85.01911296297999 12.021014144192002 1.7062363127959994 -1 0 0
1752 8 86.754196901 13.022765322874996 0 -1 0 0
1750 12 88.48928083902 12.021014144192002 1.7062363127959994 -1 0 0
1758 4 90.22436477704 13.022765322874996 0 -1 0 0
1756 10 91.95944871506 12.021014144192002 1.7062363127959994 -1 0 0
1764 8 93.69453265307999 13.022765322874996 0 -1 0 0
1762 12 95.4296165911 12.021014144192002 1.7062363127959994 -1 0 0
1933 9 0 15.026267680240004 1.7062363127959994 0 0 0
1939 11 3.4701678760400014 15.026267680240004 1.7062363127959994 0 0 0
1945 9 6.940335752080003 15.026267680240004 1.7062363127959994 0 0 0
1951 11 10.410503628120004 15.026267680240004 1.7062363127959994 0 0 0
1957 9 13.880671504159999 15.026267680240004 1.7062363127959994 0 0 0
1963 11 17.350839380200007 15.026267680240004 1.7062363127959994 0 0 0
1969 9 20.82100725624 15.026267680240004 1.7062363127959994 0 0 0
1975 11 24.291175132279996 15.026267680240004 1.7062363127959994 0 0 0
1981 9 27.761343008320004 15.026267680240004 1.7062363127959994 0 0 0
1987 11 31.23151088436 15.026267680240004 1.7062363127959994 0 0 0
1993 9 34.70167876040001 15.026267680240004 1.7062363127959994 0 0 0
1999 11 38.17184663644 15.026267680240004 1.7062363127959994 0 0 0
2005 9 41.642014512479996 15.026267680240004 1.7062363127959994 0 0 0
2011 11 45.112182388520004 15.026267680240004 1.7062363127959994 0 0 0
1849 9 48.58235026456 15.026267680240004 1.7062363127959994 -1 0 0
1855 11 52.0525181406 15.026267680240004 1.7062363127959994 -1 0 0
1861 9 55.52268601664 15.026267680240004 1.7062363127959994 -1 0 0
1867 11 58.99285389268 15.026267680240004 1.7062363127959994 -1 0 0
1873 9 62.46302176872 15.026267680240004 1.7062363127959994 -1 0 0
1879 11 65.93318964476 15.026267680240004 1.7062363127959994 -1 0 0
1885 9 69.4033575208 15.026267680240004 1.7062363127959994 -1 0 0
1891 11 72.87352539684 15.026267680240004 1.7062363127959994 -1 0 0
1897 9 76.34369327288 15.026267680240004 1.7062363127959994 -1 0 0
1903 11 79.81386114892 15.026267680240004 1.7062363127959994 -1 0 0
1909 9 83.28402902496 15.026267680240004 1.7062363127959994 -1 0 0
1915 11 86.754196901 15.026267680240004 1.7062363127959994 -1 0 0
1921 9 90.22436477704 15.026267680240004 1.7062363127959994 -1 0 0
1927 11 93.69453265307999 15.026267680240004 1.7062363127959994 -1 0 0
1935 2 1.7350839380200043 16.028018858922998 0 0 0 0
1941 6 5.205251814059999 16.028018858922998 0 0 0 0
1947 2 8.6754196901 16.028018858922998 0 0 0 0
1953 6 12.145587566140001 16.028018858922998 0 0 0 0
1959 2 15.615755442179996 16.028018858922998 0 0 0 0
1965 6 19.085923318220004 16.028018858922998 0 0 0 0
1971 2 22.55609119426 16.028018858922998 0 0 0 0
1977 6 26.026259070300007 16.028018858922998 0 0 0 0
1983 2 29.49642694634 16.028018858922998 0 0 0 0
1989 6 32.966594822379996 16.028018858922998 0 0 0 0
1995 2 36.436762698420004 16.028018858922998 0 0 0 0
2001 6 39.90693057446 16.028018858922998 0 0 0 0
2007 2 43.37709845050001 16.028018858922998 0 0 0 0
2013 6 46.84726632654 16.028018858922998 0 0 0 0
1851 2 50.317434202579996 16.028018858922998 0 -1 0 0
1857 6 53.78760207862 16.028018858922998 0 -1 0 0
1863 2 57.25776995466 16.028018858922998 0 -1 0 0
1869 6 60.7279378307 16.028018858922998 0 -1 0 0
1875 2 64.19810570674 16.028018858922998 0 -1 0 0
1881 6 67.66827358278 16.028018858922998 0 -1 0 0
1887 2 71.13844145882 16.028018858922998 0 -1 0 0
1893 6 74.60860933486 16.028018858922998 0 -1 0 0
1899 2 78.0787772109 16.028018858922998 0 -1 0 0
1905 6 81.54894508694 16.028018858922998 0 -1 0 0
1911 2 85.01911296297999 16.028018858922998 0 -1 0 0
1917 6 88.48928083902 16.028018858922998 0 -1 0 0
1923 2 91.95944871506 16.028018858922998 0 -1 0 0
1929 6 95.4296165911 16.028018858922998 0 -1 0 0
1936 10 1.7350839380200043 18.031521216288006 1.7062363127959994 0 0 0
1942 12 5.205251814059999 18.031521216288006 1.7062363127959994 0 0 0
1948 10 8.6754196901 18.031521216288006 1.7062363127959994 0 0 0
1954 12 12.145587566140001 18.031521216288006 1.7062363127959994 0 0 0
1960 10 15.615755442179996 18.031521216288006 1.7062363127959994 0 0 0
1966 12 19.085923318220004 18.031521216288006 1.7062363127959994 0 0 0
1972 10 22.55609119426 18.031521216288006 1.7062363127959994 0 0 0
1978 12 26.026259070300007 18.031521216288006 1.7062363127959994 0 0 0
1984 10 29.49642694634 18.031521216288006 1.7062363127959994 0 0 0
1990 12 32.966594822379996 18.031521216288006 1.7062363127959994 0 0 0
1996 10 36.436762698420004 18.031521216288006 1.7062363127959994 0 0 0
2002 12 39.90693057446 18.031521216288006 1.7062363127959994 0 0 0
2008 10 43.37709845050001 18.031521216288006 1.7062363127959994 0 0 0
2014 12 46.84726632654 18.031521216288006 1.7062363127959994 0 0 0
1852 10 50.317434202579996 18.031521216288006 1.7062363127959994 -1 0 0
1858 12 53.78760207862 18.031521216288006 1.7062363127959994 -1 0 0
1864 10 57.25776995466 18.031521216288006 1.7062363127959994 -1 0 0
1870 12 60.7279378307 18.031521216288006 1.7062363127959994 -1 0 0
1876 10 64.19810570674 18.031521216288006 1.7062363127959994 -1 0 0
1882 12 67.66827358278 18.031521216288006 1.7062363127959994 -1 0 0
1888 10 71.13844145882 18.031521216288006 1.7062363127959994 -1 0 0
1894 12 74.60860933486 18.031521216288006 1.7062363127959994 -1 0 0
1900 10 78.0787772109 18.031521216288006 1.7062363127959994 -1 0 0
1906 12 81.54894508694 18.031521216288006 1.7062363127959994 -1 0 0
1912 10 85.01911296297999 18.031521216288006 1.7062363127959994 -1 0 0
1918 12 88.48928083902 18.031521216288006 1.7062363127959994 -1 0 0
1924 10 91.95944871506 18.031521216288006 1.7062363127959994 -1 0 0
1930 12 95.4296165911 18.031521216288006 1.7062363127959994 -1 0 0
1938 4 0 19.033272394971 0 0 0 0
1944 8 3.4701678760400014 19.033272394971 0 0 0 0
1950 4 6.940335752080003 19.033272394971 0 0 0 0
1956 8 10.410503628120004 19.033272394971 0 0 0 0
1962 4 13.880671504159999 19.033272394971 0 0 0 0
1968 8 17.350839380200007 19.033272394971 0 0 0 0
1974 4 20.82100725624 19.033272394971 0 0 0 0
1980 8 24.291175132279996 19.033272394971 0 0 0 0
1986 4 27.761343008320004 19.033272394971 0 0 0 0
1992 8 31.23151088436 19.033272394971 0 0 0 0
1998 4 34.70167876040001 19.033272394971 0 0 0 0
2004 8 38.17184663644 19.033272394971 0 0 0 0
2010 4 41.642014512479996 19.033272394971 0 0 0 0
2016 8 45.112182388520004 19.033272394971 0 0 0 0
1854 4 48.58235026456 19.033272394971 0 -1 0 0
1860 8 52.0525181406 19.033272394971 0 -1 0 0
1866 4 55.52268601664 19.033272394971 0 -1 0 0
1872 8 58.99285389268 19.033272394971 0 -1 0 0
1878 4 62.46302176872 19.033272394971 0 -1 0 0
1884 8 65.93318964476 19.033272394971 0 -1 0 0
1890 4 69.4033575208 19.033272394971 0 -1 0 0
1896 8 72.87352539684 19.033272394971 0 -1 0 0
1902 4 76.34369327288 19.033272394971 0 -1 0 0
1908 8 79.81386114892 19.033272394971 0 -1 0 0
1914 4 83.28402902496 19.033272394971 0 -1 0 0
1920 8 86.754196901 19.033272394971 0 -1 0 0
1926 4 90.22436477704 19.033272394971 0 -1 0 0
1932 8 93.69453265307999 19.033272394971 0 -1 0 0
2103 2 1.7350839380200043 22.038525931019002 0 0 0 0
2101 9 0 21.036774752335994 1.7062363127959994 0 0 0
2107 11 3.4701678760400014 21.036774752335994 1.7062363127959994 0 0 0
2109 6 5.205251814059999 22.038525931019002 0 0 0 0
2113 9 6.940335752080003 21.036774752335994 1.7062363127959994 0 0 0
2115 2 8.6754196901 22.038525931019002 0 0 0 0
2119 11 10.410503628120004 21.036774752335994 1.7062363127959994 0 0 0
2121 6 12.145587566140001 22.038525931019002 0 0 0 0
2125 9 13.880671504159999 21.036774752335994 1.7062363127959994 0 0 0
2127 2 15.615755442179996 22.038525931019002 0 0 0 0
2131 11 17.350839380200007 21.036774752335994 1.7062363127959994 0 0 0
2133 6 19.085923318220004 22.038525931019002 0 0 0 0
2137 9 20.82100725624 21.036774752335994 1.7062363127959994 0 0 0
2139 2 22.55609119426 22.038525931019002 0 0 0 0
2143 11 24.291175132279996 21.036774752335994 1.7062363127959994 0 0 0
2145 6 26.026259070300007 22.038525931019002 0 0 0 0
2149 9 27.761343008320004 21.036774752335994 1.7062363127959994 0 0 0
2151 2 29.49642694634 22.038525931019002 0 0 0 0
2155 11 31.23151088436 21.036774752335994 1.7062363127959994 0 0 0
2157 6 32.966594822379996 22.038525931019002 0 0 0 0
2161 9 34.70167876040001 21.036774752335994 1.7062363127959994 0 0 0
2163 2 36.436762698420004 22.038525931019002 0 0 0 0
2167 11 38.17184663644 21.036774752335994 1.7062363127959994 0 0 0
2169 6 39.90693057446 22.038525931019002 0 0 0 0
2173 9 41.642014512479996 21.036774752335994 1.7062363127959994 0 0 0
2175 2 43.37709845050001 22.038525931019002 0 0 0 0
2179 11 45.112182388520004 21.036774752335994 1.7062363127959994 0 0 0
2181 6 46.84726632654 22.038525931019002 0 0 0 0
2019 2 50.317434202579996 22.038525931019002 0 -1 0 0
2017 9 48.58235026456 21.036774752335994 1.7062363127959994 -1 0 0
2023 11 52.0525181406 21.036774752335994 1.7062363127959994 -1 0 0
2025 6 53.78760207862 22.038525931019002 0 -1 0 0
2029 9 55.52268601664 21.036774752335994 1.7062363127959994 -1 0 0
2031 2 57.25776995466 22.038525931019002 0 -1 0 0
2035 11 58.99285389268 21.036774752335994 1.7062363127959994 -1 0 0
2037 6 60.7279378307 22.038525931019002 0 -1 0 0
2041 9 62.46302176872 21.036774752335994 1.7062363127959994 -1 0 0
2043 2 64.19810570674 22.038525931019002 0 -1 0 0
2047 11 65.93318964476 21.036774752335994 1.7062363127959994 -1 0 0
2049 6 67.66827358278 22.038525931019002 0 -1 0 0
2053 9 69.4033575208 21.036774752335994 1.7062363127959994 -1 0 0
2055 2 71.13844145882 22.038525931019002 0 -1 0 0
2061 6 74.60860933486 22.038525931019002 0 -1 0 0
2059 11 72.87352539684 21.036774752335994 1.7062363127959994 -1 0 0
2065 9 76.34369327288 21.036774752335994 1.7062363127959994 -1 0 0
2067 2 78.0787772109 22.038525931019002 0 -1 0 0
2071 11 79.81386114892 21.036774752335994 1.7062363127959994 -1 0 0
2073 6 81.54894508694 22.038525931019002 0 -1 0 0
2077 9 83.28402902496 21.036774752335994 1.7062363127959994 -1 0 0
2079 2 85.01911296297999 22.038525931019002 0 -1 0 0
2083 11 86.754196901 21.036774752335994 1.7062363127959994 -1 0 0
2085 6 88.48928083902 22.038525931019002 0 -1 0 0
2089 9 90.22436477704 21.036774752335994 1.7062363127959994 -1 0 0
2091 2 91.95944871506 22.038525931019002 0 -1 0 0
2095 11 93.69453265307999 21.036774752335994 1.7062363127959994 -1 0 0
2097 6 95.4296165911 22.038525931019002 0 -1 0 0
2104 10 1.7350839380200043 24.042028288383996 1.7062363127959994 0 0 0
2110 12 5.205251814059999 24.042028288383996 1.7062363127959994 0 0 0
2116 10 8.6754196901 24.042028288383996 1.7062363127959994 0 0 0
2122 12 12.145587566140001 24.042028288383996 1.7062363127959994 0 0 0
2128 10 15.615755442179996 24.042028288383996 1.7062363127959994 0 0 0
2134 12 19.085923318220004 24.042028288383996 1.7062363127959994 0 0 0
2140 10 22.55609119426 24.042028288383996 1.7062363127959994 0 0 0
2146 12 26.026259070300007 24.042028288383996 1.7062363127959994 0 0 0
2152 10 29.49642694634 24.042028288383996 1.7062363127959994 0 0 0
2158 12 32.966594822379996 24.042028288383996 1.7062363127959994 0 0 0
2164 10 36.436762698420004 24.042028288383996 1.7062363127959994 0 0 0
2170 12 39.90693057446 24.042028288383996 1.7062363127959994 0 0 0
2176 10 43.37709845050001 24.042028288383996 1.7062363127959994 0 0 0
2182 12 46.84726632654 24.042028288383996 1.7062363127959994 0 0 0
2020 10 50.317434202579996 24.042028288383996 1.7062363127959994 -1 0 0
2026 12 53.78760207862 24.042028288383996 1.7062363127959994 -1 0 0
2032 10 57.25776995466 24.042028288383996 1.7062363127959994 -1 0 0
2038 12 60.7279378307 24.042028288383996 1.7062363127959994 -1 0 0
2044 10 64.19810570674 24.042028288383996 1.7062363127959994 -1 0 0
2050 12 67.66827358278 24.042028288383996 1.7062363127959994 -1 0 0
2056 10 71.13844145882 24.042028288383996 1.7062363127959994 -1 0 0
2062 12 74.60860933486 24.042028288383996 1.7062363127959994 -1 0 0
2068 10 78.0787772109 24.042028288383996 1.7062363127959994 -1 0 0
2074 12 81.54894508694 24.042028288383996 1.7062363127959994 -1 0 0
2080 10 85.01911296297999 24.042028288383996 1.7062363127959994 -1 0 0
2086 12 88.48928083902 24.042028288383996 1.7062363127959994 -1 0 0
2092 10 91.95944871506 24.042028288383996 1.7062363127959994 -1 0 0
2098 12 95.4296165911 24.042028288383996 1.7062363127959994 -1 0 0
2106 4 0 25.043779467067004 0 0 0 0
2112 8 3.4701678760400014 25.043779467067004 0 0 0 0
2118 4 6.940335752080003 25.043779467067004 0 0 0 0
2124 8 10.410503628120004 25.043779467067004 0 0 0 0
2130 4 13.880671504159999 25.043779467067004 0 0 0 0
2136 8 17.350839380200007 25.043779467067004 0 0 0 0
2142 4 20.82100725624 25.043779467067004 0 0 0 0
2148 8 24.291175132279996 25.043779467067004 0 0 0 0
2154 4 27.761343008320004 25.043779467067004 0 0 0 0
2160 8 31.23151088436 25.043779467067004 0 0 0 0
2166 4 34.70167876040001 25.043779467067004 0 0 0 0
2172 8 38.17184663644 25.043779467067004 0 0 0 0
2178 4 41.642014512479996 25.043779467067004 0 0 0 0
2184 8 45.112182388520004 25.043779467067004 0 0 0 0
2022 4 48.58235026456 25.043779467067004 0 -1 0 0
2028 8 52.0525181406 25.043779467067004 0 -1 0 0
2034 4 55.52268601664 25.043779467067004 0 -1 0 0
2040 8 58.99285389268 25.043779467067004 0 -1 0 0
2046 4 62.46302176872 25.043779467067004 0 -1 0 0
2052 8 65.93318964476 25.043779467067004 0 -1 0 0
2058 4 69.4033575208 25.043779467067004 0 -1 0 0
2064 8 72.87352539684 25.043779467067004 0 -1 0 0
2070 4 76.34369327288 25.043779467067004 0 -1 0 0
2076 8 79.81386114892 25.043779467067004 0 -1 0 0
2082 4 83.28402902496 25.043779467067004 0 -1 0 0
2088 8 86.754196901 25.043779467067004 0 -1 0 0
2094 4 90.22436477704 25.043779467067004 0 -1 0 0
2100 8 93.69453265307999 25.043779467067004 0 -1 0 0
2271 2 1.7350839380200043 28.049033003114992 0 0 0 0
2269 9 0 27.047281824431998 1.7062363127959994 0 0 0
2275 11 3.4701678760400014 27.047281824431998 1.7062363127959994 0 0 0
2277 6 5.205251814059999 28.049033003114992 0 0 0 0
2281 9 6.940335752080003 27.047281824431998 1.7062363127959994 0 0 0
2283 2 8.6754196901 28.049033003114992 0 0 0 0
2287 11 10.410503628120004 27.047281824431998 1.7062363127959994 0 0 0
2289 6 12.145587566140001 28.049033003114992 0 0 0 0
2293 9 13.880671504159999 27.047281824431998 1.7062363127959994 0 0 0