LAMMPS data file via write_data, version 29 Aug 2024, timestep = 2, units = metal

5376 atoms
6 atom types

0 100.061700040232 xlo xhi
0 99.035399063648 ylo yhi
-50 50 zlo zhi

Masses

1 195.084
2 195.084
3 32.06
4 32.06
5 32.06
6 32.06

Atoms # atomic

1429 1 0 0 1.2306768919575224 0 0 0
1435 1 3.573632144294002 0 1.2306768919575226 0 0 0
1433 4 1.393770740876645e-15 2.0632374804927416 0.03491509125183461 0 0 0
1430 1 1.7868160721470019 3.094856220739 1.2306768919575213 0 0 0
1439 4 3.5736321442940016 2.0632374804927403 0.03491509125183354 0 0 0
1436 1 5.360448216441 3.094856220739 1.2306768919575213 0 0 0
1434 4 1.7868160721470014 5.158093701231741 0.034915091251834444 0 0 0
1440 4 5.360448216441001 5.158093701231739 0.0349150912518334 0 0 0
1431 3 1.7868160721470014 1.0316187402462609 2.4256865078508074 0 0 0
1437 3 5.360448216441001 1.0316187402462615 2.4256865078508083 0 0 0
1432 3 1.5279250286631283e-15 4.126474960985261 2.4256865078508065 0 0 0
1438 3 3.5736321442940016 4.126474960985262 2.425686507850808 0 0 0
1441 1 7.1472642885880004 0 1.2306768919575226 0 0 0
1447 1 10.720896432882 0 1.2306768919575228 0 0 0
1445 4 7.1472642885880004 2.063237480492741 0.03491509125183431 0 0 0
1442 1 8.934080360734999 3.0948562207390005 1.2306768919575213 0 0 0
1451 4 10.720896432882 2.0632374804927403 0.034915091251833806 0 0 0
1446 4 8.934080360735 5.15809370123174 0.03491509125183403 0 0 0
1443 3 8.934080360734999 1.031618740246261 2.425686507850808 0 0 0
1444 3 7.1472642885880004 4.126474960985261 2.425686507850807 0 0 0
1450 3 10.720896432882 4.126474960985261 2.4256865078508074 0 0 0
1453 1 14.294528577176003 0 1.2306768919575224 0 0 0
1448 1 12.507712505029001 3.094856220739 1.2306768919575213 0 0 0
1457 4 14.294528577176003 2.0632374804927416 0.03491509125183497 0 0 0
1454 1 16.081344649323004 3.0948562207390005 1.2306768919575215 0 0 0
1452 4 12.507712505029001 5.158093701231741 0.034915091251834465 0 0 0
1458 4 16.081344649323 5.15809370123174 0.03491509125183368 0 0 0
1449 3 12.507712505029001 1.0316187402462607 2.4256865078508074 0 0 0
1455 3 16.081344649323 1.0316187402462615 2.425686507850808 0 0 0
1456 3 14.294528577176001 4.12647496098526 2.4256865078508065 0 0 0
1459 1 17.86816072147 0 1.2306768919575228 0 0 0
1465 1 21.441792865764004 0 1.2306768919575228 0 0 0
1463 4 17.868160721470005 2.0632374804927407 0.03491509125183374 0 0 0
1460 1 19.654976793617003 3.0948562207390005 1.2306768919575213 0 0 0
1469 4 21.441792865764 2.0632374804927407 0.03491509125183374 0 0 0
1466 1 23.228608937911 3.0948562207390005 1.2306768919575213 0 0 0
1464 4 19.654976793617003 5.15809370123174 0.034915091251834195 0 0 0
1470 4 23.228608937911005 5.15809370123174 0.03491509125183372 0 0 0
1461 3 19.654976793617003 1.0316187402462607 2.4256865078508074 0 0 0
1467 3 23.228608937911005 1.0316187402462615 2.425686507850808 0 0 0
1462 3 17.868160721470005 4.126474960985261 2.4256865078508074 0 0 0
1468 3 21.441792865764 4.126474960985261 2.4256865078508074 0 0 0
1471 1 25.015425010058003 0 1.2306768919575224 0 0 0
1477 1 28.589057154352002 0 1.2306768919575226 0 0 0
1475 4 25.015425010058003 2.063237480492741 0.034915091251834604 0 0 0
1472 1 26.802241082205004 3.0948562207390005 1.2306768919575213 0 0 0
1481 4 28.589057154352005 2.0632374804927407 0.03491509125183374 0 0 0
1476 4 26.802241082205 5.15809370123174 0.03491509125183372 0 0 0
1473 3 26.802241082205 1.0316187402462615 2.425686507850808 0 0 0
1474 3 25.015425010058003 4.126474960985261 2.425686507850807 0 0 0
1480 3 28.589057154352005 4.126474960985261 2.4256865078508074 0 0 0
1483 1 32.162689298646 0 1.2306768919575226 0 0 0
1478 1 30.375873226499003 3.094856220739 1.2306768919575213 0 0 0
1487 4 32.162689298646 2.0632374804927407 0.03491509125183409 0 0 0
1484 1 33.949505370793005 3.0948562207390005 1.2306768919575213 0 0 0
1482 4 30.375873226499003 5.15809370123174 0.0349150912518339 0 0 0
1488 4 33.949505370793005 5.15809370123174 0.034915091251834084 0 0 0
1479 3 30.375873226499003 1.0316187402462609 2.425686507850808 0 0 0
1485 3 33.949505370793005 1.0316187402462613 2.4256865078508074 0 0 0
1486 3 32.162689298646 4.126474960985261 2.4256865078508074 0 0 0
1489 1 35.73632144294 0 1.2306768919575224 0 0 0
1495 1 39.309953587234006 0 1.2306768919575226 0 0 0
1493 4 35.73632144294 2.0632374804927407 0.03491509125183389 0 0 0
1490 1 37.523137515087 3.0948562207390005 1.2306768919575213 0 0 0
1499 4 39.309953587234006 2.0632374804927407 0.03491509125183409 0 0 0
1496 1 41.096769659381 3.094856220739 1.2306768919575213 0 0 0
1494 4 37.523137515087 5.15809370123174 0.03491509125183408 0 0 0
1500 4 41.096769659381 5.15809370123174 0.03491509125183362 0 0 0
1491 3 37.523137515087 1.0316187402462613 2.4256865078508074 0 0 0
1497 3 41.096769659381 1.031618740246261 2.4256865078508083 0 0 0
1492 3 35.73632144294 4.126474960985261 2.4256865078508074 0 0 0
1498 3 39.309953587234006 4.126474960985261 2.4256865078508074 0 0 0
1501 1 42.883585731528 0 1.2306768919575226 0 0 0
1507 1 46.457217875822 0 1.2306768919575224 0 0 0
1505 4 42.883585731528 2.0632374804927407 0.03491509125183409 0 0 0
1502 1 44.670401803675006 3.0948562207390005 1.2306768919575213 0 0 0
1511 4 46.457217875822 2.0632374804927407 0.03491509125183395 0 0 0
1506 4 44.670401803675006 5.15809370123174 0.03491509125183408 0 0 0
1503 3 44.670401803675006 1.0316187402462613 2.4256865078508074 0 0 0
1504 3 42.883585731528 4.126474960985261 2.4256865078508074 0 0 0
1510 3 46.457217875822 4.126474960985261 2.4256865078508074 0 0 0
1345 1 50.030850020116 1.7481861022075681e-15 1.230676891957521 -1 0 0
1508 1 48.244033947969 3.0948562207390005 1.2306768919575213 0 0 0
1349 4 50.030850020116 2.06323748049274 0.034915091251833265 -1 0 0
1346 1 51.817666092262996 3.0948562207390005 1.230676891957521 -1 0 0
1512 4 48.244033947969 5.158093701231739 0.03491509125183354 0 0 0
1350 4 51.817666092262996 5.15809370123174 0.03491509125183328 -1 0 0
1509 3 48.244033947969 1.0316187402462615 2.425686507850808 0 0 0
1347 3 51.817666092262996 1.0316187402462613 2.4256865078508083 -1 0 0
1348 3 50.030850020116 4.126474960985262 2.425686507850808 -1 0 0
1351 1 53.604482164409994 0 1.2306768919575226 -1 0 0
1357 1 57.178114308704004 0 1.2306768919575226 -1 0 0
1355 4 53.60448216441 2.0632374804927407 0.03491509125183407 -1 0 0
1352 1 55.391298236557 3.0948562207390005 1.2306768919575213 -1 0 0
1361 4 57.178114308704 2.0632374804927407 0.03491509125183405 -1 0 0
1356 4 55.391298236557 5.15809370123174 0.03491509125183424 -1 0 0
1353 3 55.391298236557 1.031618740246261 2.4256865078508074 -1 0 0
1354 3 53.60448216441 4.126474960985261 2.4256865078508074 -1 0 0
1360 3 57.178114308704 4.126474960985261 2.4256865078508074 -1 0 0
1363 1 60.751746452998 0 1.2306768919575226 -1 0 0
1369 1 64.32537859729199 0 1.2306768919575228 -1 0 0
1358 1 58.964930380850994 3.0948562207390005 1.2306768919575213 -1 0 0
1367 4 60.751746452998 2.0632374804927407 0.03491509125183423 -1 0 0
1364 1 62.538562525145004 3.0948562207390005 1.230676891957521 -1 0 0
1373 4 64.325378597292 2.0632374804927403 0.03491509125183358 -1 0 0
1362 4 58.964930380851 5.15809370123174 0.034915091251833855 -1 0 0
1368 4 62.538562525145 5.15809370123174 0.03491509125183331 -1 0 0
1359 3 58.964930380851 1.0316187402462609 2.425686507850808 -1 0 0
1365 3 62.538562525145 1.0316187402462613 2.4256865078508083 -1 0 0
1366 3 60.751746452998 4.126474960985261 2.425686507850807 -1 0 0
1372 3 64.325378597292 4.126474960985262 2.4256865078508074 -1 0 0
1375 1 67.899010741586 0 1.2306768919575224 -1 0 0
1370 1 66.112194669439 3.0948562207390005 1.2306768919575213 -1 0 0
1379 4 67.899010741586 2.063237480492741 0.03491509125183388 -1 0 0
1376 1 69.68582681373299 3.0948562207390005 1.2306768919575213 -1 0 0
1374 4 66.11219466943899 5.15809370123174 0.0349150912518341 -1 0 0
1380 4 69.685826813733 5.15809370123174 0.03491509125183408 -1 0 0
1371 3 66.11219466943899 1.0316187402462613 2.4256865078508074 -1 0 0
1377 3 69.685826813733 1.0316187402462613 2.4256865078508074 -1 0 0
1378 3 67.899010741586 4.126474960985261 2.4256865078508074 -1 0 0
1381 1 71.47264288588 0 1.2306768919575226 -1 0 0
1387 1 75.04627503017399 0 1.2306768919575226 -1 0 0
1385 4 71.47264288587999 2.0632374804927407 0.0349150912518341 -1 0 0
1382 1 73.259458958027 3.094856220739 1.2306768919575213 -1 0 0
1391 4 75.046275030174 2.0632374804927407 0.03491509125183409 -1 0 0
1386 4 73.259458958027 5.15809370123174 0.03491509125183362 -1 0 0
1383 3 73.259458958027 1.0316187402462609 2.4256865078508083 -1 0 0
1384 3 71.47264288587999 4.126474960985261 2.425686507850807 -1 0 0
1390 3 75.046275030174 4.126474960985261 2.425686507850807 -1 0 0
1393 1 78.619907174468 0 1.2306768919575224 -1 0 0
1399 1 82.193539318762 0 1.2306768919575228 -1 0 0
1388 1 76.833091102321 3.0948562207390005 1.2306768919575213 -1 0 0
1397 4 78.619907174468 2.063237480492741 0.03491509125183388 -1 0 0
1394 1 80.40672324661499 3.0948562207390005 1.2306768919575213 -1 0 0
1403 4 82.19353931876199 2.0632374804927407 0.03491509125183409 -1 0 0
1392 4 76.83309110232099 5.15809370123174 0.034915091251834084 -1 0 0
1398 4 80.406723246615 5.15809370123174 0.03491509125183408 -1 0 0
1389 3 76.83309110232099 1.0316187402462613 2.4256865078508074 -1 0 0
1395 3 80.406723246615 1.0316187402462613 2.4256865078508074 -1 0 0
1396 3 78.619907174468 4.126474960985261 2.4256865078508074 -1 0 0
1402 3 82.19353931876199 4.126474960985261 2.425686507850807 -1 0 0
1405 1 85.76717146305599 0 1.2306768919575228 -1 0 0
1400 1 83.980355390909 3.0948562207390005 1.2306768919575213 -1 0 0
1409 4 85.767171463056 2.0632374804927407 0.03491509125183409 -1 0 0
1406 1 87.553987535203 3.0948562207390005 1.2306768919575213 -1 0 0
1404 4 83.980355390909 5.15809370123174 0.03491509125183362 -1 0 0
1410 4 87.55398753520299 5.15809370123174 0.03491509125183408 -1 0 0
1401 3 83.980355390909 1.0316187402462609 2.4256865078508083 -1 0 0
1407 3 87.55398753520299 1.0316187402462613 2.4256865078508074 -1 0 0
1408 3 85.767171463056 4.126474960985261 2.425686507850807 -1 0 0
1411 1 89.34080360735 0 1.2306768919575224 -1 0 0
1417 1 92.914435751644 0 1.2306768919575226 -1 0 0
1415 4 89.34080360735 2.063237480492741 0.03491509125183389 -1 0 0
1412 1 91.12761967949699 3.0948562207390005 1.2306768919575213 -1 0 0
1421 4 92.91443575164399 2.0632374804927407 0.03491509125183409 -1 0 0
1416 4 91.127619679497 5.15809370123174 0.03491509125183408 -1 0 0
1413 3 91.127619679497 1.0316187402462613 2.4256865078508074 -1 0 0
1414 3 89.34080360735 4.126474960985261 2.4256865078508074 -1 0 0
1420 3 92.91443575164399 4.126474960985261 2.425686507850807 -1 0 0
1423 1 96.48806789593799 0 1.2306768919575226 -1 0 0
1418 1 94.701251823791 3.094856220739 1.2306768919575213 -1 0 0
1427 4 96.488067895938 2.0632374804927407 0.03491509125183409 -1 0 0
1424 1 98.274883968085 3.0948562207390005 1.2306768919575213 -1 0 0
1422 4 94.701251823791 5.15809370123174 0.03491509125183362 -1 0 0
1428 4 98.27488396808499 5.15809370123174 0.034915091251834084 -1 0 0
1419 3 94.701251823791 1.0316187402462609 2.4256865078508083 -1 0 0
1425 3 98.27488396808499 1.0316187402462613 2.4256865078508074 -1 0 0
1426 3 96.488067895938 4.126474960985261 2.425686507850807 -1 0 0
1597 1 0 6.189712441478001 1.230676891957521 0 0 0
1603 1 3.573632144294002 6.189712441478 1.230676891957521 0 0 0
1601 4 1.465766875485747e-15 8.252949921970743 0.0349150912518347 0 0 0
1607 4 3.5736321442940016 8.25294992197074 0.03491509125183377 0 0 0
1598 1 1.7868160721470019 9.284568662217 1.230676891957522 0 0 0
1604 1 5.360448216441 9.284568662217 1.2306768919575222 0 0 0
1602 4 1.7868160721470014 11.347806142709741 0.034915091251834895 0 0 0
1608 4 5.360448216441001 11.34780614270974 0.03491509125183392 0 0 0
1599 3 1.7868160721470014 7.22133118172426 2.425686507850807 0 0 0
1605 3 5.360448216441001 7.221331181724261 2.4256865078508083 0 0 0
1600 3 1.4646936408760037e-15 10.316187402463262 2.425686507850807 0 0 0
1606 3 3.5736321442940016 10.316187402463262 2.425686507850808 0 0 0
1609 1 7.1472642885880004 6.189712441478 1.2306768919575208 0 0 0
1615 1 10.720896432882 6.189712441478 1.2306768919575213 0 0 0
1613 4 7.1472642885880004 8.25294992197074 0.034915091251834514 0 0 0
1619 4 10.720896432882 8.25294992197074 0.03491509125183407 0 0 0
1610 1 8.934080360734999 9.284568662217 1.230676891957522 0 0 0
1614 4 8.934080360735 11.347806142709741 0.03491509125183452 0 0 0
1611 3 8.934080360734999 7.22133118172426 2.4256865078508074 0 0 0
1612 3 7.1472642885880004 10.316187402463262 2.4256865078508074 0 0 0
1618 3 10.720896432882 10.316187402463262 2.4256865078508074 0 0 0
1621 1 14.294528577176003 6.189712441478001 1.230676891957521 0 0 0
1625 4 14.294528577176003 8.252949921970743 0.03491509125183512 0 0 0
1616 1 12.507712505029001 9.284568662217 1.230676891957522 0 0 0
1622 1 16.081344649323004 9.284568662217 1.2306768919575222 0 0 0
1620 4 12.507712505029001 11.347806142709741 0.034915091251834916 0 0 0
1626 4 16.081344649323 11.34780614270974 0.034915091251834236 0 0 0
1617 3 12.507712505029001 7.22133118172426 2.425686507850807 0 0 0
1623 3 16.081344649323 7.221331181724261 2.425686507850808 0 0 0
1624 3 14.294528577176003 10.31618740246326 2.4256865078508065 0 0 0
1627 1 17.86816072147 6.189712441478 1.2306768919575213 0 0 0
1633 1 21.441792865764004 6.189712441478 1.2306768919575213 0 0 0
1631 4 17.868160721470005 8.25294992197074 0.03491509125183397 0 0 0
1637 4 21.441792865764 8.25294992197074 0.03491509125183397 0 0 0
1628 1 19.654976793617003 9.284568662217 1.2306768919575217 0 0 0
1634 1 23.228608937911 9.284568662217 1.2306768919575222 0 0 0
1632 4 19.654976793617003 11.347806142709741 0.03491509125183476 0 0 0
1638 4 23.228608937911005 11.34780614270974 0.034915091251834285 0 0 0
1629 3 19.654976793617003 7.22133118172426 2.4256865078508074 0 0 0
1635 3 23.228608937911005 7.221331181724261 2.425686507850808 0 0 0
1630 3 17.868160721470005 10.316187402463262 2.4256865078508074 0 0 0
1636 3 21.441792865764 10.316187402463262 2.4256865078508074 0 0 0
1639 1 25.015425010058003 6.189712441478 1.230676891957521 0 0 0
1645 1 28.589057154352002 6.189712441478 1.2306768919575213 0 0 0
1643 4 25.015425010058003 8.252949921970743 0.03491509125183468 0 0 0
1649 4 28.589057154352005 8.25294992197074 0.03491509125183397 0 0 0
1640 1 26.802241082205004 9.284568662217 1.2306768919575222 0 0 0
1644 4 26.802241082205 11.34780614270974 0.034915091251834285 0 0 0
1641 3 26.802241082205 7.221331181724261 2.425686507850808 0 0 0
1642 3 25.015425010058003 10.316187402463262 2.4256865078508074 0 0 0
1648 3 28.589057154352005 10.316187402463262 2.4256865078508074 0 0 0
1651 1 32.162689298646 6.189712441478 1.230676891957521 0 0 0
1655 4 32.162689298646 8.25294992197074 0.03491509125183432 0 0 0
1646 1 30.375873226499003 9.284568662217 1.2306768919575217 0 0 0
1652 1 33.949505370793005 9.284568662217 1.230676891957522 0 0 0
1650 4 30.375873226499003 11.347806142709741 0.0349150912518344 0 0 0
1656 4 33.949505370793005 11.34780614270974 0.03491509125183463 0 0 0
1647 3 30.375873226499003 7.22133118172426 2.4256865078508074 0 0 0
1653 3 33.949505370793005 7.221331181724261 2.4256865078508074 0 0 0
1654 3 32.162689298646 10.316187402463262 2.4256865078508074 0 0 0
1657 1 35.73632144294 6.189712441478 1.230676891957521 0 0 0
1663 1 39.309953587234006 6.189712441478 1.230676891957521 0 0 0
1661 4 35.73632144294 8.25294992197074 0.03491509125183397 0 0 0
1667 4 39.309953587234006 8.25294992197074 0.03491509125183432 0 0 0
1658 1 37.523137515087 9.284568662217 1.230676891957522 0 0 0
1664 1 41.096769659381 9.284568662217 1.2306768919575217 0 0 0
1662 4 37.523137515087 11.34780614270974 0.03491509125183463 0 0 0
1668 4 41.096769659381 11.347806142709741 0.034915091251834056 0 0 0
1659 3 37.523137515087 7.221331181724261 2.4256865078508074 0 0 0
1665 3 41.096769659381 7.221331181724261 2.425686507850808 0 0 0
1660 3 35.73632144294 10.316187402463262 2.425686507850808 0 0 0
1666 3 39.309953587234006 10.316187402463262 2.4256865078508074 0 0 0
1669 1 42.883585731528 6.189712441478 1.230676891957521 0 0 0
1675 1 46.457217875822 6.189712441478 1.230676891957521 0 0 0
1673 4 42.883585731528 8.25294992197074 0.03491509125183432 0 0 0
1679 4 46.457217875822 8.25294992197074 0.03491509125183403 0 0 0
1670 1 44.670401803675006 9.284568662217 1.230676891957522 0 0 0
1674 4 44.670401803675006 11.34780614270974 0.03491509125183463 0 0 0
1671 3 44.670401803675006 7.221331181724261 2.4256865078508074 0 0 0
1672 3 42.883585731528 10.316187402463262 2.4256865078508074 0 0 0
1678 3 46.457217875822 10.316187402463262 2.425686507850808 0 0 0
1513 1 50.030850020116 6.189712441478 1.230676891957521 -1 0 0
1517 4 50.030850020116 8.25294992197074 0.034915091251833376 -1 0 0
1676 1 48.244033947969 9.284568662217 1.2306768919575222 0 0 0
1514 1 51.817666092262996 9.284568662217 1.230676891957522 -1 0 0
1680 4 48.244033947969 11.34780614270974 0.03491509125183411 0 0 0
1518 4 51.817666092262996 11.34780614270974 0.034915091251833785 -1 0 0
1677 3 48.244033947969 7.22133118172426 2.425686507850808 0 0 0
1515 3 51.817666092262996 7.221331181724261 2.4256865078508083 -1 0 0
1516 3 50.030850020116 10.316187402463262 2.4256865078508083 -1 0 0
1519 1 53.60448216441 6.189712441478 1.230676891957521 -1 0 0
1525 1 57.178114308704004 6.189712441478 1.230676891957521 -1 0 0
1523 4 53.60448216441 8.25294992197074 0.03491509125183441 -1 0 0
1529 4 57.178114308704 8.25294992197074 0.034915091251834396 -1 0 0
1520 1 55.391298236557 9.284568662217 1.230676891957522 -1 0 0
1524 4 55.391298236557 11.34780614270974 0.034915091251834826 -1 0 0
1521 3 55.391298236557 7.221331181724261 2.4256865078508074 -1 0 0
1522 3 53.60448216441 10.316187402463262 2.4256865078508074 -1 0 0
1528 3 57.178114308704 10.316187402463262 2.4256865078508074 -1 0 0
1531 1 60.751746452998 6.189712441478 1.230676891957521 -1 0 0
1537 1 64.32537859729199 6.189712441478 1.230676891957521 -1 0 0
1535 4 60.751746452998 8.25294992197074 0.03491509125183449 -1 0 0
1541 4 64.325378597292 8.25294992197074 0.03491509125183381 -1 0 0
1526 1 58.964930380850994 9.284568662217 1.230676891957522 -1 0 0
1532 1 62.538562525145004 9.284568662217 1.230676891957522 -1 0 0
1530 4 58.964930380851 11.347806142709741 0.03491509125183435 -1 0 0
1536 4 62.538562525145 11.34780614270974 0.034915091251833806 -1 0 0
1527 3 58.964930380851 7.22133118172426 2.4256865078508074 -1 0 0
1533 3 62.538562525145 7.221331181724261 2.4256865078508083 -1 0 0
1534 3 60.751746452998 10.316187402463262 2.425686507850807 -1 0 0
1540 3 64.325378597292 10.316187402463262 2.425686507850808 -1 0 0
1543 1 67.899010741586 6.189712441478 1.2306768919575213 -1 0 0
1547 4 67.899010741586 8.252949921970743 0.03491509125183397 -1 0 0
1538 1 66.112194669439 9.284568662217 1.230676891957522 -1 0 0
1544 1 69.68582681373299 9.284568662217 1.230676891957522 -1 0 0
1542 4 66.11219466943899 11.34780614270974 0.03491509125183468 -1 0 0
1548 4 69.685826813733 11.34780614270974 0.03491509125183466 -1 0 0
1539 3 66.11219466943899 7.221331181724261 2.4256865078508074 -1 0 0
1545 3 69.685826813733 7.221331181724261 2.4256865078508074 -1 0 0
1546 3 67.899010741586 10.316187402463262 2.425686507850808 -1 0 0
1549 1 71.47264288588 6.189712441478 1.230676891957521 -1 0 0
1555 1 75.04627503017399 6.189712441478 1.230676891957521 -1 0 0
1553 4 71.47264288587999 8.25294992197074 0.034915091251834326 -1 0 0
1559 4 75.046275030174 8.25294992197074 0.03491509125183432 -1 0 0
1550 1 73.259458958027 9.284568662217 1.2306768919575217 -1 0 0
1554 4 73.259458958027 11.347806142709741 0.034915091251834056 -1 0 0
1551 3 73.259458958027 7.22133118172426 2.425686507850808 -1 0 0
1552 3 71.47264288587999 10.316187402463262 2.4256865078508074 -1 0 0
1558 3 75.046275030174 10.316187402463262 2.425686507850807 -1 0 0
1561 1 78.619907174468 6.189712441478 1.2306768919575213 -1 0 0
1567 1 82.193539318762 6.189712441478 1.230676891957521 -1 0 0
1565 4 78.619907174468 8.252949921970743 0.03491509125183397 -1 0 0
1571 4 82.19353931876199 8.25294992197074 0.03491509125183432 -1 0 0
1556 1 76.833091102321 9.284568662217 1.2306768919575222 -1 0 0
1562 1 80.40672324661499 9.284568662217 1.2306768919575222 -1 0 0
1560 4 76.83309110232099 11.34780614270974 0.034915091251834666 -1 0 0
1566 4 80.406723246615 11.34780614270974 0.03491509125183466 -1 0 0
1557 3 76.83309110232099 7.221331181724261 2.4256865078508074 -1 0 0
1563 3 80.406723246615 7.221331181724261 2.4256865078508074 -1 0 0
1564 3 78.619907174468 10.316187402463262 2.425686507850808 -1 0 0
1570 3 82.19353931876199 10.316187402463262 2.4256865078508074 -1 0 0
1573 1 85.76717146305599 6.189712441478 1.230676891957521 -1 0 0
1577 4 85.767171463056 8.25294992197074 0.03491509125183432 -1 0 0
1568 1 83.980355390909 9.284568662217 1.2306768919575217 -1 0 0
1574 1 87.553987535203 9.284568662217 1.230676891957522 -1 0 0
1572 4 83.980355390909 11.347806142709741 0.034915091251834056 -1 0 0
1578 4 87.55398753520299 11.34780614270974 0.03491509125183466 -1 0 0
1569 3 83.980355390909 7.22133118172426 2.4256865078508083 -1 0 0
1575 3 87.55398753520299 7.221331181724261 2.4256865078508074 -1 0 0
1576 3 85.767171463056 10.316187402463262 2.4256865078508074 -1 0 0
1579 1 89.34080360735 6.189712441478 1.2306768919575213 -1 0 0
1585 1 92.914435751644 6.189712441478 1.230676891957521 -1 0 0
1583 4 89.34080360735 8.252949921970743 0.03491509125183397 -1 0 0
1589 4 92.91443575164399 8.25294992197074 0.03491509125183432 -1 0 0
1580 1 91.12761967949699 9.284568662217 1.230676891957522 -1 0 0
1584 4 91.127619679497 11.34780614270974 0.03491509125183466 -1 0 0
1581 3 91.127619679497 7.221331181724261 2.4256865078508074 -1 0 0
1582 3 89.34080360735 10.316187402463262 2.425686507850808 -1 0 0
1588 3 92.91443575164399 10.316187402463262 2.4256865078508074 -1 0 0
1591 1 96.48806789593799 6.189712441478 1.230676891957521 -1 0 0
1595 4 96.488067895938 8.25294992197074 0.034915091251834326 -1 0 0
1586 1 94.701251823791 9.284568662217 1.2306768919575217 -1 0 0
1592 1 98.274883968085 9.284568662217 1.2306768919575222 -1 0 0
1590 4 94.701251823791 11.347806142709741 0.034915091251834056 -1 0 0
1596 4 98.27488396808499 11.34780614270974 0.03491509125183465 -1 0 0
1587 3 94.701251823791 7.22133118172426 2.425686507850808 -1 0 0
1593 3 98.27488396808499 7.221331181724261 2.4256865078508074 -1 0 0
1594 3 96.488067895938 10.316187402463262 2.4256865078508074 -1 0 0
1765 1 0 12.379424882956002 1.230676891957521 0 0 0
1771 1 3.573632144294002 12.379424882956 1.2306768919575213 0 0 0
1769 4 1.4636475883229417e-15 14.442662363448743 0.03491509125183477 0 0 0
1775 4 3.5736321442940016 14.442662363448742 0.03491509125183378 0 0 0
1766 1 1.7868160721470019 15.474281103695 1.2306768919575222 0 0 0
1772 1 5.360448216441 15.474281103695 1.2306768919575222 0 0 0
1767 3 1.7868160721470014 13.41104362320226 2.425686507850807 0 0 0
1773 3 5.360448216441001 13.41104362320226 2.4256865078508083 0 0 0
1768 3 1.4258783335215312e-15 16.50589984394126 2.425686507850807 0 0 0
1774 3 3.5736321442940016 16.505899843941265 2.4256865078508083 0 0 0
1777 1 7.1472642885880004 12.379424882956002 1.2306768919575208 0 0 0
1783 1 10.720896432882 12.379424882956002 1.2306768919575215 0 0 0
1781 4 7.1472642885880004 14.442662363448742 0.03491509125183452 0 0 0
1787 4 10.720896432882 14.442662363448742 0.03491509125183408 0 0 0
1778 1 8.934080360735 15.474281103695 1.230676891957522 0 0 0
1779 3 8.934080360734999 13.41104362320226 2.4256865078508074 0 0 0
1780 3 7.1472642885880004 16.50589984394126 2.4256865078508074 0 0 0
1786 3 10.720896432882 16.505899843941265 2.425686507850808 0 0 0
1789 1 14.294528577176003 12.379424882956002 1.230676891957521 0 0 0
1793 4 14.294528577176003 14.442662363448743 0.034915091251835194 0 0 0
1784 1 12.507712505029001 15.474281103695 1.2306768919575222 0 0 0
1790 1 16.081344649323004 15.474281103695 1.2306768919575224 0 0 0
1785 3 12.507712505029001 13.41104362320226 2.425686507850807 0 0 0
1791 3 16.081344649323 13.41104362320226 2.425686507850808 0 0 0
1792 3 14.294528577176003 16.50589984394126 2.4256865078508065 0 0 0
1795 1 17.86816072147 12.379424882956 1.2306768919575213 0 0 0
1801 1 21.441792865764004 12.379424882956 1.2306768919575213 0 0 0
1799 4 17.868160721470005 14.442662363448742 0.03491509125183398 0 0 0
1805 4 21.441792865764 14.442662363448742 0.03491509125183398 0 0 0
1796 1 19.654976793617003 15.474281103695002 1.2306768919575222 0 0 0
1802 1 23.228608937911 15.474281103695 1.2306768919575224 0 0 0
1797 3 19.654976793617003 13.41104362320226 2.4256865078508074 0 0 0
1803 3 23.228608937911005 13.41104362320226 2.425686507850808 0 0 0
1798 3 17.868160721470005 16.505899843941265 2.425686507850808 0 0 0
1804 3 21.441792865764 16.505899843941265 2.425686507850808 0 0 0
1807 1 25.015425010058003 12.379424882956 1.230676891957521 0 0 0
1813 1 28.589057154352002 12.379424882956 1.2306768919575213 0 0 0
1811 4 25.015425010058003 14.442662363448743 0.034915091251834805 0 0 0
1817 4 28.589057154352005 14.442662363448742 0.03491509125183398 0 0 0
1808 1 26.802241082205004 15.474281103695 1.2306768919575224 0 0 0
1809 3 26.802241082205 13.41104362320226 2.425686507850808 0 0 0
1810 3 25.015425010058003 16.50589984394126 2.4256865078508074 0 0 0
1816 3 28.589057154352005 16.505899843941265 2.425686507850808 0 0 0
1819 1 32.162689298646 12.379424882956 1.2306768919575213 0 0 0
1823 4 32.162689298646 14.442662363448742 0.034915091251834326 0 0 0
1814 1 30.375873226499003 15.474281103695002 1.2306768919575222 0 0 0
1820 1 33.949505370793005 15.474281103695 1.2306768919575224 0 0 0
1815 3 30.375873226499003 13.41104362320226 2.4256865078508074 0 0 0
1821 3 33.949505370793005 13.41104362320226 2.4256865078508074 0 0 0
1822 3 32.162689298646 16.505899843941265 2.4256865078508074 0 0 0
1825 1 35.73632144294 12.379424882956 1.2306768919575208 0 0 0
1831 1 39.309953587234006 12.379424882956 1.2306768919575213 0 0 0
1829 4 35.73632144294 14.442662363448742 0.03491509125183409 0 0 0
1835 4 39.309953587234006 14.442662363448742 0.034915091251834326 0 0 0
1826 1 37.523137515087 15.474281103695 1.2306768919575224 0 0 0
1832 1 41.096769659381 15.474281103695002 1.2306768919575222 0 0 0
1827 3 37.523137515087 13.41104362320226 2.4256865078508074 0 0 0
1833 3 41.096769659381 13.41104362320226 2.425686507850808 0 0 0
1828 3 35.73632144294 16.505899843941265 2.425686507850808 0 0 0
1834 3 39.309953587234006 16.505899843941265 2.4256865078508074 0 0 0
1837 1 42.883585731528 12.379424882956 1.2306768919575213 0 0 0
1843 1 46.457217875822 12.379424882956 1.2306768919575208 0 0 0
1841 4 42.883585731528 14.442662363448742 0.034915091251834326 0 0 0
1847 4 46.457217875822 14.442662363448742 0.03491509125183415 0 0 0
1838 1 44.670401803675006 15.474281103695 1.2306768919575224 0 0 0
1839 3 44.670401803675006 13.41104362320226 2.4256865078508074 0 0 0
1840 3 42.883585731528 16.505899843941265 2.4256865078508074 0 0 0
1846 3 46.457217875822 16.505899843941265 2.425686507850808 0 0 0
1681 1 50.030850020116 12.379424882956002 1.2306768919575208 -1 0 0
1685 4 50.030850020116 14.442662363448742 0.03491509125183338 -1 0 0
1844 1 48.244033947969 15.474281103695 1.2306768919575224 0 0 0
1682 1 51.817666092262996 15.474281103695 1.2306768919575224 -1 0 0
1845 3 48.244033947969 13.41104362320226 2.425686507850808 0 0 0
1683 3 51.817666092262996 13.41104362320226 2.4256865078508083 -1 0 0
1684 3 50.030850020116 16.505899843941265 2.4256865078508083 -1 0 0
1687 1 53.60448216441 12.379424882956002 1.2306768919575208 -1 0 0
1693 1 57.178114308704004 12.379424882956002 1.230676891957521 -1 0 0
1691 4 53.60448216441 14.442662363448742 0.03491509125183441 -1 0 0
1697 4 57.178114308704 14.442662363448742 0.0349150912518344 -1 0 0
1688 1 55.391298236557 15.474281103695 1.230676891957522 -1 0 0
1689 3 55.391298236557 13.41104362320226 2.4256865078508074 -1 0 0
1690 3 53.60448216441 16.50589984394126 2.425686507850808 -1 0 0
1696 3 57.178114308704 16.50589984394126 2.425686507850808 -1 0 0
1699 1 60.751746452998 12.379424882956 1.230676891957521 -1 0 0
1705 1 64.32537859729199 12.379424882956 1.2306768919575213 -1 0 0
1703 4 60.751746452998 14.442662363448742 0.0349150912518345 -1 0 0
1709 4 64.325378597292 14.442662363448742 0.03491509125183382 -1 0 0
1694 1 58.964930380850994 15.474281103695 1.230676891957522 -1 0 0
1700 1 62.538562525145004 15.474281103695 1.2306768919575224 -1 0 0
1695 3 58.964930380851 13.41104362320226 2.4256865078508074 -1 0 0
1701 3 62.538562525145 13.41104362320226 2.4256865078508083 -1 0 0
1702 3 60.751746452998 16.505899843941265 2.4256865078508074 -1 0 0
1708 3 64.325378597292 16.505899843941265 2.425686507850808 -1 0 0
1711 1 67.899010741586 12.379424882956002 1.230676891957521 -1 0 0
1715 4 67.899010741586 14.442662363448742 0.03491509125183409 -1 0 0
1706 1 66.112194669439 15.474281103695 1.2306768919575222 -1 0 0
1712 1 69.68582681373299 15.474281103695 1.2306768919575224 -1 0 0
1707 3 66.11219466943899 13.41104362320226 2.4256865078508074 -1 0 0
1713 3 69.685826813733 13.41104362320226 2.4256865078508074 -1 0 0
1714 3 67.899010741586 16.50589984394126 2.425686507850808 -1 0 0
1717 1 71.47264288588 12.379424882956 1.2306768919575213 -1 0 0
1723 1 75.04627503017399 12.379424882956 1.2306768919575213 -1 0 0
1721 4 71.47264288587999 14.442662363448742 0.03491509125183433 -1 0 0
1727 4 75.046275030174 14.442662363448742 0.034915091251834326 -1 0 0
1718 1 73.259458958027 15.474281103695002 1.230676891957522 -1 0 0
1719 3 73.259458958027 13.41104362320226 2.425686507850808 -1 0 0
1720 3 71.47264288587999 16.505899843941265 2.4256865078508074 -1 0 0
1726 3 75.046275030174 16.505899843941265 2.4256865078508074 -1 0 0
1729 1 78.619907174468 12.379424882956 1.230676891957521 -1 0 0
1735 1 82.193539318762 12.379424882956 1.2306768919575213 -1 0 0
1733 4 78.619907174468 14.442662363448742 0.0349150912518341 -1 0 0