LAMMPS data file via write_data, version 29 Aug 2024, timestep = 0, units = metal

2688 atoms
3 atom types

0 100.061700040232 xlo xhi
0 99.035399063648 ylo yhi
0 17.464054739001 zlo zhi

Masses

1 195.084
2 32.06
3 32.06

Atoms # atomic

1429 1 0 0 1.2320273695000008 0 0 0
1435 1 3.5736321442940024 0 1.2320273695000008 0 0 0
1441 1 7.147264288587998 0 1.2320273695000008 0 0 0
1447 1 10.720896432882 0 1.2320273695000008 0 0 0
1453 1 14.294528577176003 0 1.2320273695000008 0 0 0
1459 1 17.868160721469998 0 1.2320273695000008 0 0 0
1465 1 21.441792865764008 0 1.2320273695000008 0 0 0
1471 1 25.015425010058003 0 1.2320273695000008 0 0 0
1477 1 28.589057154352 0 1.2320273695000008 0 0 0
1483 1 32.16268929864601 0 1.2320273695000008 0 0 0
1489 1 35.73632144294 0 1.2320273695000008 0 0 0
1495 1 39.309953587234 0 1.2320273695000008 0 0 0
1501 1 42.88358573152801 0 1.2320273695000008 0 0 0
1507 1 46.457217875822 0 1.2320273695000008 0 0 0
1345 1 50.030850020116 0 1.2320273695000008 -1 0 0
1351 1 53.60448216441 0 1.2320273695000008 -1 0 0
1357 1 57.178114308704 0 1.2320273695000008 -1 0 0
1363 1 60.751746452998 0 1.2320273695000008 -1 0 0
1369 1 64.325378597292 0 1.2320273695000008 -1 0 0
1375 1 67.899010741586 0 1.2320273695000008 -1 0 0
1381 1 71.47264288587999 0 1.2320273695000008 -1 0 0
1387 1 75.046275030174 0 1.2320273695000008 -1 0 0
1393 1 78.619907174468 0 1.2320273695000008 -1 0 0
1399 1 82.19353931876199 0 1.2320273695000008 -1 0 0
1405 1 85.767171463056 0 1.2320273695000008 -1 0 0
1411 1 89.34080360735 0 1.2320273695000008 -1 0 0
1417 1 92.91443575164399 0 1.2320273695000008 -1 0 0
1423 1 96.488067895938 0 1.2320273695000008 -1 0 0
1433 3 0 2.063237480493001 0 0 0 0
1430 1 1.7868160721470048 3.094856220738997 1.2320273695000008 0 0 0
1439 3 3.5736321442940024 2.063237480493001 0 0 0 0
1436 1 5.360448216441 3.094856220738997 1.2320273695000008 0 0 0
1445 3 7.147264288587998 2.063237480493001 0 0 0 0
1442 1 8.934080360735003 3.094856220738997 1.2320273695000008 0 0 0
1451 3 10.720896432882 2.063237480493001 0 0 0 0
1448 1 12.507712505028998 3.094856220738997 1.2320273695000008 0 0 0
1457 3 14.294528577176003 2.063237480493001 0 0 0 0
1454 1 16.081344649323007 3.094856220738997 1.2320273695000008 0 0 0
1463 3 17.868160721469998 2.063237480493001 0 0 0 0
1460 1 19.654976793617003 3.094856220738997 1.2320273695000008 0 0 0
1469 3 21.441792865764008 2.063237480493001 0 0 0 0
1466 1 23.228608937910998 3.094856220738997 1.2320273695000008 0 0 0
1475 3 25.015425010058003 2.063237480493001 0 0 0 0
1472 1 26.802241082205008 3.094856220738997 1.2320273695000008 0 0 0
1481 3 28.589057154352 2.063237480493001 0 0 0 0
1478 1 30.375873226499003 3.094856220738997 1.2320273695000008 0 0 0
1487 3 32.16268929864601 2.063237480493001 0 0 0 0
1484 1 33.949505370793 3.094856220738997 1.2320273695000008 0 0 0
1493 3 35.73632144294 2.063237480493001 0 0 0 0
1490 1 37.52313751508701 3.094856220738997 1.2320273695000008 0 0 0
1499 3 39.309953587234 2.063237480493001 0 0 0 0
1496 1 41.096769659381 3.094856220738997 1.2320273695000008 0 0 0
1505 3 42.88358573152801 2.063237480493001 0 0 0 0
1502 1 44.670401803675 3.094856220738997 1.2320273695000008 0 0 0
1511 3 46.457217875822 2.063237480493001 0 0 0 0
1508 1 48.24403394796901 3.094856220738997 1.2320273695000008 0 0 0
1349 3 50.030850020116 2.063237480493001 0 -1 0 0
1346 1 51.817666092262996 3.094856220738997 1.2320273695000008 -1 0 0
1355 3 53.60448216441 2.063237480493001 0 -1 0 0
1352 1 55.391298236557 3.094856220738997 1.2320273695000008 -1 0 0
1361 3 57.178114308704 2.063237480493001 0 -1 0 0
1358 1 58.964930380851 3.094856220738997 1.2320273695000008 -1 0 0
1367 3 60.751746452998 2.063237480493001 0 -1 0 0
1364 1 62.538562525145 3.094856220738997 1.2320273695000008 -1 0 0
1373 3 64.325378597292 2.063237480493001 0 -1 0 0
1370 1 66.11219466943899 3.094856220738997 1.2320273695000008 -1 0 0
1379 3 67.899010741586 2.063237480493001 0 -1 0 0
1376 1 69.685826813733 3.094856220738997 1.2320273695000008 -1 0 0
1385 3 71.47264288587999 2.063237480493001 0 -1 0 0
1382 1 73.259458958027 3.094856220738997 1.2320273695000008 -1 0 0
1391 3 75.046275030174 2.063237480493001 0 -1 0 0
1388 1 76.83309110232099 3.094856220738997 1.2320273695000008 -1 0 0
1397 3 78.619907174468 2.063237480493001 0 -1 0 0
1394 1 80.406723246615 3.094856220738997 1.2320273695000008 -1 0 0
1403 3 82.19353931876199 2.063237480493001 0 -1 0 0
1400 1 83.980355390909 3.094856220738997 1.2320273695000008 -1 0 0
1409 3 85.767171463056 2.063237480493001 0 -1 0 0
1406 1 87.55398753520299 3.094856220738997 1.2320273695000008 -1 0 0
1415 3 89.34080360735 2.063237480493001 0 -1 0 0
1412 1 91.127619679497 3.094856220738997 1.2320273695000008 -1 0 0
1421 3 92.91443575164399 2.063237480493001 0 -1 0 0
1418 1 94.701251823791 3.094856220738997 1.2320273695000008 -1 0 0
1427 3 96.488067895938 2.063237480493001 0 -1 0 0
1424 1 98.27488396808499 3.094856220738997 1.2320273695000008 -1 0 0
1434 3 1.7868160721470048 5.158093701231998 0 0 0 0
1440 3 5.360448216441 5.158093701231998 0 0 0 0
1446 3 8.934080360735003 5.158093701231998 0 0 0 0
1452 3 12.507712505028998 5.158093701231998 0 0 0 0
1458 3 16.081344649323007 5.158093701231998 0 0 0 0
1464 3 19.654976793617003 5.158093701231998 0 0 0 0
1470 3 23.228608937910998 5.158093701231998 0 0 0 0
1476 3 26.802241082205008 5.158093701231998 0 0 0 0
1482 3 30.375873226499003 5.158093701231998 0 0 0 0
1488 3 33.949505370793 5.158093701231998 0 0 0 0
1494 3 37.52313751508701 5.158093701231998 0 0 0 0
1500 3 41.096769659381 5.158093701231998 0 0 0 0
1506 3 44.670401803675 5.158093701231998 0 0 0 0
1512 3 48.24403394796901 5.158093701231998 0 0 0 0
1350 3 51.817666092262996 5.158093701231998 0 -1 0 0
1356 3 55.391298236557 5.158093701231998 0 -1 0 0
1362 3 58.964930380851 5.158093701231998 0 -1 0 0
1368 3 62.538562525145 5.158093701231998 0 -1 0 0
1374 3 66.11219466943899 5.158093701231998 0 -1 0 0
1380 3 69.685826813733 5.158093701231998 0 -1 0 0
1386 3 73.259458958027 5.158093701231998 0 -1 0 0
1392 3 76.83309110232099 5.158093701231998 0 -1 0 0
1398 3 80.406723246615 5.158093701231998 0 -1 0 0
1404 3 83.980355390909 5.158093701231998 0 -1 0 0
1410 3 87.55398753520299 5.158093701231998 0 -1 0 0
1416 3 91.127619679497 5.158093701231998 0 -1 0 0
1422 3 94.701251823791 5.158093701231998 0 -1 0 0
1428 3 98.27488396808499 5.158093701231998 0 -1 0 0
1597 1 0 6.189712441478001 1.2320273695000008 0 0 0
1603 1 3.5736321442940024 6.189712441478001 1.2320273695000008 0 0 0
1609 1 7.147264288587998 6.189712441478001 1.2320273695000008 0 0 0
1615 1 10.720896432882 6.189712441478001 1.2320273695000008 0 0 0
1621 1 14.294528577176003 6.189712441478001 1.2320273695000008 0 0 0
1627 1 17.868160721469998 6.189712441478001 1.2320273695000008 0 0 0
1633 1 21.441792865764008 6.189712441478001 1.2320273695000008 0 0 0
1639 1 25.015425010058003 6.189712441478001 1.2320273695000008 0 0 0
1645 1 28.589057154352 6.189712441478001 1.2320273695000008 0 0 0
1651 1 32.16268929864601 6.189712441478001 1.2320273695000008 0 0 0
1657 1 35.73632144294 6.189712441478001 1.2320273695000008 0 0 0
1663 1 39.309953587234 6.189712441478001 1.2320273695000008 0 0 0
1669 1 42.88358573152801 6.189712441478001 1.2320273695000008 0 0 0
1675 1 46.457217875822 6.189712441478001 1.2320273695000008 0 0 0
1513 1 50.030850020116 6.189712441478001 1.2320273695000008 -1 0 0
1519 1 53.60448216441 6.189712441478001 1.2320273695000008 -1 0 0
1525 1 57.178114308704 6.189712441478001 1.2320273695000008 -1 0 0
1531 1 60.751746452998 6.189712441478001 1.2320273695000008 -1 0 0
1537 1 64.325378597292 6.189712441478001 1.2320273695000008 -1 0 0
1543 1 67.899010741586 6.189712441478001 1.2320273695000008 -1 0 0
1549 1 71.47264288587999 6.189712441478001 1.2320273695000008 -1 0 0
1555 1 75.046275030174 6.189712441478001 1.2320273695000008 -1 0 0
1561 1 78.619907174468 6.189712441478001 1.2320273695000008 -1 0 0
1567 1 82.19353931876199 6.189712441478001 1.2320273695000008 -1 0 0
1573 1 85.767171463056 6.189712441478001 1.2320273695000008 -1 0 0
1579 1 89.34080360735 6.189712441478001 1.2320273695000008 -1 0 0
1585 1 92.91443575164399 6.189712441478001 1.2320273695000008 -1 0 0
1591 1 96.488067895938 6.189712441478001 1.2320273695000008 -1 0 0
1601 3 0 8.252949921971002 0 0 0 0
1607 3 3.5736321442940024 8.252949921971002 0 0 0 0
1613 3 7.147264288587998 8.252949921971002 0 0 0 0
1619 3 10.720896432882 8.252949921971002 0 0 0 0
1625 3 14.294528577176003 8.252949921971002 0 0 0 0
1631 3 17.868160721469998 8.252949921971002 0 0 0 0
1637 3 21.441792865764008 8.252949921971002 0 0 0 0
1643 3 25.015425010058003 8.252949921971002 0 0 0 0
1649 3 28.589057154352 8.252949921971002 0 0 0 0
1655 3 32.16268929864601 8.252949921971002 0 0 0 0
1661 3 35.73632144294 8.252949921971002 0 0 0 0
1667 3 39.309953587234 8.252949921971002 0 0 0 0
1673 3 42.88358573152801 8.252949921971002 0 0 0 0
1679 3 46.457217875822 8.252949921971002 0 0 0 0
1517 3 50.030850020116 8.252949921971002 0 -1 0 0
1523 3 53.60448216441 8.252949921971002 0 -1 0 0
1529 3 57.178114308704 8.252949921971002 0 -1 0 0
1535 3 60.751746452998 8.252949921971002 0 -1 0 0
1541 3 64.325378597292 8.252949921971002 0 -1 0 0
1547 3 67.899010741586 8.252949921971002 0 -1 0 0
1553 3 71.47264288587999 8.252949921971002 0 -1 0 0
1559 3 75.046275030174 8.252949921971002 0 -1 0 0
1565 3 78.619907174468 8.252949921971002 0 -1 0 0
1571 3 82.19353931876199 8.252949921971002 0 -1 0 0
1577 3 85.767171463056 8.252949921971002 0 -1 0 0
1583 3 89.34080360735 8.252949921971002 0 -1 0 0
1589 3 92.91443575164399 8.252949921971002 0 -1 0 0
1595 3 96.488067895938 8.252949921971002 0 -1 0 0
1598 1 1.7868160721470048 9.284568662216998 1.2320273695000008 0 0 0
1604 1 5.360448216441 9.284568662216998 1.2320273695000008 0 0 0
1610 1 8.934080360735003 9.284568662216998 1.2320273695000008 0 0 0
1616 1 12.507712505028998 9.284568662216998 1.2320273695000008 0 0 0
1622 1 16.081344649323007 9.284568662216998 1.2320273695000008 0 0 0
1628 1 19.654976793617003 9.284568662216998 1.2320273695000008 0 0 0
1634 1 23.228608937910998 9.284568662216998 1.2320273695000008 0 0 0
1640 1 26.802241082205008 9.284568662216998 1.2320273695000008 0 0 0
1646 1 30.375873226499003 9.284568662216998 1.2320273695000008 0 0 0
1652 1 33.949505370793 9.284568662216998 1.2320273695000008 0 0 0
1658 1 37.52313751508701 9.284568662216998 1.2320273695000008 0 0 0
1664 1 41.096769659381 9.284568662216998 1.2320273695000008 0 0 0
1670 1 44.670401803675 9.284568662216998 1.2320273695000008 0 0 0
1676 1 48.24403394796901 9.284568662216998 1.2320273695000008 0 0 0
1514 1 51.817666092262996 9.284568662216998 1.2320273695000008 -1 0 0
1520 1 55.391298236557 9.284568662216998 1.2320273695000008 -1 0 0
1526 1 58.964930380851 9.284568662216998 1.2320273695000008 -1 0 0
1532 1 62.538562525145 9.284568662216998 1.2320273695000008 -1 0 0
1538 1 66.11219466943899 9.284568662216998 1.2320273695000008 -1 0 0
1544 1 69.685826813733 9.284568662216998 1.2320273695000008 -1 0 0
1550 1 73.259458958027 9.284568662216998 1.2320273695000008 -1 0 0
1556 1 76.83309110232099 9.284568662216998 1.2320273695000008 -1 0 0
1562 1 80.406723246615 9.284568662216998 1.2320273695000008 -1 0 0
1568 1 83.980355390909 9.284568662216998 1.2320273695000008 -1 0 0
1574 1 87.55398753520299 9.284568662216998 1.2320273695000008 -1 0 0
1580 1 91.127619679497 9.284568662216998 1.2320273695000008 -1 0 0
1586 1 94.701251823791 9.284568662216998 1.2320273695000008 -1 0 0
1592 1 98.27488396808499 9.284568662216998 1.2320273695000008 -1 0 0
1602 3 1.7868160721470048 11.347806142709999 0 0 0 0
1765 1 0 12.379424882956002 1.2320273695000008 0 0 0
1771 1 3.5736321442940024 12.379424882956002 1.2320273695000008 0 0 0
1608 3 5.360448216441 11.347806142709999 0 0 0 0
1777 1 7.147264288587998 12.379424882956002 1.2320273695000008 0 0 0
1614 3 8.934080360735003 11.347806142709999 0 0 0 0
1783 1 10.720896432882 12.379424882956002 1.2320273695000008 0 0 0
1620 3 12.507712505028998 11.347806142709999 0 0 0 0
1789 1 14.294528577176003 12.379424882956002 1.2320273695000008 0 0 0
1626 3 16.081344649323007 11.347806142709999 0 0 0 0
1795 1 17.868160721469998 12.379424882956002 1.2320273695000008 0 0 0
1632 3 19.654976793617003 11.347806142709999 0 0 0 0
1801 1 21.441792865764008 12.379424882956002 1.2320273695000008 0 0 0
1638 3 23.228608937910998 11.347806142709999 0 0 0 0
1807 1 25.015425010058003 12.379424882956002 1.2320273695000008 0 0 0
1644 3 26.802241082205008 11.347806142709999 0 0 0 0
1813 1 28.589057154352 12.379424882956002 1.2320273695000008 0 0 0
1650 3 30.375873226499003 11.347806142709999 0 0 0 0
1819 1 32.16268929864601 12.379424882956002 1.2320273695000008 0 0 0
1656 3 33.949505370793 11.347806142709999 0 0 0 0
1825 1 35.73632144294 12.379424882956002 1.2320273695000008 0 0 0
1662 3 37.52313751508701 11.347806142709999 0 0 0 0
1831 1 39.309953587234 12.379424882956002 1.2320273695000008 0 0 0
1668 3 41.096769659381 11.347806142709999 0 0 0 0
1837 1 42.88358573152801 12.379424882956002 1.2320273695000008 0 0 0
1674 3 44.670401803675 11.347806142709999 0 0 0 0
1843 1 46.457217875822 12.379424882956002 1.2320273695000008 0 0 0
1680 3 48.24403394796901 11.347806142709999 0 0 0 0
1681 1 50.030850020116 12.379424882956002 1.2320273695000008 -1 0 0
1518 3 51.817666092262996 11.347806142709999 0 -1 0 0
1687 1 53.60448216441 12.379424882956002 1.2320273695000008 -1 0 0
1524 3 55.391298236557 11.347806142709999 0 -1 0 0
1693 1 57.178114308704 12.379424882956002 1.2320273695000008 -1 0 0
1530 3 58.964930380851 11.347806142709999 0 -1 0 0
1699 1 60.751746452998 12.379424882956002 1.2320273695000008 -1 0 0
1536 3 62.538562525145 11.347806142709999 0 -1 0 0
1705 1 64.325378597292 12.379424882956002 1.2320273695000008 -1 0 0
1542 3 66.11219466943899 11.347806142709999 0 -1 0 0
1711 1 67.899010741586 12.379424882956002 1.2320273695000008 -1 0 0
1548 3 69.685826813733 11.347806142709999 0 -1 0 0
1717 1 71.47264288587999 12.379424882956002 1.2320273695000008 -1 0 0
1554 3 73.259458958027 11.347806142709999 0 -1 0 0
1723 1 75.046275030174 12.379424882956002 1.2320273695000008 -1 0 0
1560 3 76.83309110232099 11.347806142709999 0 -1 0 0
1729 1 78.619907174468 12.379424882956002 1.2320273695000008 -1 0 0
1566 3 80.406723246615 11.347806142709999 0 -1 0 0
1735 1 82.19353931876199 12.379424882956002 1.2320273695000008 -1 0 0
1572 3 83.980355390909 11.347806142709999 0 -1 0 0
1741 1 85.767171463056 12.379424882956002 1.2320273695000008 -1 0 0
1578 3 87.55398753520299 11.347806142709999 0 -1 0 0
1747 1 89.34080360735 12.379424882956002 1.2320273695000008 -1 0 0
1584 3 91.127619679497 11.347806142709999 0 -1 0 0
1753 1 92.91443575164399 12.379424882956002 1.2320273695000008 -1 0 0
1590 3 94.701251823791 11.347806142709999 0 -1 0 0
1759 1 96.488067895938 12.379424882956002 1.2320273695000008 -1 0 0
1596 3 98.27488396808499 11.347806142709999 0 -1 0 0
1769 3 0 14.442662363449003 0 0 0 0
1775 3 3.5736321442940024 14.442662363449003 0 0 0 0
1781 3 7.147264288587998 14.442662363449003 0 0 0 0
1787 3 10.720896432882 14.442662363449003 0 0 0 0
1793 3 14.294528577176003 14.442662363449003 0 0 0 0
1799 3 17.868160721469998 14.442662363449003 0 0 0 0
1805 3 21.441792865764008 14.442662363449003 0 0 0 0
1811 3 25.015425010058003 14.442662363449003 0 0 0 0
1817 3 28.589057154352 14.442662363449003 0 0 0 0
1823 3 32.16268929864601 14.442662363449003 0 0 0 0
1829 3 35.73632144294 14.442662363449003 0 0 0 0
1835 3 39.309953587234 14.442662363449003 0 0 0 0
1841 3 42.88358573152801 14.442662363449003 0 0 0 0
1847 3 46.457217875822 14.442662363449003 0 0 0 0
1685 3 50.030850020116 14.442662363449003 0 -1 0 0
1691 3 53.60448216441 14.442662363449003 0 -1 0 0
1697 3 57.178114308704 14.442662363449003 0 -1 0 0
1703 3 60.751746452998 14.442662363449003 0 -1 0 0
1709 3 64.325378597292 14.442662363449003 0 -1 0 0
1715 3 67.899010741586 14.442662363449003 0 -1 0 0
1721 3 71.47264288587999 14.442662363449003 0 -1 0 0
1727 3 75.046275030174 14.442662363449003 0 -1 0 0
1733 3 78.619907174468 14.442662363449003 0 -1 0 0
1739 3 82.19353931876199 14.442662363449003 0 -1 0 0
1745 3 85.767171463056 14.442662363449003 0 -1 0 0
1751 3 89.34080360735 14.442662363449003 0 -1 0 0
1757 3 92.91443575164399 14.442662363449003 0 -1 0 0
1763 3 96.488067895938 14.442662363449003 0 -1 0 0
1766 1 1.7868160721470048 15.474281103694999 1.2320273695000008 0 0 0
1772 1 5.360448216441 15.474281103694999 1.2320273695000008 0 0 0
1778 1 8.934080360735003 15.474281103694999 1.2320273695000008 0 0 0
1784 1 12.507712505028998 15.474281103694999 1.2320273695000008 0 0 0
1790 1 16.081344649323007 15.474281103694999 1.2320273695000008 0 0 0
1796 1 19.654976793617003 15.474281103694999 1.2320273695000008 0 0 0
1802 1 23.228608937910998 15.474281103694999 1.2320273695000008 0 0 0
1808 1 26.802241082205008 15.474281103694999 1.2320273695000008 0 0 0
1814 1 30.375873226499003 15.474281103694999 1.2320273695000008 0 0 0
1820 1 33.949505370793 15.474281103694999 1.2320273695000008 0 0 0
1826 1 37.52313751508701 15.474281103694999 1.2320273695000008 0 0 0
1832 1 41.096769659381 15.474281103694999 1.2320273695000008 0 0 0
1838 1 44.670401803675 15.474281103694999 1.2320273695000008 0 0 0
1844 1 48.24403394796901 15.474281103694999 1.2320273695000008 0 0 0
1682 1 51.817666092262996 15.474281103694999 1.2320273695000008 -1 0 0
1688 1 55.391298236557 15.474281103694999 1.2320273695000008 -1 0 0
1694 1 58.964930380851 15.474281103694999 1.2320273695000008 -1 0 0
1700 1 62.538562525145 15.474281103694999 1.2320273695000008 -1 0 0
1706 1 66.11219466943899 15.474281103694999 1.2320273695000008 -1 0 0
1712 1 69.685826813733 15.474281103694999 1.2320273695000008 -1 0 0
1718 1 73.259458958027 15.474281103694999 1.2320273695000008 -1 0 0
1724 1 76.83309110232099 15.474281103694999 1.2320273695000008 -1 0 0
1730 1 80.406723246615 15.474281103694999 1.2320273695000008 -1 0 0
1736 1 83.980355390909 15.474281103694999 1.2320273695000008 -1 0 0
1742 1 87.55398753520299 15.474281103694999 1.2320273695000008 -1 0 0
1748 1 91.127619679497 15.474281103694999 1.2320273695000008 -1 0 0
1754 1 94.701251823791 15.474281103694999 1.2320273695000008 -1 0 0
1760 1 98.27488396808499 15.474281103694999 1.2320273695000008 -1 0 0
1770 3 1.7868160721470048 17.537518584188 0 0 0 0
1776 3 5.360448216441 17.537518584188 0 0 0 0
1782 3 8.934080360735003 17.537518584188 0 0 0 0
1788 3 12.507712505028998 17.537518584188 0 0 0 0
1794 3 16.081344649323007 17.537518584188 0 0 0 0
1800 3 19.654976793617003 17.537518584188 0 0 0 0
1806 3 23.228608937910998 17.537518584188 0 0 0 0
1812 3 26.802241082205008 17.537518584188 0 0 0 0
1818 3 30.375873226499003 17.537518584188 0 0 0 0
1824 3 33.949505370793 17.537518584188 0 0 0 0
1830 3 37.52313751508701 17.537518584188 0 0 0 0
1836 3 41.096769659381 17.537518584188 0 0 0 0
1842 3 44.670401803675 17.537518584188 0 0 0 0
1848 3 48.24403394796901 17.537518584188 0 0 0 0
1686 3 51.817666092262996 17.537518584188 0 -1 0 0
1692 3 55.391298236557 17.537518584188 0 -1 0 0
1698 3 58.964930380851 17.537518584188 0 -1 0 0
1704 3 62.538562525145 17.537518584188 0 -1 0 0
1710 3 66.11219466943899 17.537518584188 0 -1 0 0
1716 3 69.685826813733 17.537518584188 0 -1 0 0
1722 3 73.259458958027 17.537518584188 0 -1 0 0
1728 3 76.83309110232099 17.537518584188 0 -1 0 0
1734 3 80.406723246615 17.537518584188 0 -1 0 0
1740 3 83.980355390909 17.537518584188 0 -1 0 0
1746 3 87.55398753520299 17.537518584188 0 -1 0 0
1752 3 91.127619679497 17.537518584188 0 -1 0 0
1758 3 94.701251823791 17.537518584188 0 -1 0 0
1764 3 98.27488396808499 17.537518584188 0 -1 0 0
1933 1 0 18.569137324434003 1.2320273695000008 0 0 0
1939 1 3.5736321442940024 18.569137324434003 1.2320273695000008 0 0 0
1945 1 7.147264288587998 18.569137324434003 1.2320273695000008 0 0 0
1951 1 10.720896432882 18.569137324434003 1.2320273695000008 0 0 0
1957 1 14.294528577176003 18.569137324434003 1.2320273695000008 0 0 0
1963 1 17.868160721469998 18.569137324434003 1.2320273695000008 0 0 0
1969 1 21.441792865764008 18.569137324434003 1.2320273695000008 0 0 0
1975 1 25.015425010058003 18.569137324434003 1.2320273695000008 0 0 0
1981 1 28.589057154352 18.569137324434003 1.2320273695000008 0 0 0
1987 1 32.16268929864601 18.569137324434003 1.2320273695000008 0 0 0
1993 1 35.73632144294 18.569137324434003 1.2320273695000008 0 0 0
1999 1 39.309953587234 18.569137324434003 1.2320273695000008 0 0 0
2005 1 42.88358573152801 18.569137324434003 1.2320273695000008 0 0 0
2011 1 46.457217875822 18.569137324434003 1.2320273695000008 0 0 0
1849 1 50.030850020116 18.569137324434003 1.2320273695000008 -1 0 0
1855 1 53.60448216441 18.569137324434003 1.2320273695000008 -1 0 0
1861 1 57.178114308704 18.569137324434003 1.2320273695000008 -1 0 0
1867 1 60.751746452998 18.569137324434003 1.2320273695000008 -1 0 0
1873 1 64.325378597292 18.569137324434003 1.2320273695000008 -1 0 0
1879 1 67.899010741586 18.569137324434003 1.2320273695000008 -1 0 0
1885 1 71.47264288587999 18.569137324434003 1.2320273695000008 -1 0 0
1891 1 75.046275030174 18.569137324434003 1.2320273695000008 -1 0 0
1897 1 78.619907174468 18.569137324434003 1.2320273695000008 -1 0 0
1903 1 82.19353931876199 18.569137324434003 1.2320273695000008 -1 0 0
1909 1 85.767171463056 18.569137324434003 1.2320273695000008 -1 0 0
1915 1 89.34080360735 18.569137324434003 1.2320273695000008 -1 0 0
1921 1 92.91443575164399 18.569137324434003 1.2320273695000008 -1 0 0
1927 1 96.488067895938 18.569137324434003 1.2320273695000008 -1 0 0
1937 3 0 20.632374804927004 0 0 0 0
1934 1 1.7868160721470048 21.663993545173007 1.2320273695000008 0 0 0
1943 3 3.5736321442940024 20.632374804927004 0 0 0 0
1940 1 5.360448216441 21.663993545173007 1.2320273695000008 0 0 0
1949 3 7.147264288587998 20.632374804927004 0 0 0 0
1946 1 8.934080360735003 21.663993545173007 1.2320273695000008 0 0 0
1955 3 10.720896432882 20.632374804927004 0 0 0 0
1952 1 12.507712505028998 21.663993545173007 1.2320273695000008 0 0 0
1961 3 14.294528577176003 20.632374804927004 0 0 0 0
1958 1 16.081344649323007 21.663993545173007 1.2320273695000008 0 0 0
1967 3 17.868160721469998 20.632374804927004 0 0 0 0
1964 1 19.654976793617003 21.663993545173007 1.2320273695000008 0 0 0
1973 3 21.441792865764008 20.632374804927004 0 0 0 0
1970 1 23.228608937910998 21.663993545173007 1.2320273695000008 0 0 0
1979 3 25.015425010058003 20.632374804927004 0 0 0 0
1976 1 26.802241082205008 21.663993545173007 1.2320273695000008 0 0 0
1985 3 28.589057154352 20.632374804927004 0 0 0 0
1982 1 30.375873226499003 21.663993545173007 1.2320273695000008 0 0 0
1991 3 32.16268929864601 20.632374804927004 0 0 0 0
1988 1 33.949505370793 21.663993545173007 1.2320273695000008 0 0 0
1997 3 35.73632144294 20.632374804927004 0 0 0 0
1994 1 37.52313751508701 21.663993545173007 1.2320273695000008 0 0 0
2003 3 39.309953587234 20.632374804927004 0 0 0 0
2000 1 41.096769659381 21.663993545173007 1.2320273695000008 0 0 0
2009 3 42.88358573152801 20.632374804927004 0 0 0 0
2006 1 44.670401803675 21.663993545173007 1.2320273695000008 0 0 0
2015 3 46.457217875822 20.632374804927004 0 0 0 0
2012 1 48.24403394796901 21.663993545173007 1.2320273695000008 0 0 0
1853 3 50.030850020116 20.632374804927004 0 -1 0 0
1850 1 51.817666092262996 21.663993545173007 1.2320273695000008 -1 0 0
1859 3 53.60448216441 20.632374804927004 0 -1 0 0
1856 1 55.391298236557 21.663993545173007 1.2320273695000008 -1 0 0
1865 3 57.178114308704 20.632374804927004 0 -1 0 0
1862 1 58.964930380851 21.663993545173007 1.2320273695000008 -1 0 0
1871 3 60.751746452998 20.632374804927004 0 -1 0 0
1868 1 62.538562525145 21.663993545173007 1.2320273695000008 -1 0 0
1877 3 64.325378597292 20.632374804927004 0 -1 0 0
1874 1 66.11219466943899 21.663993545173007 1.2320273695000008 -1 0 0
1883 3 67.899010741586 20.632374804927004 0 -1 0 0
1880 1 69.685826813733 21.663993545173007 1.2320273695000008 -1 0 0
1889 3 71.47264288587999 20.632374804927004 0 -1 0 0
1886 1 73.259458958027 21.663993545173007 1.2320273695000008 -1 0 0
1895 3 75.046275030174 20.632374804927004 0 -1 0 0
1892 1 76.83309110232099 21.663993545173007 1.2320273695000008 -1 0 0
1901 3 78.619907174468 20.632374804927004 0 -1 0 0
1898 1 80.406723246615 21.663993545173007 1.2320273695000008 -1 0 0
1907 3 82.19353931876199 20.632374804927004 0 -1 0 0
1904 1 83.980355390909 21.663993545173007 1.2320273695000008 -1 0 0
1913 3 85.767171463056 20.632374804927004 0 -1 0 0
1910 1 87.55398753520299 21.663993545173007 1.2320273695000008 -1 0 0
1919 3 89.34080360735 20.632374804927004 0 -1 0 0
1916 1 91.127619679497 21.663993545173007 1.2320273695000008 -1 0 0
1925 3 92.91443575164399 20.632374804927004 0 -1 0 0
1922 1 94.701251823791 21.663993545173007 1.2320273695000008 -1 0 0
1931 3 96.488067895938 20.632374804927004 0 -1 0 0
1928 1 98.27488396808499 21.663993545173007 1.2320273695000008 -1 0 0
1938 3 1.7868160721470048 23.727231025665994 0 0 0 0
1944 3 5.360448216441 23.727231025665994 0 0 0 0
1950 3 8.934080360735003 23.727231025665994 0 0 0 0
1956 3 12.507712505028998 23.727231025665994 0 0 0 0
1962 3 16.081344649323007 23.727231025665994 0 0 0 0
1968 3 19.654976793617003 23.727231025665994 0 0 0 0
1974 3 23.228608937910998 23.727231025665994 0 0 0 0
1980 3 26.802241082205008 23.727231025665994 0 0 0 0
1986 3 30.375873226499003 23.727231025665994 0 0 0 0
1992 3 33.949505370793 23.727231025665994 0 0 0 0
1998 3 37.52313751508701 23.727231025665994 0 0 0 0
2004 3 41.096769659381 23.727231025665994 0 0 0 0
2010 3 44.670401803675 23.727231025665994 0 0 0 0
2016 3 48.24403394796901 23.727231025665994 0 0 0 0
1854 3 51.817666092262996 23.727231025665994 0 -1 0 0
1860 3 55.391298236557 23.727231025665994 0 -1 0 0
1866 3 58.964930380851 23.727231025665994 0 -1 0 0
1872 3 62.538562525145 23.727231025665994 0 -1 0 0
1878 3 66.11219466943899 23.727231025665994 0 -1 0 0
1884 3 69.685826813733 23.727231025665994 0 -1 0 0
1890 3 73.259458958027 23.727231025665994 0 -1 0 0
1896 3 76.83309110232099 23.727231025665994 0 -1 0 0
1902 3 80.406723246615 23.727231025665994 0 -1 0 0
1908 3 83.980355390909 23.727231025665994 0 -1 0 0
1914 3 87.55398753520299 23.727231025665994 0 -1 0 0
1920 3 91.127619679497 23.727231025665994 0 -1 0 0
1926 3 94.701251823791 23.727231025665994 0 -1 0 0
1932 3 98.27488396808499 23.727231025665994 0 -1 0 0
2101 1 0 24.758849765911997 1.2320273695000008 0 0 0
2107 1 3.5736321442940024 24.758849765911997 1.2320273695000008 0 0 0
2113 1 7.147264288587998 24.758849765911997 1.2320273695000008 0 0 0
2119 1 10.720896432882 24.758849765911997 1.2320273695000008 0 0 0
2125 1 14.294528577176003 24.758849765911997 1.2320273695000008 0 0 0
2131 1 17.868160721469998 24.758849765911997 1.2320273695000008 0 0 0
2137 1 21.441792865764008 24.758849765911997 1.2320273695000008 0 0 0
2143 1 25.015425010058003 24.758849765911997 1.2320273695000008 0 0 0
2149 1 28.589057154352 24.758849765911997 1.2320273695000008 0 0 0
2155 1 32.16268929864601 24.758849765911997 1.2320273695000008 0 0 0
2161 1 35.73632144294 24.758849765911997 1.2320273695000008 0 0 0
2167 1 39.309953587234 24.758849765911997 1.2320273695000008 0 0 0
2173 1 42.88358573152801 24.758849765911997 1.2320273695000008 0 0 0
2179 1 46.457217875822 24.758849765911997 1.2320273695000008 0 0 0
2017 1 50.030850020116 24.758849765911997 1.2320273695000008 -1 0 0
2023 1 53.60448216441 24.758849765911997 1.2320273695000008 -1 0 0
2029 1 57.178114308704 24.758849765911997 1.2320273695000008 -1 0 0
2035 1 60.751746452998 24.758849765911997 1.2320273695000008 -1 0 0
2041 1 64.325378597292 24.758849765911997 1.2320273695000008 -1 0 0
2047 1 67.899010741586 24.758849765911997 1.2320273695000008 -1 0 0
2053 1 71.47264288587999 24.758849765911997 1.2320273695000008 -1 0 0
2059 1 75.046275030174 24.758849765911997 1.2320273695000008 -1 0 0
2065 1 78.619907174468 24.758849765911997 1.2320273695000008 -1 0 0
2071 1 82.19353931876199 24.758849765911997 1.2320273695000008 -1 0 0
2077 1 85.767171463056 24.758849765911997 1.2320273695000008 -1 0 0
2083 1 89.34080360735 24.758849765911997 1.2320273695000008 -1 0 0
2089 1 92.91443575164399 24.758849765911997 1.2320273695000008 -1 0 0
2095 1 96.488067895938 24.758849765911997 1.2320273695000008 -1 0 0
2105 3 0 26.822087246404998 0 0 0 0
2111 3 3.5736321442940024 26.822087246404998 0 0 0 0
2117 3 7.147264288587998 26.822087246404998 0 0 0 0
2123 3 10.720896432882 26.822087246404998 0 0 0 0
2129 3 14.294528577176003 26.822087246404998 0 0 0 0
2135 3 17.868160721469998 26.822087246404998 0 0 0 0
2141 3 21.441792865764008 26.822087246404998 0 0 0 0
2147 3 25.015425010058003 26.822087246404998 0 0 0 0
2153 3 28.589057154352 26.822087246404998 0 0 0 0
2159 3 32.16268929864601 26.822087246404998 0 0 0 0
2165 3 35.73632144294 26.822087246404998 0 0 0 0
2171 3 39.309953587234 26.822087246404998 0 0 0 0
2177 3 42.88358573152801 26.822087246404998 0 0 0 0
2183 3 46.457217875822 26.822087246404998 0 0 0 0
2021 3 50.030850020116 26.822087246404998 0 -1 0 0
2027 3 53.60448216441 26.822087246404998 0 -1 0 0
2033 3 57.178114308704 26.822087246404998 0 -1 0 0
2039 3 60.751746452998 26.822087246404998 0 -1 0 0
2045 3 64.325378597292 26.822087246404998 0 -1 0 0
2051 3 67.899010741586 26.822087246404998 0 -1 0 0
2057 3 71.47264288587999 26.822087246404998 0 -1 0 0
2063 3 75.046275030174 26.822087246404998 0 -1 0 0
2069 3 78.619907174468 26.822087246404998 0 -1 0 0
2075 3 82.19353931876199 26.822087246404998 0 -1 0 0
2081 3 85.767171463056 26.822087246404998 0 -1 0 0
2087 3 89.34080360735 26.822087246404998 0 -1 0 0
2093 3 92.91443575164399 26.822087246404998 0 -1 0 0
2099 3 96.488067895938 26.822087246404998 0 -1 0 0
2102 1 1.7868160721470048 27.853705986651 1.2320273695000008 0 0 0
2108 1 5.360448216441 27.853705986651 1.2320273695000008 0 0 0
2114 1 8.934080360735003 27.853705986651 1.2320273695000008 0 0 0
2120 1 12.507712505028998 27.853705986651 1.2320273695000008 0 0 0
2126 1 16.081344649323007 27.853705986651 1.2320273695000008 0 0 0