LAMMPS data file via write_data, version 29 Aug 2024, timestep = 2, units = metal

8064 atoms
9 atom types

0 100.061700040232 xlo xhi
0 99.035399063648 ylo yhi
-50 50 zlo zhi

Masses

1 195.084
2 195.084
3 195.084
4 32.06
5 32.06
6 32.06
7 32.06
8 32.06
9 32.06

Atoms # atomic

1429 1 0 0 1.2306321647027652 0 0 0
1435 1 3.573632144294002 0 1.2306321647027652 0 0 0
1433 5 1.3561339377379103e-15 2.063237480492742 0.03481710059899694 0 0 0
1430 1 1.7868160721470019 3.0948562207390005 1.230632164702764 0 0 0
1439 5 3.5736321442940016 2.0632374804927407 0.034817100598995974 0 0 0
1436 1 5.360448216441 3.094856220739 1.230632164702764 0 0 0
1434 5 1.7868160721470014 5.158093701231741 0.03481710059899675 0 0 0
1440 5 5.360448216441001 5.15809370123174 0.03481710059899585 0 0 0
1431 4 1.7868160721470014 1.0316187402462602 2.4259102077207135 0 0 0
1437 4 5.360448216441001 1.031618740246261 2.4259102077207144 0 0 0
1432 4 1.5692869067381306e-15 4.12647496098526 2.425910207720713 0 0 0
1438 4 3.5736321442940016 4.126474960985261 2.425910207720714 0 0 0
1441 1 7.1472642885880004 0 1.230632164702765 0 0 0
1447 1 10.720896432882 0 1.2306321647027654 0 0 0
1445 5 7.1472642885880004 2.0632374804927416 0.03481710059899663 0 0 0
1442 1 8.934080360735 3.094856220739 1.2306321647027643 0 0 0
1451 5 10.720896432882 2.063237480492741 0.03481710059899638 0 0 0
1446 5 8.934080360735 5.158093701231741 0.03481710059899626 0 0 0
1443 4 8.934080360734999 1.0316187402462607 2.425910207720714 0 0 0
1444 4 7.1472642885880004 4.126474960985261 2.425910207720713 0 0 0
1450 4 10.720896432882 4.126474960985261 2.4259102077207135 0 0 0
1453 1 14.294528577176003 0 1.2306321647027647 0 0 0
1448 1 12.507712505029001 3.094856220739 1.230632164702764 0 0 0
1457 5 14.294528577176003 2.063237480492742 0.03481710059899728 0 0 0
1454 1 16.081344649323004 3.094856220739 1.2306321647027643 0 0 0
1452 5 12.507712505029001 5.158093701231741 0.03481710059899681 0 0 0
1458 5 16.081344649323004 5.15809370123174 0.03481710059899604 0 0 0
1449 4 12.507712505029001 1.0316187402462602 2.4259102077207135 0 0 0
1455 4 16.081344649323 1.0316187402462609 2.425910207720714 0 0 0
1456 4 14.294528577176003 4.12647496098526 2.4259102077207126 0 0 0
1459 1 17.868160721470005 0 1.2306321647027656 0 0 0
1465 1 21.441792865764 0 1.2306321647027656 0 0 0
1463 5 17.868160721470005 2.063237480492741 0.03481710059899632 0 0 0
1460 1 19.654976793617003 3.094856220739 1.230632164702764 0 0 0
1469 5 21.441792865764 2.063237480492741 0.03481710059899632 0 0 0
1466 1 23.228608937911 3.094856220739 1.2306321647027643 0 0 0
1464 5 19.654976793617003 5.158093701231741 0.034817100598996495 0 0 0
1470 5 23.228608937911 5.15809370123174 0.03481710059899606 0 0 0
1461 4 19.654976793617003 1.0316187402462604 2.4259102077207135 0 0 0
1467 4 23.228608937911005 1.0316187402462609 2.425910207720714 0 0 0
1462 4 17.868160721470005 4.126474960985261 2.4259102077207135 0 0 0
1468 4 21.441792865764 4.126474960985261 2.4259102077207135 0 0 0
1471 1 25.015425010058003 0 1.2306321647027643 0 0 0
1477 1 28.589057154352002 0 1.2306321647027656 0 0 0
1475 5 25.015425010058003 2.0632374804927416 0.03481710059899696 0 0 0
1472 1 26.802241082205004 3.094856220739 1.2306321647027643 0 0 0
1481 5 28.589057154352005 2.063237480492741 0.03481710059899632 0 0 0
1476 5 26.802241082205004 5.15809370123174 0.03481710059899606 0 0 0
1473 4 26.802241082205 1.0316187402462609 2.425910207720714 0 0 0
1474 4 25.015425010058003 4.12647496098526 2.4259102077207135 0 0 0
1480 4 28.589057154352005 4.126474960985261 2.4259102077207135 0 0 0
1483 1 32.162689298646 0 1.2306321647027652 0 0 0
1478 1 30.375873226499003 3.094856220739 1.230632164702764 0 0 0
1487 5 32.162689298646 2.0632374804927416 0.03481710059899659 0 0 0
1484 1 33.949505370793005 3.094856220739 1.2306321647027643 0 0 0
1482 5 30.375873226499003 5.15809370123174 0.0348171005989961 0 0 0
1488 5 33.949505370793005 5.158093701231741 0.03481710059899651 0 0 0
1479 4 30.375873226499003 1.0316187402462607 2.425910207720714 0 0 0
1485 4 33.949505370793005 1.0316187402462607 2.4259102077207135 0 0 0
1486 4 32.162689298646 4.12647496098526 2.425910207720713 0 0 0
1489 1 35.73632144294 1.20219938510604e-16 1.230632164702765 0 0 0
1495 1 39.309953587234006 0 1.2306321647027654 0 0 0
1493 5 35.73632144294 2.063237480492741 0.03481710059899628 0 0 0
1490 1 37.523137515087 3.094856220739 1.2306321647027643 0 0 0
1499 5 39.309953587234006 2.0632374804927416 0.03481710059899659 0 0 0
1496 1 41.096769659381 3.094856220739 1.230632164702764 0 0 0
1494 5 37.523137515087 5.158093701231741 0.03481710059899651 0 0 0
1500 5 41.096769659381 5.15809370123174 0.03481710059899571 0 0 0
1491 4 37.523137515087 1.0316187402462607 2.425910207720714 0 0 0
1497 4 41.096769659381 1.0316187402462607 2.4259102077207144 0 0 0
1492 4 35.73632144294 4.126474960985261 2.425910207720714 0 0 0
1498 4 39.309953587234006 4.12647496098526 2.4259102077207135 0 0 0
1501 1 42.883585731528 0 1.2306321647027654 0 0 0
1507 1 46.457217875822 1.140124562903953e-16 1.2306321647027652 0 0 0
1505 5 42.883585731528 2.0632374804927416 0.03481710059899659 0 0 0
1502 1 44.670401803675006 3.094856220739 1.2306321647027643 0 0 0
1511 5 46.457217875822 2.063237480492741 0.034817100598996335 0 0 0
1506 5 44.670401803675006 5.158093701231741 0.03481710059899651 0 0 0
1503 4 44.670401803675006 1.0316187402462607 2.4259102077207135 0 0 0
1504 4 42.883585731528 4.12647496098526 2.4259102077207135 0 0 0
1510 4 46.457217875822 4.126474960985261 2.425910207720714 0 0 0
1345 1 50.030850020116 0 1.2306321647027652 -1 0 0
1508 1 48.244033947969 3.094856220739 1.2306321647027643 0 0 0
1349 5 50.030850020116 2.0632374804927403 0.03481710059899573 -1 0 0
1346 1 51.817666092262996 3.094856220739 1.230632164702764 -1 0 0
1512 5 48.244033947969 5.15809370123174 0.03481710059899593 0 0 0
1350 5 51.817666092262996 5.15809370123174 0.0348171005989955 -1 0 0
1509 4 48.244033947969 1.031618740246261 2.425910207720714 0 0 0
1347 4 51.817666092262996 1.0316187402462609 2.4259102077207144 -1 0 0
1348 4 50.030850020116 4.126474960985261 2.425910207720714 -1 0 0
1351 1 53.60448216441 0 1.2306321647027652 -1 0 0
1357 1 57.178114308704004 0 1.2306321647027652 -1 0 0
1355 5 53.60448216441 2.0632374804927416 0.0348171005989965 -1 0 0
1352 1 55.391298236557 3.094856220739 1.2306321647027643 -1 0 0
1361 5 57.178114308704 2.063237480492741 0.03481710059899648 -1 0 0
1356 5 55.391298236557 5.15809370123174 0.03481710059899657 -1 0 0
1353 4 55.391298236557 1.0316187402462607 2.4259102077207135 -1 0 0
1354 4 53.60448216441 4.126474960985261 2.4259102077207135 -1 0 0
1360 4 57.178114308704 4.126474960985261 2.4259102077207135 -1 0 0
1363 1 60.751746452998 0 1.2306321647027652 -1 0 0
1369 1 64.32537859729199 0 1.2306321647027654 -1 0 0
1358 1 58.964930380850994 3.094856220739 1.2306321647027643 -1 0 0
1367 5 60.751746452998 2.063237480492741 0.03481710059899667 -1 0 0
1364 1 62.538562525145004 3.094856220739 1.230632164702764 -1 0 0
1373 5 64.325378597292 2.063237480492741 0.034817100598996106 -1 0 0
1362 5 58.964930380851 5.158093701231741 0.03481710059899607 -1 0 0
1368 5 62.538562525145 5.15809370123174 0.034817100598995544 -1 0 0
1359 4 58.964930380851 1.0316187402462607 2.425910207720714 -1 0 0
1365 4 62.538562525145 1.0316187402462609 2.4259102077207144 -1 0 0
1366 4 60.751746452998 4.12647496098526 2.425910207720713 -1 0 0
1372 4 64.325378597292 4.126474960985261 2.425910207720714 -1 0 0
1375 1 67.899010741586 7.842573183291983e-17 1.230632164702765 -1 0 0
1370 1 66.11219466943899 3.094856220739 1.230632164702764 -1 0 0
1379 5 67.899010741586 2.0632374804927416 0.03481710059899627 -1 0 0
1376 1 69.685826813733 3.094856220739 1.230632164702764 -1 0 0
1374 5 66.11219466943899 5.158093701231741 0.03481710059899653 -1 0 0
1380 5 69.685826813733 5.15809370123174 0.03481710059899651 -1 0 0
1371 4 66.11219466943899 1.0316187402462609 2.425910207720714 -1 0 0
1377 4 69.685826813733 1.0316187402462609 2.4259102077207135 -1 0 0
1378 4 67.899010741586 4.126474960985261 2.425910207720714 -1 0 0
1381 1 71.47264288588 0 1.2306321647027652 -1 0 0
1387 1 75.04627503017399 0 1.2306321647027652 -1 0 0
1385 5 71.47264288587999 2.063237480492741 0.03481710059899667 -1 0 0
1382 1 73.259458958027 3.094856220739 1.2306321647027643 -1 0 0
1391 5 75.046275030174 2.063237480492741 0.03481710059899667 -1 0 0
1386 5 73.259458958027 5.15809370123174 0.034817100598995704 -1 0 0
1383 4 73.259458958027 1.0316187402462604 2.4259102077207144 -1 0 0
1384 4 71.47264288587999 4.12647496098526 2.425910207720713 -1 0 0
1390 4 75.046275030174 4.12647496098526 2.425910207720713 -1 0 0
1393 1 78.619907174468 7.958190625600655e-17 1.230632164702765 -1 0 0
1399 1 82.193539318762 0 1.2306321647027652 -1 0 0
1388 1 76.83309110232099 3.094856220739 1.2306321647027643 -1 0 0
1397 5 78.619907174468 2.0632374804927416 0.03481710059899627 -1 0 0
1394 1 80.406723246615 3.094856220739 1.2306321647027643 -1 0 0
1403 5 82.19353931876199 2.063237480492741 0.03481710059899666 -1 0 0
1392 5 76.83309110232099 5.15809370123174 0.03481710059899652 -1 0 0
1398 5 80.406723246615 5.15809370123174 0.03481710059899651 -1 0 0
1389 4 76.83309110232099 1.0316187402462609 2.4259102077207135 -1 0 0
1395 4 80.406723246615 1.0316187402462609 2.4259102077207135 -1 0 0
1396 4 78.619907174468 4.126474960985261 2.425910207720714 -1 0 0
1402 4 82.19353931876199 4.12647496098526 2.425910207720713 -1 0 0
1405 1 85.76717146305599 0 1.2306321647027652 -1 0 0
1400 1 83.980355390909 3.094856220739 1.2306321647027643 -1 0 0
1409 5 85.767171463056 2.063237480492741 0.03481710059899666 -1 0 0
1406 1 87.55398753520299 3.094856220739 1.230632164702764 -1 0 0
1404 5 83.980355390909 5.15809370123174 0.034817100598995704 -1 0 0
1410 5 87.55398753520299 5.15809370123174 0.03481710059899651 -1 0 0
1401 4 83.980355390909 1.0316187402462604 2.4259102077207144 -1 0 0
1407 4 87.55398753520299 1.0316187402462609 2.4259102077207135 -1 0 0
1408 4 85.767171463056 4.12647496098526 2.425910207720713 -1 0 0
1411 1 89.34080360735 8.060266003931327e-17 1.230632164702765 -1 0 0
1417 1 92.914435751644 0 1.2306321647027652 -1 0 0
1415 5 89.34080360735 2.0632374804927416 0.03481710059899629 -1 0 0
1412 1 91.127619679497 3.094856220739 1.230632164702764 -1 0 0
1421 5 92.91443575164399 2.063237480492741 0.03481710059899666 -1 0 0
1416 5 91.127619679497 5.15809370123174 0.03481710059899651 -1 0 0
1413 4 91.127619679497 1.0316187402462609 2.4259102077207135 -1 0 0
1414 4 89.34080360735 4.126474960985261 2.425910207720714 -1 0 0
1420 4 92.91443575164399 4.12647496098526 2.425910207720713 -1 0 0
1423 1 96.48806789593799 0 1.2306321647027654 -1 0 0
1418 1 94.701251823791 3.094856220739 1.2306321647027643 -1 0 0
1427 5 96.488067895938 2.063237480492741 0.03481710059899666 -1 0 0
1424 1 98.274883968085 3.094856220739 1.230632164702764 -1 0 0
1422 5 94.701251823791 5.15809370123174 0.034817100598995704 -1 0 0
1428 5 98.27488396808499 5.15809370123174 0.0348171005989965 -1 0 0
1419 4 94.701251823791 1.0316187402462604 2.4259102077207144 -1 0 0
1425 4 98.27488396808499 1.0316187402462609 2.425910207720714 -1 0 0
1426 4 96.488067895938 4.12647496098526 2.425910207720713 -1 0 0
1597 1 0 6.189712441478001 1.230632164702764 0 0 0
1603 1 3.573632144294002 6.189712441478 1.2306321647027643 0 0 0
1601 5 1.4940733054744551e-15 8.252949921970743 0.03481710059899717 0 0 0
1607 5 3.5736321442940016 8.25294992197074 0.034817100598996197 0 0 0
1598 1 1.7868160721470019 9.284568662217 1.230632164702765 0 0 0
1604 1 5.360448216441 9.284568662217 1.230632164702765 0 0 0
1602 5 1.7868160721470014 11.347806142709741 0.034817100598997223 0 0 0
1608 5 5.360448216441001 11.34780614270974 0.0348171005989964 0 0 0
1599 4 1.7868160721470014 7.221331181724259 2.4259102077207135 0 0 0
1605 4 5.360448216441001 7.22133118172426 2.4259102077207144 0 0 0
1600 4 1.5118257736691794e-15 10.31618740246326 2.4259102077207135 0 0 0
1606 4 3.5736321442940016 10.316187402463262 2.4259102077207144 0 0 0
1609 1 7.1472642885880004 6.189712441478 1.2306321647027638 0 0 0
1615 1 10.720896432882 6.189712441478 1.2306321647027645 0 0 0
1613 5 7.1472642885880004 8.252949921970743 0.03481710059899706 0 0 0
1619 5 10.720896432882 8.25294992197074 0.03481710059899668 0 0 0
1610 1 8.934080360735 9.284568662217 1.230632164702765 0 0 0
1614 5 8.934080360735 11.347806142709741 0.03481710059899686 0 0 0
1611 4 8.934080360734999 7.22133118172426 2.425910207720714 0 0 0
1612 4 7.1472642885880004 10.316187402463262 2.4259102077207135 0 0 0
1618 4 10.720896432882 10.31618740246326 2.425910207720714 0 0 0
1621 1 14.294528577176003 6.189712441478 1.2306321647027638 0 0 0
1625 5 14.294528577176003 8.252949921970743 0.03481710059899759 0 0 0
1616 1 12.507712505029001 9.284568662217 1.230632164702765 0 0 0
1622 1 16.081344649323004 9.284568662217 1.230632164702765 0 0 0
1620 5 12.507712505029001 11.347806142709741 0.034817100598997286 0 0 0
1626 5 16.081344649323004 11.347806142709741 0.034817100598996543 0 0 0
1617 4 12.507712505029001 7.221331181724259 2.4259102077207135 0 0 0
1623 4 16.081344649323 7.22133118172426 2.425910207720714 0 0 0
1624 4 14.294528577176003 10.31618740246326 2.425910207720713 0 0 0
1627 1 17.86816072147 6.189712441478001 1.2306321647027645 0 0 0
1633 1 21.441792865764004 6.189712441478001 1.2306321647027645 0 0 0
1631 5 17.868160721470005 8.25294992197074 0.03481710059899659 0 0 0
1637 5 21.441792865764 8.25294992197074 0.03481710059899659 0 0 0
1628 1 19.654976793617003 9.284568662217 1.2306321647027645 0 0 0
1634 1 23.228608937911 9.284568662217 1.230632164702765 0 0 0
1632 5 19.654976793617003 11.347806142709741 0.03481710059899709 0 0 0
1638 5 23.228608937911 11.347806142709741 0.034817100598996564 0 0 0
1629 4 19.654976793617003 7.22133118172426 2.4259102077207135 0 0 0
1635 4 23.228608937911005 7.22133118172426 2.425910207720714 0 0 0
1630 4 17.868160721470005 10.31618740246326 2.425910207720714 0 0 0
1636 4 21.441792865764 10.31618740246326 2.425910207720714 0 0 0
1639 1 25.015425010058003 6.189712441478 1.2306321647027636 0 0 0
1645 1 28.589057154352002 6.189712441478001 1.2306321647027645 0 0 0
1643 5 25.015425010058003 8.252949921970743 0.034817100598997175 0 0 0
1649 5 28.589057154352005 8.25294992197074 0.03481710059899659 0 0 0
1640 1 26.802241082205004 9.284568662217 1.230632164702765 0 0 0
1644 5 26.802241082205004 11.347806142709741 0.034817100598996564 0 0 0
1641 4 26.802241082205 7.22133118172426 2.425910207720714 0 0 0
1642 4 25.015425010058003 10.31618740246326 2.4259102077207135 0 0 0
1648 4 28.589057154352005 10.31618740246326 2.425910207720714 0 0 0
1651 1 32.162689298646 6.189712441478 1.230632164702764 0 0 0
1655 5 32.162689298646 8.25294992197074 0.03481710059899693 0 0 0
1646 1 30.375873226499003 9.284568662217 1.2306321647027645 0 0 0
1652 1 33.949505370793005 9.284568662217 1.230632164702765 0 0 0
1650 5 30.375873226499003 11.347806142709741 0.034817100598996696 0 0 0
1656 5 33.949505370793005 11.347806142709741 0.03481710059899702 0 0 0
1647 4 30.375873226499003 7.22133118172426 2.425910207720714 0 0 0
1653 4 33.949505370793005 7.22133118172426 2.4259102077207135 0 0 0
1654 4 32.162689298646 10.31618740246326 2.4259102077207135 0 0 0
1657 1 35.73632144294 6.189712441478001 1.2306321647027643 0 0 0
1663 1 39.309953587234006 6.189712441478 1.230632164702764 0 0 0
1661 5 35.73632144294 8.252949921970743 0.034817100598996495 0 0 0
1667 5 39.309953587234006 8.25294992197074 0.034817100598996925 0 0 0
1658 1 37.523137515087 9.284568662217 1.230632164702765 0 0 0
1664 1 41.096769659381 9.284568662217 1.2306321647027645 0 0 0
1662 5 37.523137515087 11.347806142709741 0.03481710059899702 0 0 0
1668 5 41.096769659381 11.347806142709741 0.03481710059899631 0 0 0
1659 4 37.523137515087 7.22133118172426 2.4259102077207135 0 0 0
1665 4 41.096769659381 7.22133118172426 2.4259102077207144 0 0 0
1660 4 35.73632144294 10.316187402463262 2.4259102077207144 0 0 0
1666 4 39.309953587234006 10.31618740246326 2.4259102077207135 0 0 0
1669 1 42.883585731528 6.189712441478 1.230632164702764 0 0 0
1675 1 46.457217875822 6.189712441478001 1.230632164702764 0 0 0
1673 5 42.883585731528 8.25294992197074 0.034817100598996925 0 0 0
1679 5 46.457217875822 8.252949921970743 0.03481710059899655 0 0 0
1670 1 44.670401803675006 9.284568662217 1.230632164702765 0 0 0
1674 5 44.670401803675006 11.347806142709741 0.03481710059899702 0 0 0
1671 4 44.670401803675006 7.22133118172426 2.4259102077207135 0 0 0
1672 4 42.883585731528 10.31618740246326 2.4259102077207135 0 0 0
1678 4 46.457217875822 10.316187402463262 2.425910207720714 0 0 0
1513 1 50.030850020116 6.189712441478 1.2306321647027638 -1 0 0
1517 5 50.030850020116 8.25294992197074 0.03481710059899607 -1 0 0
1676 1 48.244033947969 9.284568662217 1.2306321647027652 0 0 0
1514 1 51.817666092262996 9.284568662217 1.230632164702765 -1 0 0
1680 5 48.244033947969 11.347806142709741 0.03481710059899647 0 0 0
1518 5 51.817666092262996 11.347806142709741 0.03481710059899612 -1 0 0
1677 4 48.244033947969 7.22133118172426 2.425910207720714 0 0 0
1515 4 51.817666092262996 7.22133118172426 2.4259102077207144 -1 0 0
1516 4 50.030850020116 10.316187402463262 2.4259102077207144 -1 0 0
1519 1 53.60448216441 6.189712441478 1.230632164702764 -1 0 0
1525 1 57.178114308704 6.189712441478 1.230632164702764 -1 0 0
1523 5 53.60448216441 8.25294992197074 0.03481710059899678 -1 0 0
1529 5 57.178114308704 8.25294992197074 0.03481710059899677 -1 0 0
1520 1 55.391298236557 9.284568662217 1.230632164702765 -1 0 0
1524 5 55.391298236557 11.347806142709741 0.03481710059899712 -1 0 0
1521 4 55.391298236557 7.22133118172426 2.4259102077207135 -1 0 0
1522 4 53.60448216441 10.316187402463262 2.4259102077207135 -1 0 0
1528 4 57.178114308704 10.316187402463262 2.4259102077207135 -1 0 0
1531 1 60.751746452998 6.189712441478 1.230632164702764 -1 0 0
1537 1 64.32537859729199 6.189712441478 1.230632164702764 -1 0 0
1535 5 60.751746452998 8.25294992197074 0.034817100598997106 -1 0 0
1541 5 64.325378597292 8.25294992197074 0.034817100598996384 -1 0 0
1526 1 58.964930380851 9.284568662217 1.2306321647027647 -1 0 0
1532 1 62.538562525145004 9.284568662217 1.2306321647027647 -1 0 0
1530 5 58.964930380851 11.347806142709741 0.034817100598996675 -1 0 0
1536 5 62.538562525145 11.347806142709741 0.03481710059899614 -1 0 0
1527 4 58.964930380851 7.22133118172426 2.4259102077207135 -1 0 0
1533 4 62.538562525145 7.22133118172426 2.4259102077207144 -1 0 0
1534 4 60.751746452998 10.31618740246326 2.4259102077207135 -1 0 0
1540 4 64.325378597292 10.31618740246326 2.425910207720714 -1 0 0
1543 1 67.899010741586 6.189712441478001 1.230632164702764 -1 0 0
1547 5 67.899010741586 8.252949921970743 0.034817100598996495 -1 0 0
1538 1 66.112194669439 9.284568662217 1.230632164702765 -1 0 0
1544 1 69.685826813733 9.284568662217 1.230632164702765 -1 0 0
1542 5 66.11219466943899 11.347806142709741 0.03481710059899706 -1 0 0
1548 5 69.685826813733 11.347806142709741 0.03481710059899703 -1 0 0
1539 4 66.11219466943899 7.22133118172426 2.4259102077207135 -1 0 0
1545 4 69.685826813733 7.22133118172426 2.4259102077207135 -1 0 0
1546 4 67.899010741586 10.31618740246326 2.4259102077207144 -1 0 0
1549 1 71.47264288587999 6.189712441478 1.2306321647027643 -1 0 0
1555 1 75.046275030174 6.189712441478 1.2306321647027643 -1 0 0
1553 5 71.47264288587999 8.25294992197074 0.03481710059899693 -1 0 0
1559 5 75.046275030174 8.25294992197074 0.034817100598996925 -1 0 0
1550 1 73.259458958027 9.284568662217 1.2306321647027645 -1 0 0
1554 5 73.259458958027 11.347806142709741 0.0348171005989963 -1 0 0
1551 4 73.259458958027 7.22133118172426 2.4259102077207144 -1 0 0
1552 4 71.47264288587999 10.31618740246326 2.4259102077207135 -1 0 0
1558 4 75.046275030174 10.31618740246326 2.4259102077207135 -1 0 0
1561 1 78.619907174468 6.189712441478001 1.230632164702764 -1 0 0
1567 1 82.19353931876199 6.189712441478 1.2306321647027643 -1 0 0
1565 5 78.619907174468 8.252949921970743 0.034817100598996495 -1 0 0
1571 5 82.19353931876199 8.25294992197074 0.034817100598996925 -1 0 0
1556 1 76.83309110232099 9.284568662217 1.230632164702765 -1 0 0
1562 1 80.406723246615 9.284568662217 1.230632164702765 -1 0 0
1560 5 76.83309110232099 11.347806142709741 0.034817100598997036 -1 0 0
1566 5 80.406723246615 11.347806142709741 0.03481710059899703 -1 0 0
1557 4 76.83309110232099 7.22133118172426 2.4259102077207135 -1 0 0
1563 4 80.406723246615 7.22133118172426 2.4259102077207135 -1 0 0
1564 4 78.619907174468 10.31618740246326 2.4259102077207144 -1 0 0
1570 4 82.19353931876199 10.31618740246326 2.4259102077207135 -1 0 0
1573 1 85.767171463056 6.189712441478 1.2306321647027643 -1 0 0
1577 5 85.767171463056 8.25294992197074 0.034817100598996925 -1 0 0
1568 1 83.980355390909 9.284568662217 1.2306321647027645 -1 0 0
1574 1 87.55398753520299 9.284568662217 1.230632164702765 -1 0 0
1572 5 83.980355390909 11.347806142709741 0.0348171005989963 -1 0 0
1578 5 87.55398753520299 11.347806142709741 0.03481710059899703 -1 0 0
1569 4 83.980355390909 7.22133118172426 2.4259102077207144 -1 0 0
1575 4 87.55398753520299 7.22133118172426 2.4259102077207135 -1 0 0
1576 4 85.767171463056 10.31618740246326 2.4259102077207135 -1 0 0
1579 1 89.34080360735 6.189712441478001 1.230632164702764 -1 0 0
1585 1 92.91443575164399 6.189712441478 1.2306321647027643 -1 0 0
1583 5 89.34080360735 8.252949921970743 0.034817100598996495 -1 0 0
1589 5 92.91443575164399 8.25294992197074 0.034817100598996925 -1 0 0
1580 1 91.127619679497 9.284568662217 1.230632164702765 -1 0 0
1584 5 91.127619679497 11.347806142709741 0.03481710059899703 -1 0 0
1581 4 91.127619679497 7.22133118172426 2.4259102077207135 -1 0 0
1582 4 89.34080360735 10.31618740246326 2.4259102077207144 -1 0 0
1588 4 92.91443575164399 10.31618740246326 2.4259102077207135 -1 0 0
1591 1 96.488067895938 6.189712441478 1.2306321647027643 -1 0 0
1595 5 96.488067895938 8.25294992197074 0.034817100598996925 -1 0 0
1586 1 94.701251823791 9.284568662217 1.2306321647027645 -1 0 0
1592 1 98.274883968085 9.284568662217 1.230632164702765 -1 0 0
1590 5 94.701251823791 11.347806142709741 0.0348171005989963 -1 0 0
1596 5 98.27488396808499 11.347806142709741 0.03481710059899702 -1 0 0
1587 4 94.701251823791 7.22133118172426 2.4259102077207144 -1 0 0
1593 4 98.27488396808499 7.22133118172426 2.4259102077207135 -1 0 0
1594 4 96.488067895938 10.31618740246326 2.4259102077207135 -1 0 0
1765 1 0 12.379424882956002 1.230632164702764 0 0 0
1771 1 3.573632144294002 12.379424882956 1.2306321647027643 0 0 0
1769 5 1.496352379902673e-15 14.442662363448743 0.034817100598997223 0 0 0
1775 5 3.5736321442940016 14.442662363448742 0.03481710059899619 0 0 0
1766 1 1.7868160721470017 15.474281103695002 1.230632164702765 0 0 0
1772 1 5.360448216441 15.474281103695 1.2306321647027647 0 0 0
1767 4 1.7868160721470014 13.41104362320226 2.4259102077207135 0 0 0
1773 4 5.360448216441001 13.41104362320226 2.4259102077207144 0 0 0
1768 4 1.6104238542761297e-15 16.505899843941265 2.4259102077207135 0 0 0
1774 4 3.5736321442940016 16.50589984394126 2.4259102077207144 0 0 0
1777 1 7.1472642885880004 12.379424882956002 1.2306321647027638 0 0 0
1783 1 10.720896432882 12.379424882956002 1.2306321647027645 0 0 0
1781 5 7.1472642885880004 14.442662363448743 0.03481710059899705 0 0 0
1787 5 10.720896432882 14.442662363448742 0.03481710059899668 0 0 0
1778 1 8.934080360735 15.474281103695 1.230632164702765 0 0 0
1779 4 8.934080360734999 13.41104362320226 2.425910207720714 0 0 0
1780 4 7.1472642885880004 16.50589984394126 2.4259102077207135 0 0 0
1786 4 10.720896432882 16.50589984394126 2.425910207720714 0 0 0
1789 1 14.294528577176003 12.379424882956002 1.2306321647027638 0 0 0
1793 5 14.294528577176003 14.442662363448743 0.03481710059899764 0 0 0
1784 1 12.507712505029001 15.474281103695002 1.230632164702765 0 0 0
1790 1 16.081344649323004 15.474281103695002 1.230632164702765 0 0 0
1785 4 12.507712505029001 13.41104362320226 2.4259102077207135 0 0 0
1791 4 16.081344649323 13.41104362320226 2.425910207720714 0 0 0
1792 4 14.294528577176003 16.505899843941265 2.425910207720713 0 0 0
1795 1 17.86816072147 12.379424882956002 1.2306321647027647 0 0 0
1801 1 21.441792865764004 12.379424882956002 1.2306321647027647 0 0 0
1799 5 17.868160721470005 14.442662363448742 0.0348171005989966 0 0 0
1805 5 21.441792865764 14.442662363448742 0.0348171005989966 0 0 0
1796 1 19.654976793617003 15.474281103695 1.230632164702765 0 0 0
1802 1 23.228608937911 15.474281103695002 1.230632164702765 0 0 0
1797 4 19.654976793617003 13.41104362320226 2.4259102077207135 0 0 0
1803 4 23.228608937911005 13.41104362320226 2.425910207720714 0 0 0
1798 4 17.868160721470005 16.50589984394126 2.425910207720714 0 0 0
1804 4 21.441792865764 16.50589984394126 2.425910207720714 0 0 0
1807 1 25.015425010058003 12.379424882956 1.2306321647027634 0 0 0
1813 1 28.589057154352002 12.379424882956002 1.2306321647027647 0 0 0
1811 5 25.015425010058003 14.442662363448743 0.034817100598997223 0 0 0
1817 5 28.589057154352005 14.442662363448742 0.0348171005989966 0 0 0
1808 1 26.802241082205004 15.474281103695002 1.230632164702765 0 0 0
1809 4 26.802241082205 13.41104362320226 2.425910207720714 0 0 0
1810 4 25.015425010058003 16.505899843941265 2.4259102077207135 0 0 0
1816 4 28.589057154352005 16.50589984394126 2.425910207720714 0 0 0
1819 1 32.162689298646 12.379424882956002 1.2306321647027643 0 0 0
1823 5 32.162689298646 14.442662363448742 0.03481710059899694 0 0 0
1814 1 30.375873226499003 15.474281103695 1.230632164702765 0 0 0
1820 1 33.949505370793005 15.474281103695002 1.230632164702765 0 0 0
1815 4 30.375873226499003 13.41104362320226 2.425910207720714 0 0 0
1821 4 33.949505370793005 13.41104362320226 2.4259102077207135 0 0 0
1822 4 32.162689298646 16.50589984394126 2.4259102077207135 0 0 0
1825 1 35.73632144294 12.379424882956002 1.230632164702764 0 0 0
1831 1 39.309953587234006 12.379424882956002 1.2306321647027643 0 0 0
1829 5 35.73632144294 14.442662363448743 0.034817100598996543 0 0 0
1835 5 39.309953587234006 14.442662363448742 0.03481710059899693 0 0 0
1826 1 37.523137515087 15.474281103695002 1.230632164702765 0 0 0
1832 1 41.096769659381 15.474281103695 1.230632164702765 0 0 0
1827 4 37.523137515087 13.41104362320226 2.4259102077207135 0 0 0
1833 4 41.096769659381 13.41104362320226 2.4259102077207144 0 0 0
1828 4 35.73632144294 16.505899843941265 2.425910207720714 0 0 0
1834 4 39.309953587234006 16.50589984394126 2.4259102077207135 0 0 0
1837 1 42.883585731528 12.379424882956002 1.2306321647027643 0 0 0
1843 1 46.457217875822 12.379424882956002 1.230632164702764 0 0 0
1841 5 42.883585731528 14.442662363448742 0.03481710059899694 0 0 0
1847 5 46.457217875822 14.442662363448743 0.0348171005989966 0 0 0
1838 1 44.670401803675006 15.474281103695002 1.230632164702765 0 0 0
1839 4 44.670401803675006 13.41104362320226 2.4259102077207135 0 0 0
1840 4 42.883585731528 16.50589984394126 2.4259102077207135 0 0 0
1846 4 46.457217875822 16.505899843941265 2.425910207720714 0 0 0
1681 1 50.030850020116 12.379424882956002 1.2306321647027638 -1 0 0
1685 5 50.030850020116 14.442662363448742 0.034817100598996065 -1 0 0
1844 1 48.244033947969 15.474281103695002 1.2306321647027652 0 0 0
1682 1 51.817666092262996 15.474281103695 1.2306321647027652 -1 0 0
1845 4 48.244033947969 13.41104362320226 2.425910207720714 0 0 0
1683 4 51.817666092262996 13.41104362320226 2.4259102077207144 -1 0 0
1684 4 50.030850020116 16.505899843941265 2.4259102077207144 -1 0 0
1687 1 53.60448216441 12.379424882956002 1.2306321647027638 -1 0 0
1693 1 57.178114308704004 12.379424882956002 1.230632164702764 -1 0 0
1691 5 53.60448216441 14.442662363448742 0.03481710059899678 -1 0 0
1697 5 57.178114308704 14.442662363448742 0.034817100598996766 -1 0 0
1688 1 55.391298236557 15.474281103695002 1.230632164702765 -1 0 0
1689 4 55.391298236557 13.41104362320226 2.4259102077207135 -1 0 0
1690 4 53.60448216441 16.50589984394126 2.425910207720714 -1 0 0
1696 4 57.178114308704 16.50589984394126 2.425910207720714 -1 0 0
1699 1 60.751746452998 12.379424882956002 1.230632164702764 -1 0 0
1705 1 64.32537859729199 12.379424882956 1.230632164702764 -1 0 0
1703 5 60.751746452998 14.442662363448742 0.034817100598997106 -1 0 0
1709 5 64.325378597292 14.442662363448742 0.03481710059899638 -1 0 0
1694 1 58.964930380851 15.474281103695002 1.2306321647027647 -1 0 0
1700 1 62.538562525145004 15.474281103695 1.230632164702765 -1 0 0
1695 4 58.964930380851 13.41104362320226 2.425910207720714 -1 0 0
1701 4 62.538562525145 13.41104362320226 2.4259102077207144 -1 0 0
1702 4 60.751746452998 16.50589984394126 2.4259102077207135 -1 0 0
1708 4 64.325378597292 16.50589984394126 2.4259102077207144 -1 0 0
1711 1 67.899010741586 12.379424882956002 1.230632164702764 -1 0 0
1715 5 67.899010741586 14.442662363448743 0.034817100598996543 -1 0 0
1706 1 66.112194669439 15.474281103695002 1.230632164702765 -1 0 0
1712 1 69.685826813733 15.474281103695002 1.230632164702765 -1 0 0
1707 4 66.11219466943899 13.41104362320226 2.4259102077207135 -1 0 0
1713 4 69.685826813733 13.41104362320226 2.4259102077207135 -1 0 0
1714 4 67.899010741586 16.505899843941265 2.425910207720714 -1 0 0
1717 1 71.47264288587999 12.379424882956002 1.2306321647027643 -1 0 0
1723 1 75.046275030174 12.379424882956002 1.2306321647027643 -1 0 0
1721 5 71.47264288587999 14.442662363448742 0.03481710059899694 -1 0 0
1727 5 75.046275030174 14.442662363448742 0.03481710059899693 -1 0 0
1718 1 73.259458958027 15.474281103695 1.230632164702765 -1 0 0
1719 4 73.259458958027 13.41104362320226 2.4259102077207144 -1 0 0
1720 4 71.47264288587999 16.50589984394126 2.4259102077207135 -1 0 0
1726 4 75.046275030174 16.50589984394126 2.4259102077207135 -1 0 0
1729 1 78.619907174468 12.379424882956002 1.230632164702764 -1 0 0
1735 1 82.19353931876199 12.379424882956002 1.2306321647027643 -1 0 0
1733 5 78.619907174468 14.442662363448743 0.034817100598996543 -1 0 0