LAMMPS data file via write_data, version 29 Aug 2024, timestep = 3, units = metal

5376 atoms
24 atom types

0 99.942759464772 xlo xhi
0 98.917678423776 ylo yhi
-50 50 zlo zhi

Masses

1 55.845
2 55.845
3 55.845
4 55.845
5 55.845
6 55.845
7 55.845
8 55.845
9 127.6
10 127.6
11 127.6
12 127.6
13 127.6
14 127.6
15 127.6
16 127.6
17 127.6
18 127.6
19 127.6
20 127.6
21 127.6
22 127.6
23 127.6
24 127.6

Atoms # atomic

1431 10 1.7846921332992447 1.0303924835809957 0.07820429246113957 0 0 0
1435 3 3.5693842665989606 7.582614852889448e-15 1.5989953813505362 0 0 0
1437 14 5.354076399898245 1.0303924835809957 0.07820429246113952 0 0 0
1432 2 1.784692133299656 3.091177450743012 1.598995381350537 0 0 0
1438 4 5.354076399898655 3.09117745074301 1.5989953813505378 0 0 0
1440 16 3.569384266598956 4.121569934323998 0.07820429246113987 0 0 0
1441 1 7.138768533197962 8.558565234091485e-15 1.5989953813505355 0 0 0
1443 10 8.923460666497245 1.0303924835809959 0.07820429246114015 0 0 0
1447 3 10.708152799796963 8.441984838570447e-15 1.5989953813505362 0 0 0
1444 2 8.923460666497656 3.09117745074301 1.5989953813505366 0 0 0
1446 12 7.138768533197957 4.121569934323998 0.07820429246113869 0 0 0
1452 16 10.708152799796958 4.121569934323998 0.07820429246113933 0 0 0
1449 14 12.492844933096244 1.0303924835809959 0.07820429246113923 0 0 0
1453 1 14.277537066395963 7.352580122516511e-15 1.5989953813505369 0 0 0
1455 10 16.062229199695242 1.030392483580995 0.07820429246113875 0 0 0
1450 4 12.492844933096656 3.09117745074301 1.598995381350538 0 0 0
1456 2 16.062229199695654 3.0911774507430114 1.5989953813505384 0 0 0
1458 12 14.277537066395958 4.121569934323998 0.07820429246113828 0 0 0
1459 3 17.84692133299496 7.497893840223109e-15 1.598995381350536 0 0 0
1461 14 19.63161346629424 1.0303924835809954 0.07820429246114013 0 0 0
1465 1 21.416305599593958 8.298563123666872e-15 1.5989953813505364 0 0 0
1467 10 23.200997732893242 1.030392483580996 0.07820429246113875 0 0 0
1462 4 19.631613466294652 3.0911774507430114 1.598995381350538 0 0 0
1468 2 23.200997732893647 3.0911774507430114 1.5989953813505364 0 0 0
1464 16 17.846921332994953 4.121569934323998 0.0782042924611387 0 0 0
1470 12 21.41630559959395 4.121569934323997 0.07820429246114065 0 0 0
1471 3 24.985689866192963 8.16396775680952e-15 1.5989953813505358 0 0 0
1473 14 26.77038199949224 1.0303924835809954 0.0782042924611398 0 0 0
1477 1 28.555074132791965 7.85432192078001e-15 1.5989953813505362 0 0 0
1474 4 26.770381999492653 3.0911774507430114 1.5989953813505373 0 0 0
1476 16 24.985689866192953 4.121569934323999 0.07820429246113841 0 0 0
1482 12 28.55507413279195 4.121569934323998 0.07820429246113958 0 0 0
1479 10 30.339766266091242 1.0303924835809952 0.07820429246114076 0 0 0
1485 14 33.90915053269025 1.0303924835809952 0.07820429246113993 0 0 0
1483 3 32.12445839939096 7.105452540743352e-15 1.598995381350536 0 0 0
1480 2 30.339766266091658 3.0911774507430114 1.5989953813505384 0 0 0
1486 4 33.90915053269065 3.091177450743011 1.5989953813505375 0 0 0
1488 16 32.12445839939095 4.121569934323997 0.07820429246114047 0 0 0
1489 1 35.693842665989955 8.647437556286838e-15 1.5989953813505364 0 0 0
1491 10 37.47853479928925 1.0303924835809959 0.07820429246113834 0 0 0
1495 3 39.263226932588964 8.1050653544301e-15 1.5989953813505362 0 0 0
1497 14 41.047919065888244 1.0303924835809963 0.0782042924611383 0 0 0
1492 2 37.478534799289655 3.0911774507430105 1.598995381350537 0 0 0
1498 4 41.04791906588865 3.091177450743009 1.598995381350535 0 0 0
1494 12 35.69384266598996 4.121569934323998 0.07820429246114004 0 0 0
1500 16 39.26322693258896 4.121569934323997 0.07820429246113966 0 0 0
1501 1 42.832611199187966 8.320977807657353e-15 1.598995381350536 0 0 0
1503 10 44.61730333248724 1.0303924835809948 0.0782042924611401 0 0 0
1507 3 46.40199546578696 8.3204553781704e-15 1.598995381350536 0 0 0
1504 2 44.61730333248765 3.091177450743013 1.5989953813505375 0 0 0
1506 12 42.83261119918796 4.121569934323999 0.07820429246113797 0 0 0
1512 16 46.40199546578695 4.121569934323999 0.07820429246113858 0 0 0
1509 14 48.18668759908624 1.0303924835809952 0.07820429246114005 0 0 0
1345 1 49.971379732385955 6.428278219834271e-15 1.5989953813505362 -1 0 0
1347 10 51.75607186568524 1.0303924835809963 0.07820429246113854 -1 0 0
1510 4 48.18668759908666 3.0911774507430123 1.5989953813505375 0 0 0
1348 2 51.756071865685655 3.09117745074301 1.5989953813505398 -1 0 0
1350 12 49.971379732385955 4.121569934323997 0.07820429246114043 -1 0 0
1351 3 53.540763998984964 9.231969492801134e-15 1.598995381350536 -1 0 0
1353 14 55.32545613228424 1.0303924835809957 0.0782042924611399 -1 0 0
1357 1 57.110148265583966 8.156329851069976e-15 1.598995381350536 -1 0 0
1354 4 55.32545613228465 3.0911774507430105 1.5989953813505373 -1 0 0
1356 16 53.54076399898495 4.121569934323997 0.07820429246113969 -1 0 0
1362 12 57.11014826558396 4.121569934323998 0.0782042924611399 -1 0 0
1359 10 58.89484039888324 1.0303924835809952 0.07820429246113979 -1 0 0
1363 3 60.67953253218297 7.574456110643512e-15 1.5989953813505362 -1 0 0
1365 14 62.46422466548224 1.030392483580996 0.07820429246114036 -1 0 0
1369 1 64.24891679878196 6.236783257814283e-15 1.5989953813505364 -1 0 0
1360 2 58.89484039888365 3.0911774507430123 1.5989953813505369 -1 0 0
1366 4 62.464224665482654 3.091177450743007 1.5989953813505375 -1 0 0
1368 16 60.679532532182954 4.121569934323999 0.0782042924611383 -1 0 0
1374 12 64.24891679878195 4.121569934323997 0.07820429246114169 -1 0 0
1371 10 66.03360893208125 1.0303924835809943 0.07820429246114048 -1 0 0
1375 3 67.81830106538095 8.911457098538398e-15 1.598995381350535 -1 0 0
1377 14 69.60299319868025 1.0303924835809957 0.07820429246113948 -1 0 0
1372 2 66.03360893208163 3.0911774507430136 1.5989953813505373 -1 0 0
1378 4 69.60299319868064 3.091177450743011 1.5989953813505375 -1 0 0
1380 16 67.81830106538095 4.121569934323998 0.07820429246113965 -1 0 0
1381 1 71.38768533197995 8.221009746916824e-15 1.5989953813505364 -1 0 0
1383 10 73.17237746527925 1.0303924835809957 0.07820429246113958 -1 0 0
1387 3 74.95706959857895 8.320293741069876e-15 1.5989953813505366 -1 0 0
1384 2 73.17237746527964 3.091177450743011 1.598995381350537 -1 0 0
1386 12 71.38768533197995 4.121569934323998 0.07820429246113975 -1 0 0
1392 16 74.95706959857895 4.121569934323998 0.0782042924611398 -1 0 0
1389 14 76.74176173187826 1.0303924835809957 0.0782042924611396 -1 0 0
1393 1 78.52645386517796 8.878766208180797e-15 1.5989953813505364 -1 0 0
1395 10 80.31114599847724 1.0303924835809974 0.07820429246113604 -1 0 0
1399 3 82.09583813177697 3.029370930438842e-15 1.5989953813505364 -1 0 0
1390 4 76.74176173187864 3.091177450743011 1.598995381350537 -1 0 0
1396 2 80.31114599847764 3.091177450743011 1.5989953813505378 -1 0 0
1398 12 78.52645386517796 4.121569934323998 0.07820429246113977 -1 0 0
1404 16 82.09583813177696 4.1215699343239995 0.07820429246113672 -1 0 0
1401 14 83.88053026507625 1.0303924835809946 0.07820429246114087 -1 0 0
1405 1 85.66522239837595 8.419974251910558e-15 1.5989953813505355 -1 0 0
1407 10 87.44991453167525 1.0303924835809957 0.07820429246113965 -1 0 0
1402 4 83.88053026507664 3.0911774507430114 1.598995381350537 -1 0 0
1408 2 87.44991453167563 3.0911774507430105 1.5989953813505378 -1 0 0
1410 12 85.66522239837595 4.121569934323997 0.07820429246114047 -1 0 0
1411 3 89.23460666497495 8.475287312389946e-15 1.598995381350536 -1 0 0
1413 14 91.01929879827425 1.030392483580995 0.07820429246114005 -1 0 0
1417 1 92.80399093157395 9.463443463663808e-15 1.5989953813505362 -1 0 0
1414 4 91.01929879827463 3.0911774507430114 1.598995381350537 -1 0 0
1416 16 89.23460666497495 4.121569934323998 0.07820429246113977 -1 0 0
1422 12 92.80399093157395 4.121569934323997 0.07820429246113944 -1 0 0
1429 1 99.94275946477197 5.217675601003224e-15 1.598995381350539 -1 0 0
1434 12 99.94275946477195 4.1215699343239995 0.07820429246113744 -1 0 0
1419 10 94.58868306487325 1.0303924835809952 0.07820429246113995 -1 0 0
1423 3 96.37337519817295 8.658126571023209e-15 1.598995381350536 -1 0 0
1425 14 98.15806733147224 1.0303924835809977 0.07820429246113539 -1 0 0
1420 2 94.58868306487363 3.0911774507430105 1.5989953813505369 -1 0 0
1426 4 98.15806733147264 3.091177450743012 1.5989953813505386 -1 0 0
1428 16 96.37337519817295 4.121569934323998 0.07820429246113908 -1 0 0
1599 10 1.7846921332992443 7.212747385066997 0.0782042924611392 0 0 0
1603 3 3.569384266598961 6.182354901486012 1.5989953813505373 0 0 0
1605 14 5.354076399898245 7.212747385066997 0.07820429246113896 0 0 0
1600 2 1.784692133299656 9.273532352229013 1.598995381350538 0 0 0
1606 4 5.354076399898655 9.273532352229013 1.5989953813505373 0 0 0
1608 16 3.569384266598956 10.303924835809998 0.07820429246114016 0 0 0
1609 1 7.138768533197962 6.182354901486012 1.5989953813505364 0 0 0
1611 10 8.923460666497245 7.212747385066997 0.07820429246113901 0 0 0
1615 3 10.708152799796961 6.182354901486011 1.5989953813505382 0 0 0
1612 2 8.923460666497656 9.273532352229012 1.598995381350537 0 0 0
1614 12 7.138768533197957 10.303924835809998 0.07820429246113914 0 0 0
1620 16 10.708152799796958 10.303924835809998 0.07820429246114016 0 0 0
1617 14 12.492844933096244 7.212747385066998 0.0782042924611388 0 0 0
1621 1 14.277537066395963 6.182354901486011 1.5989953813505375 0 0 0
1623 10 16.062229199695242 7.212747385066997 0.07820429246113851 0 0 0
1618 4 12.492844933096656 9.273532352229012 1.5989953813505378 0 0 0
1624 2 16.062229199695654 9.273532352229012 1.5989953813505373 0 0 0
1626 12 14.277537066395958 10.30392483581 0.07820429246113914 0 0 0
1627 3 17.84692133299496 6.182354901486011 1.5989953813505369 0 0 0
1629 14 19.63161346629424 7.212747385066997 0.07820429246113997 0 0 0
1633 1 21.416305599593958 6.182354901486013 1.5989953813505373 0 0 0
1635 10 23.20099773289324 7.212747385066998 0.07820429246113803 0 0 0
1630 4 19.631613466294652 9.273532352229012 1.5989953813505373 0 0 0
1636 2 23.200997732893647 9.273532352229012 1.598995381350536 0 0 0
1632 16 17.846921332994953 10.30392483581 0.07820429246113854 0 0 0
1638 12 21.41630559959395 10.303924835809998 0.07820429246114068 0 0 0
1639 3 24.985689866192963 6.182354901486012 1.5989953813505373 0 0 0
1641 14 26.77038199949224 7.212747385066997 0.07820429246113979 0 0 0
1645 1 28.555074132791965 6.182354901486011 1.5989953813505373 0 0 0
1642 4 26.770381999492653 9.273532352229012 1.5989953813505373 0 0 0
1644 16 24.985689866192953 10.30392483581 0.07820429246113866 0 0 0
1650 12 28.55507413279195 10.303924835809998 0.07820429246113982 0 0 0
1647 10 30.339766266091242 7.212747385066996 0.07820429246114054 0 0 0
1653 14 33.90915053269025 7.212747385066998 0.07820429246113943 0 0 0
1651 3 32.12445839939096 6.182354901486011 1.5989953813505373 0 0 0
1648 2 30.339766266091658 9.273532352229013 1.5989953813505389 0 0 0
1654 4 33.90915053269065 9.273532352229012 1.5989953813505373 0 0 0
1656 16 32.12445839939095 10.303924835809998 0.07820429246114093 0 0 0
1657 1 35.693842665989955 6.18235490148601 1.598995381350537 0 0 0
1659 10 37.47853479928925 7.212747385066998 0.07820429246113776 0 0 0
1663 3 39.263226932588964 6.182354901486011 1.598995381350537 0 0 0
1665 14 41.047919065888244 7.212747385066998 0.07820429246113768 0 0 0
1660 2 37.478534799289655 9.273532352229012 1.5989953813505375 0 0 0
1666 4 41.04791906588865 9.27353235222901 1.598995381350535 0 0 0
1662 12 35.69384266598996 10.303924835809998 0.07820429246113979 0 0 0
1668 16 39.26322693258896 10.303924835809998 0.0782042924611394 0 0 0
1669 1 42.832611199187966 6.182354901486011 1.5989953813505369 0 0 0
1671 10 44.61730333248724 7.212747385066996 0.07820429246113957 0 0 0
1675 3 46.40199546578696 6.182354901486011 1.5989953813505375 0 0 0
1672 2 44.61730333248765 9.273532352229013 1.5989953813505373 0 0 0
1674 12 42.83261119918796 10.30392483581 0.0782042924611383 0 0 0
1680 16 46.40199546578695 10.30392483581 0.07820429246113857 0 0 0
1677 14 48.18668759908624 7.212747385066997 0.07820429246113982 0 0 0
1513 1 49.971379732385955 6.182354901486012 1.5989953813505373 -1 0 0
1515 10 51.75607186568524 7.212747385066998 0.07820429246113791 -1 0 0
1678 4 48.18668759908666 9.273532352229013 1.598995381350538 0 0 0
1516 2 51.756071865685655 9.273532352229012 1.5989953813505398 -1 0 0
1518 12 49.971379732385955 10.303924835809998 0.0782042924611411 -1 0 0
1519 3 53.540763998984964 6.182354901486013 1.598995381350537 -1 0 0
1521 14 55.32545613228424 7.212747385066997 0.07820429246113893 -1 0 0
1525 1 57.110148265583966 6.18235490148601 1.5989953813505373 -1 0 0
1522 4 55.32545613228465 9.273532352229012 1.5989953813505375 -1 0 0
1524 16 53.54076399898496 10.303924835809998 0.0782042924611394 -1 0 0
1530 12 57.11014826558396 10.303924835809998 0.0782042924611399 -1 0 0
1527 10 58.89484039888324 7.212747385066997 0.07820429246113884 -1 0 0
1531 3 60.67953253218296 6.18235490148601 1.5989953813505375 -1 0 0
1533 14 62.46422466548224 7.212747385066998 0.0782042924611398 -1 0 0
1537 1 64.24891679878196 6.18235490148601 1.5989953813505375 -1 0 0
1528 2 58.89484039888365 9.273532352229015 1.5989953813505373 -1 0 0
1534 4 62.46422466548265 9.273532352229008 1.5989953813505369 -1 0 0
1536 16 60.679532532182954 10.303924835809998 0.07820429246114054 -1 0 0
1542 12 64.24891679878196 10.303924835809998 0.07820429246113933 -1 0 0
1539 10 66.03360893208125 7.212747385066997 0.07820429246114047 -1 0 0
1543 3 67.81830106538095 6.182354901486011 1.5989953813505369 -1 0 0
1545 14 69.60299319868025 7.212747385066998 0.07820429246113918 -1 0 0
1540 2 66.03360893208163 9.273532352229013 1.5989953813505364 -1 0 0
1546 4 69.60299319868064 9.273532352229012 1.5989953813505373 -1 0 0
1548 16 67.81830106538095 10.303924835809998 0.07820429246113984 -1 0 0
1549 1 71.38768533197995 6.18235490148601 1.5989953813505373 -1 0 0
1551 10 73.17237746527925 7.212747385066998 0.07820429246113915 -1 0 0
1555 3 74.95706959857895 6.18235490148601 1.5989953813505373 -1 0 0
1552 2 73.17237746527964 9.273532352229012 1.598995381350537 -1 0 0
1554 12 71.38768533197995 10.303924835809998 0.07820429246114013 -1 0 0
1560 16 74.95706959857895 10.303924835809998 0.07820429246114015 -1 0 0
1557 14 76.74176173187826 7.212747385066998 0.07820429246113915 -1 0 0
1561 1 78.52645386517796 6.182354901486011 1.5989953813505373 -1 0 0
1563 10 80.31114599847724 7.212747385066999 0.07820429246113549 -1 0 0
1567 3 82.09583813177696 6.182354901486009 1.5989953813505375 -1 0 0
1558 4 76.74176173187864 9.273532352229012 1.598995381350537 -1 0 0
1564 2 80.31114599847764 9.273532352229012 1.5989953813505378 -1 0 0
1566 12 78.52645386517796 10.303924835809998 0.07820429246114013 -1 0 0
1572 16 82.09583813177696 10.30392483581 0.07820429246113662 -1 0 0
1569 14 83.88053026507625 7.212747385066996 0.07820429246114023 -1 0 0
1573 1 85.66522239837595 6.182354901486011 1.598995381350538 -1 0 0
1575 10 87.44991453167525 7.212747385066998 0.0782042924611391 -1 0 0
1570 4 83.88053026507664 9.273532352229012 1.5989953813505378 -1 0 0
1576 2 87.44991453167563 9.273532352229012 1.5989953813505373 -1 0 0
1578 12 85.66522239837595 10.303924835809998 0.07820429246114043 -1 0 0
1579 3 89.23460666497495 6.18235490148601 1.5989953813505375 -1 0 0
1581 14 91.01929879827425 7.212747385066997 0.07820429246113969 -1 0 0
1585 1 92.80399093157395 6.182354901486012 1.5989953813505375 -1 0 0
1582 4 91.01929879827463 9.273532352229012 1.5989953813505362 -1 0 0
1584 16 89.23460666497495 10.303924835809998 0.07820429246114007 -1 0 0
1590 12 92.80399093157395 10.303924835809998 0.07820429246113945 -1 0 0
1597 1 99.94275946477197 6.1823549014860095 1.5989953813505395 -1 0 0
1602 12 99.94275946477195 10.30392483581 0.07820429246113769 -1 0 0
1587 10 94.58868306487325 7.212747385066997 0.07820429246113914 -1 0 0
1591 3 96.37337519817295 6.182354901486012 1.5989953813505373 -1 0 0
1593 14 98.15806733147224 7.212747385067 0.07820429246113511 -1 0 0
1588 2 94.58868306487363 9.273532352229012 1.598995381350537 -1 0 0
1594 4 98.15806733147264 9.273532352229013 1.5989953813505389 -1 0 0
1596 16 96.37337519817295 10.303924835809998 0.07820429246113984 -1 0 0
1771 3 3.569384266598961 12.364709802972012 1.5989953813505382 0 0 0
1767 10 1.7846921332992445 13.395102286553001 0.07820429246114065 0 0 0
1773 14 5.354076399898245 13.395102286553 0.0782042924611395 0 0 0
1768 2 1.7846921332996566 15.45588725371501 1.5989953813505362 0 0 0
1776 16 3.5693842665989566 16.486279737296 0.07820429246113966 0 0 0
1774 4 5.354076399898654 15.45588725371501 1.5989953813505373 0 0 0
1777 1 7.138768533197962 12.364709802972012 1.5989953813505375 0 0 0
1783 3 10.708152799796963 12.36470980297201 1.5989953813505384 0 0 0
1779 10 8.923460666497245 13.395102286553 0.07820429246113993 0 0 0
1782 12 7.138768533197957 16.486279737295998 0.07820429246113776 0 0 0
1780 2 8.923460666497656 15.455887253715009 1.5989953813505384 0 0 0
1788 16 10.708152799796958 16.486279737296 0.07820429246113926 0 0 0
1789 1 14.277537066395963 12.364709802972008 1.598995381350538 0 0 0
1785 14 12.492844933096244 13.395102286553 0.07820429246113914 0 0 0
1791 10 16.062229199695242 13.395102286553 0.07820429246113932 0 0 0
1786 4 12.492844933096656 15.45588725371501 1.5989953813505386 0 0 0
1794 12 14.277537066395958 16.486279737295998 0.07820429246113733 0 0 0
1792 2 16.062229199695654 15.455887253715012 1.5989953813505386 0 0 0
1795 3 17.84692133299496 12.36470980297201 1.5989953813505378 0 0 0
1801 1 21.416305599593954 12.364709802972012 1.598995381350537 0 0 0
1797 14 19.63161346629424 13.395102286553 0.07820429246114095 0 0 0
1803 10 23.200997732893242 13.395102286553001 0.07820429246113955 0 0 0
1800 16 17.846921332994953 16.486279737296 0.07820429246113793 0 0 0
1798 4 19.631613466294652 15.455887253715012 1.5989953813505369 0 0 0
1806 12 21.41630559959395 16.486279737296 0.07820429246113997 0 0 0
1804 2 23.200997732893647 15.45588725371501 1.5989953813505349 0 0 0
1807 3 24.985689866192963 12.36470980297201 1.5989953813505373 0 0 0
1813 1 28.555074132791965 12.364709802972008 1.5989953813505375 0 0 0
1809 14 26.77038199949224 13.395102286553 0.0782042924611399 0 0 0
1812 16 24.985689866192953 16.486279737296 0.07820429246113782 0 0 0
1810 4 26.770381999492653 15.455887253715012 1.598995381350538 0 0 0
1818 12 28.55507413279195 16.486279737295998 0.07820429246113934 0 0 0
1819 3 32.12445839939096 12.364709802972008 1.5989953813505373 0 0 0
1815 10 30.339766266091242 13.395102286553 0.0782042924611407 0 0 0
1821 14 33.90915053269025 13.395102286553 0.07820429246114043 0 0 0
1816 2 30.339766266091658 15.455887253715012 1.5989953813505398 0 0 0
1824 16 32.12445839939095 16.486279737295998 0.07820429246114022 0 0 0
1822 4 33.90915053269065 15.45588725371501 1.5989953813505386 0 0 0
1825 1 35.693842665989955 12.36470980297201 1.598995381350537 0 0 0
1831 3 39.263226932588964 12.364709802972012 1.5989953813505378 0 0 0
1827 10 37.47853479928925 13.395102286553 0.07820429246113869 0 0 0
1833 14 41.047919065888244 13.395102286553 0.07820429246113868 0 0 0
1830 12 35.69384266598996 16.486279737296 0.07820429246113914 0 0 0
1828 2 37.478534799289655 15.45588725371501 1.5989953813505378 0 0 0
1836 16 39.26322693258896 16.486279737295998 0.07820429246113819 0 0 0
1834 4 41.04791906588866 15.45588725371501 1.5989953813505347 0 0 0
1837 1 42.832611199187966 12.36470980297201 1.5989953813505373 0 0 0
1843 3 46.40199546578696 12.36470980297201 1.5989953813505378 0 0 0
1839 10 44.61730333248724 13.395102286552998 0.07820429246114047 0 0 0
1842 12 42.83261119918796 16.486279737295998 0.07820429246113782 0 0 0
1840 2 44.61730333248765 15.455887253715014 1.5989953813505373 0 0 0
1848 16 46.40199546578695 16.486279737296 0.07820429246113772 0 0 0
1681 1 49.97137973238596 12.36470980297201 1.5989953813505373 -1 0 0
1845 14 48.18668759908624 13.395102286553 0.07820429246114106 0 0 0
1683 10 51.75607186568524 13.395102286553 0.0782042924611387 -1 0 0
1846 4 48.18668759908666 15.455887253715012 1.598995381350536 0 0 0
1686 12 49.971379732385955 16.486279737296 0.07820429246114047 -1 0 0
1684 2 51.75607186568565 15.45588725371501 1.5989953813505398 -1 0 0
1687 3 53.540763998984964 12.364709802972014 1.598995381350538 -1 0 0
1693 1 57.110148265583966 12.36470980297201 1.5989953813505373 -1 0 0
1689 14 55.32545613228424 13.395102286553 0.07820429246114032 -1 0 0
1692 16 53.54076399898496 16.486279737295998 0.07820429246113837 -1 0 0
1690 4 55.32545613228465 15.45588725371501 1.598995381350538 -1 0 0
1698 12 57.11014826558395 16.486279737296 0.0782042924611392 -1 0 0
1699 3 60.67953253218297 12.36470980297201 1.598995381350537 -1 0 0
1705 1 64.24891679878196 12.364709802972012 1.598995381350537 -1 0 0
1695 10 58.89484039888324 13.395102286553 0.07820429246114062 -1 0 0
1701 14 62.46422466548224 13.395102286553 0.07820429246114086 -1 0 0
1696 2 58.89484039888365 15.455887253715014 1.598995381350538 -1 0 0
1704 16 60.679532532182954 16.486279737296 0.0782042924611379 -1 0 0
1702 4 62.464224665482654 15.45588725371501 1.5989953813505378 -1 0 0
1710 12 64.24891679878195 16.486279737295998 0.0782042924611399 -1 0 0
1711 3 67.81830106538095 12.36470980297201 1.598995381350537 -1 0 0
1707 10 66.03360893208125 13.395102286552998 0.07820429246114155 -1 0 0
1713 14 69.60299319868025 13.395102286553 0.0782042924611404 -1 0 0
1716 16 67.81830106538095 16.486279737296 0.07820429246113927 -1 0 0
1708 2 66.03360893208163 15.455887253715012 1.5989953813505389 -1 0 0
1714 4 69.60299319868064 15.45588725371501 1.598995381350539 -1 0 0
1717 1 71.38768533197995 12.364709802972008 1.5989953813505366 -1 0 0
1723 3 74.95706959857895 12.364709802972008 1.5989953813505366 -1 0 0
1719 10 73.17237746527925 13.395102286553 0.0782042924611403 -1 0 0
1722 12 71.38768533197995 16.486279737296 0.07820429246113914 -1 0 0
1720 2 73.17237746527964 15.45588725371501 1.598995381350539 -1 0 0
1728 16 74.95706959857895 16.486279737296 0.07820429246113902 -1 0 0
1729 1 78.52645386517796 12.36470980297201 1.5989953813505366 -1 0 0
1735 3 82.09583813177696 12.364709802972008 1.5989953813505364 -1 0 0
1725 14 76.74176173187826 13.395102286553 0.0782042924611403 -1 0 0
1731 10 80.31114599847724 13.395102286553001 0.07820429246113697 -1 0 0
1726 4 76.74176173187864 15.45588725371501 1.5989953813505389 -1 0 0
1734 12 78.52645386517796 16.486279737296 0.07820429246113922 -1 0 0
1732 2 80.31114599847764 15.45588725371501 1.5989953813505384 -1 0 0
1740 16 82.09583813177696 16.486279737296 0.07820429246113686 -1 0 0
1741 1 85.66522239837595 12.36470980297201 1.5989953813505373 -1 0 0
1737 14 83.88053026507625 13.395102286552998 0.07820429246114159 -1 0 0
1743 10 87.44991453167525 13.395102286553 0.07820429246114043 -1 0 0
1738 4 83.88053026507664 15.45588725371501 1.5989953813505382 -1 0 0
1746 12 85.66522239837595 16.486279737295998 0.07820429246114001 -1 0 0
1744 2 87.44991453167563 15.45588725371501 1.5989953813505386 -1 0 0
1747 3 89.23460666497495 12.36470980297201 1.598995381350537 -1 0 0
1753 1 92.80399093157395 12.364709802972014 1.598995381350537 -1 0 0
1749 14 91.01929879827425 13.395102286552998 0.07820429246114124 -1 0 0
1752 16 89.23460666497495 16.486279737296 0.07820429246113894 -1 0 0
1750 4 91.01929879827463 15.45588725371501 1.5989953813505378 -1 0 0
1758 12 92.80399093157395 16.486279737295998 0.07820429246113803 -1 0 0
1765 1 99.94275946477197 12.364709802972008 1.5989953813505402 -1 0 0
1770 12 99.94275946477195 16.486279737296 0.07820429246113658 -1 0 0
1759 3 96.37337519817295 12.36470980297201 1.5989953813505375 -1 0 0
1755 10 94.58868306487325 13.395102286553 0.07820429246114013 -1 0 0
1761 14 98.15806733147224 13.395102286553003 0.07820429246113642 -1 0 0
1756 2 94.58868306487363 15.45588725371501 1.5989953813505382 -1 0 0
1764 16 96.37337519817295 16.486279737296 0.0782042924611391 -1 0 0
1762 4 98.15806733147264 15.45588725371501 1.5989953813505384 -1 0 0
1939 3 3.5693842665989597 18.547064704458013 1.5989953813505382 0 0 0
1935 10 1.7846921332992445 19.577457188039 0.07820429246113886 0 0 0
1941 14 5.354076399898245 19.577457188039 0.07820429246113816 0 0 0
1936 2 1.784692133299656 21.638242155201013 1.5989953813505366 0 0 0
1942 4 5.354076399898655 21.63824215520101 1.5989953813505375 0 0 0
1944 16 3.569384266598956 22.668634638782 0.07820429246113986 0 0 0
1945 1 7.138768533197962 18.547064704458013 1.5989953813505378 0 0 0
1951 3 10.708152799796963 18.54706470445801 1.5989953813505369 0 0 0
1947 10 8.923460666497244 19.577457188039 0.07820429246113875 0 0 0
1948 2 8.923460666497656 21.63824215520101 1.5989953813505373 0 0 0
1950 12 7.138768533197957 22.668634638782 0.07820429246114015 0 0 0
1956 16 10.708152799796958 22.668634638782 0.07820429246113984 0 0 0
1957 1 14.277537066395963 18.547064704458013 1.5989953813505366 0 0 0
1953 14 12.492844933096245 19.577457188039 0.07820429246113805 0 0 0
1959 10 16.062229199695242 19.577457188039 0.07820429246113741 0 0 0
1954 4 12.492844933096658 21.638242155201013 1.5989953813505389 0 0 0
1960 2 16.062229199695654 21.638242155201013 1.5989953813505373 0 0 0
1962 12 14.277537066395956 22.668634638781995 0.07820429246113982 0 0 0
1963 3 17.84692133299496 18.547064704458013 1.5989953813505373 0 0 0
1969 1 21.416305599593958 18.547064704458016 1.598995381350538 0 0 0
1965 14 19.63161346629424 19.577457188039 0.07820429246113829 0 0 0
1971 10 23.200997732893242 19.577457188039 0.07820429246113686 0 0 0
1966 4 19.631613466294652 21.638242155201016 1.5989953813505373 0 0 0
1972 2 23.200997732893647 21.638242155201016 1.5989953813505362 0 0 0
1968 16 17.846921332994953 22.668634638781995 0.07820429246113948 0 0 0
1974 12 21.41630559959395 22.668634638782 0.07820429246114116 0 0 0
1975 3 24.985689866192963 18.547064704458016 1.5989953813505389 0 0 0
1981 1 28.555074132791965 18.54706470445801 1.598995381350537 0 0 0
1977 14 26.77038199949224 19.577457188039 0.07820429246113829 0 0 0
1978 4 26.770381999492653 21.638242155201013 1.5989953813505364 0 0 0
1980 16 24.985689866192953 22.668634638782 0.07820429246113897 0 0 0
1986 12 28.55507413279195 22.668634638782 0.07820429246113962 0 0 0
1987 3 32.12445839939096 18.54706470445801 1.5989953813505366 0 0 0
1983 10 30.339766266091242 19.577457188039 0.07820429246113937 0 0 0
1989 14 33.90915053269025 19.577457188039 0.07820429246113852 0 0 0
1984 2 30.339766266091658 21.638242155201013 1.5989953813505393 0 0 0
1990 4 33.90915053269065 21.638242155201013 1.5989953813505369 0 0 0
1992 16 32.12445839939095 22.668634638781995 0.07820429246114079 0 0 0
1993 1 35.693842665989955 18.547064704458013 1.5989953813505375 0 0 0
1999 3 39.263226932588964 18.547064704458013 1.598995381350539 0 0 0
1995 10 37.47853479928925 19.577457188039 0.07820429246113735 0 0 0
2001 14 41.047919065888244 19.577457188039 0.07820429246113739 0 0 0
1996 2 37.478534799289655 21.63824215520101 1.5989953813505364 0 0 0
2002 4 41.04791906588866 21.638242155201013 1.5989953813505329 0 0 0
1998 12 35.69384266598996 22.668634638782 0.07820429246114005 0 0 0
2004 16 39.26322693258896 22.668634638782 0.07820429246114034 0 0 0
2005 1 42.832611199187966 18.547064704458013 1.5989953813505398 0 0 0
2011 3 46.40199546578696 18.547064704458013 1.5989953813505382 0 0 0
2007 10 44.61730333248724 19.577457188039 0.078204292461138 0 0 0
2008 2 44.61730333248765 21.638242155201016 1.5989953813505358 0 0 0
2010 12 42.83261119918796 22.668634638781995 0.07820429246113891 0 0 0
2016 16 46.40199546578695 22.668634638781995 0.07820429246113916 0 0 0
1849 1 49.971379732385955 18.547064704458013 1.5989953813505378 -1 0 0
2013 14 48.18668759908624 19.577457188039 0.07820429246113822 0 0 0
1851 10 51.75607186568524 19.577457188039 0.07820429246113728 -1 0 0
2014 4 48.18668759908666 21.638242155201016 1.5989953813505373 0 0 0
1852 2 51.756071865685655 21.638242155201013 1.5989953813505395 -1 0 0
1854 12 49.971379732385955 22.668634638782 0.07820429246114151 -1 0 0
1855 3 53.54076399898496 18.547064704458016 1.5989953813505375 -1 0 0
1861 1 57.110148265583966 18.54706470445801 1.5989953813505373 -1 0 0
1857 14 55.32545613228424 19.577457188039 0.07820429246113883 -1 0 0
1858 4 55.32545613228465 21.63824215520101 1.5989953813505373 -1 0 0
1860 16 53.54076399898495 22.668634638782 0.07820429246114063 -1 0 0
1866 12 57.11014826558395 22.668634638782 0.07820429246113969 -1 0 0
1867 3 60.67953253218297 18.547064704458013 1.5989953813505382 -1 0 0
1873 1 64.24891679878195 18.547064704458013 1.598995381350536 -1 0 0
1863 10 58.89484039888324 19.577457188039 0.0782042924611386 -1 0 0
1869 14 62.46422466548224 19.577457188039 0.07820429246113918 -1 0 0
1864 2 58.89484039888365 21.638242155201013 1.5989953813505373 -1 0 0
1870 4 62.464224665482654 21.638242155201013 1.5989953813505389 -1 0 0
1872 16 60.679532532182954 22.668634638782 0.07820429246113891 -1 0 0
1878 12 64.24891679878195 22.668634638782 0.07820429246114208 -1 0 0
1879 3 67.81830106538095 18.54706470445801 1.5989953813505366 -1 0 0
1875 10 66.03360893208125 19.577457188039 0.07820429246114002 -1 0 0
1881 14 69.60299319868025 19.577457188039 0.07820429246113847 -1 0 0
1876 2 66.03360893208163 21.63824215520101 1.5989953813505389 -1 0 0
1882 4 69.60299319868064 21.638242155201013 1.5989953813505369 -1 0 0
1884 16 67.81830106538095 22.668634638782 0.07820429246113987 -1 0 0
1885 1 71.38768533197995 18.547064704458013 1.5989953813505375 -1 0 0
1891 3 74.95706959857895 18.547064704458013 1.598995381350538 -1 0 0
1887 10 73.17237746527925 19.577457188039 0.07820429246113858 -1 0 0
1888 2 73.17237746527964 21.638242155201013 1.598995381350537 -1 0 0
1890 12 71.38768533197995 22.668634638782 0.07820429246113973 -1 0 0
1896 16 74.95706959857895 22.668634638782 0.07820429246113965 -1 0 0
1897 1 78.52645386517796 18.547064704458013 1.5989953813505378 -1 0 0
1903 3 82.09583813177696 18.54706470445801 1.598995381350539 -1 0 0
1893 14 76.74176173187826 19.577457188039 0.07820429246113857 -1 0 0
1899 10 80.31114599847724 19.577457188039002 0.07820429246113463 -1 0 0