LAMMPS data file via write_data, version 29 Aug 2024, timestep = 2, units = metal

8064 atoms
36 atom types

0 99.942759464772 xlo xhi
0 98.917678423776 ylo yhi
-50 50 zlo zhi

Masses

1 55.845
2 55.845
3 55.845
4 55.845
5 55.845
6 55.845
7 55.845
8 55.845
9 55.845
10 55.845
11 55.845
12 55.845
13 127.6
14 127.6
15 127.6
16 127.6
17 127.6
18 127.6
19 127.6
20 127.6
21 127.6
22 127.6
23 127.6
24 127.6
25 127.6
26 127.6
27 127.6
28 127.6
29 127.6
30 127.6
31 127.6
32 127.6
33 127.6
34 127.6
35 127.6
36 127.6

Atoms # atomic

1431 14 1.7846921332992518 1.0303924835809861 0.07729779085859934 0 0 0
1435 3 3.5693842665987 3.0754523244098916e-14 1.6012748150059442 0 0 0
1437 18 5.354076399898253 1.0303924835809861 0.07729779085859928 0 0 0
1432 2 1.7846921332995285 3.0911774507430336 1.601274815005944 0 0 0
1438 4 5.3540763998985295 3.0911774507430336 1.6012748150059442 0 0 0
1434 16 1.419997418919091e-13 4.121569934323985 0.07729779085859867 0 0 0
1440 20 3.569384266599142 4.121569934323986 0.07729779085859807 0 0 0
1441 1 7.1387685331977 3.0059666832790004e-14 1.6012748150059444 0 0 0
1443 14 8.923460666497252 1.030392483580986 0.0772977908585993 0 0 0
1447 3 10.7081527997967 3.1096376351447237e-14 1.6012748150059442 0 0 0
1444 2 8.92346066649753 3.0911774507430336 1.6012748150059442 0 0 0
1446 16 7.138768533198143 4.121569934323985 0.07729779085859839 0 0 0
1452 20 10.708152799797144 4.121569934323985 0.07729779085859856 0 0 0
1449 18 12.492844933096254 1.030392483580986 0.07729779085859931 0 0 0
1453 1 14.277537066395698 3.016322507476163e-14 1.6012748150059442 0 0 0
1455 14 16.06222919969525 1.030392483580987 0.0772977908585983 0 0 0
1450 4 12.492844933096531 3.0911774507430336 1.601274815005944 0 0 0
1456 2 16.062229199695526 3.0911774507430314 1.6012748150059442 0 0 0
1458 16 14.277537066396144 4.121569934323985 0.0772977908585984 0 0 0
1459 3 17.846921332994697 3.137123018664049e-14 1.6012748150059442 0 0 0
1461 18 19.631613466294247 1.030392483580986 0.07729779085859939 0 0 0
1465 1 21.416305599593695 3.040570010136817e-14 1.6012748150059442 0 0 0
1467 14 23.20099773289325 1.030392483580986 0.07729779085859938 0 0 0
1462 4 19.631613466294525 3.0911774507430336 1.601274815005944 0 0 0
1468 2 23.200997732893523 3.0911774507430336 1.601274815005944 0 0 0
1464 20 17.84692133299514 4.121569934323985 0.07729779085859843 0 0 0
1470 16 21.41630559959414 4.121569934323987 0.07729779085859748 0 0 0
1471 3 24.985689866192697 3.099323151847045e-14 1.6012748150059442 0 0 0
1473 18 26.77038199949225 1.030392483580986 0.07729779085859928 0 0 0
1477 1 28.5550741327917 3.09916513178806e-14 1.6012748150059442 0 0 0
1474 4 26.770381999492525 3.0911774507430336 1.6012748150059442 0 0 0
1476 20 24.985689866193137 4.121569934323985 0.07729779085859859 0 0 0
1482 16 28.55507413279214 4.121569934323985 0.07729779085859853 0 0 0
1479 14 30.339766266091253 1.030392483580986 0.07729779085859924 0 0 0
1485 18 33.909150532690255 1.030392483580986 0.07729779085859932 0 0 0
1483 3 32.124458399390704 3.130216073378614e-14 1.6012748150059442 0 0 0
1480 2 30.339766266091527 3.091177450743034 1.6012748150059442 0 0 0
1486 4 33.90915053269053 3.0911774507430336 1.6012748150059442 0 0 0
1488 20 32.124458399391145 4.121569934323985 0.07729779085859871 0 0 0
1489 1 35.693842665989706 3.1126758468312785e-14 1.6012748150059442 0 0 0
1491 14 37.47853479928926 1.0303924835809861 0.0772977908585992 0 0 0
1495 3 39.2632269325887 2.899836313754944e-14 1.6012748150059444 0 0 0
1497 18 41.04791906588825 1.0303924835809861 0.0772977908585992 0 0 0
1492 2 37.478534799289534 3.0911774507430336 1.601274815005944 0 0 0
1498 4 41.04791906588853 3.0911774507430336 1.601274815005944 0 0 0
1494 16 35.69384266599015 4.121569934323985 0.07729779085859856 0 0 0
1500 20 39.26322693258915 4.121569934323986 0.07729779085859823 0 0 0
1501 1 42.832611199187696 3.1112649951813506e-14 1.6012748150059442 0 0 0
1503 14 44.617303332487246 1.030392483580987 0.07729779085859839 0 0 0
1507 3 46.4019954657867 3.1341996475728264e-14 1.6012748150059442 0 0 0
1504 2 44.61730333248753 3.0911774507430314 1.6012748150059437 0 0 0
1506 16 42.83261119918815 4.121569934323985 0.07729779085859886 0 0 0
1512 20 46.401995465787145 4.121569934323985 0.07729779085859848 0 0 0
1509 18 48.18668759908625 1.0303924835809861 0.0772977908585994 0 0 0
1345 1 49.9713797323857 3.065932229603911e-14 1.6012748150059442 -1 0 0
1347 14 51.75607186568525 1.0303924835809861 0.07729779085859907 -1 0 0
1510 4 48.186687599086525 3.0911774507430336 1.6012748150059444 0 0 0
1348 2 51.75607186568553 3.0911774507430336 1.6012748150059442 -1 0 0
1350 16 49.97137973238614 4.121569934323987 0.0772977908585975 -1 0 0
1351 3 53.540763998984694 2.981157534018354e-14 1.6012748150059444 -1 0 0
1353 18 55.325456132284245 1.030392483580986 0.07729779085859946 -1 0 0
1357 1 57.110148265583696 3.111939643812507e-14 1.6012748150059442 -1 0 0
1354 4 55.32545613228453 3.0911774507430336 1.6012748150059442 -1 0 0
1356 20 53.54076399898514 4.121569934323985 0.07729779085859857 -1 0 0
1362 16 57.110148265584144 4.121569934323985 0.07729779085859834 -1 0 0
1359 14 58.89484039888325 1.0303924835809866 0.07729779085859873 -1 0 0
1363 3 60.6795325321827 3.0995601819355223e-14 1.6012748150059442 -1 0 0
1365 18 62.46422466548225 1.0303924835809855 0.07729779085859999 -1 0 0
1369 1 64.24891679878169 3.011905911149691e-14 1.6012748150059442 -1 0 0
1360 2 58.894840398883524 3.0911774507430327 1.6012748150059442 -1 0 0
1366 4 62.464224665482526 3.0911774507430345 1.601274815005944 -1 0 0
1368 20 60.67953253218314 4.121569934323985 0.07729779085859859 -1 0 0
1374 16 64.24891679878213 4.121569934323986 0.07729779085859768 -1 0 0
1371 14 66.03360893208125 1.0303924835809875 0.07729779085859778 -1 0 0
1375 3 67.8183010653807 3.043812173833402e-14 1.6012748150059442 -1 0 0
1377 18 69.60299319868024 1.030392483580986 0.07729779085859946 -1 0 0
1372 2 66.03360893208152 3.0911774507430314 1.601274815005944 -1 0 0
1378 4 69.60299319868052 3.0911774507430336 1.601274815005944 -1 0 0
1380 20 67.81830106538114 4.121569934323986 0.07729779085859818 -1 0 0
1381 1 71.38768533197968 3.1058809842949225e-14 1.6012748150059442 -1 0 0
1383 14 73.17237746527924 1.030392483580986 0.07729779085859935 -1 0 0
1387 3 74.95706959857868 3.105959994324415e-14 1.6012748150059442 -1 0 0
1384 2 73.17237746527952 3.0911774507430336 1.6012748150059442 -1 0 0
1386 16 71.38768533198012 4.121569934323985 0.07729779085859856 -1 0 0
1392 20 74.95706959857912 4.121569934323985 0.07729779085859854 -1 0 0
1389 18 76.74176173187824 1.030392483580986 0.07729779085859935 -1 0 0
1393 1 78.52645386517769 3.1058809842949225e-14 1.6012748150059442 -1 0 0
1395 14 80.31114599847724 1.030392483580986 0.07729779085859936 -1 0 0
1399 3 82.09583813177669 3.146282363537888e-14 1.6012748150059442 -1 0 0
1390 4 76.74176173187853 3.0911774507430336 1.6012748150059442 -1 0 0
1396 2 80.31114599847753 3.0911774507430336 1.601274815005944 -1 0 0
1398 16 78.52645386517813 4.121569934323985 0.07729779085859856 -1 0 0
1404 20 82.09583813177713 4.121569934323985 0.07729779085859878 -1 0 0
1401 18 83.88053026507625 1.0303924835809868 0.07729779085859835 -1 0 0
1405 1 85.66522239837569 3.129095538024881e-14 1.6012748150059442 -1 0 0
1407 14 87.44991453167525 1.030392483580986 0.07729779085859935 -1 0 0
1402 4 83.88053026507653 3.0911774507430323 1.6012748150059442 -1 0 0
1408 2 87.44991453167552 3.0911774507430336 1.601274815005944 -1 0 0
1410 16 85.66522239837613 4.121569934323986 0.07729779085859804 -1 0 0
1411 3 89.23460666497469 3.1059125266639904e-14 1.6012748150059442 -1 0 0
1413 18 91.01929879827425 1.030392483580986 0.07729779085859956 -1 0 0
1417 1 92.8039909315737 2.874202152915617e-14 1.6012748150059442 -1 0 0
1414 4 91.01929879827452 3.0911774507430336 1.601274815005944 -1 0 0
1416 20 89.23460666497513 4.121569934323985 0.07729779085859856 -1 0 0
1422 16 92.80399093157413 4.121569934323986 0.07729779085859863 -1 0 0
1429 1 99.9427594647717 3.0903956322622584e-14 1.6012748150059446 -1 0 0
1419 14 94.58868306487324 1.0303924835809863 0.07729779085859884 -1 0 0
1423 3 96.37337519817268 3.1130708969787404e-14 1.6012748150059442 -1 0 0
1425 18 98.15806733147224 1.0303924835809861 0.07729779085859932 -1 0 0
1420 2 94.58868306487352 3.0911774507430336 1.601274815005944 -1 0 0
1426 4 98.15806733147252 3.0911774507430336 1.6012748150059437 -1 0 0
1428 20 96.37337519817314 4.121569934323985 0.07729779085859857 -1 0 0
1599 14 1.7846921332992518 7.212747385066987 0.0772977908585991 0 0 0
1603 3 3.5693842665987 6.182354901486034 1.601274815005944 0 0 0
1605 18 5.354076399898253 7.212747385066987 0.07729779085859922 0 0 0
1600 2 1.7846921332995287 9.273532352229035 1.601274815005944 0 0 0
1606 4 5.3540763998985295 9.273532352229035 1.6012748150059442 0 0 0
1602 16 1.4195391607480344e-13 10.303924835809987 0.07729779085859866 0 0 0
1608 20 3.569384266599142 10.303924835809987 0.07729779085859807 0 0 0
1609 1 7.138768533197699 6.182354901486033 1.601274815005944 0 0 0
1611 14 8.923460666497252 7.212747385066987 0.07729779085859917 0 0 0
1615 3 10.7081527997967 6.182354901486034 1.6012748150059442 0 0 0
1612 2 8.923460666497531 9.273532352229035 1.6012748150059442 0 0 0
1614 16 7.138768533198143 10.303924835809987 0.07729779085859843 0 0 0
1620 20 10.708152799797144 10.303924835809987 0.07729779085859861 0 0 0
1617 18 12.492844933096254 7.212747385066987 0.0772977908585992 0 0 0
1621 1 14.277537066395698 6.1823549014860335 1.601274815005944 0 0 0
1623 14 16.06222919969525 7.212747385066988 0.07729779085859811 0 0 0
1618 4 12.492844933096531 9.273532352229035 1.601274815005944 0 0 0
1624 2 16.062229199695526 9.273532352229033 1.601274815005944 0 0 0
1626 16 14.277537066396144 10.303924835809987 0.0772977908585984 0 0 0
1627 3 17.846921332994697 6.182354901486034 1.601274815005944 0 0 0
1629 18 19.631613466294247 7.212747385066987 0.07729779085859925 0 0 0
1633 1 21.416305599593695 6.1823549014860335 1.601274815005944 0 0 0
1635 14 23.20099773289325 7.212747385066987 0.07729779085859925 0 0 0
1630 4 19.631613466294525 9.273532352229035 1.601274815005944 0 0 0
1636 2 23.200997732893523 9.273532352229035 1.601274815005944 0 0 0
1632 20 17.84692133299514 10.303924835809987 0.07729779085859849 0 0 0
1638 16 21.41630559959414 10.303924835809987 0.0772977908585975 0 0 0
1639 3 24.985689866192697 6.182354901486034 1.601274815005944 0 0 0
1641 18 26.77038199949225 7.212747385066987 0.07729779085859916 0 0 0
1645 1 28.5550741327917 6.182354901486034 1.601274815005944 0 0 0
1642 4 26.770381999492525 9.273532352229035 1.601274815005944 0 0 0
1644 20 24.985689866193137 10.303924835809987 0.07729779085859864 0 0 0
1650 16 28.55507413279214 10.303924835809987 0.07729779085859859 0 0 0
1647 14 30.339766266091253 7.212747385066987 0.07729779085859911 0 0 0
1653 18 33.909150532690255 7.212747385066987 0.07729779085859913 0 0 0
1651 3 32.124458399390704 6.182354901486034 1.601274815005944 0 0 0
1648 2 30.339766266091527 9.273532352229035 1.601274815005944 0 0 0
1654 4 33.90915053269053 9.273532352229035 1.601274815005944 0 0 0
1656 20 32.124458399391145 10.303924835809987 0.07729779085859871 0 0 0
1657 1 35.693842665989706 6.182354901486034 1.601274815005944 0 0 0
1659 14 37.47853479928926 7.212747385066987 0.07729779085859897 0 0 0
1663 3 39.2632269325887 6.182354901486033 1.601274815005944 0 0 0
1665 18 41.04791906588825 7.212747385066987 0.07729779085859918 0 0 0
1660 2 37.478534799289534 9.273532352229035 1.601274815005944 0 0 0
1666 4 41.04791906588853 9.273532352229035 1.601274815005944 0 0 0
1662 16 35.69384266599015 10.303924835809987 0.0772977908585986 0 0 0
1668 20 39.26322693258915 10.303924835809987 0.07729779085859817 0 0 0
1669 1 42.832611199187696 6.1823549014860335 1.601274815005944 0 0 0
1671 14 44.617303332487246 7.212747385066988 0.0772977908585982 0 0 0
1675 3 46.4019954657867 6.182354901486034 1.601274815005944 0 0 0
1672 2 44.61730333248753 9.273532352229033 1.6012748150059437 0 0 0
1674 16 42.83261119918815 10.303924835809987 0.07729779085859888 0 0 0
1680 20 46.401995465787145 10.303924835809987 0.07729779085859854 0 0 0
1677 18 48.18668759908625 7.212747385066987 0.07729779085859925 0 0 0
1513 1 49.9713797323857 6.1823549014860335 1.601274815005944 -1 0 0
1515 14 51.75607186568525 7.212747385066987 0.077297790858599 -1 0 0
1678 4 48.186687599086525 9.273532352229035 1.6012748150059444 0 0 0
1516 2 51.75607186568553 9.273532352229035 1.601274815005944 -1 0 0
1518 16 49.97137973238614 10.303924835809987 0.07729779085859749 -1 0 0
1519 3 53.540763998984694 6.182354901486033 1.601274815005944 -1 0 0
1521 18 55.325456132284245 7.212747385066987 0.07729779085859936 -1 0 0
1525 1 57.110148265583696 6.182354901486034 1.6012748150059442 -1 0 0
1522 4 55.32545613228453 9.273532352229035 1.601274815005944 -1 0 0
1524 20 53.54076399898514 10.303924835809987 0.07729779085859861 -1 0 0
1530 16 57.110148265584144 10.303924835809987 0.0772977908585984 -1 0 0
1527 14 58.89484039888325 7.212747385066987 0.07729779085859864 -1 0 0
1531 3 60.6795325321827 6.182354901486034 1.601274815005944 -1 0 0
1533 18 62.46422466548225 7.2127473850669865 0.07729779085859989 -1 0 0
1537 1 64.24891679878169 6.1823549014860335 1.601274815005944 -1 0 0
1528 2 58.894840398883524 9.273532352229033 1.601274815005944 -1 0 0
1534 4 62.464224665482526 9.273532352229036 1.601274815005944 -1 0 0
1536 20 60.67953253218314 10.303924835809987 0.0772977908585986 -1 0 0
1542 16 64.24891679878213 10.303924835809987 0.0772977908585978 -1 0 0
1539 14 66.03360893208125 7.212747385066988 0.0772977908585976 -1 0 0
1543 3 67.8183010653807 6.1823549014860335 1.601274815005944 -1 0 0
1545 18 69.60299319868024 7.212747385066987 0.07729779085859925 -1 0 0
1540 2 66.03360893208152 9.273532352229033 1.601274815005944 -1 0 0
1546 4 69.60299319868052 9.273532352229035 1.601274815005944 -1 0 0
1548 20 67.81830106538114 10.303924835809987 0.07729779085859817 -1 0 0
1549 1 71.38768533197968 6.182354901486034 1.601274815005944 -1 0 0
1551 14 73.17237746527924 7.212747385066987 0.07729779085859916 -1 0 0
1555 3 74.95706959857868 6.182354901486034 1.601274815005944 -1 0 0
1552 2 73.17237746527952 9.273532352229035 1.601274815005944 -1 0 0
1554 16 71.38768533198012 10.303924835809987 0.07729779085859861 -1 0 0
1560 20 74.95706959857912 10.303924835809987 0.07729779085859861 -1 0 0
1557 18 76.74176173187824 7.212747385066987 0.07729779085859916 -1 0 0
1561 1 78.52645386517769 6.182354901486034 1.601274815005944 -1 0 0
1563 14 80.31114599847724 7.212747385066987 0.07729779085859917 -1 0 0
1567 3 82.09583813177669 6.182354901486034 1.601274815005944 -1 0 0
1558 4 76.74176173187853 9.273532352229035 1.601274815005944 -1 0 0
1564 2 80.31114599847753 9.273532352229035 1.601274815005944 -1 0 0
1566 16 78.52645386517813 10.303924835809987 0.07729779085859861 -1 0 0
1572 20 82.09583813177713 10.303924835809987 0.0772977908585988 -1 0 0
1569 18 83.88053026507625 7.212747385066988 0.07729779085859818 -1 0 0
1573 1 85.66522239837569 6.182354901486034 1.6012748150059442 -1 0 0
1575 14 87.44991453167525 7.212747385066987 0.07729779085859916 -1 0 0
1570 4 83.88053026507653 9.273532352229033 1.601274815005944 -1 0 0
1576 2 87.44991453167552 9.273532352229035 1.601274815005944 -1 0 0
1578 16 85.66522239837613 10.303924835809987 0.07729779085859806 -1 0 0
1579 3 89.23460666497469 6.182354901486034 1.6012748150059442 -1 0 0
1581 18 91.01929879827425 7.212747385066987 0.07729779085859943 -1 0 0
1585 1 92.8039909315737 6.182354901486032 1.601274815005944 -1 0 0
1582 4 91.01929879827452 9.273532352229035 1.601274815005944 -1 0 0
1584 20 89.23460666497513 10.303924835809987 0.07729779085859863 -1 0 0
1590 16 92.80399093157413 10.303924835809987 0.07729779085859854 -1 0 0
1597 1 99.9427594647717 6.182354901486034 1.6012748150059444 -1 0 0
1587 14 94.58868306487324 7.212747385066987 0.07729779085859864 -1 0 0
1591 3 96.37337519817268 6.182354901486034 1.601274815005944 -1 0 0
1593 18 98.15806733147224 7.212747385066987 0.07729779085859914 -1 0 0
1588 2 94.58868306487352 9.273532352229035 1.601274815005944 -1 0 0
1594 4 98.15806733147252 9.273532352229035 1.6012748150059437 -1 0 0
1596 20 96.37337519817314 10.303924835809987 0.07729779085859859 -1 0 0
1771 3 3.5693842665987 12.364709802972035 1.601274815005944 0 0 0
1767 14 1.7846921332992518 13.395102286552987 0.07729779085859853 0 0 0
1773 18 5.354076399898253 13.395102286552987 0.07729779085859861 0 0 0
1770 16 1.4192579708069767e-13 16.486279737295988 0.07729779085859913 0 0 0
1768 2 1.7846921332995287 15.455887253715037 1.601274815005944 0 0 0
1776 20 3.569384266599142 16.486279737295988 0.07729779085859859 0 0 0
1774 4 5.3540763998985295 15.455887253715037 1.601274815005944 0 0 0
1777 1 7.1387685331977 12.364709802972033 1.6012748150059442 0 0 0
1783 3 10.7081527997967 12.364709802972035 1.601274815005944 0 0 0
1779 14 8.923460666497252 13.395102286552987 0.0772977908585986 0 0 0
1782 16 7.138768533198143 16.486279737295988 0.077297790858599 0 0 0
1780 2 8.92346066649753 15.455887253715037 1.601274815005944 0 0 0
1788 20 10.708152799797144 16.48627973729599 0.07729779085859913 0 0 0
1789 1 14.277537066395698 12.364709802972033 1.601274815005944 0 0 0
1785 18 12.492844933096254 13.395102286552987 0.07729779085859856 0 0 0
1791 14 16.06222919969525 13.395102286552987 0.07729779085859756 0 0 0
1786 4 12.492844933096531 15.455887253715037 1.601274815005944 0 0 0
1794 16 14.277537066396144 16.486279737295988 0.07729779085859903 0 0 0
1792 2 16.062229199695526 15.455887253715035 1.601274815005944 0 0 0
1795 3 17.846921332994697 12.364709802972035 1.6012748150059442 0 0 0
1801 1 21.416305599593695 12.364709802972033 1.601274815005944 0 0 0
1797 18 19.631613466294247 13.395102286552987 0.07729779085859867 0 0 0
1803 14 23.20099773289325 13.395102286552987 0.07729779085859867 0 0 0
1800 20 17.84692133299514 16.48627973729599 0.07729779085859914 0 0 0
1798 4 19.631613466294525 15.455887253715037 1.601274815005944 0 0 0
1806 16 21.41630559959414 16.486279737295988 0.07729779085859823 0 0 0
1804 2 23.200997732893526 15.455887253715037 1.601274815005944 0 0 0
1807 3 24.985689866192697 12.364709802972035 1.601274815005944 0 0 0
1813 1 28.5550741327917 12.364709802972035 1.601274815005944 0 0 0
1809 18 26.77038199949225 13.395102286552987 0.07729779085859857 0 0 0
1812 20 24.985689866193137 16.48627973729599 0.07729779085859904 0 0 0
1810 4 26.770381999492525 15.455887253715037 1.601274815005944 0 0 0
1818 16 28.55507413279214 16.48627973729599 0.07729779085859916 0 0 0
1819 3 32.124458399390704 12.364709802972035 1.601274815005944 0 0 0
1815 14 30.339766266091253 13.395102286552987 0.07729779085859852 0 0 0
1821 18 33.909150532690255 13.395102286552987 0.0772977908585985 0 0 0
1816 2 30.339766266091527 15.455887253715037 1.601274815005944 0 0 0
1824 20 32.124458399391145 16.48627973729599 0.07729779085859934 0 0 0
1822 4 33.90915053269053 15.455887253715037 1.601274815005944 0 0 0
1825 1 35.693842665989706 12.364709802972035 1.601274815005944 0 0 0
1831 3 39.2632269325887 12.364709802972031 1.6012748150059442 0 0 0
1827 14 37.47853479928926 13.395102286552987 0.07729779085859849 0 0 0
1833 18 41.04791906588825 13.395102286552985 0.07729779085859867 0 0 0
1830 16 35.69384266599015 16.48627973729599 0.07729779085859918 0 0 0
1828 2 37.478534799289534 15.455887253715037 1.601274815005944 0 0 0
1836 20 39.26322693258915 16.48627973729599 0.07729779085859878 0 0 0
1834 4 41.04791906588853 15.455887253715037 1.601274815005944 0 0 0
1837 1 42.832611199187696 12.364709802972035 1.601274815005944 0 0 0
1843 3 46.4019954657867 12.364709802972035 1.6012748150059442 0 0 0
1839 14 44.617303332487246 13.395102286552987 0.0772977908585976 0 0 0
1842 16 42.83261119918815 16.486279737295988 0.07729779085859953 0 0 0
1840 2 44.61730333248753 15.455887253715034 1.601274815005944 0 0 0
1848 20 46.40199546578714 16.48627973729599 0.07729779085859917 0 0 0
1681 1 49.9713797323857 12.364709802972033 1.601274815005944 -1 0 0
1845 18 48.18668759908625 13.395102286552987 0.07729779085859867 0 0 0
1683 14 51.75607186568525 13.395102286552987 0.07729779085859842 -1 0 0
1846 4 48.186687599086525 15.455887253715037 1.601274815005944 0 0 0
1686 16 49.97137973238614 16.486279737295988 0.07729779085859795 -1 0 0
1684 2 51.75607186568553 15.455887253715037 1.601274815005944 -1 0 0
1687 3 53.540763998984694 12.364709802972033 1.6012748150059442 -1 0 0
1693 1 57.110148265583696 12.364709802972035 1.601274815005944 -1 0 0
1689 18 55.325456132284245 13.395102286552987 0.07729779085859877 -1 0 0
1692 20 53.54076399898514 16.486279737295988 0.07729779085859909 -1 0 0
1690 4 55.32545613228453 15.455887253715037 1.601274815005944 -1 0 0
1698 16 57.110148265584144 16.48627973729599 0.07729779085859897 -1 0 0
1699 3 60.6795325321827 12.364709802972035 1.6012748150059442 -1 0 0
1705 1 64.24891679878169 12.364709802972033 1.601274815005944 -1 0 0
1695 14 58.89484039888325 13.395102286552987 0.07729779085859811 -1 0 0
1701 18 62.46422466548225 13.395102286552985 0.07729779085859932 -1 0 0
1696 2 58.894840398883524 15.455887253715035 1.601274815005944 -1 0 0
1704 20 60.67953253218314 16.48627973729599 0.0772977908585992 -1 0 0
1702 4 62.464224665482526 15.455887253715039 1.601274815005944 -1 0 0
1710 16 64.24891679878213 16.486279737295988 0.07729779085859827 -1 0 0
1711 3 67.8183010653807 12.364709802972033 1.601274815005944 -1 0 0
1707 14 66.03360893208125 13.395102286552987 0.07729779085859709 -1 0 0
1713 18 69.60299319868024 13.395102286552987 0.07729779085859863 -1 0 0
1716 20 67.81830106538114 16.48627973729599 0.07729779085859893 -1 0 0
1708 2 66.03360893208152 15.455887253715034 1.601274815005944 -1 0 0
1714 4 69.60299319868052 15.455887253715037 1.601274815005944 -1 0 0
1717 1 71.38768533197968 12.364709802972035 1.601274815005944 -1 0 0
1723 3 74.95706959857868 12.364709802972035 1.601274815005944 -1 0 0
1719 14 73.17237746527924 13.395102286552987 0.07729779085859852 -1 0 0
1722 16 71.38768533198012 16.48627973729599 0.07729779085859918 -1 0 0
1720 2 73.17237746527952 15.455887253715037 1.601274815005944 -1 0 0
1728 20 74.95706959857912 16.48627973729599 0.07729779085859918 -1 0 0
1729 1 78.52645386517769 12.364709802972035 1.601274815005944 -1 0 0
1735 3 82.09583813177669 12.364709802972035 1.601274815005944 -1 0 0
1725 18 76.74176173187824 13.395102286552987 0.07729779085859852 -1 0 0
1731 14 80.31114599847724 13.395102286552987 0.07729779085859853 -1 0 0
1726 4 76.74176173187853 15.455887253715037 1.601274815005944 -1 0 0
1734 16 78.52645386517813 16.48627973729599 0.07729779085859918 -1 0 0
1732 2 80.31114599847753 15.455887253715037 1.601274815005944 -1 0 0
1740 20 82.09583813177713 16.486279737295988 0.07729779085859947 -1 0 0
1741 1 85.66522239837569 12.364709802972035 1.6012748150059442 -1 0 0
1737 18 83.88053026507625 13.395102286552987 0.07729779085859759 -1 0 0
1743 14 87.44991453167525 13.395102286552987 0.07729779085859853 -1 0 0
1738 4 83.88053026507653 15.455887253715035 1.601274815005944 -1 0 0
1746 16 85.66522239837613 16.48627973729599 0.07729779085859868 -1 0 0
1744 2 87.44991453167552 15.455887253715037 1.601274815005944 -1 0 0
1747 3 89.23460666497469 12.364709802972035 1.601274815005944 -1 0 0
1753 1 92.8039909315737 12.364709802972031 1.601274815005944 -1 0 0
1749 18 91.01929879827425 13.395102286552987 0.0772977908585989 -1 0 0
1752 20 89.23460666497513 16.48627973729599 0.07729779085859916 -1 0 0
1750 4 91.01929879827452 15.455887253715037 1.6012748150059442 -1 0 0
1758 16 92.80399093157413 16.486279737295988 0.0772977908585992 -1 0 0
1765 1 99.9427594647717 12.364709802972035 1.6012748150059444 -1 0 0
1759 3 96.37337519817268 12.364709802972035 1.6012748150059442 -1 0 0
1755 14 94.58868306487324 13.395102286552987 0.07729779085859816 -1 0 0
1761 18 98.15806733147224 13.395102286552987 0.07729779085859854 -1 0 0
1756 2 94.58868306487352 15.455887253715037 1.601274815005944 -1 0 0
1764 20 96.37337519817314 16.48627973729599 0.07729779085859921 -1 0 0
1762 4 98.15806733147252 15.455887253715037 1.6012748150059437 -1 0 0
1939 3 3.5693842665987 18.547064704458034 1.601274815005944 0 0 0
1935 14 1.7846921332992518 19.577457188038984 0.07729779085859895 0 0 0
1941 18 5.354076399898253 19.577457188038984 0.07729779085859893 0 0 0
1936 2 1.7846921332995287 21.63824215520103 1.601274815005944 0 0 0
1942 4 5.3540763998985295 21.63824215520103 1.601274815005944 0 0 0
1938 16 1.4199488491919372e-13 22.668634638781985 0.07729779085859823 0 0 0
1944 20 3.569384266599142 22.668634638781985 0.07729779085859767 0 0 0
1945 1 7.1387685331977 18.547064704458034 1.601274815005944 0 0 0
1951 3 10.7081527997967 18.547064704458037 1.601274815005944 0 0 0
1947 14 8.923460666497252 19.577457188038984 0.07729779085859874 0 0 0
1948 2 8.92346066649753 21.638242155201034 1.6012748150059442 0 0 0
1950 16 7.138768533198143 22.668634638781985 0.07729779085859807 0 0 0
1956 20 10.708152799797144 22.668634638781985 0.07729779085859825 0 0 0
1957 1 14.277537066395698 18.547064704458034 1.6012748150059442 0 0 0
1953 18 12.492844933096254 19.577457188038984 0.07729779085859868 0 0 0
1959 14 16.06222919969525 19.577457188038984 0.07729779085859767 0 0 0
1954 4 12.492844933096531 21.638242155201034 1.601274815005944 0 0 0
1960 2 16.062229199695526 21.63824215520103 1.6012748150059442 0 0 0
1962 16 14.277537066396144 22.668634638781985 0.07729779085859811 0 0 0
1963 3 17.846921332994697 18.547064704458037 1.6012748150059437 0 0 0
1969 1 21.416305599593695 18.547064704458034 1.601274815005944 0 0 0
1965 18 19.631613466294247 19.577457188038984 0.07729779085859868 0 0 0
1971 14 23.200997732893246 19.577457188038984 0.0772977908585989 0 0 0
1966 4 19.631613466294525 21.63824215520103 1.601274815005944 0 0 0
1972 2 23.200997732893523 21.63824215520103 1.6012748150059442 0 0 0
1968 20 17.84692133299514 22.668634638781985 0.07729779085859827 0 0 0
1974 16 21.41630559959414 22.668634638781985 0.07729779085859712 0 0 0
1975 3 24.985689866192697 18.547064704458037 1.601274815005944 0 0 0
1981 1 28.5550741327917 18.547064704458037 1.601274815005944 0 0 0
1977 18 26.770381999492248 19.577457188038984 0.07729779085859874 0 0 0
1978 4 26.770381999492525 21.638242155201034 1.601274815005944 0 0 0
1980 20 24.985689866193137 22.668634638781985 0.0772977908585983 0 0 0
1986 16 28.55507413279214 22.668634638781985 0.07729779085859824 0 0 0
1987 3 32.124458399390704 18.547064704458037 1.601274815005944 0 0 0
1983 14 30.339766266091253 19.577457188038984 0.07729779085859885 0 0 0
1989 18 33.909150532690255 19.577457188038984 0.07729779085859871 0 0 0
1984 2 30.339766266091527 21.638242155201034 1.601274815005944 0 0 0
1990 4 33.90915053269053 21.638242155201034 1.601274815005944 0 0 0
1992 20 32.124458399391145 22.668634638781985 0.07729779085859842 0 0 0
1993 1 35.693842665989706 18.547064704458037 1.601274815005944 0 0 0
1999 3 39.2632269325887 18.547064704458034 1.601274815005944 0 0 0
1995 14 37.47853479928926 19.577457188038984 0.0772977908585987 0 0 0
2001 18 41.04791906588825 19.577457188038984 0.07729779085859877 0 0 0
1996 2 37.478534799289534 21.63824215520103 1.601274815005944 0 0 0
2002 4 41.04791906588853 21.63824215520103 1.6012748150059442 0 0 0
1998 16 35.69384266599015 22.668634638781985 0.07729779085859827 0 0 0
2004 20 39.26322693258915 22.668634638781985 0.07729779085859788 0 0 0
2005 1 42.832611199187696 18.547064704458037 1.601274815005944 0 0 0
2011 3 46.4019954657867 18.547064704458037 1.6012748150059442 0 0 0
2007 14 44.617303332487246 19.577457188038984 0.07729779085859778 0 0 0
2008 2 44.61730333248753 21.63824215520103 1.6012748150059437 0 0 0
2010 16 42.83261119918815 22.668634638781985 0.07729779085859868 0 0 0
2016 20 46.401995465787145 22.668634638781985 0.0772977908585983 0 0 0
1849 1 49.9713797323857 18.547064704458034 1.601274815005944 -1 0 0
2013 18 48.18668759908625 19.577457188038984 0.07729779085859885 0 0 0
1851 14 51.75607186568525 19.577457188038984 0.07729779085859873 -1 0 0
2014 4 48.186687599086525 21.63824215520103 1.6012748150059444 0 0 0
1852 2 51.75607186568553 21.638242155201034 1.6012748150059442 -1 0 0
1854 16 49.97137973238614 22.668634638781985 0.07729779085859712 -1 0 0
1855 3 53.540763998984694 18.547064704458034 1.601274815005944 -1 0 0
1861 1 57.110148265583696 18.547064704458037 1.601274815005944 -1 0 0
1857 18 55.325456132284245 19.577457188038984 0.0772977908585989 -1 0 0
1858 4 55.32545613228453 21.638242155201034 1.6012748150059442 -1 0 0
1860 20 53.54076399898514 22.668634638781985 0.07729779085859817 -1 0 0
1866 16 57.110148265584144 22.668634638781988 0.07729779085859803 -1 0 0
1867 3 60.6795325321827 18.547064704458037 1.601274815005944 -1 0 0
1873 1 64.24891679878169 18.547064704458034 1.601274815005944 -1 0 0
1863 14 58.89484039888325 19.577457188038988 0.07729779085859831 -1 0 0
1869 18 62.46422466548225 19.577457188038988 0.07729779085859965 -1 0 0
1864 2 58.894840398883524 21.63824215520103 1.601274815005944 -1 0 0
1870 4 62.464224665482526 21.638242155201034 1.6012748150059442 -1 0 0
1872 20 60.67953253218314 22.668634638781988 0.07729779085859821 -1 0 0
1878 16 64.24891679878213 22.668634638781985 0.07729779085859727 -1 0 0
1879 3 67.8183010653807 18.547064704458034 1.601274815005944 -1 0 0
1875 14 66.03360893208125 19.577457188038988 0.07729779085859739 -1 0 0
1881 18 69.60299319868024 19.577457188038984 0.07729779085859884 -1 0 0
1876 2 66.03360893208152 21.63824215520103 1.601274815005944 -1 0 0
1882 4 69.60299319868052 21.638242155201034 1.6012748150059442 -1 0 0
1884 20 67.81830106538114 22.668634638781988 0.07729779085859789 -1 0 0
1885 1 71.38768533197968 18.547064704458037 1.601274815005944 -1 0 0
1891 3 74.95706959857868 18.547064704458037 1.601274815005944 -1 0 0
1887 14 73.17237746527924 19.577457188038984 0.07729779085859874 -1 0 0
1888 2 73.17237746527952 21.638242155201034 1.601274815005944 -1 0 0