LAMMPS data file via write_data, version 29 Aug 2024, timestep = 0, units = metal

1560 atoms
2 atom types

0 101.57704776778 xlo xhi
0 101.5018890096 ylo yhi
0 16.555030524987 zlo zhi

Masses

1 118.71
2 78.971

Atoms # atomic

784 1 0 0 1.5586206887270002 0 0 0
782 2 1.953404764764997 1.1277987667739993 0 0 0 0
788 1 3.906809529530001 0 1.5586206887270002 0 0 0
786 2 5.860214294294998 1.1277987667739993 0 0 0 0
792 1 7.813619059060002 0 1.5586206887270002 0 0 0
790 2 9.767023823825 1.1277987667739993 0 0 0 0
796 1 11.720428588589996 0 1.5586206887270002 0 0 0
794 2 13.673833353355 1.1277987667739993 0 0 0 0
800 1 15.627238118119998 0 1.5586206887270002 0 0 0
798 2 17.580642882884995 1.1277987667739993 0 0 0 0
804 1 19.534047647650006 0 1.5586206887270002 0 0 0
802 2 21.487452412415003 1.1277987667739993 0 0 0 0
808 1 23.44085717718 0 1.5586206887270002 0 0 0
806 2 25.394261941944997 1.1277987667739993 0 0 0 0
812 1 27.347666706709994 0 1.5586206887270002 0 0 0
810 2 29.301071471475005 1.1277987667739993 0 0 0 0
816 1 31.254476236240002 0 1.5586206887270002 0 0 0
814 2 33.207881001005 1.1277987667739993 0 0 0 0
820 1 35.161285765769996 0 1.5586206887270002 0 0 0
818 2 37.11469053053499 1.1277987667739993 0 0 0 0
824 1 39.068095295300004 0 1.5586206887270002 0 0 0
822 2 41.021500060065 1.1277987667739993 0 0 0 0
828 1 42.97490482483 0 1.5586206887270002 0 0 0
826 2 44.928309589594996 1.1277987667739993 0 0 0 0
832 1 46.88171435435999 0 1.5586206887270002 0 0 0
830 2 48.835119119125004 1.1277987667739993 0 0 0 0
732 1 50.78852388389 0 1.5586206887270002 -1 0 0
730 2 52.741928648655 1.1277987667739993 0 -1 0 0
736 1 54.69533341342 0 1.5586206887270002 -1 0 0
734 2 56.648738178185 1.1277987667739993 0 -1 0 0
740 1 58.60214294295 0 1.5586206887270002 -1 0 0
738 2 60.555547707715 1.1277987667739993 0 -1 0 0
744 1 62.508952472480004 0 1.5586206887270002 -1 0 0
742 2 64.462357237245 1.1277987667739993 0 -1 0 0
748 1 66.41576200201 0 1.5586206887270002 -1 0 0
746 2 68.36916676677501 1.1277987667739993 0 -1 0 0
752 1 70.32257153154 0 1.5586206887270002 -1 0 0
750 2 72.275976296305 1.1277987667739993 0 -1 0 0
756 1 74.22938106107 0 1.5586206887270002 -1 0 0
754 2 76.182785825835 1.1277987667739993 0 -1 0 0
760 1 78.1361905906 0 1.5586206887270002 -1 0 0
758 2 80.089595355365 1.1277987667739993 0 -1 0 0
764 1 82.04300012013 0 1.5586206887270002 -1 0 0
762 2 83.996404884895 1.1277987667739993 0 -1 0 0
768 1 85.94980964966001 0 1.5586206887270002 -1 0 0
766 2 87.90321441442501 1.1277987667739993 0 -1 0 0
772 1 89.85661917919 0 1.5586206887270002 -1 0 0
770 2 91.810023943955 1.1277987667739993 0 -1 0 0
776 1 93.76342870872 0 1.5586206887270002 -1 0 0
774 2 95.716833473485 1.1277987667739993 0 -1 0 0
780 1 97.67023823825 0 1.5586206887270002 -1 0 0
778 2 99.62364300301499 1.1277987667739993 0 -1 0 0
887 1 1.953404764764997 3.383396300320001 1.5586206887270002 0 0 0
891 1 5.860214294294998 3.383396300320001 1.5586206887270002 0 0 0
895 1 9.767023823825 3.383396300320001 1.5586206887270002 0 0 0
899 1 13.673833353355 3.383396300320001 1.5586206887270002 0 0 0
903 1 17.580642882884995 3.383396300320001 1.5586206887270002 0 0 0
907 1 21.487452412415003 3.383396300320001 1.5586206887270002 0 0 0
911 1 25.394261941944997 3.383396300320001 1.5586206887270002 0 0 0
915 1 29.301071471475005 3.383396300320001 1.5586206887270002 0 0 0
919 1 33.207881001005 3.383396300320001 1.5586206887270002 0 0 0
923 1 37.11469053053499 3.383396300320001 1.5586206887270002 0 0 0
927 1 41.021500060065 3.383396300320001 1.5586206887270002 0 0 0
931 1 44.928309589594996 3.383396300320001 1.5586206887270002 0 0 0
935 1 48.835119119125004 3.383396300320001 1.5586206887270002 0 0 0
835 1 52.741928648655 3.383396300320001 1.5586206887270002 -1 0 0
839 1 56.648738178185 3.383396300320001 1.5586206887270002 -1 0 0
843 1 60.555547707715 3.383396300320001 1.5586206887270002 -1 0 0
847 1 64.462357237245 3.383396300320001 1.5586206887270002 -1 0 0
851 1 68.36916676677501 3.383396300320001 1.5586206887270002 -1 0 0
855 1 72.275976296305 3.383396300320001 1.5586206887270002 -1 0 0
859 1 76.182785825835 3.383396300320001 1.5586206887270002 -1 0 0
863 1 80.089595355365 3.383396300320001 1.5586206887270002 -1 0 0
867 1 83.996404884895 3.383396300320001 1.5586206887270002 -1 0 0
871 1 87.90321441442501 3.383396300320001 1.5586206887270002 -1 0 0
875 1 91.810023943955 3.383396300320001 1.5586206887270002 -1 0 0
879 1 95.716833473485 3.383396300320001 1.5586206887270002 -1 0 0
883 1 99.62364300301499 3.383396300320001 1.5586206887270002 -1 0 0
885 2 0 4.511195067094 0 0 0 0
889 2 3.906809529530001 4.511195067094 0 0 0 0
893 2 7.813619059060002 4.511195067094 0 0 0 0
897 2 11.720428588589996 4.511195067094 0 0 0 0
901 2 15.627238118119998 4.511195067094 0 0 0 0
905 2 19.534047647650006 4.511195067094 0 0 0 0
909 2 23.44085717718 4.511195067094 0 0 0 0
913 2 27.347666706709994 4.511195067094 0 0 0 0
917 2 31.254476236240002 4.511195067094 0 0 0 0
921 2 35.161285765769996 4.511195067094 0 0 0 0
925 2 39.068095295300004 4.511195067094 0 0 0 0
929 2 42.97490482483 4.511195067094 0 0 0 0
933 2 46.88171435435999 4.511195067094 0 0 0 0
833 2 50.78852388389 4.511195067094 0 -1 0 0
837 2 54.69533341342 4.511195067094 0 -1 0 0
841 2 58.60214294295 4.511195067094 0 -1 0 0
845 2 62.508952472480004 4.511195067094 0 -1 0 0
849 2 66.41576200201 4.511195067094 0 -1 0 0
853 2 70.32257153154 4.511195067094 0 -1 0 0
857 2 74.22938106107 4.511195067094 0 -1 0 0
861 2 78.1361905906 4.511195067094 0 -1 0 0
865 2 82.04300012013 4.511195067094 0 -1 0 0
869 2 85.94980964966001 4.511195067094 0 -1 0 0
873 2 89.85661917919 4.511195067094 0 -1 0 0
877 2 93.76342870872 4.511195067094 0 -1 0 0
881 2 97.67023823825 4.511195067094 0 -1 0 0
888 1 0 6.766792600640002 1.5586206887270002 0 0 0
886 2 1.953404764764997 7.894591367414002 0 0 0 0
892 1 3.906809529530001 6.766792600640002 1.5586206887270002 0 0 0
890 2 5.860214294294998 7.894591367414002 0 0 0 0
896 1 7.813619059060002 6.766792600640002 1.5586206887270002 0 0 0
894 2 9.767023823825 7.894591367414002 0 0 0 0
900 1 11.720428588589996 6.766792600640002 1.5586206887270002 0 0 0
898 2 13.673833353355 7.894591367414002 0 0 0 0
904 1 15.627238118119998 6.766792600640002 1.5586206887270002 0 0 0
902 2 17.580642882884995 7.894591367414002 0 0 0 0
908 1 19.534047647650006 6.766792600640002 1.5586206887270002 0 0 0
906 2 21.487452412415003 7.894591367414002 0 0 0 0
912 1 23.44085717718 6.766792600640002 1.5586206887270002 0 0 0
910 2 25.394261941944997 7.894591367414002 0 0 0 0
916 1 27.347666706709994 6.766792600640002 1.5586206887270002 0 0 0
914 2 29.301071471475005 7.894591367414002 0 0 0 0
920 1 31.254476236240002 6.766792600640002 1.5586206887270002 0 0 0
918 2 33.207881001005 7.894591367414002 0 0 0 0
924 1 35.161285765769996 6.766792600640002 1.5586206887270002 0 0 0
922 2 37.11469053053499 7.894591367414002 0 0 0 0
928 1 39.068095295300004 6.766792600640002 1.5586206887270002 0 0 0
926 2 41.021500060065 7.894591367414002 0 0 0 0
932 1 42.97490482483 6.766792600640002 1.5586206887270002 0 0 0
930 2 44.928309589594996 7.894591367414002 0 0 0 0
936 1 46.88171435435999 6.766792600640002 1.5586206887270002 0 0 0
934 2 48.835119119125004 7.894591367414002 0 0 0 0
836 1 50.78852388389 6.766792600640002 1.5586206887270002 -1 0 0
834 2 52.741928648655 7.894591367414002 0 -1 0 0
840 1 54.69533341342 6.766792600640002 1.5586206887270002 -1 0 0
838 2 56.648738178185 7.894591367414002 0 -1 0 0
844 1 58.60214294295 6.766792600640002 1.5586206887270002 -1 0 0
842 2 60.555547707715 7.894591367414002 0 -1 0 0
848 1 62.508952472480004 6.766792600640002 1.5586206887270002 -1 0 0
846 2 64.462357237245 7.894591367414002 0 -1 0 0
852 1 66.41576200201 6.766792600640002 1.5586206887270002 -1 0 0
850 2 68.36916676677501 7.894591367414002 0 -1 0 0
856 1 70.32257153154 6.766792600640002 1.5586206887270002 -1 0 0
854 2 72.275976296305 7.894591367414002 0 -1 0 0
860 1 74.22938106107 6.766792600640002 1.5586206887270002 -1 0 0
858 2 76.182785825835 7.894591367414002 0 -1 0 0
864 1 78.1361905906 6.766792600640002 1.5586206887270002 -1 0 0
862 2 80.089595355365 7.894591367414002 0 -1 0 0
868 1 82.04300012013 6.766792600640002 1.5586206887270002 -1 0 0
866 2 83.996404884895 7.894591367414002 0 -1 0 0
872 1 85.94980964966001 6.766792600640002 1.5586206887270002 -1 0 0
870 2 87.90321441442501 7.894591367414002 0 -1 0 0
876 1 89.85661917919 6.766792600640002 1.5586206887270002 -1 0 0
874 2 91.810023943955 7.894591367414002 0 -1 0 0
880 1 93.76342870872 6.766792600640002 1.5586206887270002 -1 0 0
878 2 95.716833473485 7.894591367414002 0 -1 0 0
884 1 97.67023823825 6.766792600640002 1.5586206887270002 -1 0 0
882 2 99.62364300301499 7.894591367414002 0 -1 0 0
991 1 1.953404764764997 10.150188900959996 1.5586206887270002 0 0 0
995 1 5.860214294294998 10.150188900959996 1.5586206887270002 0 0 0
999 1 9.767023823825 10.150188900959996 1.5586206887270002 0 0 0
1003 1 13.673833353355 10.150188900959996 1.5586206887270002 0 0 0
1007 1 17.580642882884995 10.150188900959996 1.5586206887270002 0 0 0
1011 1 21.487452412415003 10.150188900959996 1.5586206887270002 0 0 0
1015 1 25.394261941944997 10.150188900959996 1.5586206887270002 0 0 0
1019 1 29.301071471475005 10.150188900959996 1.5586206887270002 0 0 0
1023 1 33.207881001005 10.150188900959996 1.5586206887270002 0 0 0
1027 1 37.11469053053499 10.150188900959996 1.5586206887270002 0 0 0
1031 1 41.021500060065 10.150188900959996 1.5586206887270002 0 0 0
1035 1 44.928309589594996 10.150188900959996 1.5586206887270002 0 0 0
1039 1 48.835119119125004 10.150188900959996 1.5586206887270002 0 0 0
939 1 52.741928648655 10.150188900959996 1.5586206887270002 -1 0 0
943 1 56.648738178185 10.150188900959996 1.5586206887270002 -1 0 0
947 1 60.555547707715 10.150188900959996 1.5586206887270002 -1 0 0
951 1 64.462357237245 10.150188900959996 1.5586206887270002 -1 0 0
955 1 68.36916676677501 10.150188900959996 1.5586206887270002 -1 0 0
959 1 72.275976296305 10.150188900959996 1.5586206887270002 -1 0 0
963 1 76.182785825835 10.150188900959996 1.5586206887270002 -1 0 0
967 1 80.089595355365 10.150188900959996 1.5586206887270002 -1 0 0
971 1 83.996404884895 10.150188900959996 1.5586206887270002 -1 0 0
975 1 87.90321441442501 10.150188900959996 1.5586206887270002 -1 0 0
979 1 91.810023943955 10.150188900959996 1.5586206887270002 -1 0 0
983 1 95.716833473485 10.150188900959996 1.5586206887270002 -1 0 0
987 1 99.62364300301499 10.150188900959996 1.5586206887270002 -1 0 0
989 2 0 11.277987667734003 0 0 0 0
993 2 3.906809529530001 11.277987667734003 0 0 0 0
997 2 7.813619059060002 11.277987667734003 0 0 0 0
1001 2 11.720428588589996 11.277987667734003 0 0 0 0
1005 2 15.627238118119998 11.277987667734003 0 0 0 0
1009 2 19.534047647650006 11.277987667734003 0 0 0 0
1013 2 23.44085717718 11.277987667734003 0 0 0 0
1017 2 27.347666706709994 11.277987667734003 0 0 0 0
1021 2 31.254476236240002 11.277987667734003 0 0 0 0
1025 2 35.161285765769996 11.277987667734003 0 0 0 0
1029 2 39.068095295300004 11.277987667734003 0 0 0 0
1033 2 42.97490482483 11.277987667734003 0 0 0 0
1037 2 46.88171435435999 11.277987667734003 0 0 0 0
937 2 50.78852388389 11.277987667734003 0 -1 0 0
941 2 54.69533341342 11.277987667734003 0 -1 0 0
945 2 58.60214294295 11.277987667734003 0 -1 0 0
949 2 62.508952472480004 11.277987667734003 0 -1 0 0
953 2 66.41576200201 11.277987667734003 0 -1 0 0
957 2 70.32257153154 11.277987667734003 0 -1 0 0
961 2 74.22938106107 11.277987667734003 0 -1 0 0
965 2 78.1361905906 11.277987667734003 0 -1 0 0
969 2 82.04300012013 11.277987667734003 0 -1 0 0
973 2 85.94980964966001 11.277987667734003 0 -1 0 0
977 2 89.85661917919 11.277987667734003 0 -1 0 0
981 2 93.76342870872 11.277987667734003 0 -1 0 0
985 2 97.67023823825 11.277987667734003 0 -1 0 0
992 1 0 13.533585201280005 1.5586206887270002 0 0 0
996 1 3.906809529530001 13.533585201280005 1.5586206887270002 0 0 0
1000 1 7.813619059060002 13.533585201280005 1.5586206887270002 0 0 0
1004 1 11.720428588589996 13.533585201280005 1.5586206887270002 0 0 0
1008 1 15.627238118119998 13.533585201280005 1.5586206887270002 0 0 0
1012 1 19.534047647650006 13.533585201280005 1.5586206887270002 0 0 0
1016 1 23.44085717718 13.533585201280005 1.5586206887270002 0 0 0
1020 1 27.347666706709994 13.533585201280005 1.5586206887270002 0 0 0
1024 1 31.254476236240002 13.533585201280005 1.5586206887270002 0 0 0
1028 1 35.161285765769996 13.533585201280005 1.5586206887270002 0 0 0
1032 1 39.068095295300004 13.533585201280005 1.5586206887270002 0 0 0
1036 1 42.97490482483 13.533585201280005 1.5586206887270002 0 0 0
1040 1 46.88171435435999 13.533585201280005 1.5586206887270002 0 0 0
940 1 50.78852388389 13.533585201280005 1.5586206887270002 -1 0 0
944 1 54.69533341342 13.533585201280005 1.5586206887270002 -1 0 0
948 1 58.60214294295 13.533585201280005 1.5586206887270002 -1 0 0
952 1 62.508952472480004 13.533585201280005 1.5586206887270002 -1 0 0
956 1 66.41576200201 13.533585201280005 1.5586206887270002 -1 0 0
960 1 70.32257153154 13.533585201280005 1.5586206887270002 -1 0 0
964 1 74.22938106107 13.533585201280005 1.5586206887270002 -1 0 0
968 1 78.1361905906 13.533585201280005 1.5586206887270002 -1 0 0
972 1 82.04300012013 13.533585201280005 1.5586206887270002 -1 0 0
976 1 85.94980964966001 13.533585201280005 1.5586206887270002 -1 0 0
980 1 89.85661917919 13.533585201280005 1.5586206887270002 -1 0 0
984 1 93.76342870872 13.533585201280005 1.5586206887270002 -1 0 0
988 1 97.67023823825 13.533585201280005 1.5586206887270002 -1 0 0
990 2 1.953404764764997 14.661383968053997 0 0 0 0
994 2 5.860214294294998 14.661383968053997 0 0 0 0
998 2 9.767023823825 14.661383968053997 0 0 0 0
1002 2 13.673833353355 14.661383968053997 0 0 0 0
1006 2 17.580642882884995 14.661383968053997 0 0 0 0
1010 2 21.487452412415003 14.661383968053997 0 0 0 0
1014 2 25.394261941944997 14.661383968053997 0 0 0 0
1018 2 29.301071471475005 14.661383968053997 0 0 0 0
1022 2 33.207881001005 14.661383968053997 0 0 0 0
1026 2 37.11469053053499 14.661383968053997 0 0 0 0
1030 2 41.021500060065 14.661383968053997 0 0 0 0
1034 2 44.928309589594996 14.661383968053997 0 0 0 0
1038 2 48.835119119125004 14.661383968053997 0 0 0 0
938 2 52.741928648655 14.661383968053997 0 -1 0 0
942 2 56.648738178185 14.661383968053997 0 -1 0 0
946 2 60.555547707715 14.661383968053997 0 -1 0 0
950 2 64.462357237245 14.661383968053997 0 -1 0 0
954 2 68.36916676677501 14.661383968053997 0 -1 0 0
958 2 72.275976296305 14.661383968053997 0 -1 0 0
962 2 76.182785825835 14.661383968053997 0 -1 0 0
966 2 80.089595355365 14.661383968053997 0 -1 0 0
970 2 83.996404884895 14.661383968053997 0 -1 0 0
974 2 87.90321441442501 14.661383968053997 0 -1 0 0
978 2 91.810023943955 14.661383968053997 0 -1 0 0
982 2 95.716833473485 14.661383968053997 0 -1 0 0
986 2 99.62364300301499 14.661383968053997 0 -1 0 0
1093 2 0 18.044780268373998 0 0 0 0
1095 1 1.953404764764997 16.916981501600006 1.5586206887270002 0 0 0
1097 2 3.906809529530001 18.044780268373998 0 0 0 0
1099 1 5.860214294294998 16.916981501600006 1.5586206887270002 0 0 0
1101 2 7.813619059060002 18.044780268373998 0 0 0 0
1103 1 9.767023823825 16.916981501600006 1.5586206887270002 0 0 0
1105 2 11.720428588589996 18.044780268373998 0 0 0 0
1107 1 13.673833353355 16.916981501600006 1.5586206887270002 0 0 0
1109 2 15.627238118119998 18.044780268373998 0 0 0 0
1111 1 17.580642882884995 16.916981501600006 1.5586206887270002 0 0 0
1113 2 19.534047647650006 18.044780268373998 0 0 0 0
1115 1 21.487452412415003 16.916981501600006 1.5586206887270002 0 0 0
1117 2 23.44085717718 18.044780268373998 0 0 0 0
1119 1 25.394261941944997 16.916981501600006 1.5586206887270002 0 0 0
1121 2 27.347666706709994 18.044780268373998 0 0 0 0
1123 1 29.301071471475005 16.916981501600006 1.5586206887270002 0 0 0
1125 2 31.254476236240002 18.044780268373998 0 0 0 0
1127 1 33.207881001005 16.916981501600006 1.5586206887270002 0 0 0
1129 2 35.161285765769996 18.044780268373998 0 0 0 0
1131 1 37.11469053053499 16.916981501600006 1.5586206887270002 0 0 0
1133 2 39.068095295300004 18.044780268373998 0 0 0 0
1135 1 41.021500060065 16.916981501600006 1.5586206887270002 0 0 0
1137 2 42.97490482483 18.044780268373998 0 0 0 0
1139 1 44.928309589594996 16.916981501600006 1.5586206887270002 0 0 0
1141 2 46.88171435435999 18.044780268373998 0 0 0 0
1143 1 48.835119119125004 16.916981501600006 1.5586206887270002 0 0 0
1041 2 50.78852388389 18.044780268373998 0 -1 0 0
1043 1 52.741928648655 16.916981501600006 1.5586206887270002 -1 0 0
1045 2 54.69533341342 18.044780268373998 0 -1 0 0
1047 1 56.648738178185 16.916981501600006 1.5586206887270002 -1 0 0
1049 2 58.60214294295 18.044780268373998 0 -1 0 0
1051 1 60.555547707715 16.916981501600006 1.5586206887270002 -1 0 0
1053 2 62.508952472480004 18.044780268373998 0 -1 0 0
1055 1 64.462357237245 16.916981501600006 1.5586206887270002 -1 0 0
1057 2 66.41576200201 18.044780268373998 0 -1 0 0
1059 1 68.36916676677501 16.916981501600006 1.5586206887270002 -1 0 0
1061 2 70.32257153154 18.044780268373998 0 -1 0 0
1063 1 72.275976296305 16.916981501600006 1.5586206887270002 -1 0 0
1065 2 74.22938106107 18.044780268373998 0 -1 0 0
1067 1 76.182785825835 16.916981501600006 1.5586206887270002 -1 0 0
1069 2 78.1361905906 18.044780268373998 0 -1 0 0
1071 1 80.089595355365 16.916981501600006 1.5586206887270002 -1 0 0
1073 2 82.04300012013 18.044780268373998 0 -1 0 0
1075 1 83.996404884895 16.916981501600006 1.5586206887270002 -1 0 0
1077 2 85.94980964966001 18.044780268373998 0 -1 0 0
1079 1 87.90321441442501 16.916981501600006 1.5586206887270002 -1 0 0
1081 2 89.85661917919 18.044780268373998 0 -1 0 0
1083 1 91.810023943955 16.916981501600006 1.5586206887270002 -1 0 0
1085 2 93.76342870872 18.044780268373998 0 -1 0 0
1087 1 95.716833473485 16.916981501600006 1.5586206887270002 -1 0 0
1089 2 97.67023823825 18.044780268373998 0 -1 0 0
1091 1 99.62364300301499 16.916981501600006 1.5586206887270002 -1 0 0
1096 1 0 20.300377801919993 1.5586206887270002 0 0 0
1100 1 3.906809529530001 20.300377801919993 1.5586206887270002 0 0 0
1104 1 7.813619059060002 20.300377801919993 1.5586206887270002 0 0 0
1108 1 11.720428588589996 20.300377801919993 1.5586206887270002 0 0 0
1112 1 15.627238118119998 20.300377801919993 1.5586206887270002 0 0 0
1116 1 19.534047647650006 20.300377801919993 1.5586206887270002 0 0 0
1120 1 23.44085717718 20.300377801919993 1.5586206887270002 0 0 0
1124 1 27.347666706709994 20.300377801919993 1.5586206887270002 0 0 0
1128 1 31.254476236240002 20.300377801919993 1.5586206887270002 0 0 0
1132 1 35.161285765769996 20.300377801919993 1.5586206887270002 0 0 0
1136 1 39.068095295300004 20.300377801919993 1.5586206887270002 0 0 0
1140 1 42.97490482483 20.300377801919993 1.5586206887270002 0 0 0
1144 1 46.88171435435999 20.300377801919993 1.5586206887270002 0 0 0
1044 1 50.78852388389 20.300377801919993 1.5586206887270002 -1 0 0
1048 1 54.69533341342 20.300377801919993 1.5586206887270002 -1 0 0
1052 1 58.60214294295 20.300377801919993 1.5586206887270002 -1 0 0
1056 1 62.508952472480004 20.300377801919993 1.5586206887270002 -1 0 0
1060 1 66.41576200201 20.300377801919993 1.5586206887270002 -1 0 0
1064 1 70.32257153154 20.300377801919993 1.5586206887270002 -1 0 0
1068 1 74.22938106107 20.300377801919993 1.5586206887270002 -1 0 0
1072 1 78.1361905906 20.300377801919993 1.5586206887270002 -1 0 0
1076 1 82.04300012013 20.300377801919993 1.5586206887270002 -1 0 0
1080 1 85.94980964966001 20.300377801919993 1.5586206887270002 -1 0 0
1084 1 89.85661917919 20.300377801919993 1.5586206887270002 -1 0 0
1088 1 93.76342870872 20.300377801919993 1.5586206887270002 -1 0 0
1092 1 97.67023823825 20.300377801919993 1.5586206887270002 -1 0 0
1094 2 1.953404764764997 21.428176568694 0 0 0 0
1098 2 5.860214294294998 21.428176568694 0 0 0 0
1102 2 9.767023823825 21.428176568694 0 0 0 0
1106 2 13.673833353355 21.428176568694 0 0 0 0
1110 2 17.580642882884995 21.428176568694 0 0 0 0
1114 2 21.487452412415003 21.428176568694 0 0 0 0
1118 2 25.394261941944997 21.428176568694 0 0 0 0
1122 2 29.301071471475005 21.428176568694 0 0 0 0
1126 2 33.207881001005 21.428176568694 0 0 0 0
1130 2 37.11469053053499 21.428176568694 0 0 0 0
1134 2 41.021500060065 21.428176568694 0 0 0 0
1138 2 44.928309589594996 21.428176568694 0 0 0 0
1142 2 48.835119119125004 21.428176568694 0 0 0 0
1042 2 52.741928648655 21.428176568694 0 -1 0 0
1046 2 56.648738178185 21.428176568694 0 -1 0 0
1050 2 60.555547707715 21.428176568694 0 -1 0 0
1054 2 64.462357237245 21.428176568694 0 -1 0 0
1058 2 68.36916676677501 21.428176568694 0 -1 0 0
1062 2 72.275976296305 21.428176568694 0 -1 0 0
1066 2 76.182785825835 21.428176568694 0 -1 0 0
1070 2 80.089595355365 21.428176568694 0 -1 0 0
1074 2 83.996404884895 21.428176568694 0 -1 0 0
1078 2 87.90321441442501 21.428176568694 0 -1 0 0
1082 2 91.810023943955 21.428176568694 0 -1 0 0
1086 2 95.716833473485 21.428176568694 0 -1 0 0
1090 2 99.62364300301499 21.428176568694 0 -1 0 0
1199 1 1.953404764764997 23.683774102239994 1.5586206887270002 0 0 0
1197 2 0 24.811572869014 0 0 0 0
1201 2 3.906809529530001 24.811572869014 0 0 0 0
1203 1 5.860214294294998 23.683774102239994 1.5586206887270002 0 0 0
1205 2 7.813619059060002 24.811572869014 0 0 0 0
1207 1 9.767023823825 23.683774102239994 1.5586206887270002 0 0 0
1209 2 11.720428588589996 24.811572869014 0 0 0 0
1211 1 13.673833353355 23.683774102239994 1.5586206887270002 0 0 0
1213 2 15.627238118119998 24.811572869014 0 0 0 0
1215 1 17.580642882884995 23.683774102239994 1.5586206887270002 0 0 0
1217 2 19.534047647650006 24.811572869014 0 0 0 0
1219 1 21.487452412415003 23.683774102239994 1.5586206887270002 0 0 0
1221 2 23.44085717718 24.811572869014 0 0 0 0
1223 1 25.394261941944997 23.683774102239994 1.5586206887270002 0 0 0
1225 2 27.347666706709994 24.811572869014 0 0 0 0
1227 1 29.301071471475005 23.683774102239994 1.5586206887270002 0 0 0
1229 2 31.254476236240002 24.811572869014 0 0 0 0
1231 1 33.207881001005 23.683774102239994 1.5586206887270002 0 0 0
1233 2 35.161285765769996 24.811572869014 0 0 0 0
1235 1 37.11469053053499 23.683774102239994 1.5586206887270002 0 0 0
1237 2 39.068095295300004 24.811572869014 0 0 0 0
1239 1 41.021500060065 23.683774102239994 1.5586206887270002 0 0 0
1241 2 42.97490482483 24.811572869014 0 0 0 0
1243 1 44.928309589594996 23.683774102239994 1.5586206887270002 0 0 0
1245 2 46.88171435435999 24.811572869014 0 0 0 0
1247 1 48.835119119125004 23.683774102239994 1.5586206887270002 0 0 0
1145 2 50.78852388389 24.811572869014 0 -1 0 0
1147 1 52.741928648655 23.683774102239994 1.5586206887270002 -1 0 0
1149 2 54.69533341342 24.811572869014 0 -1 0 0
1151 1 56.648738178185 23.683774102239994 1.5586206887270002 -1 0 0
1153 2 58.60214294295 24.811572869014 0 -1 0 0
1155 1 60.555547707715 23.683774102239994 1.5586206887270002 -1 0 0
1157 2 62.508952472480004 24.811572869014 0 -1 0 0
1159 1 64.462357237245 23.683774102239994 1.5586206887270002 -1 0 0
1163 1 68.36916676677501 23.683774102239994 1.5586206887270002 -1 0 0
1161 2 66.41576200201 24.811572869014 0 -1 0 0
1165 2 70.32257153154 24.811572869014 0 -1 0 0
1167 1 72.275976296305 23.683774102239994 1.5586206887270002 -1 0 0
1169 2 74.22938106107 24.811572869014 0 -1 0 0
1171 1 76.182785825835 23.683774102239994 1.5586206887270002 -1 0 0
1173 2 78.1361905906 24.811572869014 0 -1 0 0
1175 1 80.089595355365 23.683774102239994 1.5586206887270002 -1 0 0
1177 2 82.04300012013 24.811572869014 0 -1 0 0
1179 1 83.996404884895 23.683774102239994 1.5586206887270002 -1 0 0
1181 2 85.94980964966001 24.811572869014 0 -1 0 0
1183 1 87.90321441442501 23.683774102239994 1.5586206887270002 -1 0 0
1185 2 89.85661917919 24.811572869014 0 -1 0 0
1187 1 91.810023943955 23.683774102239994 1.5586206887270002 -1 0 0
1189 2 93.76342870872 24.811572869014 0 -1 0 0
1191 1 95.716833473485 23.683774102239994 1.5586206887270002 -1 0 0
1193 2 97.67023823825 24.811572869014 0 -1 0 0
1195 1 99.62364300301499 23.683774102239994 1.5586206887270002 -1 0 0
1200 1 0 27.067170402559995 1.5586206887270002 0 0 0
1198 2 1.953404764764997 28.194969169334 0 0 0 0
1204 1 3.906809529530001 27.067170402559995 1.5586206887270002 0 0 0
1202 2 5.860214294294998 28.194969169334 0 0 0 0
1208 1 7.813619059060002 27.067170402559995 1.5586206887270002 0 0 0
1206 2 9.767023823825 28.194969169334 0 0 0 0
1212 1 11.720428588589996 27.067170402559995 1.5586206887270002 0 0 0
1210 2 13.673833353355 28.194969169334 0 0 0 0
1216 1 15.627238118119998 27.067170402559995 1.5586206887270002 0 0 0
1214 2 17.580642882884995 28.194969169334 0 0 0 0
1220 1 19.534047647650006 27.067170402559995 1.5586206887270002 0 0 0
1218 2 21.487452412415003 28.194969169334 0 0 0 0
1224 1 23.44085717718 27.067170402559995 1.5586206887270002 0 0 0
1222 2 25.394261941944997 28.194969169334 0 0 0 0
1228 1 27.347666706709994 27.067170402559995 1.5586206887270002 0 0 0
1226 2 29.301071471475005 28.194969169334 0 0 0 0
1232 1 31.254476236240002 27.067170402559995 1.5586206887270002 0 0 0
1230 2 33.207881001005 28.194969169334 0 0 0 0
1236 1 35.161285765769996 27.067170402559995 1.5586206887270002 0 0 0
1234 2 37.11469053053499 28.194969169334 0 0 0 0
1240 1 39.068095295300004 27.067170402559995 1.5586206887270002 0 0 0
1238 2 41.021500060065 28.194969169334 0 0 0 0
1244 1 42.97490482483 27.067170402559995 1.5586206887270002 0 0 0
1242 2 44.928309589594996 28.194969169334 0 0 0 0
1248 1 46.88171435435999 27.067170402559995 1.5586206887270002 0 0 0
1246 2 48.835119119125004 28.194969169334 0 0 0 0
1148 1 50.78852388389 27.067170402559995 1.5586206887270002 -1 0 0
1146 2 52.741928648655 28.194969169334 0 -1 0 0
1152 1 54.69533341342 27.067170402559995 1.5586206887270002 -1 0 0
1150 2 56.648738178185 28.194969169334 0 -1 0 0
1156 1 58.60214294295 27.067170402559995 1.5586206887270002 -1 0 0
1154 2 60.555547707715 28.194969169334 0 -1 0 0
1160 1 62.508952472480004 27.067170402559995 1.5586206887270002 -1 0 0
1158 2 64.462357237245 28.194969169334 0 -1 0 0
1164 1 66.41576200201 27.067170402559995 1.5586206887270002 -1 0 0
1162 2 68.36916676677501 28.194969169334 0 -1 0 0
1168 1 70.32257153154 27.067170402559995 1.5586206887270002 -1 0 0
1166 2 72.275976296305 28.194969169334 0 -1 0 0
1172 1 74.22938106107 27.067170402559995 1.5586206887270002 -1 0 0
1170 2 76.182785825835 28.194969169334 0 -1 0 0
1176 1 78.1361905906 27.067170402559995 1.5586206887270002 -1 0 0
1174 2 80.089595355365 28.194969169334 0 -1 0 0
1180 1 82.04300012013 27.067170402559995 1.5586206887270002 -1 0 0
1178 2 83.996404884895 28.194969169334 0 -1 0 0
1184 1 85.94980964966001 27.067170402559995 1.5586206887270002 -1 0 0
1182 2 87.90321441442501 28.194969169334 0 -1 0 0
1188 1 89.85661917919 27.067170402559995 1.5586206887270002 -1 0 0
1186 2 91.810023943955 28.194969169334 0 -1 0 0
1192 1 93.76342870872 27.067170402559995 1.5586206887270002 -1 0 0
1190 2 95.716833473485 28.194969169334 0 -1 0 0
1196 1 97.67023823825 27.067170402559995 1.5586206887270002 -1 0 0
1194 2 99.62364300301499 28.194969169334 0 -1 0 0
1303 1 1.953404764764997 30.450566702879996 1.5586206887270002 0 0 0
1307 1 5.860214294294998 30.450566702879996 1.5586206887270002 0 0 0
1311 1 9.767023823825 30.450566702879996 1.5586206887270002 0 0 0
1315 1 13.673833353355 30.450566702879996 1.5586206887270002 0 0 0
1319 1 17.580642882884995 30.450566702879996 1.5586206887270002 0 0 0
1323 1 21.487452412415003 30.450566702879996 1.5586206887270002 0 0 0
1327 1 25.394261941944997 30.450566702879996 1.5586206887270002 0 0 0
1331 1 29.301071471475005 30.450566702879996 1.5586206887270002 0 0 0
1335 1 33.207881001005 30.450566702879996 1.5586206887270002 0 0 0
1339 1 37.11469053053499 30.450566702879996 1.5586206887270002 0 0 0
1343 1 41.021500060065 30.450566702879996 1.5586206887270002 0 0 0
1347 1 44.928309589594996 30.450566702879996 1.5586206887270002 0 0 0
1351 1 48.835119119125004 30.450566702879996 1.5586206887270002 0 0 0
1251 1 52.741928648655 30.450566702879996 1.5586206887270002 -1 0 0
1255 1 56.648738178185 30.450566702879996 1.5586206887270002 -1 0 0
1259 1 60.555547707715 30.450566702879996 1.5586206887270002 -1 0 0
1263 1 64.462357237245 30.450566702879996 1.5586206887270002 -1 0 0
1267 1 68.36916676677501 30.450566702879996 1.5586206887270002 -1 0 0
1271 1 72.275976296305 30.450566702879996 1.5586206887270002 -1 0 0
1275 1 76.182785825835 30.450566702879996 1.5586206887270002 -1 0 0
1279 1 80.089595355365 30.450566702879996 1.5586206887270002 -1 0 0
1283 1 83.996404884895 30.450566702879996 1.5586206887270002 -1 0 0
1287 1 87.90321441442501 30.450566702879996 1.5586206887270002 -1 0 0
1291 1 91.810023943955 30.450566702879996 1.5586206887270002 -1 0 0
1295 1 95.716833473485 30.450566702879996 1.5586206887270002 -1 0 0
1299 1 99.62364300301499 30.450566702879996 1.5586206887270002 -1 0 0
1301 2 0 31.578365469654003 0 0 0 0
1305 2 3.906809529530001 31.578365469654003 0 0 0 0
1309 2 7.813619059060002 31.578365469654003 0 0 0 0
1313 2 11.720428588589996 31.578365469654003 0 0 0 0
1317 2 15.627238118119998 31.578365469654003 0 0 0 0
1321 2 19.534047647650006 31.578365469654003 0 0 0 0
1325 2 23.44085717718 31.578365469654003 0 0 0 0
1329 2 27.347666706709994 31.578365469654003 0 0 0 0
1333 2 31.254476236240002 31.578365469654003 0 0 0 0
1337 2 35.161285765769996 31.578365469654003 0 0 0 0
1341 2 39.068095295300004 31.578365469654003 0 0 0 0
1345 2 42.97490482483 31.578365469654003 0 0 0 0
1349 2 46.88171435435999 31.578365469654003 0 0 0 0
1249 2 50.78852388389 31.578365469654003 0 -1 0 0
1253 2 54.69533341342 31.578365469654003 0 -1 0 0
1257 2 58.60214294295 31.578365469654003 0 -1 0 0
1261 2 62.508952472480004 31.578365469654003 0 -1 0 0
1265 2 66.41576200201 31.578365469654003 0 -1 0 0
1269 2 70.32257153154 31.578365469654003 0 -1 0 0
1273 2 74.22938106107 31.578365469654003 0 -1 0 0
1277 2 78.1361905906 31.578365469654003 0 -1 0 0
1281 2 82.04300012013 31.578365469654003 0 -1 0 0