LAMMPS data file via write_data, version 29 Aug 2024, timestep = 1, units = metal

3120 atoms
4 atom types

0 101.57704776778 xlo xhi
0 101.5018890096 ylo yhi
-50 50 zlo zhi

Masses

1 118.71
2 118.71
3 78.971
4 78.971

Atoms # atomic

782 3 1.9534047647649988 1.1277960107885892 -0.002671879404550631 0 0 0
786 3 5.860214294295 1.1277960107885892 -0.002671879404550556 0 0 0
887 1 1.9534047647649988 3.381088094356349 1.5611962063521576 0 0 0
891 1 5.860214294295 3.381088094356349 1.5611962063521574 0 0 0
885 3 0 4.511192311108589 -0.002671879404549321 0 0 0
889 3 3.9068095295299994 4.51119231110859 -0.0026718794045506463 0 0 0
790 3 9.767023823825 1.12779601078859 -0.002671879404551843 0 0 0
895 1 9.767023823825 3.381088094356348 1.5611962063521587 0 0 0
893 3 7.8136190590600005 4.51119231110859 -0.002671879404550567 0 0 0
897 3 11.720428588589998 4.51119231110859 -0.002671879404550563 0 0 0
794 3 13.673833353354999 1.1277960107885892 -0.0026718794045504746 0 0 0
798 3 17.580642882884998 1.127796010788588 -0.0026718794045491514 0 0 0
899 1 13.673833353354999 3.381088094356349 1.5611962063521574 0 0 0
903 1 17.580642882884998 3.38108809435635 1.561196206352156 0 0 0
901 3 15.627238118119998 4.511192311108591 -0.0026718794045520002 0 0 0
802 3 21.487452412415003 1.12779601078859 -0.0026718794045518346 0 0 0
907 1 21.487452412415003 3.381088094356348 1.5611962063521587 0 0 0
905 3 19.534047647650002 4.511192311108589 -0.0026718794045492407 0 0 0
909 3 23.44085717718 4.511192311108591 -0.002671879404551773 0 0 0
806 3 25.394261941944997 1.12779601078859 -0.002671879404551837 0 0 0
810 3 29.301071471475 1.127796010788588 -0.0026718794045491553 0 0 0
911 1 25.394261941944997 3.381088094356348 1.5611962063521587 0 0 0
915 1 29.301071471475 3.38108809435635 1.561196206352156 0 0 0
913 3 27.347666706709997 4.511192311108589 -0.0026718794045492433 0 0 0
814 3 33.207881001005 1.1277960107885898 -0.002671879404551684 0 0 0
919 1 33.207881001005 3.381088094356348 1.5611962063521587 0 0 0
917 3 31.254476236240002 4.511192311108591 -0.0026718794045519243 0 0 0
921 3 35.161285765769996 4.511192311108591 -0.002671879404551923 0 0 0
818 3 37.114690530535 1.127796010788588 -0.0026718794045491527 0 0 0
822 3 41.021500060065 1.12779601078859 -0.002671879404551835 0 0 0
923 1 37.114690530535 3.38108809435635 1.561196206352156 0 0 0
927 1 41.021500060065 3.381088094356348 1.5611962063521587 0 0 0
925 3 39.0680952953 4.511192311108589 -0.0026718794045492407 0 0 0
826 3 44.928309589594996 1.12779601078859 -0.002671879404551837 0 0 0
931 1 44.928309589594996 3.381088094356348 1.5611962063521587 0 0 0
929 3 42.97490482483 4.511192311108591 -0.0026718794045517713 0 0 0
933 3 46.88171435436 4.511192311108589 -0.0026718794045492425 0 0 0
830 3 48.835119119125 1.127796010788588 -0.0026718794045491536 0 0 0
730 3 52.741928648655 1.1277960107885892 -0.0026718794045504767 -1 0 0
935 1 48.835119119125 3.38108809435635 1.561196206352156 0 0 0
835 1 52.741928648655 3.381088094356349 1.5611962063521574 -1 0 0
833 3 50.78852388389 4.511192311108591 -0.0026718794045520024 -1 0 0
734 3 56.648738178185 1.1277960107885892 -0.0026718794045505548 -1 0 0
839 1 56.648738178185 3.381088094356349 1.5611962063521574 -1 0 0
837 3 54.69533341342 4.51119231110859 -0.002671879404550645 -1 0 0
841 3 58.60214294295 4.51119231110859 -0.002671879404550643 -1 0 0
738 3 60.555547707715 1.1277960107885892 -0.0026718794045505548 -1 0 0
742 3 64.462357237245 1.12779601078859 -0.002671879404551916 -1 0 0
843 1 60.555547707715 3.381088094356349 1.5611962063521574 -1 0 0
847 1 64.462357237245 3.381088094356348 1.561196206352159 -1 0 0
845 3 62.508952472480004 4.51119231110859 -0.002671879404550566 -1 0 0
746 3 68.36916676677501 1.127796010788588 -0.0026718794045491527 -1 0 0
851 1 68.36916676677501 3.38108809435635 1.561196206352156 -1 0 0
849 3 66.41576200201 4.511192311108589 -0.002671879404549242 -1 0 0
853 3 70.32257153154 4.511192311108591 -0.002671879404551922 -1 0 0
750 3 72.275976296305 1.1277960107885898 -0.002671879404551684 -1 0 0
754 3 76.182785825835 1.12779601078859 -0.002671879404551837 -1 0 0
855 1 72.275976296305 3.381088094356348 1.5611962063521587 -1 0 0
859 1 76.182785825835 3.381088094356348 1.5611962063521587 -1 0 0
857 3 74.22938106107 4.511192311108591 -0.0026718794045517717 -1 0 0
758 3 80.089595355365 1.127796010788588 -0.0026718794045491557 -1 0 0
863 1 80.089595355365 3.38108809435635 1.561196206352156 -1 0 0
861 3 78.1361905906 4.511192311108589 -0.002671879404549245 -1 0 0
865 3 82.04300012013 4.511192311108591 -0.002671879404552076 -1 0 0
762 3 83.996404884895 1.127796010788588 -0.002671879404549155 -1 0 0
766 3 87.90321441442501 1.12779601078859 -0.0026718794045518376 -1 0 0
867 1 83.996404884895 3.38108809435635 1.561196206352156 -1 0 0
871 1 87.90321441442501 3.381088094356348 1.5611962063521587 -1 0 0
869 3 85.94980964966001 4.511192311108589 -0.0026718794045492438 -1 0 0
770 3 91.810023943955 1.1277960107885898 -0.0026718794045516854 -1 0 0
875 1 91.810023943955 3.381088094356348 1.5611962063521587 -1 0 0
873 3 89.85661917919 4.511192311108591 -0.0026718794045517713 -1 0 0
877 3 93.76342870872 4.511192311108591 -0.0026718794045517717 -1 0 0
774 3 95.716833473485 1.1277960107885898 -0.002671879404551683 -1 0 0
778 3 99.62364300301499 1.127796010788588 -0.0026718794045491527 -1 0 0
879 1 95.716833473485 3.381088094356348 1.5611962063521587 -1 0 0
883 1 99.62364300301499 3.38108809435635 1.561196206352156 -1 0 0
881 3 97.67023823825 4.511192311108591 -0.002671879404551921 -1 0 0
888 1 0 6.764484394676351 1.561196206352156 0 0 0
886 3 1.9534047647649988 7.894588611428589 -0.0026718794045523047 0 0 0
892 1 3.9068095295299994 6.76448439467635 1.5611962063521574 0 0 0
890 3 5.860214294295 7.894588611428589 -0.0026718794045522314 0 0 0
991 1 1.9534047647649986 10.14788069499635 1.5611962063521574 0 0 0
995 1 5.860214294295 10.14788069499635 1.5611962063521574 0 0 0
989 3 0 11.27798491174859 -0.002671879404547416 0 0 0
993 3 3.9068095295299994 11.277984911748591 -0.0026718794045487403 0 0 0
896 1 7.8136190590600005 6.76448439467635 1.5611962063521574 0 0 0
894 3 9.767023823825 7.89458861142859 -0.0026718794045535164 0 0 0
900 1 11.720428588589998 6.76448439467635 1.5611962063521574 0 0 0
999 1 9.767023823825 10.147880694996347 1.5611962063521585 0 0 0
997 3 7.8136190590600005 11.277984911748591 -0.002671879404548663 0 0 0
1001 3 11.720428588589998 11.277984911748591 -0.0026718794045486587 0 0 0
898 3 13.673833353354999 7.894588611428589 -0.0026718794045521503 0 0 0
904 1 15.627238118119998 6.764484394676349 1.5611962063521587 0 0 0
902 3 17.580642882884998 7.894588611428588 -0.002671879404550829 0 0 0
1003 1 13.673833353354999 10.14788069499635 1.5611962063521572 0 0 0
1007 1 17.580642882884998 10.14788069499635 1.5611962063521558 0 0 0
1005 3 15.627238118119998 11.277984911748591 -0.002671879404550072 0 0 0
908 1 19.534047647650002 6.764484394676351 1.561196206352156 0 0 0
906 3 21.487452412415003 7.89458861142859 -0.0026718794045535086 0 0 0
912 1 23.44085717718 6.764484394676349 1.5611962063521585 0 0 0
1011 1 21.487452412415003 10.147880694996347 1.5611962063521585 0 0 0
1009 3 19.534047647650002 11.27798491174859 -0.0026718794045473377 0 0 0
1013 3 23.44085717718 11.277984911748591 -0.002671879404549846 0 0 0
910 3 25.394261941944997 7.89458861142859 -0.0026718794045535116 0 0 0
916 1 27.347666706709997 6.764484394676351 1.561196206352156 0 0 0
914 3 29.301071471475 7.894588611428588 -0.002671879404550829 0 0 0
1015 1 25.394261941944997 10.147880694996347 1.5611962063521585 0 0 0
1019 1 29.301071471475 10.14788069499635 1.5611962063521558 0 0 0
1017 3 27.347666706709997 11.27798491174859 -0.0026718794045473408 0 0 0
920 1 31.254476236240002 6.764484394676349 1.5611962063521587 0 0 0
918 3 33.207881001005 7.89458861142859 -0.0026718794045533577 0 0 0
924 1 35.161285765769996 6.764484394676349 1.5611962063521587 0 0 0
1023 1 33.207881001005 10.147880694996347 1.5611962063521585 0 0 0
1021 3 31.254476236240002 11.277984911748591 -0.0026718794045499984 0 0 0
1025 3 35.161285765769996 11.277984911748591 -0.002671879404549995 0 0 0
922 3 37.114690530535 7.894588611428588 -0.0026718794045508284 0 0 0
928 1 39.0680952953 6.764484394676351 1.561196206352156 0 0 0
926 3 41.021500060065 7.89458861142859 -0.0026718794045535077 0 0 0
1027 1 37.114690530535 10.14788069499635 1.5611962063521558 0 0 0
1031 1 41.021500060065 10.147880694996347 1.5611962063521585 0 0 0
1029 3 39.0680952953 11.27798491174859 -0.0026718794045473377 0 0 0
932 1 42.97490482483 6.764484394676349 1.5611962063521585 0 0 0
930 3 44.928309589594996 7.89458861142859 -0.0026718794045535125 0 0 0
936 1 46.88171435436 6.764484394676351 1.561196206352156 0 0 0
1035 1 44.928309589594996 10.147880694996347 1.5611962063521585 0 0 0
1033 3 42.97490482483 11.277984911748591 -0.002671879404549846 0 0 0
1037 3 46.88171435436 11.27798491174859 -0.0026718794045473395 0 0 0
934 3 48.835119119125 7.894588611428588 -0.0026718794045508284 0 0 0
836 1 50.78852388389 6.764484394676349 1.5611962063521587 -1 0 0
834 3 52.741928648655 7.894588611428589 -0.0026718794045521516 -1 0 0
1039 1 48.835119119125 10.14788069499635 1.5611962063521558 0 0 0
939 1 52.741928648655 10.14788069499635 1.5611962063521572 -1 0 0
937 3 50.78852388389 11.277984911748591 -0.002671879404550073 -1 0 0
840 1 54.69533341342 6.76448439467635 1.5611962063521574 -1 0 0
838 3 56.648738178185 7.894588611428589 -0.0026718794045522297 -1 0 0
844 1 58.60214294295 6.76448439467635 1.5611962063521574 -1 0 0
943 1 56.648738178185 10.14788069499635 1.5611962063521574 -1 0 0
941 3 54.69533341342 11.277984911748591 -0.002671879404548739 -1 0 0
945 3 58.60214294295 11.277984911748591 -0.002671879404548736 -1 0 0
842 3 60.555547707715 7.894588611428589 -0.0026718794045522292 -1 0 0
848 1 62.508952472480004 6.76448439467635 1.5611962063521574 -1 0 0
846 3 64.462357237245 7.89458861142859 -0.002671879404553589 -1 0 0
947 1 60.555547707715 10.14788069499635 1.5611962063521574 -1 0 0
951 1 64.462357237245 10.147880694996347 1.5611962063521587 -1 0 0
949 3 62.508952472480004 11.277984911748591 -0.0026718794045486618 -1 0 0
852 1 66.41576200201 6.764484394676351 1.561196206352156 -1 0 0
850 3 68.36916676677501 7.894588611428588 -0.0026718794045508276 -1 0 0
856 1 70.32257153154 6.764484394676349 1.5611962063521587 -1 0 0
955 1 68.36916676677501 10.14788069499635 1.5611962063521558 -1 0 0
953 3 66.41576200201 11.27798491174859 -0.002671879404547339 -1 0 0
957 3 70.32257153154 11.277984911748591 -0.002671879404549997 -1 0 0
854 3 72.275976296305 7.89458861142859 -0.0026718794045533577 -1 0 0
860 1 74.22938106107 6.764484394676349 1.5611962063521585 -1 0 0
858 3 76.182785825835 7.89458861142859 -0.0026718794045535103 -1 0 0
959 1 72.275976296305 10.147880694996347 1.5611962063521585 -1 0 0
963 1 76.182785825835 10.147880694996347 1.5611962063521585 -1 0 0
961 3 74.22938106107 11.277984911748591 -0.0026718794045498466 -1 0 0
864 1 78.1361905906 6.764484394676351 1.561196206352156 -1 0 0
862 3 80.089595355365 7.894588611428588 -0.00267187940455083 -1 0 0
868 1 82.04300012013 6.764484394676349 1.5611962063521587 -1 0 0
967 1 80.089595355365 10.14788069499635 1.5611962063521558 -1 0 0
965 3 78.1361905906 11.27798491174859 -0.002671879404547342 -1 0 0
969 3 82.04300012013 11.277984911748591 -0.00267187940455015 -1 0 0
866 3 83.996404884895 7.894588611428588 -0.0026718794045508297 -1 0 0
872 1 85.94980964966001 6.764484394676351 1.561196206352156 -1 0 0
870 3 87.90321441442501 7.89458861142859 -0.0026718794045535103 -1 0 0
971 1 83.996404884895 10.14788069499635 1.5611962063521558 -1 0 0
975 1 87.90321441442501 10.147880694996347 1.5611962063521585 -1 0 0
973 3 85.94980964966001 11.27798491174859 -0.0026718794045473408 -1 0 0
876 1 89.85661917919 6.764484394676349 1.5611962063521585 -1 0 0
874 3 91.810023943955 7.89458861142859 -0.002671879404553359 -1 0 0
880 1 93.76342870872 6.764484394676349 1.5611962063521585 -1 0 0
979 1 91.810023943955 10.147880694996347 1.5611962063521585 -1 0 0
977 3 89.85661917919 11.277984911748591 -0.002671879404549846 -1 0 0
981 3 93.76342870872 11.277984911748591 -0.0026718794045498457 -1 0 0
878 3 95.716833473485 7.89458861142859 -0.0026718794045533564 -1 0 0
884 1 97.67023823825 6.764484394676349 1.5611962063521587 -1 0 0
882 3 99.62364300301499 7.894588611428588 -0.0026718794045508284 -1 0 0
983 1 95.716833473485 10.147880694996347 1.5611962063521585 -1 0 0
987 1 99.62364300301499 10.14788069499635 1.5611962063521558 -1 0 0
985 3 97.67023823825 11.277984911748591 -0.002671879404549994 -1 0 0
992 1 0 13.531276995316352 1.5611962063521578 0 0 0
996 1 3.9068095295299994 13.53127699531635 1.5611962063521592 0 0 0
990 3 1.9534047647649988 14.66138121206859 -0.0026718794045503874 0 0 0
994 3 5.860214294295 14.66138121206859 -0.0026718794045503137 0 0 0
1095 1 1.9534047647649988 16.914673295636348 1.5611962063521572 0 0 0
1099 1 5.860214294295 16.914673295636348 1.561196206352157 0 0 0
1000 1 7.8136190590600005 13.53127699531635 1.561196206352159 0 0 0
1004 1 11.720428588589998 13.53127699531635 1.561196206352159 0 0 0
998 3 9.767023823825 14.661381212068592 -0.002671879404551593 0 0 0
1103 1 9.767023823825 16.914673295636348 1.5611962063521583 0 0 0
1008 1 15.627238118119998 13.53127699531635 1.5611962063521605 0 0 0
1002 3 13.673833353354999 14.66138121206859 -0.0026718794045502313 0 0 0
1006 3 17.580642882884998 14.66138121206859 -0.0026718794045490378 0 0 0
1107 1 13.673833353354999 16.914673295636348 1.561196206352157 0 0 0
1111 1 17.580642882884998 16.91467329563635 1.5611962063521558 0 0 0
1012 1 19.534047647650002 13.531276995316352 1.5611962063521578 0 0 0
1016 1 23.44085717718 13.53127699531635 1.5611962063521603 0 0 0
1010 3 21.487452412415003 14.661381212068592 -0.002671879404551585 0 0 0
1115 1 21.487452412415003 16.914673295636348 1.5611962063521583 0 0 0
1020 1 27.347666706709997 13.531276995316352 1.5611962063521578 0 0 0
1014 3 25.394261941944997 14.661381212068592 -0.0026718794045515882 0 0 0
1018 3 29.301071471475 14.66138121206859 -0.002671879404549042 0 0 0
1119 1 25.394261941944997 16.914673295636348 1.5611962063521583 0 0 0
1123 1 29.301071471475 16.91467329563635 1.5611962063521558 0 0 0
1024 1 31.254476236240002 13.53127699531635 1.5611962063521603 0 0 0
1028 1 35.161285765769996 13.53127699531635 1.5611962063521603 0 0 0
1022 3 33.207881001005 14.66138121206859 -0.002671879404551436 0 0 0
1127 1 33.207881001005 16.914673295636348 1.561196206352158 0 0 0
1032 1 39.0680952953 13.531276995316352 1.5611962063521578 0 0 0
1026 3 37.114690530535 14.66138121206859 -0.002671879404549039 0 0 0
1030 3 41.021500060065 14.661381212068592 -0.002671879404551586 0 0 0
1131 1 37.114690530535 16.91467329563635 1.5611962063521558 0 0 0
1135 1 41.021500060065 16.914673295636348 1.5611962063521583 0 0 0
1036 1 42.97490482483 13.53127699531635 1.5611962063521603 0 0 0
1040 1 46.88171435436 13.531276995316352 1.5611962063521578 0 0 0
1034 3 44.928309589594996 14.661381212068592 -0.0026718794045515887 0 0 0
1139 1 44.928309589594996 16.914673295636348 1.5611962063521583 0 0 0
940 1 50.78852388389 13.53127699531635 1.5611962063521605 -1 0 0
1038 3 48.835119119125 14.66138121206859 -0.0026718794045490404 0 0 0
938 3 52.741928648655 14.66138121206859 -0.002671879404550235 -1 0 0
1143 1 48.835119119125 16.91467329563635 1.5611962063521558 0 0 0
1043 1 52.741928648655 16.914673295636348 1.561196206352157 -1 0 0
944 1 54.69533341342 13.53127699531635 1.5611962063521592 -1 0 0
948 1 58.60214294295 13.53127699531635 1.5611962063521592 -1 0 0
942 3 56.648738178185 14.66138121206859 -0.002671879404550311 -1 0 0
1047 1 56.648738178185 16.914673295636348 1.561196206352157 -1 0 0
952 1 62.508952472480004 13.53127699531635 1.561196206352159 -1 0 0
946 3 60.555547707715 14.66138121206859 -0.002671879404550313 -1 0 0
950 3 64.462357237245 14.661381212068592 -0.0026718794045516654 -1 0 0
1051 1 60.555547707715 16.914673295636348 1.561196206352157 -1 0 0
1055 1 64.462357237245 16.914673295636348 1.5611962063521583 -1 0 0
956 1 66.41576200201 13.531276995316352 1.5611962063521578 -1 0 0
960 1 70.32257153154 13.53127699531635 1.5611962063521603 -1 0 0
954 3 68.36916676677501 14.66138121206859 -0.002671879404549039 -1 0 0
1059 1 68.36916676677501 16.91467329563635 1.5611962063521558 -1 0 0
964 1 74.22938106107 13.53127699531635 1.5611962063521603 -1 0 0
958 3 72.275976296305 14.66138121206859 -0.0026718794045514347 -1 0 0
962 3 76.182785825835 14.661381212068592 -0.0026718794045515865 -1 0 0
1063 1 72.275976296305 16.914673295636348 1.561196206352158 -1 0 0
1067 1 76.182785825835 16.914673295636348 1.5611962063521583 -1 0 0
968 1 78.1361905906 13.531276995316352 1.5611962063521578 -1 0 0
972 1 82.04300012013 13.53127699531635 1.5611962063521605 -1 0 0
966 3 80.089595355365 14.66138121206859 -0.0026718794045490417 -1 0 0
1071 1 80.089595355365 16.91467329563635 1.5611962063521558 -1 0 0
976 1 85.94980964966001 13.531276995316352 1.5611962063521578 -1 0 0
970 3 83.996404884895 14.66138121206859 -0.002671879404549041 -1 0 0
974 3 87.90321441442501 14.661381212068592 -0.002671879404551587 -1 0 0
1075 1 83.996404884895 16.91467329563635 1.5611962063521558 -1 0 0
1079 1 87.90321441442501 16.914673295636348 1.5611962063521583 -1 0 0
980 1 89.85661917919 13.53127699531635 1.5611962063521603 -1 0 0
984 1 93.76342870872 13.53127699531635 1.5611962063521603 -1 0 0
978 3 91.810023943955 14.66138121206859 -0.0026718794045514356 -1 0 0
1083 1 91.810023943955 16.914673295636348 1.561196206352158 -1 0 0
988 1 97.67023823825 13.53127699531635 1.5611962063521603 -1 0 0
982 3 95.716833473485 14.66138121206859 -0.0026718794045514334 -1 0 0
986 3 99.62364300301499 14.66138121206859 -0.0026718794045490386 -1 0 0
1087 1 95.716833473485 16.914673295636348 1.561196206352158 -1 0 0
1091 1 99.62364300301499 16.91467329563635 1.5611962063521558 -1 0 0
1093 3 0 18.044777512388585 -0.0026718794045525155 0 0 0
1097 3 3.9068095295299994 18.04477751238859 -0.002671879404553712 0 0 0
1096 1 0 20.298069595956346 1.5611962063521558 0 0 0
1100 1 3.9068095295299994 20.298069595956346 1.5611962063521572 0 0 0
1094 3 1.9534047647649986 21.428173812708586 -0.0026718794045505786 0 0 0
1098 3 5.860214294295 21.428173812708586 -0.0026718794045505027 0 0 0
1199 1 1.9534047647649986 23.681465896276347 1.5611962063521574 0 0 0
1203 1 5.860214294295 23.681465896276347 1.5611962063521574 0 0 0
1101 3 7.8136190590600005 18.04477751238859 -0.0026718794045536313 0 0 0
1105 3 11.720428588589998 18.04477751238859 -0.002671879404553628 0 0 0
1104 1 7.8136190590600005 20.298069595956346 1.561196206352157 0 0 0
1108 1 11.720428588589998 20.298069595956346 1.561196206352157 0 0 0
1102 3 9.767023823825 21.428173812708586 -0.002671879404551761 0 0 0
1207 1 9.767023823825 23.681465896276347 1.5611962063521587 0 0 0
1109 3 15.627238118119998 18.04477751238859 -0.0026718794045550586 0 0 0
1112 1 15.627238118119998 20.298069595956346 1.5611962063521585 0 0 0
1106 3 13.673833353354999 21.428173812708586 -0.002671879404550423 0 0 0
1110 3 17.580642882884998 21.428173812708582 -0.0026718794045491024 0 0 0
1211 1 13.673833353354999 23.681465896276347 1.5611962063521574 0 0 0
1215 1 17.580642882884998 23.681465896276347 1.561196206352156 0 0 0
1113 3 19.534047647650002 18.044777512388585 -0.0026718794045524365 0 0 0
1117 3 23.44085717718 18.04477751238859 -0.0026718794045548304 0 0 0
1116 1 19.534047647650002 20.298069595956346 1.5611962063521556 0 0 0
1120 1 23.44085717718 20.298069595956346 1.5611962063521583 0 0 0
1114 3 21.487452412415003 21.428173812708586 -0.002671879404551759 0 0 0
1219 1 21.487452412415003 23.681465896276347 1.5611962063521587 0 0 0
1121 3 27.347666706709997 18.044777512388585 -0.0026718794045524396 0 0 0
1124 1 27.347666706709997 20.298069595956346 1.5611962063521556 0 0 0
1118 3 25.394261941944997 21.428173812708586 -0.0026718794045517613 0 0 0
1122 3 29.301071471475 21.428173812708582 -0.0026718794045491067 0 0 0
1223 1 25.394261941944997 23.681465896276347 1.5611962063521587 0 0 0
1227 1 29.301071471475 23.681465896276347 1.561196206352156 0 0 0
1125 3 31.254476236240002 18.04477751238859 -0.002671879404554983 0 0 0
1129 3 35.161285765769996 18.04477751238859 -0.002671879404554982 0 0 0
1128 1 31.254476236240002 20.298069595956346 1.5611962063521583 0 0 0
1132 1 35.161285765769996 20.298069595956346 1.5611962063521583 0 0 0
1126 3 33.207881001005 21.428173812708586 -0.0026718794045516086 0 0 0
1231 1 33.207881001005 23.681465896276347 1.5611962063521585 0 0 0
1133 3 39.0680952953 18.044777512388585 -0.002671879404552436 0 0 0
1136 1 39.0680952953 20.298069595956346 1.5611962063521556 0 0 0
1130 3 37.114690530535 21.428173812708582 -0.0026718794045491033 0 0 0
1134 3 41.021500060065 21.428173812708586 -0.0026718794045517604 0 0 0
1235 1 37.114690530535 23.681465896276347 1.561196206352156 0 0 0
1239 1 41.021500060065 23.681465896276347 1.5611962063521587 0 0 0
1137 3 42.97490482483 18.04477751238859 -0.002671879404554831 0 0 0
1141 3 46.88171435436 18.044777512388585 -0.002671879404552438 0 0 0
1140 1 42.97490482483 20.298069595956346 1.5611962063521583 0 0 0
1144 1 46.88171435436 20.298069595956346 1.5611962063521556 0 0 0
1138 3 44.928309589594996 21.428173812708586 -0.0026718794045517613 0 0 0
1243 1 44.928309589594996 23.681465896276347 1.5611962063521587 0 0 0
1041 3 50.78852388389 18.04477751238859 -0.0026718794045550603 -1 0 0
1044 1 50.78852388389 20.298069595956346 1.5611962063521585 -1 0 0
1142 3 48.835119119125 21.428173812708582 -0.002671879404549104 0 0 0
1042 3 52.741928648655 21.428173812708586 -0.002671879404550426 -1 0 0
1247 1 48.835119119125 23.681465896276347 1.561196206352156 0 0 0
1147 1 52.741928648655 23.681465896276347 1.5611962063521574 -1 0 0
1045 3 54.69533341342 18.04477751238859 -0.00267187940455371 -1 0 0
1049 3 58.60214294295 18.04477751238859 -0.0026718794045537076 -1 0 0
1048 1 54.69533341342 20.298069595956346 1.5611962063521572 -1 0 0
1052 1 58.60214294295 20.298069595956346 1.5611962063521572 -1 0 0
1046 3 56.648738178185 21.428173812708586 -0.002671879404550501 -1 0 0
1151 1 56.648738178185 23.681465896276347 1.5611962063521574 -1 0 0
1053 3 62.508952472480004 18.04477751238859 -0.0026718794045536304 -1 0 0
1056 1 62.508952472480004 20.298069595956346 1.561196206352157 -1 0 0
1050 3 60.555547707715 21.428173812708586 -0.002671879404550501 -1 0 0
1054 3 64.462357237245 21.428173812708586 -0.0026718794045518376 -1 0 0
1155 1 60.555547707715 23.681465896276347 1.5611962063521574 -1 0 0
1159 1 64.462357237245 23.681465896276347 1.5611962063521587 -1 0 0
1057 3 66.41576200201 18.044777512388585 -0.002671879404552438 -1 0 0
1061 3 70.32257153154 18.04477751238859 -0.0026718794045549814 -1 0 0
1060 1 66.41576200201 20.298069595956346 1.5611962063521556 -1 0 0
1064 1 70.32257153154 20.298069595956346 1.5611962063521583 -1 0 0
1058 3 68.36916676677501 21.428173812708582 -0.0026718794045491024 -1 0 0
1163 1 68.36916676677501 23.681465896276347 1.561196206352156 -1 0 0
1065 3 74.22938106107 18.04477751238859 -0.0026718794045548304 -1 0 0
1068 1 74.22938106107 20.298069595956346 1.5611962063521583 -1 0 0
1062 3 72.275976296305 21.428173812708586 -0.0026718794045516086 -1 0 0
1066 3 76.182785825835 21.428173812708586 -0.002671879404551762 -1 0 0
1167 1 72.275976296305 23.681465896276347 1.5611962063521585 -1 0 0
1171 1 76.182785825835 23.681465896276347 1.5611962063521587 -1 0 0
1069 3 78.1361905906 18.044777512388585 -0.00267187940455244 -1 0 0
1073 3 82.04300012013 18.04477751238859 -0.002671879404555134 -1 0 0
1072 1 78.1361905906 20.298069595956346 1.5611962063521556 -1 0 0
1076 1 82.04300012013 20.298069595956346 1.5611962063521585 -1 0 0
1070 3 80.089595355365 21.428173812708582 -0.0026718794045491054 -1 0 0
1175 1 80.089595355365 23.681465896276347 1.561196206352156 -1 0 0
1077 3 85.94980964966001 18.044777512388585 -0.002671879404552439 -1 0 0
1080 1 85.94980964966001 20.298069595956346 1.5611962063521556 -1 0 0
1074 3 83.996404884895 21.428173812708582 -0.0026718794045491046 -1 0 0
1078 3 87.90321441442501 21.428173812708586 -0.002671879404551762 -1 0 0
1179 1 83.996404884895 23.681465896276347 1.561196206352156 -1 0 0
1183 1 87.90321441442501 23.681465896276347 1.5611962063521587 -1 0 0
1081 3 89.85661917919 18.04477751238859 -0.002671879404554831 -1 0 0
1085 3 93.76342870872 18.04477751238859 -0.0026718794045548304 -1 0 0
1084 1 89.85661917919 20.298069595956346 1.561196206352158 -1 0 0
1088 1 93.76342870872 20.298069595956346 1.5611962063521583 -1 0 0
1082 3 91.810023943955 21.428173812708586 -0.0026718794045516095 -1 0 0
1187 1 91.810023943955 23.681465896276347 1.5611962063521585 -1 0 0
1089 3 97.67023823825 18.04477751238859 -0.0026718794045549796 -1 0 0
1092 1 97.67023823825 20.298069595956346 1.5611962063521583 -1 0 0
1086 3 95.716833473485 21.428173812708586 -0.0026718794045516056 -1 0 0
1090 3 99.62364300301499 21.428173812708582 -0.0026718794045491024 -1 0 0
1191 1 95.716833473485 23.681465896276347 1.5611962063521585 -1 0 0
1195 1 99.62364300301499 23.681465896276347 1.561196206352156 -1 0 0
1197 3 0 24.811570113028584 -0.0026718794045491804 0 0 0
1201 3 3.9068095295299994 24.811570113028587 -0.0026718794045505045 0 0 0
1200 1 0 27.064862196596348 1.561196206352156 0 0 0
1198 3 1.9534047647649986 28.194966413348588 -0.0026718794045505773 0 0 0
1204 1 3.9068095295299994 27.064862196596348 1.5611962063521574 0 0 0
1202 3 5.860214294295 28.194966413348588 -0.0026718794045505036 0 0 0
1205 3 7.8136190590600005 24.811570113028587 -0.002671879404550428 0 0 0
1209 3 11.720428588589998 24.811570113028587 -0.0026718794045504255 0 0 0
1208 1 7.8136190590600005 27.064862196596348 1.5611962063521574 0 0 0
1206 3 9.767023823825 28.194966413348588 -0.002671879404551761 0 0 0
1212 1 11.720428588589998 27.064862196596348 1.5611962063521574 0 0 0
1213 3 15.627238118119998 24.811570113028587 -0.002671879404551836 0 0 0
1210 3 13.673833353354999 28.194966413348588 -0.002671879404550423 0 0 0
1216 1 15.627238118119998 27.064862196596348 1.5611962063521587 0 0 0
1214 3 17.580642882884998 28.194966413348585 -0.0026718794045491024 0 0 0
1217 3 19.534047647650002 24.811570113028584 -0.0026718794045491037 0 0 0
1221 3 23.44085717718 24.811570113028587 -0.0026718794045516095 0 0 0
1220 1 19.534047647650002 27.064862196596348 1.561196206352156 0 0 0
1218 3 21.487452412415003 28.194966413348588 -0.002671879404551759 0 0 0
1224 1 23.44085717718 27.064862196596348 1.5611962063521585 0 0 0
1225 3 27.347666706709997 24.811570113028584 -0.002671879404549107 0 0 0
1222 3 25.394261941944997 28.194966413348588 -0.0026718794045517613 0 0 0
1228 1 27.347666706709997 27.064862196596348 1.561196206352156 0 0 0
1226 3 29.301071471475 28.194966413348585 -0.0026718794045491063 0 0 0
1229 3 31.254476236240002 24.811570113028587 -0.0026718794045517626 0 0 0
1233 3 35.161285765769996 24.811570113028587 -0.002671879404551761 0 0 0
1232 1 31.254476236240002 27.064862196596348 1.5611962063521587 0 0 0
1230 3 33.207881001005 28.194966413348588 -0.0026718794045516086 0 0 0
1236 1 35.161285765769996 27.064862196596348 1.5611962063521587 0 0 0
1237 3 39.0680952953 24.811570113028584 -0.0026718794045491037 0 0 0
1234 3 37.114690530535 28.194966413348585 -0.0026718794045491033 0 0 0
1240 1 39.0680952953 27.064862196596348 1.561196206352156 0 0 0
1238 3 41.021500060065 28.194966413348588 -0.002671879404551759 0 0 0
1241 3 42.97490482483 24.811570113028587 -0.00267187940455161 0 0 0
1245 3 46.88171435436 24.811570113028584 -0.0026718794045491046 0 0 0
1244 1 42.97490482483 27.064862196596348 1.5611962063521585 0 0 0
1242 3 44.928309589594996 28.194966413348588 -0.0026718794045517613 0 0 0
1248 1 46.88171435436 27.064862196596348 1.561196206352156 0 0 0
1145 3 50.78852388389 24.811570113028587 -0.0026718794045518367 -1 0 0
1246 3 48.835119119125 28.194966413348585 -0.002671879404549104 0 0 0
1148 1 50.78852388389 27.064862196596348 1.5611962063521587 -1 0 0
1146 3 52.741928648655 28.194966413348588 -0.002671879404550426 -1 0 0
1149 3 54.69533341342 24.811570113028587 -0.002671879404550503 -1 0 0
1153 3 58.60214294295 24.811570113028587 -0.0026718794045505014 -1 0 0
1152 1 54.69533341342 27.064862196596348 1.5611962063521574 -1 0 0
1150 3 56.648738178185 28.194966413348588 -0.002671879404550501 -1 0 0
1156 1 58.60214294295 27.064862196596348 1.5611962063521574 -1 0 0
1157 3 62.508952472480004 24.811570113028587 -0.0026718794045504264 -1 0 0
1154 3 60.555547707715 28.194966413348588 -0.002671879404550501 -1 0 0
1160 1 62.508952472480004 27.064862196596348 1.5611962063521574 -1 0 0
1158 3 64.462357237245 28.194966413348588 -0.0026718794045518376 -1 0 0
1161 3 66.41576200201 24.811570113028584 -0.0026718794045491046 -1 0 0
1165 3 70.32257153154 24.811570113028587 -0.0026718794045517604 -1 0 0
1164 1 66.41576200201 27.064862196596348 1.561196206352156 -1 0 0
1162 3 68.36916676677501 28.194966413348585 -0.0026718794045491037 -1 0 0
1168 1 70.32257153154 27.064862196596348 1.5611962063521587 -1 0 0
1169 3 74.22938106107 24.811570113028587 -0.0026718794045516095 -1 0 0
1166 3 72.275976296305 28.194966413348588 -0.0026718794045516086 -1 0 0
1172 1 74.22938106107 27.064862196596348 1.5611962063521585 -1 0 0
1170 3 76.182785825835 28.194966413348588 -0.0026718794045517613 -1 0 0
1173 3 78.1361905906 24.811570113028584 -0.002671879404549107 -1 0 0
1177 3 82.04300012013 24.811570113028587 -0.0026718794045519144 -1 0 0
1176 1 78.1361905906 27.064862196596348 1.561196206352156 -1 0 0
1174 3 80.089595355365 28.194966413348585 -0.0026718794045491054 -1 0 0
1180 1 82.04300012013 27.064862196596344 1.5611962063521587 -1 0 0
1181 3 85.94980964966001 24.811570113028584 -0.0026718794045491054 -1 0 0
1178 3 83.996404884895 28.194966413348585 -0.0026718794045491046 -1 0 0
1184 1 85.94980964966001 27.064862196596348 1.561196206352156 -1 0 0
1182 3 87.90321441442501 28.194966413348588 -0.0026718794045517613 -1 0 0