LAMMPS data file via write_data, version 29 Aug 2024, timestep = 1, units = metal

4680 atoms
6 atom types

0 101.57704776778 xlo xhi
0 101.5018890096 ylo yhi
-50 50 zlo zhi

Masses

1 118.71
2 118.71
3 118.71
4 78.971
5 78.971
6 78.971

Atoms # atomic

782 4 1.9534047647649986 1.1277962904905752 -0.002400713246336105 0 0 0
786 4 5.860214294295 1.1277962904905752 -0.0024007132463360376 0 0 0
887 1 1.9534047647649986 3.3813223516893953 1.5610123518866976 0 0 0
891 1 5.860214294295 3.3813223516893953 1.5610123518866976 0 0 0
885 4 0 4.511192590810575 -0.0024007132463349273 0 0 0
889 4 3.9068095295299994 4.511192590810576 -0.0024007132463361187 0 0 0
790 4 9.767023823825 1.1277962904905758 -0.0024007132463371933 0 0 0
895 1 9.767023823825 3.3813223516893944 1.5610123518866987 0 0 0
893 4 7.8136190590600005 4.511192590810576 -0.002400713246336047 0 0 0
897 4 11.720428588589998 4.511192590810576 -0.002400713246336043 0 0 0
794 4 13.673833353354999 1.127796290490575 -0.0024007132463359643 0 0 0
798 4 17.580642882884998 1.1277962904905743 -0.002400713246334775 0 0 0
899 1 13.673833353354999 3.3813223516893953 1.5610123518866976 0 0 0
903 1 17.580642882884998 3.381322351689396 1.5610123518866963 0 0 0
901 4 15.627238118119998 4.511192590810577 -0.002400713246337335 0 0 0
802 4 21.487452412415003 1.1277962904905758 -0.0024007132463371864 0 0 0
907 1 21.487452412415003 3.3813223516893944 1.5610123518866987 0 0 0
905 4 19.534047647650002 4.511192590810575 -0.0024007132463348554 0 0 0
909 4 23.44085717718 4.511192590810577 -0.002400713246337131 0 0 0
806 4 25.394261941944997 1.1277962904905758 -0.0024007132463371886 0 0 0
810 4 29.301071471475 1.1277962904905743 -0.0024007132463347786 0 0 0
911 1 25.394261941944997 3.3813223516893944 1.5610123518866987 0 0 0
915 1 29.301071471475 3.381322351689396 1.5610123518866963 0 0 0
913 4 27.347666706709997 4.511192590810575 -0.002400713246334858 0 0 0
814 4 33.207881001005 1.1277962904905758 -0.002400713246337051 0 0 0
919 1 33.207881001005 3.3813223516893944 1.5610123518866987 0 0 0
917 4 31.254476236240002 4.511192590810577 -0.0024007132463372666 0 0 0
921 4 35.161285765769996 4.511192590810577 -0.0024007132463372653 0 0 0
818 4 37.11469053053499 1.1277962904905743 -0.0024007132463347764 0 0 0
822 4 41.021500060065 1.1277962904905758 -0.002400713246337187 0 0 0
923 1 37.11469053053499 3.381322351689396 1.5610123518866963 0 0 0
927 1 41.021500060065 3.3813223516893944 1.5610123518866987 0 0 0
925 4 39.068095295300004 4.511192590810575 -0.0024007132463348554 0 0 0
826 4 44.928309589594996 1.1277962904905758 -0.0024007132463371886 0 0 0
931 1 44.928309589594996 3.3813223516893944 1.5610123518866987 0 0 0
929 4 42.97490482483 4.511192590810577 -0.002400713246337129 0 0 0
933 4 46.88171435435999 4.511192590810575 -0.002400713246334857 0 0 0
830 4 48.835119119125004 1.1277962904905743 -0.0024007132463347773 0 0 0
730 4 52.741928648655 1.127796290490575 -0.002400713246335966 -1 0 0
935 1 48.835119119125004 3.381322351689396 1.5610123518866963 0 0 0
835 1 52.741928648655 3.3813223516893953 1.5610123518866976 -1 0 0
833 4 50.78852388389 4.511192590810577 -0.002400713246337337 -1 0 0
734 4 56.648738178185 1.1277962904905752 -0.0024007132463360363 -1 0 0
839 1 56.648738178185 3.3813223516893953 1.5610123518866976 -1 0 0
837 4 54.69533341342 4.511192590810576 -0.002400713246336117 -1 0 0
841 4 58.60214294295 4.511192590810576 -0.002400713246336115 -1 0 0
738 4 60.555547707715 1.1277962904905752 -0.0024007132463360363 -1 0 0
742 4 64.462357237245 1.127796290490576 -0.0024007132463372597 -1 0 0
843 1 60.555547707715 3.3813223516893953 1.5610123518866976 -1 0 0
847 1 64.462357237245 3.3813223516893944 1.561012351886699 -1 0 0
845 4 62.508952472480004 4.511192590810576 -0.0024007132463360462 -1 0 0
746 4 68.36916676677501 1.1277962904905743 -0.0024007132463347764 -1 0 0
851 1 68.36916676677501 3.381322351689396 1.5610123518866963 -1 0 0
849 4 66.41576200201 4.511192590810575 -0.0024007132463348567 -1 0 0
853 4 70.32257153154 4.511192590810577 -0.002400713246337265 -1 0 0
750 4 72.275976296305 1.1277962904905758 -0.002400713246337051 -1 0 0
754 4 76.182785825835 1.1277962904905758 -0.0024007132463371886 -1 0 0
855 1 72.275976296305 3.3813223516893944 1.5610123518866987 -1 0 0
859 1 76.182785825835 3.3813223516893944 1.5610123518866987 -1 0 0
857 4 74.22938106107 4.511192590810577 -0.0024007132463371296 -1 0 0
758 4 80.089595355365 1.1277962904905743 -0.002400713246334779 -1 0 0
863 1 80.089595355365 3.381322351689396 1.5610123518866963 -1 0 0
861 4 78.1361905906 4.511192590810575 -0.0024007132463348593 -1 0 0
865 4 82.04300012013 4.511192590810577 -0.0024007132463374032 -1 0 0
762 4 83.996404884895 1.1277962904905743 -0.002400713246334778 -1 0 0
766 4 87.90321441442501 1.1277962904905758 -0.002400713246337189 -1 0 0
867 1 83.996404884895 3.381322351689396 1.5610123518866963 -1 0 0
871 1 87.90321441442501 3.3813223516893944 1.5610123518866987 -1 0 0
869 4 85.94980964966001 4.511192590810575 -0.0024007132463348584 -1 0 0
770 4 91.810023943955 1.1277962904905758 -0.002400713246337052 -1 0 0
875 1 91.810023943955 3.3813223516893944 1.5610123518866987 -1 0 0
873 4 89.85661917919 4.511192590810577 -0.002400713246337129 -1 0 0
877 4 93.76342870872 4.511192590810577 -0.0024007132463371296 -1 0 0
774 4 95.716833473485 1.1277962904905758 -0.0024007132463370498 -1 0 0
778 4 99.62364300301499 1.1277962904905743 -0.0024007132463347764 -1 0 0
879 1 95.716833473485 3.3813223516893944 1.5610123518866987 -1 0 0
883 1 99.62364300301499 3.381322351689396 1.5610123518866963 -1 0 0
881 4 97.67023823825 4.511192590810577 -0.0024007132463372636 -1 0 0
888 1 0 6.764718652009397 1.5610123518866963 0 0 0
886 4 1.9534047647649986 7.894588891130575 -0.0024007132463376084 0 0 0
892 1 3.9068095295299994 6.764718652009396 1.5610123518866976 0 0 0
890 4 5.860214294295 7.894588891130575 -0.0024007132463375424 0 0 0
991 1 1.9534047647649986 10.148114952329394 1.5610123518866976 0 0 0
995 1 5.860214294295 10.148114952329394 1.5610123518866974 0 0 0
989 4 0 11.277985191450576 -0.0024007132463332156 0 0 0
993 4 3.9068095295299994 11.277985191450577 -0.002400713246334406 0 0 0
896 1 7.8136190590600005 6.764718652009396 1.5610123518866974 0 0 0
894 4 9.767023823825 7.894588891130576 -0.0024007132463386973 0 0 0
900 1 11.720428588589998 6.764718652009396 1.5610123518866974 0 0 0
999 1 9.767023823825 10.148114952329394 1.5610123518866987 0 0 0
997 4 7.8136190590600005 11.277985191450577 -0.0024007132463343362 0 0 0
1001 4 11.720428588589998 11.277985191450577 -0.0024007132463343328 0 0 0
898 4 13.673833353354999 7.894588891130575 -0.0024007132463374696 0 0 0
904 1 15.627238118119998 6.764718652009395 1.5610123518866987 0 0 0
902 4 17.580642882884998 7.894588891130574 -0.002400713246336282 0 0 0
1003 1 13.673833353354999 10.148114952329394 1.5610123518866974 0 0 0
1007 1 17.580642882884998 10.148114952329395 1.5610123518866963 0 0 0
1005 4 15.627238118119998 11.277985191450577 -0.0024007132463356026 0 0 0
908 1 19.534047647650002 6.764718652009397 1.5610123518866963 0 0 0
906 4 21.487452412415003 7.894588891130576 -0.0024007132463386904 0 0 0
912 1 23.44085717718 6.764718652009396 1.5610123518866985 0 0 0
1011 1 21.487452412415003 10.148114952329394 1.5610123518866987 0 0 0
1009 4 19.534047647650002 11.277985191450576 -0.002400713246333146 0 0 0
1013 4 23.44085717718 11.277985191450577 -0.0024007132463353996 0 0 0
910 4 25.394261941944997 7.894588891130576 -0.002400713246338693 0 0 0
916 1 27.347666706709997 6.764718652009397 1.5610123518866963 0 0 0
914 4 29.301071471475 7.894588891130574 -0.002400713246336282 0 0 0
1015 1 25.394261941944997 10.148114952329394 1.5610123518866987 0 0 0
1019 1 29.301071471475 10.148114952329395 1.5610123518866963 0 0 0
1017 4 27.347666706709997 11.277985191450576 -0.0024007132463331484 0 0 0
920 1 31.254476236240002 6.764718652009395 1.5610123518866987 0 0 0
918 4 33.207881001005 7.894588891130576 -0.0024007132463385547 0 0 0
924 1 35.161285765769996 6.764718652009395 1.5610123518866987 0 0 0
1023 1 33.207881001005 10.148114952329394 1.5610123518866985 0 0 0
1021 4 31.254476236240002 11.277985191450577 -0.0024007132463355362 0 0 0
1025 4 35.161285765769996 11.277985191450577 -0.002400713246335533 0 0 0
922 4 37.11469053053499 7.894588891130574 -0.0024007132463362817 0 0 0
928 1 39.068095295300004 6.764718652009397 1.5610123518866963 0 0 0
926 4 41.021500060065 7.894588891130576 -0.0024007132463386895 0 0 0
1027 1 37.11469053053499 10.148114952329395 1.5610123518866963 0 0 0
1031 1 41.021500060065 10.148114952329394 1.5610123518866987 0 0 0
1029 4 39.068095295300004 11.277985191450576 -0.002400713246333146 0 0 0
932 1 42.97490482483 6.764718652009396 1.5610123518866985 0 0 0
930 4 44.928309589594996 7.894588891130576 -0.0024007132463386934 0 0 0
936 1 46.88171435435999 6.764718652009397 1.5610123518866963 0 0 0
1035 1 44.928309589594996 10.148114952329394 1.5610123518866987 0 0 0
1033 4 42.97490482483 11.277985191450577 -0.0024007132463353996 0 0 0
1037 4 46.88171435435999 11.277985191450576 -0.002400713246333147 0 0 0
934 4 48.835119119125004 7.894588891130574 -0.0024007132463362817 0 0 0
836 1 50.78852388389 6.764718652009395 1.5610123518866987 -1 0 0
834 4 52.741928648655 7.894588891130575 -0.002400713246337471 -1 0 0
1039 1 48.835119119125004 10.148114952329395 1.5610123518866963 0 0 0
939 1 52.741928648655 10.148114952329394 1.5610123518866974 -1 0 0
937 4 50.78852388389 11.277985191450577 -0.0024007132463356035 -1 0 0
840 1 54.69533341342 6.764718652009396 1.5610123518866976 -1 0 0
838 4 56.648738178185 7.894588891130575 -0.002400713246337541 -1 0 0
844 1 58.60214294295 6.764718652009396 1.5610123518866976 -1 0 0
943 1 56.648738178185 10.148114952329394 1.5610123518866974 -1 0 0
941 4 54.69533341342 11.277985191450577 -0.0024007132463344048 -1 0 0
945 4 58.60214294295 11.277985191450577 -0.0024007132463344017 -1 0 0
842 4 60.555547707715 7.894588891130575 -0.0024007132463375407 -1 0 0
848 1 62.508952472480004 6.764718652009396 1.5610123518866974 -1 0 0
846 4 64.462357237245 7.894588891130576 -0.0024007132463387624 -1 0 0
947 1 60.555547707715 10.148114952329394 1.5610123518866974 -1 0 0
951 1 64.462357237245 10.148114952329394 1.5610123518866987 -1 0 0
949 4 62.508952472480004 11.277985191450577 -0.0024007132463343354 -1 0 0
852 1 66.41576200201 6.764718652009397 1.5610123518866963 -1 0 0
850 4 68.36916676677501 7.894588891130574 -0.0024007132463362813 -1 0 0
856 1 70.32257153154 6.764718652009395 1.5610123518866987 -1 0 0
955 1 68.36916676677501 10.148114952329395 1.5610123518866963 -1 0 0
953 4 66.41576200201 11.277985191450576 -0.0024007132463331467 -1 0 0
957 4 70.32257153154 11.277985191450577 -0.002400713246335535 -1 0 0
854 4 72.275976296305 7.894588891130576 -0.0024007132463385547 -1 0 0
860 1 74.22938106107 6.764718652009396 1.5610123518866985 -1 0 0
858 4 76.182785825835 7.894588891130576 -0.0024007132463386917 -1 0 0
959 1 72.275976296305 10.148114952329394 1.5610123518866985 -1 0 0
963 1 76.182785825835 10.148114952329394 1.5610123518866987 -1 0 0
961 4 74.22938106107 11.277985191450577 -0.0024007132463354 -1 0 0
864 1 78.1361905906 6.764718652009397 1.5610123518866963 -1 0 0
862 4 80.089595355365 7.894588891130574 -0.002400713246336284 -1 0 0
868 1 82.04300012013 6.764718652009395 1.561012351886699 -1 0 0
967 1 80.089595355365 10.148114952329395 1.5610123518866963 -1 0 0
965 4 78.1361905906 11.277985191450576 -0.0024007132463331493 -1 0 0
969 4 82.04300012013 11.277985191450577 -0.0024007132463356724 -1 0 0
866 4 83.996404884895 7.894588891130574 -0.0024007132463362835 -1 0 0
872 1 85.94980964966001 6.764718652009397 1.5610123518866963 -1 0 0
870 4 87.90321441442501 7.894588891130576 -0.0024007132463386917 -1 0 0
971 1 83.996404884895 10.148114952329395 1.5610123518866963 -1 0 0
975 1 87.90321441442501 10.148114952329394 1.5610123518866987 -1 0 0
973 4 85.94980964966001 11.277985191450576 -0.0024007132463331484 -1 0 0
876 1 89.85661917919 6.764718652009396 1.5610123518866985 -1 0 0
874 4 91.810023943955 7.894588891130576 -0.0024007132463385555 -1 0 0
880 1 93.76342870872 6.764718652009396 1.5610123518866985 -1 0 0
979 1 91.810023943955 10.148114952329394 1.5610123518866985 -1 0 0
977 4 89.85661917919 11.277985191450577 -0.0024007132463353996 -1 0 0
981 4 93.76342870872 11.277985191450577 -0.0024007132463353988 -1 0 0
878 4 95.716833473485 7.894588891130576 -0.0024007132463385534 -1 0 0
884 1 97.67023823825 6.764718652009395 1.5610123518866987 -1 0 0
882 4 99.62364300301499 7.894588891130574 -0.0024007132463362817 -1 0 0
983 1 95.716833473485 10.148114952329394 1.5610123518866985 -1 0 0
987 1 99.62364300301499 10.148114952329395 1.5610123518866963 -1 0 0
985 4 97.67023823825 11.277985191450577 -0.0024007132463355323 -1 0 0
992 1 0 13.531511252649398 1.561012351886698 0 0 0
996 1 3.9068095295299994 13.531511252649397 1.5610123518866992 0 0 0
990 4 1.9534047647649986 14.661381491770577 -0.0024007132463358858 0 0 0
994 4 5.860214294295 14.661381491770577 -0.0024007132463358194 0 0 0
1095 1 1.9534047647649986 16.914907552969396 1.5610123518866974 0 0 0
1099 1 5.860214294295 16.914907552969396 1.5610123518866972 0 0 0
1000 1 7.8136190590600005 13.531511252649397 1.561012351886699 0 0 0
1004 1 11.720428588589998 13.531511252649397 1.561012351886699 0 0 0
998 4 9.767023823825 14.661381491770577 -0.002400713246336969 0 0 0
1103 1 9.767023823825 16.914907552969396 1.5610123518866983 0 0 0
1008 1 15.627238118119998 13.531511252649397 1.5610123518867003 0 0 0
1002 4 13.673833353354999 14.661381491770577 -0.0024007132463357453 0 0 0
1006 4 17.580642882884998 14.661381491770575 -0.002400713246334673 0 0 0
1107 1 13.673833353354999 16.914907552969396 1.5610123518866972 0 0 0
1111 1 17.580642882884998 16.914907552969396 1.561012351886696 0 0 0
1012 1 19.534047647650002 13.531511252649398 1.5610123518866978 0 0 0
1016 1 23.44085717718 13.531511252649397 1.5610123518867 0 0 0
1010 4 21.487452412415003 14.661381491770577 -0.0024007132463369617 0 0 0
1115 1 21.487452412415003 16.914907552969396 1.5610123518866983 0 0 0
1020 1 27.347666706709997 13.531511252649398 1.5610123518866978 0 0 0
1014 4 25.394261941944997 14.661381491770577 -0.0024007132463369643 0 0 0
1018 4 29.301071471475 14.661381491770575 -0.002400713246334677 0 0 0
1119 1 25.394261941944997 16.914907552969396 1.5610123518866983 0 0 0
1123 1 29.301071471475 16.914907552969396 1.561012351886696 0 0 0
1024 1 31.254476236240002 13.531511252649397 1.5610123518867003 0 0 0
1028 1 35.161285765769996 13.531511252649397 1.5610123518867003 0 0 0
1022 4 33.207881001005 14.661381491770577 -0.002400713246336828 0 0 0
1127 1 33.207881001005 16.914907552969396 1.5610123518866983 0 0 0
1032 1 39.068095295300004 13.531511252649398 1.5610123518866978 0 0 0
1026 4 37.11469053053499 14.661381491770575 -0.0024007132463346745 0 0 0
1030 4 41.021500060065 14.661381491770577 -0.0024007132463369626 0 0 0
1131 1 37.11469053053499 16.914907552969396 1.561012351886696 0 0 0
1135 1 41.021500060065 16.914907552969396 1.5610123518866983 0 0 0
1036 1 42.97490482483 13.531511252649397 1.5610123518867 0 0 0
1040 1 46.88171435435999 13.531511252649398 1.5610123518866978 0 0 0
1034 4 44.928309589594996 14.661381491770577 -0.002400713246336965 0 0 0
1139 1 44.928309589594996 16.914907552969396 1.5610123518866983 0 0 0
940 1 50.78852388389 13.531511252649397 1.5610123518867003 -1 0 0
1038 4 48.835119119125004 14.661381491770575 -0.0024007132463346754 0 0 0
938 4 52.741928648655 14.661381491770577 -0.0024007132463357487 -1 0 0
1143 1 48.835119119125004 16.914907552969396 1.561012351886696 0 0 0
1043 1 52.741928648655 16.914907552969396 1.5610123518866972 -1 0 0
944 1 54.69533341342 13.531511252649397 1.5610123518866992 -1 0 0
948 1 58.60214294295 13.531511252649397 1.5610123518866992 -1 0 0
942 4 56.648738178185 14.661381491770577 -0.0024007132463358173 -1 0 0
1047 1 56.648738178185 16.914907552969396 1.5610123518866972 -1 0 0
952 1 62.508952472480004 13.531511252649397 1.561012351886699 -1 0 0
946 4 60.555547707715 14.661381491770577 -0.0024007132463358186 -1 0 0
950 4 64.462357237245 14.661381491770577 -0.002400713246337034 -1 0 0
1051 1 60.555547707715 16.914907552969396 1.5610123518866972 -1 0 0
1055 1 64.462357237245 16.914907552969396 1.5610123518866985 -1 0 0
956 1 66.41576200201 13.531511252649398 1.5610123518866978 -1 0 0
960 1 70.32257153154 13.531511252649397 1.5610123518867003 -1 0 0
954 4 68.36916676677501 14.661381491770575 -0.0024007132463346745 -1 0 0
1059 1 68.36916676677501 16.914907552969396 1.561012351886696 -1 0 0
964 1 74.22938106107 13.531511252649397 1.5610123518867 -1 0 0
958 4 72.275976296305 14.661381491770577 -0.002400713246336827 -1 0 0
962 4 76.182785825835 14.661381491770577 -0.002400713246336963 -1 0 0
1063 1 72.275976296305 16.914907552969396 1.5610123518866983 -1 0 0
1067 1 76.182785825835 16.914907552969396 1.5610123518866983 -1 0 0
968 1 78.1361905906 13.531511252649398 1.5610123518866978 -1 0 0
972 1 82.04300012013 13.531511252649397 1.5610123518867003 -1 0 0
966 4 80.089595355365 14.661381491770575 -0.0024007132463346767 -1 0 0
1071 1 80.089595355365 16.914907552969396 1.561012351886696 -1 0 0
976 1 85.94980964966001 13.531511252649398 1.5610123518866978 -1 0 0
970 4 83.996404884895 14.661381491770575 -0.002400713246334676 -1 0 0
974 4 87.90321441442501 14.661381491770577 -0.0024007132463369635 -1 0 0
1075 1 83.996404884895 16.914907552969396 1.561012351886696 -1 0 0
1079 1 87.90321441442501 16.914907552969396 1.5610123518866983 -1 0 0
980 1 89.85661917919 13.531511252649397 1.5610123518867 -1 0 0
984 1 93.76342870872 13.531511252649397 1.5610123518867 -1 0 0
978 4 91.810023943955 14.661381491770577 -0.0024007132463368277 -1 0 0
1083 1 91.810023943955 16.914907552969396 1.5610123518866983 -1 0 0
988 1 97.67023823825 13.531511252649397 1.5610123518867003 -1 0 0
982 4 95.716833473485 14.661381491770577 -0.0024007132463368256 -1 0 0
986 4 99.62364300301499 14.661381491770575 -0.002400713246334674 -1 0 0
1087 1 95.716833473485 16.914907552969396 1.5610123518866983 -1 0 0
1091 1 99.62364300301499 16.914907552969396 1.561012351886696 -1 0 0
1093 4 0 18.04477779209057 -0.002400713246337798 0 0 0
1097 4 3.9068095295299994 18.044777792090574 -0.002400713246338873 0 0 0
1096 1 0 20.29830385328939 1.561012351886696 0 0 0
1100 1 3.9068095295299994 20.29830385328939 1.5610123518866972 0 0 0
1094 4 1.9534047647649986 21.428174092410572 -0.0024007132463360575 0 0 0
1098 4 5.860214294295 21.428174092410572 -0.0024007132463359894 0 0 0
1199 1 1.9534047647649986 23.68170015360939 1.5610123518866976 0 0 0
1203 1 5.860214294295 23.68170015360939 1.5610123518866976 0 0 0
1101 4 7.8136190590600005 18.044777792090574 -0.0024007132463388006 0 0 0
1105 4 11.720428588589998 18.044777792090574 -0.002400713246338797 0 0 0
1104 1 7.8136190590600005 20.29830385328939 1.5610123518866972 0 0 0
1108 1 11.720428588589998 20.29830385328939 1.5610123518866972 0 0 0
1102 4 9.767023823825 21.428174092410572 -0.0024007132463371196 0 0 0
1207 1 9.767023823825 23.68170015360939 1.5610123518866987 0 0 0
1109 4 15.627238118119998 18.044777792090574 -0.002400713246340083 0 0 0
1112 1 15.627238118119998 20.29830385328939 1.5610123518866985 0 0 0
1106 4 13.673833353354999 21.428174092410572 -0.002400713246335918 0 0 0
1110 4 17.580642882884998 21.428174092410572 -0.0024007132463347313 0 0 0
1211 1 13.673833353354999 23.68170015360939 1.5610123518866976 0 0 0
1215 1 17.580642882884998 23.68170015360939 1.5610123518866963 0 0 0
1113 4 19.534047647650002 18.04477779209057 -0.0024007132463377268 0 0 0
1117 4 23.44085717718 18.044777792090574 -0.002400713246339878 0 0 0
1116 1 19.534047647650002 20.29830385328939 1.561012351886696 0 0 0
1120 1 23.44085717718 20.29830385328939 1.5610123518866983 0 0 0
1114 4 21.487452412415003 21.428174092410572 -0.0024007132463371183 0 0 0
1219 1 21.487452412415003 23.68170015360939 1.5610123518866987 0 0 0
1121 4 27.347666706709997 18.04477779209057 -0.00240071324633773 0 0 0
1124 1 27.347666706709997 20.29830385328939 1.561012351886696 0 0 0
1118 4 25.394261941944997 21.428174092410572 -0.00240071324633712 0 0 0
1122 4 29.301071471475 21.428174092410572 -0.002400713246334735 0 0 0
1223 1 25.394261941944997 23.68170015360939 1.5610123518866987 0 0 0
1227 1 29.301071471475 23.68170015360939 1.5610123518866963 0 0 0
1125 4 31.254476236240002 18.044777792090574 -0.0024007132463400153 0 0 0
1129 4 35.161285765769996 18.044777792090574 -0.002400713246340014 0 0 0
1128 1 31.254476236240002 20.29830385328939 1.5610123518866983 0 0 0
1132 1 35.161285765769996 20.29830385328939 1.5610123518866983 0 0 0
1126 4 33.207881001005 21.428174092410572 -0.0024007132463369834 0 0 0
1231 1 33.207881001005 23.68170015360939 1.5610123518866985 0 0 0
1133 4 39.068095295300004 18.04477779209057 -0.0024007132463377263 0 0 0
1136 1 39.068095295300004 20.29830385328939 1.561012351886696 0 0 0
1130 4 37.11469053053499 21.428174092410572 -0.0024007132463347318 0 0 0
1134 4 41.021500060065 21.428174092410572 -0.002400713246337119 0 0 0
1235 1 37.11469053053499 23.68170015360939 1.5610123518866963 0 0 0
1239 1 41.021500060065 23.68170015360939 1.5610123518866987 0 0 0
1137 4 42.97490482483 18.044777792090574 -0.0024007132463398782 0 0 0
1141 4 46.88171435435999 18.04477779209057 -0.002400713246337728 0 0 0
1140 1 42.97490482483 20.29830385328939 1.5610123518866983 0 0 0
1144 1 46.88171435435999 20.29830385328939 1.561012351886696 0 0 0
1138 4 44.928309589594996 21.428174092410572 -0.00240071324633712 0 0 0
1243 1 44.928309589594996 23.68170015360939 1.5610123518866987 0 0 0
1041 4 50.78852388389 18.044777792090574 -0.0024007132463400842 -1 0 0
1044 1 50.78852388389 20.29830385328939 1.5610123518866985 -1 0 0
1142 4 48.835119119125004 21.428174092410572 -0.0024007132463347326 0 0 0
1042 4 52.741928648655 21.428174092410572 -0.0024007132463359205 -1 0 0
1247 1 48.835119119125004 23.68170015360939 1.5610123518866963 0 0 0
1147 1 52.741928648655 23.68170015360939 1.5610123518866974 -1 0 0
1045 4 54.69533341342 18.044777792090574 -0.002400713246338871 -1 0 0
1049 4 58.60214294295 18.044777792090574 -0.002400713246338869 -1 0 0
1048 1 54.69533341342 20.29830385328939 1.5610123518866972 -1 0 0
1052 1 58.60214294295 20.29830385328939 1.5610123518866972 -1 0 0
1046 4 56.648738178185 21.428174092410572 -0.0024007132463359877 -1 0 0
1151 1 56.648738178185 23.68170015360939 1.5610123518866976 -1 0 0
1053 4 62.508952472480004 18.044777792090574 -0.0024007132463387997 -1 0 0
1056 1 62.508952472480004 20.29830385328939 1.5610123518866972 -1 0 0
1050 4 60.555547707715 21.428174092410572 -0.0024007132463359877 -1 0 0
1054 4 64.462357237245 21.428174092410572 -0.002400713246337189 -1 0 0
1155 1 60.555547707715 23.68170015360939 1.5610123518866976 -1 0 0
1159 1 64.462357237245 23.68170015360939 1.5610123518866987 -1 0 0
1057 4 66.41576200201 18.04477779209057 -0.002400713246337728 -1 0 0
1061 4 70.32257153154 18.044777792090574 -0.0024007132463400136 -1 0 0
1060 1 66.41576200201 20.29830385328939 1.561012351886696 -1 0 0
1064 1 70.32257153154 20.29830385328939 1.5610123518866983 -1 0 0
1058 4 68.36916676677501 21.428174092410572 -0.0024007132463347313 -1 0 0
1163 1 68.36916676677501 23.68170015360939 1.5610123518866963 -1 0 0
1065 4 74.22938106107 18.044777792090574 -0.002400713246339878 -1 0 0
1068 1 74.22938106107 20.29830385328939 1.5610123518866983 -1 0 0
1062 4 72.275976296305 21.428174092410572 -0.0024007132463369834 -1 0 0
1066 4 76.182785825835 21.428174092410572 -0.002400713246337121 -1 0 0
1167 1 72.275976296305 23.68170015360939 1.5610123518866985 -1 0 0
1171 1 76.182785825835 23.68170015360939 1.5610123518866987 -1 0 0
1069 4 78.1361905906 18.04477779209057 -0.0024007132463377302 -1 0 0
1073 4 82.04300012013 18.044777792090574 -0.0024007132463401506 -1 0 0
1072 1 78.1361905906 20.29830385328939 1.561012351886696 -1 0 0
1076 1 82.04300012013 20.29830385328939 1.5610123518866985 -1 0 0
1070 4 80.089595355365 21.428174092410572 -0.002400713246334734 -1 0 0
1175 1 80.089595355365 23.68170015360939 1.5610123518866963 -1 0 0
1077 4 85.94980964966001 18.04477779209057 -0.0024007132463377294 -1 0 0
1080 1 85.94980964966001 20.29830385328939 1.561012351886696 -1 0 0
1074 4 83.996404884895 21.428174092410572 -0.002400713246334733 -1 0 0
1078 4 87.90321441442501 21.428174092410572 -0.002400713246337121 -1 0 0
1179 1 83.996404884895 23.68170015360939 1.5610123518866963 -1 0 0
1183 1 87.90321441442501 23.68170015360939 1.5610123518866987 -1 0 0
1081 4 89.85661917919 18.044777792090574 -0.0024007132463398782 -1 0 0
1085 4 93.76342870872 18.044777792090574 -0.002400713246339878 -1 0 0
1084 1 89.85661917919 20.29830385328939 1.5610123518866983 -1 0 0
1088 1 93.76342870872 20.29830385328939 1.5610123518866983 -1 0 0
1082 4 91.810023943955 21.428174092410572 -0.002400713246336984 -1 0 0
1187 1 91.810023943955 23.68170015360939 1.5610123518866985 -1 0 0
1089 4 97.67023823825 18.044777792090574 -0.002400713246340012 -1 0 0
1092 1 97.67023823825 20.29830385328939 1.5610123518866983 -1 0 0
1086 4 95.716833473485 21.428174092410572 -0.0024007132463369804 -1 0 0
1090 4 99.62364300301499 21.428174092410572 -0.0024007132463347313 -1 0 0
1191 1 95.716833473485 23.68170015360939 1.5610123518866985 -1 0 0
1195 1 99.62364300301499 23.68170015360939 1.5610123518866963 -1 0 0
1197 4 0 24.811570392730573 -0.0024007132463348016 0 0 0
1201 4 3.9068095295299994 24.811570392730573 -0.002400713246335991 0 0 0
1200 1 0 27.065096453929392 1.5610123518866963 0 0 0
1198 4 1.9534047647649986 28.194966693050574 -0.0024007132463360567 0 0 0
1204 1 3.9068095295299994 27.065096453929392 1.5610123518866976 0 0 0
1202 4 5.860214294295 28.194966693050574 -0.0024007132463359903 0 0 0
1205 4 7.8136190590600005 24.811570392730573 -0.002400713246335922 0 0 0
1209 4 11.720428588589998 24.811570392730573 -0.00240071324633592 0 0 0
1208 1 7.8136190590600005 27.065096453929392 1.5610123518866974 0 0 0
1206 4 9.767023823825 28.194966693050574 -0.0024007132463371196 0 0 0
1212 1 11.720428588589998 27.065096453929392 1.5610123518866974 0 0 0
1213 4 15.627238118119998 24.811570392730573 -0.0024007132463371873 0 0 0
1210 4 13.673833353354999 28.194966693050574 -0.002400713246335918 0 0 0
1216 1 15.627238118119998 27.065096453929392 1.5610123518866987 0 0 0
1214 4 17.580642882884998 28.194966693050574 -0.0024007132463347313 0 0 0
1217 4 19.534047647650002 24.811570392730573 -0.002400713246334732 0 0 0
1221 4 23.44085717718 24.811570392730573 -0.002400713246336984 0 0 0
1220 1 19.534047647650002 27.065096453929392 1.5610123518866963 0 0 0
1218 4 21.487452412415003 28.194966693050574 -0.0024007132463371183 0 0 0
1224 1 23.44085717718 27.065096453929392 1.5610123518866985 0 0 0
1225 4 27.347666706709997 24.811570392730573 -0.0024007132463347352 0 0 0
1222 4 25.394261941944997 28.194966693050574 -0.00240071324633712 0 0 0
1228 1 27.347666706709997 27.065096453929392 1.5610123518866963 0 0 0
1226 4 29.301071471475 28.194966693050574 -0.0024007132463347344 0 0 0
1229 4 31.254476236240002 24.811570392730573 -0.0024007132463371218 0 0 0
1233 4 35.161285765769996 24.811570392730573 -0.0024007132463371196 0 0 0
1232 1 31.254476236240002 27.065096453929392 1.5610123518866987 0 0 0
1230 4 33.207881001005 28.194966693050574 -0.0024007132463369834 0 0 0
1236 1 35.161285765769996 27.065096453929392 1.5610123518866987 0 0 0
1237 4 39.068095295300004 24.811570392730573 -0.002400713246334732 0 0 0
1234 4 37.11469053053499 28.194966693050574 -0.0024007132463347318 0 0 0
1240 1 39.068095295300004 27.065096453929392 1.5610123518866963 0 0 0
1238 4 41.021500060065 28.194966693050574 -0.0024007132463371183 0 0 0
1241 4 42.97490482483 24.811570392730573 -0.0024007132463369843 0 0 0
1245 4 46.88171435435999 24.811570392730573 -0.002400713246334733 0 0 0
1244 1 42.97490482483 27.065096453929392 1.5610123518866985 0 0 0
1242 4 44.928309589594996 28.194966693050574 -0.00240071324633712 0 0 0
1248 1 46.88171435435999 27.065096453929392 1.5610123518866963 0 0 0
1145 4 50.78852388389 24.811570392730573 -0.002400713246337188 -1 0 0
1246 4 48.835119119125004 28.194966693050574 -0.0024007132463347326 0 0 0
1148 1 50.78852388389 27.065096453929392 1.5610123518866987 -1 0 0
1146 4 52.741928648655 28.194966693050574 -0.0024007132463359205 -1 0 0
1149 4 54.69533341342 24.811570392730573 -0.00240071324633599 -1 0 0
1153 4 58.60214294295 24.811570392730573 -0.002400713246335988 -1 0 0
1152 1 54.69533341342 27.065096453929392 1.5610123518866976 -1 0 0
1150 4 56.648738178185 28.194966693050574 -0.0024007132463359877 -1 0 0
1156 1 58.60214294295 27.065096453929392 1.5610123518866976 -1 0 0
1157 4 62.508952472480004 24.811570392730573 -0.002400713246335921 -1 0 0
1154 4 60.555547707715 28.194966693050574 -0.0024007132463359877 -1 0 0
1160 1 62.508952472480004 27.065096453929392 1.5610123518866974 -1 0 0
1158 4 64.462357237245 28.194966693050574 -0.002400713246337189 -1 0 0
1161 4 66.41576200201 24.811570392730573 -0.002400713246334733 -1 0 0
1165 4 70.32257153154 24.811570392730573 -0.002400713246337119 -1 0 0
1164 1 66.41576200201 27.065096453929392 1.5610123518866963 -1 0 0
1162 4 68.36916676677501 28.194966693050574 -0.002400713246334732 -1 0 0
1168 1 70.32257153154 27.065096453929392 1.5610123518866987 -1 0 0
1169 4 74.22938106107 24.811570392730573 -0.002400713246336984 -1 0 0
1166 4 72.275976296305 28.194966693050574 -0.0024007132463369834 -1 0 0
1172 1 74.22938106107 27.065096453929392 1.5610123518866985 -1 0 0
1170 4 76.182785825835 28.194966693050574 -0.00240071324633712 -1 0 0
1173 4 78.1361905906 24.811570392730573 -0.0024007132463347352 -1 0 0
1177 4 82.04300012013 24.811570392730573 -0.0024007132463372575 -1 0 0
1176 1 78.1361905906 27.065096453929392 1.5610123518866963 -1 0 0
1174 4 80.089595355365 28.194966693050574 -0.002400713246334734 -1 0 0
1180 1 82.04300012013 27.065096453929392 1.561012351886699 -1 0 0
1181 4 85.94980964966001 24.811570392730573 -0.002400713246334734 -1 0 0