LAMMPS data file via write_data, version 29 Aug 2024, timestep = 2, units = metal

8874 atoms
9 atom types

0 99.0321 xlo xhi
0 100.551265147022 ylo yhi
-50 122.00170038166446 zlo zhi

Masses

1 97.90721000000001
2 97.90721000000001
3 97.90721000000001
4 127.6
5 127.6
6 127.6
7 127.6
8 127.6
9 127.6

Atoms # atomic

1478 5 1.4809005288802484e-05 1.9715950636469632 0.0015193855232132091 0 0 0
1484 5 3.414914809005291 1.9715950636469637 0.001519385523214545 0 0 0
1657 5 1.7074648090052895 4.928985215029965 0.0015193855232137506 0 0 0
1663 5 5.122364809005288 4.928985215029965 0.0015193855232147188 0 0 0
1490 5 6.829814809005289 1.9715950636469635 0.0015193855232139663 0 0 0
1496 5 10.24471480900529 1.9715950636469635 0.001519385523214015 0 0 0
1669 5 8.53726480900529 4.928985215029965 0.0015193855232136684 0 0 0
1502 5 13.659614809005287 1.971595063646964 0.001519385523214796 0 0 0
1508 5 17.074514809005287 1.9715950636469635 0.0015193855232140533 0 0 0
1675 5 11.952164809005291 4.928985215029965 0.0015193855232147867 0 0 0
1681 5 15.367064809005289 4.928985215029965 0.001519385523214722 0 0 0
1514 5 20.489414809005286 1.9715950636469632 0.001519385523213563 0 0 0
1687 5 18.78196480900529 4.928985215029965 0.001519385523213708 0 0 0
1693 5 22.19686480900529 4.928985215029965 0.0015193855232142196 0 0 0
1520 5 23.90431480900529 1.9715950636469637 0.0015193855232149807 0 0 0
1526 5 27.31921480900529 1.971595063646963 0.0015193855232135684 0 0 0
1699 5 25.611764809005287 4.928985215029965 0.0015193855232144503 0 0 0
1705 5 29.026664809005286 4.928985215029965 0.0015193855232136174 0 0 0
1532 5 30.73411480900529 1.9715950636469637 0.0015193855232142287 0 0 0
1538 5 34.14901480900529 1.9715950636469637 0.0015193855232142417 0 0 0
1711 5 32.441564809005285 4.928985215029965 0.0015193855232150956 0 0 0
1544 5 37.56391480900528 1.9715950636469635 0.0015193855232136834 0 0 0
1717 5 35.85646480900529 4.928985215029965 0.0015193855232135149 0 0 0
1723 5 39.27136480900529 4.928985215029965 0.0015193855232143497 0 0 0
1550 5 40.978814809005286 1.9715950636469635 0.001519385523214998 0 0 0
1556 5 44.39371480900529 1.971595063646963 0.0015193855232134672 0 0 0
1729 5 42.68626480900529 4.928985215029965 0.0015193855232143354 0 0 0
1735 5 46.10116480900528 4.928985215029965 0.0015193855232135253 0 0 0
1562 5 47.80861480900529 1.9715950636469635 0.001519385523213906 0 0 0
1394 5 51.22351480900529 1.9715950636469637 0.0015193855232142203 -1 0 0
1567 5 49.516064809005286 4.928985215029965 0.0015193855232143354 -1 0 0
1400 5 54.63841480900528 1.9715950636469637 0.0015193855232147153 -1 0 0
1406 5 58.053314809005286 1.9715950636469635 0.0015193855232138198 -1 0 0
1573 5 52.93096480900529 4.928985215029965 0.0015193855232148398 -1 0 0
1579 5 56.345864809005285 4.928985215029965 0.0015193855232139243 -1 0 0
1412 5 61.46821480900528 1.9715950636469637 0.001519385523214535 -1 0 0
1585 5 59.76076480900529 4.928985215029965 0.0015193855232148621 -1 0 0
1591 5 63.17566480900528 4.928985215029966 0.0015193855232137786 -1 0 0
1418 5 64.88311480900529 1.9715950636469628 0.0015193855232127507 -1 0 0
1424 5 68.2980148090053 1.9715950636469635 0.0015193855232143183 -1 0 0
1597 5 66.59056480900529 4.928985215029965 0.0015193855232137695 -1 0 0
1430 5 71.7129148090053 1.9715950636469641 0.0015193855232143636 -1 0 0
1436 5 75.12781480900529 1.9715950636469637 0.0015193855232142287 -1 0 0
1603 5 70.00546480900529 4.928985215029965 0.0015193855232138987 -1 0 0
1609 5 73.42036480900529 4.9289852150299645 0.0015193855232139833 -1 0 0
1442 5 78.54271480900529 1.9715950636469635 0.0015193855232137792 -1 0 0
1615 5 76.8352648090053 4.928985215029965 0.001519385523214285 -1 0 0
1621 5 80.2501648090053 4.928985215029966 0.001519385523214448 -1 0 0
1448 5 81.95761480900529 1.9715950636469626 0.0015193855232138878 -1 0 0
1454 5 85.3725148090053 1.9715950636469641 0.0015193855232149907 -1 0 0
1627 5 83.66506480900529 4.928985215029965 0.0015193855232142881 -1 0 0
1633 5 87.07996480900529 4.928985215029965 0.0015193855232151143 -1 0 0
1460 5 88.78741480900528 1.9715950636469641 0.0015193855232143105 -1 0 0
1466 5 92.20231480900529 1.971595063646963 0.0015193855232133917 -1 0 0
1639 5 90.49486480900529 4.9289852150299645 0.0015193855232126744 -1 0 0
1472 5 95.61721480900529 1.9715950636469632 0.0015193855232150198 -1 0 0
1645 5 93.9097648090053 4.928985215029966 0.0015193855232151308 -1 0 0
1651 5 97.32466480900528 4.928985215029965 0.0015193855232150564 -1 0 0
1652 5 1.480900528880033e-05 7.886375366412965 0.0015193855232140067 0 0 0
1658 5 3.414914809005291 7.886375366412966 0.001519385523215277 0 0 0
1831 5 1.7074648090052895 10.843765517795964 0.0015193855232140364 0 0 0
1837 5 5.122364809005288 10.843765517795964 0.0015193855232149137 0 0 0
1664 5 6.829814809005289 7.886375366412966 0.0015193855232146494 0 0 0
1670 5 10.24471480900529 7.886375366412966 0.001519385523214682 0 0 0
1843 5 8.53726480900529 10.843765517795964 0.0015193855232139824 0 0 0
1676 5 13.659614809005287 7.886375366412966 0.001519385523215543 0 0 0
1682 5 17.074514809005287 7.886375366412966 0.0015193855232147574 0 0 0
1849 5 11.952164809005291 10.843765517795964 0.0015193855232149907 0 0 0
1855 5 15.367064809005289 10.843765517795964 0.0015193855232150122 0 0 0
1688 5 20.489414809005286 7.886375366412965 0.0015193855232141988 0 0 0
1861 5 18.78196480900529 10.843765517795964 0.00151938552321395 0 0 0
1867 5 22.19686480900529 10.843765517795964 0.0015193855232144913 0 0 0
1694 5 23.90431480900529 7.886375366412966 0.0015193855232155979 0 0 0
1700 5 27.31921480900529 7.886375366412965 0.0015193855232141847 0 0 0
1873 5 25.611764809005287 10.843765517795964 0.0015193855232147186 0 0 0
1879 5 29.026664809005286 10.843765517795964 0.0015193855232138692 0 0 0
1706 5 30.73411480900529 7.886375366412966 0.001519385523215045 0 0 0
1712 5 34.14901480900529 7.886375366412966 0.001519385523215044 0 0 0
1885 5 32.441564809005285 10.843765517795964 0.0015193855232154057 0 0 0
1718 5 37.56391480900528 7.886375366412965 0.001519385523214328 0 0 0
1891 5 35.85646480900529 10.843765517795964 0.0015193855232137534 0 0 0
1897 5 39.27136480900529 10.843765517795964 0.0015193855232146247 0 0 0
1724 5 40.978814809005286 7.886375366412965 0.0015193855232156122 0 0 0
1730 5 44.39371480900529 7.886375366412965 0.001519385523214083 0 0 0
1903 5 42.68626480900529 10.843765517795964 0.0015193855232146297 0 0 0
1909 5 46.10116480900528 10.843765517795964 0.0015193855232137744 0 0 0
1736 5 47.80861480900529 7.886375366412966 0.0015193855232146026 0 0 0
1568 5 51.22351480900529 7.886375366412966 0.0015193855232148923 -1 0 0
1741 5 49.516064809005286 10.843765517795964 0.0015193855232147023 -1 0 0
1574 5 54.63841480900528 7.886375366412966 0.0015193855232154055 -1 0 0
1580 5 58.053314809005286 7.886375366412966 0.0015193855232145182 -1 0 0
1747 5 52.93096480900529 10.843765517795964 0.001519385523215035 -1 0 0
1753 5 56.345864809005285 10.843765517795964 0.0015193855232141552 -1 0 0
1586 5 61.46821480900528 7.886375366412966 0.0015193855232152444 -1 0 0
1759 5 59.76076480900529 10.843765517795964 0.0015193855232150599 -1 0 0
1765 5 63.17566480900528 10.843765517795966 0.0015193855232140535 -1 0 0
1592 5 64.88311480900529 7.886375366412965 0.0015193855232135422 -1 0 0
1598 5 68.2980148090053 7.886375366412966 0.0015193855232149627 -1 0 0
1771 5 66.59056480900529 10.843765517795964 0.0015193855232140208 -1 0 0
1604 5 71.7129148090053 7.886375366412966 0.001519385523215005 -1 0 0
1610 5 75.12781480900529 7.886375366412966 0.0015193855232150536 -1 0 0
1777 5 70.00546480900529 10.843765517795964 0.0015193855232141574 -1 0 0
1783 5 73.42036480900529 10.843765517795964 0.001519385523214212 -1 0 0
1616 5 78.54271480900529 7.886375366412966 0.0015193855232145822 -1 0 0
1789 5 76.8352648090053 10.843765517795964 0.001519385523214608 -1 0 0
1795 5 80.2501648090053 10.843765517795966 0.0015193855232146832 -1 0 0
1622 5 81.95761480900529 7.886375366412964 0.0015193855232145232 -1 0 0
1628 5 85.3725148090053 7.886375366412966 0.0015193855232157791 -1 0 0
1801 5 83.66506480900529 10.843765517795964 0.001519385523214493 -1 0 0
1807 5 87.07996480900529 10.843765517795966 0.0015193855232153713 -1 0 0
1634 5 88.78741480900528 7.886375366412966 0.0015193855232150913 -1 0 0
1640 5 92.20231480900529 7.886375366412965 0.0015193855232141457 -1 0 0
1813 5 90.49486480900529 10.843765517795964 0.0015193855232128516 -1 0 0
1646 5 95.61721480900529 7.886375366412965 0.0015193855232158047 -1 0 0
1819 5 93.9097648090053 10.843765517795966 0.0015193855232153906 -1 0 0
1825 5 97.32466480900528 10.843765517795966 0.0015193855232152262 -1 0 0
1826 5 1.4809005288780115e-05 13.801155669178968 0.0015193855232131744 0 0 0
1832 5 3.414914809005291 13.801155669178968 0.0015193855232144878 0 0 0
2005 5 1.7074648090052895 16.758545820561967 0.0015193855232143224 0 0 0
2011 5 5.122364809005288 16.758545820561967 0.0015193855232151436 0 0 0
1838 5 6.829814809005289 13.801155669178968 0.0015193855232138436 0 0 0
1844 5 10.24471480900529 13.801155669178968 0.0015193855232138922 0 0 0
2017 5 8.53726480900529 16.758545820561967 0.0015193855232141177 0 0 0
1850 5 13.659614809005287 13.801155669178968 0.0015193855232148745 0 0 0
1856 5 17.074514809005287 13.801155669178968 0.00151938552321394 0 0 0
2023 5 11.952164809005291 16.758545820561967 0.001519385523215218 0 0 0
2029 5 15.367064809005289 16.758545820561967 0.0015193855232151488 0 0 0
1862 5 20.489414809005286 13.801155669178968 0.0015193855232135131 0 0 0
2035 5 18.78196480900529 16.758545820561967 0.0015193855232142257 0 0 0
2041 5 22.19686480900529 16.758545820561967 0.001519385523214758 0 0 0
1868 5 23.90431480900529 13.801155669178968 0.001519385523214898 0 0 0
1874 5 27.31921480900529 13.801155669178968 0.0015193855232135019 0 0 0
2047 5 25.611764809005287 16.758545820561967 0.0015193855232149853 0 0 0
2053 5 29.026664809005286 16.758545820561967 0.0015193855232141411 0 0 0
1880 5 30.73411480900529 13.801155669178968 0.0015193855232142105 0 0 0
1886 5 34.14901480900529 13.801155669178968 0.0015193855232142088 0 0 0
2059 5 32.441564809005285 16.758545820561967 0.0015193855232156534 0 0 0
1892 5 37.56391480900528 13.801155669178968 0.0015193855232136298 0 0 0
2065 5 35.85646480900529 16.758545820561967 0.00151938552321402 0 0 0
2071 5 39.27136480900529 16.758545820561967 0.0015193855232148818 0 0 0
1898 5 40.978814809005286 13.801155669178968 0.0015193855232149048 0 0 0
1904 5 44.39371480900529 13.801155669178968 0.001519385523213391 0 0 0
2077 5 42.68626480900529 16.758545820561967 0.001519385523214862 0 0 0
2083 5 46.10116480900528 16.758545820561967 0.0015193855232140587 0 0 0
1910 5 47.80861480900529 13.801155669178968 0.0015193855232137961 0 0 0
1742 5 51.22351480900529 13.801155669178968 0.001519385523214224 -1 0 0
1915 5 49.516064809005286 16.758545820561967 0.00151938552321492 -1 0 0
1748 5 54.63841480900528 13.801155669178968 0.0015193855232146542 -1 0 0
1754 5 58.053314809005286 13.801155669178968 0.001519385523213738 -1 0 0
1921 5 52.93096480900529 16.758545820561967 0.0015193855232152886 -1 0 0
1927 5 56.345864809005285 16.758545820561967 0.0015193855232143987 -1 0 0
1760 5 61.46821480900528 13.801155669178968 0.0015193855232144737 -1 0 0
1933 5 59.76076480900529 16.758545820561967 0.001519385523215305 -1 0 0
1939 5 63.17566480900528 16.75854582056197 0.001519385523214338 -1 0 0
1766 5 64.88311480900529 13.801155669178968 0.001519385523212761 -1 0 0
1772 5 68.2980148090053 13.801155669178968 0.001519385523214249 -1 0 0
1945 5 66.59056480900529 16.758545820561967 0.0015193855232141988 -1 0 0
1778 5 71.7129148090053 13.801155669178968 0.0015193855232143098 -1 0 0
1784 5 75.12781480900529 13.801155669178968 0.00151938552321421 -1 0 0
1951 5 70.00546480900529 16.758545820561967 0.0015193855232144273 -1 0 0
1957 5 73.42036480900529 16.758545820561967 0.001519385523214488 -1 0 0
1790 5 78.54271480900529 13.801155669178968 0.001519385523213748 -1 0 0
1963 5 76.8352648090053 16.758545820561967 0.001519385523214836 -1 0 0
1969 5 80.2501648090053 16.75854582056197 0.0015193855232149684 -1 0 0
1796 5 81.95761480900529 13.801155669178966 0.0015193855232138152 -1 0 0
1802 5 85.3725148090053 13.80115566917897 0.0015193855232150419 -1 0 0
1975 5 83.66506480900529 16.758545820561967 0.0015193855232148834 -1 0 0
1981 5 87.07996480900529 16.758545820561967 0.0015193855232157054 -1 0 0
1808 5 88.78741480900528 13.801155669178968 0.0015193855232143551 -1 0 0
1814 5 92.20231480900529 13.801155669178968 0.0015193855232134255 -1 0 0
1987 5 90.49486480900529 16.758545820561967 0.0015193855232132137 -1 0 0
1820 5 95.61721480900529 13.801155669178968 0.001519385523215077 -1 0 0
1993 5 93.9097648090053 16.758545820561967 0.0015193855232157093 -1 0 0
1999 5 97.32466480900528 16.75854582056197 0.0015193855232155198 -1 0 0
2000 5 1.4809005288799888e-05 19.715935971944965 0.0015193855232142398 0 0 0
2006 5 3.414914809005291 19.715935971944965 0.0015193855232156447 0 0 0
2179 5 1.7074648090052895 22.673326123327968 0.0015193855232134772 0 0 0
2185 5 5.122364809005288 22.673326123327968 0.001519385523214318 0 0 0
2012 5 6.829814809005289 19.715935971944965 0.0015193855232150306 0 0 0
2018 5 10.24471480900529 19.715935971944965 0.0015193855232150694 0 0 0
2191 5 8.53726480900529 22.673326123327968 0.001519385523213363 0 0 0
2024 5 13.659614809005287 19.715935971944965 0.0015193855232159047 0 0 0
2030 5 17.074514809005287 19.715935971944965 0.0015193855232151147 0 0 0
2197 5 11.952164809005291 22.673326123327968 0.001519385523214408 0 0 0
2203 5 15.367064809005289 22.673326123327968 0.0015193855232143983 0 0 0
2036 5 20.489414809005286 19.715935971944965 0.0015193855232145614 0 0 0
2209 5 18.78196480900529 22.673326123327968 0.0015193855232134412 0 0 0
2215 5 22.19686480900529 22.673326123327968 0.0015193855232139622 0 0 0
2042 5 23.90431480900529 19.715935971944965 0.0015193855232159188 0 0 0
2048 5 27.31921480900529 19.715935971944965 0.0015193855232145592 0 0 0
2221 5 25.611764809005287 22.673326123327968 0.0015193855232142125 0 0 0
2227 5 29.026664809005286 22.673326123327968 0.0015193855232133822 0 0 0
2054 5 30.73411480900529 19.715935971944965 0.0015193855232152691 0 0 0
2060 5 34.14901480900529 19.715935971944965 0.0015193855232152674 0 0 0
2233 5 32.441564809005285 22.673326123327968 0.0015193855232148881 0 0 0
2066 5 37.56391480900528 19.715935971944965 0.0015193855232146776 0 0 0
2239 5 35.85646480900529 22.673326123327968 0.0015193855232132672 0 0 0
2245 5 39.27136480900529 22.673326123327968 0.0015193855232140893 0 0 0
2072 5 40.978814809005286 19.715935971944965 0.0015193855232159164 0 0 0
2078 5 44.39371480900529 19.715935971944965 0.0015193855232144486 0 0 0
2251 5 42.68626480900529 22.673326123327968 0.0015193855232140806 0 0 0
2257 5 46.10116480900528 22.673326123327968 0.0015193855232132918 0 0 0
2084 5 47.80861480900529 19.715935971944965 0.0015193855232149768 0 0 0
1916 5 51.22351480900529 19.715935971944965 0.0015193855232152648 -1 0 0
2089 5 49.516064809005286 22.673326123327968 0.0015193855232141056 -1 0 0
1922 5 54.63841480900528 19.715935971944965 0.0015193855232157815 -1 0 0
1928 5 58.053314809005286 19.715935971944965 0.0015193855232149096 -1 0 0
2095 5 52.93096480900529 22.673326123327968 0.0015193855232144547 -1 0 0
2101 5 56.345864809005285 22.673326123327968 0.001519385523213565 -1 0 0
1934 5 61.46821480900528 19.715935971944965 0.0015193855232156204 -1 0 0
2107 5 59.76076480900529 22.673326123327968 0.0015193855232144742 -1 0 0
2113 5 63.17566480900528 22.673326123327968 0.0015193855232134902 -1 0 0
1940 5 64.88311480900529 19.715935971944965 0.0015193855232137944 -1 0 0
1946 5 68.2980148090053 19.715935971944965 0.0015193855232152641 -1 0 0
2119 5 66.59056480900529 22.673326123327968 0.0015193855232133347 -1 0 0
1952 5 71.7129148090053 19.715935971944965 0.001519385523215361 -1 0 0
1958 5 75.12781480900529 19.715935971944965 0.0015193855232152722 -1 0 0
2125 5 70.00546480900529 22.673326123327968 0.0015193855232136157 -1 0 0
2131 5 73.42036480900529 22.673326123327968 0.0015193855232137161 -1 0 0
1964 5 78.54271480900529 19.715935971944965 0.0015193855232148133 -1 0 0
2137 5 76.8352648090053 22.673326123327968 0.0015193855232140724 -1 0 0
2143 5 80.2501648090053 22.67332612332797 0.001519385523214183 -1 0 0
1970 5 81.95761480900529 19.715935971944962 0.0015193855232148888 -1 0 0
1976 5 85.3725148090053 19.715935971944965 0.0015193855232160398 -1 0 0
2149 5 83.66506480900529 22.673326123327968 0.0015193855232140184 -1 0 0
2155 5 87.07996480900529 22.673326123327968 0.0015193855232149317 -1 0 0
1982 5 88.78741480900528 19.715935971944965 0.0015193855232154304 -1 0 0
1988 5 92.20231480900529 19.715935971944965 0.001519385523214497 -1 0 0
2161 5 90.49486480900529 22.673326123327964 0.001519385523212403 -1 0 0
1994 5 95.61721480900529 19.715935971944962 0.0015193855232160619 -1 0 0
2167 5 93.9097648090053 22.673326123327968 0.0015193855232149356 -1 0 0
2173 5 97.32466480900528 22.673326123327968 0.0015193855232145939 -1 0 0
2174 5 1.4809005288809734e-05 25.630716274710966 0.0015193855232139316 0 0 0
2180 5 3.414914809005291 25.630716274710966 0.0015193855232152867 0 0 0
2353 5 1.7074648090052895 28.588106426093965 0.001519385523214691 0 0 0
2359 5 5.122364809005288 28.588106426093965 0.0015193855232156547 0 0 0
2186 5 6.829814809005289 25.630716274710966 0.0015193855232145874 0 0 0
2192 5 10.24471480900529 25.630716274710966 0.0015193855232146513 0 0 0
2365 5 8.53726480900529 28.588106426093965 0.001519385523214606 0 0 0
2198 5 13.659614809005287 25.630716274710966 0.0015193855232156523 0 0 0
2204 5 17.074514809005287 25.630716274710966 0.001519385523214728 0 0 0
2371 5 11.952164809005291 28.588106426093965 0.0015193855232157301 0 0 0
2377 5 15.367064809005289 28.588106426093965 0.0015193855232156497 0 0 0
2210 5 20.489414809005286 25.630716274710966 0.0015193855232143011 0 0 0
2383 5 18.78196480900529 28.588106426093965 0.001519385523214645 0 0 0
2389 5 22.19686480900529 28.588106426093965 0.001519385523215153 0 0 0
2216 5 23.90431480900529 25.630716274710966 0.0015193855232156757 0 0 0
2222 5 27.31921480900529 25.630716274710966 0.0015193855232142864 0 0 0
2395 5 25.611764809005287 28.588106426093965 0.0015193855232154064 0 0 0
2401 5 29.026664809005286 28.588106426093965 0.001519385523214551 0 0 0
2228 5 30.73411480900529 25.630716274710966 0.0015193855232150048 0 0 0
2234 5 34.14901480900529 25.630716274710966 0.0015193855232150078 0 0 0
2407 5 32.441564809005285 28.588106426093965 0.0015193855232160328 0 0 0
2240 5 37.56391480900528 25.630716274710966 0.0015193855232144217 0 0 0
2413 5 35.85646480900529 28.588106426093965 0.0015193855232144393 0 0 0
2419 5 39.27136480900529 28.588106426093965 0.0015193855232152893 0 0 0
2246 5 40.978814809005286 25.630716274710966 0.0015193855232156787 0 0 0
2252 5 44.39371480900529 25.630716274710966 0.0015193855232141817 0 0 0
2425 5 42.68626480900529 28.588106426093965 0.001519385523215268 0 0 0
2431 5 46.10116480900528 28.588106426093965 0.0015193855232144803 0 0 0
2258 5 47.80861480900529 25.630716274710966 0.0015193855232145895 0 0 0
2090 5 51.22351480900529 25.630716274710966 0.0015193855232149677 -1 0 0
2263 5 49.516064809005286 28.588106426093965 0.0015193855232153186 -1 0 0
2096 5 54.63841480900528 25.630716274710966 0.0015193855232154595 -1 0 0
2102 5 58.053314809005286 25.630716274710966 0.0015193855232145037 -1 0 0
2269 5 52.93096480900529 28.588106426093965 0.0015193855232157622 -1 0 0
2275 5 56.345864809005285 28.588106426093965 0.0015193855232149094 -1 0 0
2108 5 61.46821480900528 25.630716274710966 0.0015193855232152821 -1 0 0
2281 5 59.76076480900529 28.588106426093965 0.0015193855232158002 -1 0 0
2287 5 63.17566480900528 28.588106426093965 0.001519385523214698 -1 0 0
2114 5 64.88311480900529 25.630716274710966 0.0015193855232134934 -1 0 0
2120 5 68.2980148090053 25.630716274710966 0.0015193855232150096 -1 0 0
2293 5 66.59056480900529 28.588106426093965 0.0015193855232147162 -1 0 0
2126 5 71.7129148090053 25.63071627471097 0.0015193855232151013 -1 0 0
2132 5 75.12781480900529 25.630716274710966 0.0015193855232150104 -1 0 0
2299 5 70.00546480900529 28.588106426093965 0.0015193855232148285 -1 0 0
2305 5 73.42036480900529 28.58810642609396 0.0015193855232148949 -1 0 0
2138 5 78.54271480900529 25.630716274710966 0.0015193855232145583 -1 0 0
2311 5 76.8352648090053 28.588106426093965 0.0015193855232152325 -1 0 0
2317 5 80.2501648090053 28.588106426093965 0.0015193855232153615 -1 0 0
2144 5 81.95761480900529 25.630716274710966 0.0015193855232146219 -1 0 0
2150 5 85.3725148090053 25.630716274710966 0.0015193855232157284 -1 0 0
2323 5 83.66506480900529 28.588106426093965 0.001519385523215215 -1 0 0
2329 5 87.07996480900529 28.58810642609396 0.001519385523216068 -1 0 0
2156 5 88.78741480900528 25.63071627471097 0.0015193855232149838 -1 0 0
2162 5 92.20231480900529 25.630716274710966 0.0015193855232140433 -1 0 0
2335 5 90.49486480900529 28.588106426093965 0.001519385523213593 -1 0 0
2168 5 95.61721480900529 25.630716274710966 0.001519385523215757 -1 0 0
2341 5 93.9097648090053 28.588106426093965 0.0015193855232160875 -1 0 0
2347 5 97.32466480900528 28.588106426093965 0.0015193855232159728 -1 0 0
2348 5 1.4809005288849169e-05 31.545496577476968 0.0015193855232130055 0 0 0
2354 5 3.414914809005291 31.545496577476968 0.0015193855232143155 0 0 0
2527 5 1.7074648090052895 34.50288672885997 0.001519385523214528 0 0 0
2533 5 5.122364809005288 34.50288672885997 0.0015193855232154578 0 0 0
2360 5 6.829814809005289 31.545496577476968 0.0015193855232136706 0 0 0
2366 5 10.24471480900529 31.545496577476968 0.0015193855232137066 0 0 0
2539 5 8.53726480900529 34.50288672885997 0.0015193855232143597 0 0 0
2372 5 13.659614809005287 31.545496577476968 0.0015193855232147372 0 0 0
2378 5 17.074514809005287 31.545496577476968 0.0015193855232138124 0 0 0
2545 5 11.952164809005291 34.50288672885997 0.0015193855232155022 0 0 0
2551 5 15.367064809005289 34.50288672885997 0.0015193855232154335 0 0 0
2384 5 20.489414809005286 31.545496577476968 0.0015193855232133887 0 0 0
2557 5 18.78196480900529 34.50288672885997 0.0015193855232144954 0 0 0
2563 5 22.19686480900529 34.50288672885997 0.0015193855232150414 0 0 0
2390 5 23.90431480900529 31.545496577476968 0.0015193855232147745 0 0 0
2396 5 27.31921480900529 31.545496577476968 0.0015193855232133807 0 0 0
2569 5 25.611764809005287 34.50288672885997 0.001519385523215272 0 0 0
2575 5 29.026664809005286 34.50288672885997 0.0015193855232144352 0 0 0
2402 5 30.73411480900529 31.545496577476968 0.0015193855232140758 0 0 0
2408 5 34.14901480900529 31.545496577476968 0.0015193855232140802 0 0 0
2581 5 32.441564809005285 34.50288672885997 0.0015193855232159244 0 0 0
2414 5 37.56391480900528 31.545496577476968 0.0015193855232134993 0 0 0
2587 5 35.85646480900529 34.50288672885997 0.0015193855232143085 0 0 0
2593 5 39.27136480900529 34.50288672885997 0.001519385523215162 0 0 0
2420 5 40.978814809005286 31.545496577476968 0.0015193855232147656 0 0 0
2426 5 44.39371480900529 31.545496577476968 0.0015193855232132764 0 0 0
2599 5 42.68626480900529 34.50288672885997 0.0015193855232151507 0 0 0
2605 5 46.10116480900528 34.50288672885997 0.0015193855232143306 0 0 0
2432 5 47.80861480900529 31.545496577476968 0.001519385523213639 0 0 0
2264 5 51.22351480900529 31.545496577476968 0.001519385523214073 -1 0 0
2437 5 49.516064809005286 34.50288672885997 0.0015193855232151908 -1 0 0
2270 5 54.63841480900528 31.545496577476968 0.0015193855232144664 -1 0 0
2276 5 58.053314809005286 31.545496577476968 0.0015193855232135682 -1 0 0
2443 5 52.93096480900529 34.50288672885997 0.0015193855232155838 -1 0 0
2449 5 56.345864809005285 34.50288672885997 0.0015193855232146238 -1 0 0
2282 5 61.46821480900528 31.545496577476968 0.001519385523214286 -1 0 0
2455 5 59.76076480900529 34.50288672885997 0.0015193855232156065 -1 0 0
2461 5 63.17566480900528 34.50288672885997 0.0015193855232145486 -1 0 0
2288 5 64.88311480900529 31.545496577476968 0.0015193855232125653 -1 0 0
2294 5 68.2980148090053 31.545496577476968 0.001519385523214097 -1 0 0
2467 5 66.59056480900529 34.50288672885997 0.0015193855232144714 -1 0 0
2300 5 71.7129148090053 31.54549657747697 0.0015193855232141825 -1 0 0
2306 5 75.12781480900529 31.545496577476968 0.0015193855232140847 -1 0 0
2473 5 70.00546480900529 34.50288672885997 0.0015193855232147045 -1 0 0
2479 5 73.42036480900529 34.50288672885997 0.0015193855232147706 -1 0 0
2312 5 78.54271480900529 31.545496577476968 0.0015193855232136164 -1 0 0
2485 5 76.8352648090053 34.50288672885997 0.001519385523215113 -1 0 0
2491 5 80.2501648090053 34.50288672885997 0.001519385523215251 -1 0 0
2318 5 81.95761480900529 31.545496577476968 0.0015193855232136942 -1 0 0
2324 5 85.3725148090053 31.545496577476968 0.0015193855232148565 -1 0 0
2497 5 83.66506480900529 34.50288672885997 0.001519385523215097 -1 0 0
2503 5 87.07996480900529 34.50288672885997 0.001519385523215917 -1 0 0
2330 5 88.78741480900528 31.54549657747697 0.0015193855232141773 -1 0 0
2336 5 92.20231480900529 31.545496577476968 0.0015193855232132473 -1 0 0
2509 5 90.49486480900529 34.50288672885997 0.0015193855232134845 -1 0 0
2342 5 95.61721480900529 31.545496577476968 0.0015193855232148788 -1 0 0
2515 5 93.9097648090053 34.50288672885997 0.0015193855232159272 -1 0 0
2521 5 97.32466480900528 34.50288672885997 0.001519385523215729 -1 0 0
2522 5 1.4809005288796446e-05 37.460276880242965 0.0015193855232141415 0 0 0
2528 5 3.414914809005291 37.460276880242965 0.0015193855232155404 0 0 0
2701 5 1.7074648090052895 40.41766703162597 0.001519385523213723 0 0 0
2707 5 5.122364809005288 40.41766703162597 0.001519385523214557 0 0 0
2534 5 6.829814809005289 37.460276880242965 0.001519385523214947 0 0 0
2540 5 10.24471480900529 37.460276880242965 0.0015193855232149829 0 0 0
2713 5 8.53726480900529 40.41766703162597 0.0015193855232136038 0 0 0
2546 5 13.659614809005287 37.460276880242965 0.0015193855232157984 0 0 0
2552 5 17.074514809005287 37.460276880242965 0.0015193855232150083 0 0 0
2719 5 11.952164809005291 40.41766703162597 0.0015193855232146563 0 0 0
2725 5 15.367064809005289 40.41766703162597 0.0015193855232146182 0 0 0
2558 5 20.489414809005286 37.460276880242965 0.0015193855232144685 0 0 0
2731 5 18.78196480900529 40.41766703162597 0.0015193855232136797 0 0 0
2737 5 22.19686480900529 40.41766703162597 0.001519385523214221 0 0 0
2564 5 23.90431480900529 37.460276880242965 0.0015193855232158314 0 0 0
2570 5 27.31921480900529 37.460276880242965 0.00151938552321444 0 0 0
2743 5 25.611764809005287 40.41766703162597 0.0015193855232144378 0 0 0
2749 5 29.026664809005286 40.41766703162597 0.0015193855232135994 0 0 0
2576 5 30.73411480900529 37.460276880242965 0.0015193855232151963 0 0 0
2582 5 34.14901480900529 37.460276880242965 0.0015193855232151934 0 0 0
2755 5 32.441564809005285 40.41766703162597 0.001519385523215111 0 0 0
2588 5 37.56391480900528 37.460276880242965 0.0015193855232145837 0 0 0
2761 5 35.85646480900529 40.41766703162597 0.0015193855232134995 0 0 0
2767 5 39.27136480900529 40.41766703162597 0.001519385523214345 0 0 0
2594 5 40.978814809005286 37.460276880242965 0.0015193855232158394 0 0 0
2600 5 44.39371480900529 37.460276880242965 0.0015193855232143389 0 0 0
2773 5 42.68626480900529 40.41766703162597 0.0015193855232143194 0 0 0
2779 5 46.10116480900528 40.41766703162597 0.001519385523213502 0 0 0
2606 5 47.80861480900529 37.460276880242965 0.0015193855232148669 0 0 0
2438 5 51.22351480900529 37.460276880242965 0.0015193855232151728 -1 0 0
2611 5 49.516064809005286 40.41766703162597 0.0015193855232143137 -1 0 0
2444 5 54.63841480900528 37.460276880242965 0.0015193855232156928 -1 0 0
2450 5 58.053314809005286 37.460276880242965 0.0015193855232148038 -1 0 0
2617 5 52.93096480900529 40.41766703162597 0.0015193855232146724 -1 0 0
2623 5 56.345864809005285 40.41766703162597 0.0015193855232137976 -1 0 0
2456 5 61.46821480900528 37.460276880242965 0.0015193855232155224 -1 0 0
2629 5 59.76076480900529 40.41766703162597 0.0015193855232147014 -1 0 0
2635 5 63.17566480900528 40.41766703162597 0.0015193855232137243 -1 0 0
2462 5 64.88311480900529 37.460276880242965 0.0015193855232137005 -1 0 0
2468 5 68.2980148090053 37.460276880242965 0.0015193855232151525 -1 0 0
2641 5 66.59056480900529 40.41766703162597 0.001519385523213586 -1 0 0
2474 5 71.7129148090053 37.460276880242965 0.0015193855232152648 -1 0 0
2480 5 75.12781480900529 37.460276880242965 0.0015193855232151928 -1 0 0
2647 5 70.00546480900529 40.41766703162597 0.0015193855232138744 -1 0 0
2653 5 73.42036480900529 40.41766703162597 0.0015193855232139483 -1 0 0
2486 5 78.54271480900529 37.460276880242965 0.001519385523214734 -1 0 0
2659 5 76.8352648090053 40.41766703162597 0.0015193855232143057 -1 0 0
2665 5 80.2501648090053 40.41766703162597 0.001519385523214416 -1 0 0
2492 5 81.95761480900529 37.460276880242965 0.0015193855232147884 -1 0 0
2498 5 85.3725148090053 37.460276880242965 0.0015193855232159342 -1 0 0
2671 5 83.66506480900529 40.41766703162597 0.0015193855232142645 -1 0 0
2677 5 87.07996480900529 40.41766703162597 0.0015193855232151143 -1 0 0
2504 5 88.78741480900528 37.460276880242965 0.0015193855232152548 -1 0 0
2510 5 92.20231480900529 37.460276880242965 0.0015193855232143204 -1 0 0
2683 5 90.49486480900529 40.41766703162597 0.0015193855232126646 -1 0 0
2516 5 95.61721480900529 37.460276880242965 0.0015193855232159467 -1 0 0
2689 5 93.9097648090053 40.41766703162597 0.0015193855232151373 -1 0 0
2695 5 97.32466480900528 40.41766703162597 0.001519385523214843 -1 0 0
2696 5 1.4809005288805191e-05 43.37505718300897 0.0015193855232138185 0 0 0
2702 5 3.414914809005291 43.37505718300897 0.001519385523215192 0 0 0
2875 5 1.7074648090052895 46.332447334391965 0.0015193855232145692 0 0 0
2881 5 5.122364809005288 46.332447334391965 0.0015193855232155304 0 0 0
2708 5 6.829814809005289 43.37505718300897 0.0015193855232144902 0 0 0