LAMMPS data file via write_data, version 29 Aug 2024, timestep = 1, units = metal

5916 atoms
6 atom types

0 99.0321 xlo xhi
0 100.551265147022 ylo yhi
-50 114.00085019083222 zlo zhi

Masses

1 97.90721000000001
2 97.90721000000001
3 127.6
4 127.6
5 127.6
6 127.6

Atoms # atomic

1478 4 8.513338825629139e-06 1.971594240623315 0.0010593527806121033 0 0 0
1484 4 3.4149085133388284 1.9715942406233153 0.0010593527806137275 0 0 0
1657 4 1.7074585133388265 4.928984392006317 0.0010593527806127662 0 0 0
1663 4 5.122358513338824 4.928984392006318 0.001059352780613727 0 0 0
1490 4 6.829808513338825 1.9715942406233151 0.0010593527806130989 0 0 0
1496 4 10.244708513338827 1.9715942406233151 0.0010593527806130995 0 0 0
1669 4 8.537258513338825 4.928984392006317 0.0010593527806127927 0 0 0
1502 4 13.659608513338824 1.9715942406233156 0.001059352780614034 0 0 0
1508 4 17.07450851333882 1.9715942406233151 0.0010593527806130637 0 0 0
1675 4 11.952158513338828 4.928984392006318 0.0010593527806137277 0 0 0
1681 4 15.367058513338826 4.928984392006318 0.0010593527806137136 0 0 0
1514 4 20.489408513338823 1.971594240623315 0.001059352780612745 0 0 0
1687 4 18.78195851333883 4.928984392006317 0.0010593527806127445 0 0 0
1693 4 22.196858513338828 4.928984392006318 0.001059352780613367 0 0 0
1520 4 23.904308513338826 1.9715942406233153 0.001059352780614014 0 0 0
1526 4 27.31920851333883 1.971594240623315 0.0010593527806127445 0 0 0
1699 4 25.61175851333882 4.928984392006318 0.0010593527806133662 0 0 0
1705 4 29.026658513338823 4.928984392006317 0.0010593527806127443 0 0 0
1532 4 30.73410851333883 1.9715942406233153 0.0010593527806133662 0 0 0
1538 4 34.14900851333882 1.9715942406233153 0.0010593527806133662 0 0 0
1711 4 32.441558513338826 4.928984392006318 0.0010593527806140135 0 0 0
1544 4 37.56390851333882 1.971594240623315 0.001059352780612745 0 0 0
1717 4 35.85645851333883 4.928984392006317 0.0010593527806127443 0 0 0
1723 4 39.27135851333883 4.928984392006318 0.001059352780613367 0 0 0
1550 4 40.97880851333883 1.9715942406233153 0.001059352780614014 0 0 0
1556 4 44.39370851333883 1.971594240623315 0.0010593527806127443 0 0 0
1729 4 42.68625851333882 4.928984392006318 0.0010593527806133662 0 0 0
1735 4 46.101158513338824 4.928984392006317 0.001059352780612744 0 0 0
1562 4 47.80860851333883 1.9715942406233151 0.0010593527806130646 0 0 0
1394 4 51.22350851333883 1.9715942406233153 0.0010593527806134057 -1 0 0
1567 4 49.51605851333883 4.928984392006318 0.0010593527806134074 -1 0 0
1400 4 54.638408513338824 1.9715942406233153 0.0010593527806137268 -1 0 0
1406 4 58.05330851333883 1.9715942406233151 0.0010593527806130993 -1 0 0
1573 4 52.93095851333883 4.928984392006318 0.001059352780613727 -1 0 0
1579 4 56.345858513338825 4.928984392006318 0.0010593527806130995 -1 0 0
1412 4 61.46820851333882 1.9715942406233153 0.0010593527806137273 -1 0 0
1585 4 59.76075851333883 4.928984392006318 0.0010593527806137273 -1 0 0
1591 4 63.175658513338824 4.928984392006317 0.0010593527806127658 -1 0 0
1418 4 64.88310851333883 1.971594240623315 0.0010593527806121033 -1 0 0
1424 4 68.29800851333883 1.9715942406233153 0.0010593527806140137 -1 0 0
1597 4 66.59055851333883 4.928984392006318 0.001059352780613047 -1 0 0
1430 4 71.71290851333883 1.971594240623315 0.001059352780612744 -1 0 0
1436 4 75.12780851333883 1.9715942406233153 0.0010593527806133662 -1 0 0
1603 4 70.00545851333882 4.928984392006318 0.0010593527806133662 -1 0 0
1609 4 73.42035851333883 4.928984392006317 0.0010593527806127445 -1 0 0
1442 4 78.54270851333882 1.9715942406233153 0.0010593527806133666 -1 0 0
1615 4 76.83525851333883 4.928984392006318 0.001059352780614014 -1 0 0
1621 4 80.25015851333883 4.928984392006317 0.0010593527806127443 -1 0 0
1448 4 81.95760851333883 1.971594240623315 0.0010593527806127443 -1 0 0
1454 4 85.37250851333883 1.9715942406233156 0.0010593527806146356 -1 0 0
1627 4 83.66505851333883 4.928984392006318 0.0010593527806133664 -1 0 0
1633 4 87.07995851333882 4.928984392006318 0.0010593527806146354 -1 0 0
1460 4 88.78740851333882 1.971594240623315 0.0010593527806127309 -1 0 0
1466 4 92.20230851333883 1.971594240623315 0.0010593527806127313 -1 0 0
1639 4 90.49485851333883 4.928984392006317 0.0010593527806114485 -1 0 0
1472 4 95.61720851333882 1.9715942406233156 0.0010593527806146358 -1 0 0
1645 4 93.90975851333883 4.928984392006318 0.0010593527806146354 -1 0 0
1651 4 97.32465851333882 4.928984392006318 0.0010593527806130466 -1 0 0
1652 4 8.513338825641272e-06 7.8863745433893175 0.0010593527806129054 0 0 0
1658 4 3.4149085133388284 7.8863745433893175 0.0010593527806145254 0 0 0
1831 4 1.7074585133388265 10.843764694772316 0.0010593527806130288 0 0 0
1837 4 5.122358513338824 10.843764694772316 0.001059352780613985 0 0 0
1664 4 6.829808513338825 7.8863745433893175 0.0010593527806138881 0 0 0
1670 4 10.244708513338827 7.8863745433893175 0.0010593527806138888 0 0 0
1843 4 8.537258513338825 10.843764694772316 0.0010593527806130548 0 0 0
1676 4 13.659608513338824 7.886374543389318 0.0010593527806148362 0 0 0
1682 4 17.07450851333882 7.8863745433893175 0.0010593527806138795 0 0 0
1849 4 11.952158513338828 10.843764694772316 0.0010593527806139855 0 0 0
1855 4 15.367058513338826 10.843764694772316 0.0010593527806139716 0 0 0
1688 4 20.489408513338823 7.8863745433893175 0.0010593527806135648 0 0 0
1861 4 18.78195851333883 10.843764694772316 0.0010593527806130026 0 0 0
1867 4 22.196858513338828 10.843764694772316 0.0010593527806136251 0 0 0
1694 4 23.904308513338826 7.8863745433893175 0.0010593527806148338 0 0 0
1700 4 27.31920851333883 7.8863745433893175 0.0010593527806135644 0 0 0
1873 4 25.61175851333882 10.843764694772316 0.0010593527806136245 0 0 0
1879 4 29.026658513338823 10.843764694772316 0.0010593527806130024 0 0 0
1706 4 30.73410851333883 7.8863745433893175 0.0010593527806141865 0 0 0
1712 4 34.14900851333882 7.8863745433893175 0.001059352780614186 0 0 0
1885 4 32.441558513338826 10.843764694772316 0.001059352780614267 0 0 0
1718 4 37.56390851333882 7.8863745433893175 0.0010593527806135648 0 0 0
1891 4 35.85645851333883 10.843764694772316 0.0010593527806130024 0 0 0
1897 4 39.27135851333883 10.843764694772316 0.0010593527806136251 0 0 0
1724 4 40.97880851333883 7.8863745433893175 0.001059352780614834 0 0 0
1730 4 44.39370851333883 7.8863745433893175 0.0010593527806135644 0 0 0
1903 4 42.68625851333882 10.843764694772316 0.0010593527806136245 0 0 0
1909 4 46.101158513338824 10.843764694772316 0.0010593527806130024 0 0 0
1736 4 47.80860851333883 7.8863745433893175 0.00105935278061388 0 0 0
1568 4 51.22350851333883 7.8863745433893175 0.0010593527806141993 -1 0 0
1741 4 49.51605851333883 10.843764694772316 0.0010593527806136657 -1 0 0
1574 4 54.638408513338824 7.8863745433893175 0.001059352780614525 -1 0 0
1580 4 58.05330851333883 7.8863745433893175 0.0010593527806138884 -1 0 0
1747 4 52.93095851333883 10.843764694772316 0.001059352780613985 -1 0 0
1753 4 56.345858513338825 10.843764694772316 0.0010593527806133614 -1 0 0
1586 4 61.46820851333882 7.8863745433893175 0.0010593527806145254 -1 0 0
1759 4 59.76075851333883 10.843764694772316 0.001059352780613985 -1 0 0
1765 4 63.175658513338824 10.843764694772316 0.0010593527806130286 -1 0 0
1592 4 64.88310851333883 7.8863745433893175 0.0010593527806129059 -1 0 0
1598 4 68.29800851333883 7.8863745433893175 0.0010593527806148336 -1 0 0
1771 4 66.59055851333883 10.843764694772316 0.0010593527806133048 -1 0 0
1604 4 71.71290851333883 7.8863745433893175 0.001059352780613564 -1 0 0
1610 4 75.12780851333883 7.8863745433893175 0.0010593527806141863 -1 0 0
1777 4 70.00545851333882 10.843764694772316 0.001059352780613624 -1 0 0
1783 4 73.42035851333883 10.843764694772316 0.0010593527806130024 -1 0 0
1616 4 78.54270851333882 7.8863745433893175 0.0010593527806141863 -1 0 0
1789 4 76.83525851333883 10.843764694772316 0.0010593527806142674 -1 0 0
1795 4 80.25015851333883 10.843764694772316 0.0010593527806130024 -1 0 0
1622 4 81.95760851333883 7.8863745433893175 0.0010593527806135644 -1 0 0
1628 4 85.37250851333883 7.886374543389318 0.0010593527806154555 -1 0 0
1801 4 83.66505851333883 10.843764694772316 0.001059352780613624 -1 0 0
1807 4 87.07995851333882 10.843764694772316 0.0010593527806148889 -1 0 0
1634 4 88.78740851333882 7.8863745433893175 0.0010593527806135462 -1 0 0
1640 4 92.20230851333883 7.8863745433893175 0.0010593527806135468 -1 0 0
1813 4 90.49485851333883 10.843764694772316 0.0010593527806117109 -1 0 0
1646 4 95.61720851333882 7.886374543389318 0.0010593527806154553 -1 0 0
1819 4 93.90975851333883 10.843764694772316 0.001059352780614889 -1 0 0
1825 4 97.32465851333882 10.843764694772316 0.0010593527806133044 -1 0 0
1826 4 8.513338825633872e-06 13.80115484615532 0.0010593527806122339 0 0 0
1832 4 3.4149085133388284 13.80115484615532 0.0010593527806138454 0 0 0
2005 4 1.7074585133388265 16.75854499753832 0.001059352780613528 0 0 0
2011 4 5.122358513338824 16.75854499753832 0.0010593527806144842 0 0 0
1838 4 6.829808513338825 13.80115484615532 0.0010593527806132112 0 0 0
1844 4 10.244708513338827 13.80115484615532 0.0010593527806132118 0 0 0
2017 4 8.537258513338825 16.75854499753832 0.0010593527806135542 0 0 0
1850 4 13.659608513338824 13.80115484615532 0.0010593527806141562 0 0 0
1856 4 17.07450851333882 13.80115484615532 0.0010593527806131878 0 0 0
2023 4 11.952158513338828 16.75854499753832 0.0010593527806144847 0 0 0
2029 4 15.367058513338826 16.75854499753832 0.001059352780614471 0 0 0
1862 4 20.489408513338823 13.80115484615532 0.0010593527806128686 0 0 0
2035 4 18.78195851333883 16.75854499753832 0.0010593527806135059 0 0 0
2041 4 22.196858513338828 16.75854499753832 0.0010593527806141286 0 0 0
1868 4 23.904308513338826 13.80115484615532 0.001059352780614142 0 0 0
1874 4 27.31920851333883 13.80115484615532 0.0010593527806128681 0 0 0
2047 4 25.61175851333882 16.75854499753832 0.0010593527806141278 0 0 0
2053 4 29.026658513338823 16.75854499753832 0.001059352780613506 0 0 0
1880 4 30.73410851333883 13.80115484615532 0.0010593527806134948 0 0 0
1886 4 34.14900851333882 13.80115484615532 0.0010593527806134944 0 0 0
2059 4 32.441558513338826 16.75854499753832 0.0010593527806147661 0 0 0
1892 4 37.56390851333882 13.80115484615532 0.0010593527806128688 0 0 0
2065 4 35.85645851333883 16.75854499753832 0.0010593527806135059 0 0 0
2071 4 39.27135851333883 16.75854499753832 0.0010593527806141284 0 0 0
1898 4 40.97880851333883 13.80115484615532 0.0010593527806141423 0 0 0
1904 4 44.39370851333883 13.80115484615532 0.0010593527806128681 0 0 0
2077 4 42.68625851333882 16.75854499753832 0.001059352780614128 0 0 0
2083 4 46.101158513338824 16.75854499753832 0.0010593527806135056 0 0 0
1910 4 47.80860851333883 13.80115484615532 0.0010593527806131882 0 0 0
1742 4 51.22350851333883 13.80115484615532 0.0010593527806135223 -1 0 0
1915 4 49.51605851333883 16.75854499753832 0.0010593527806141648 -1 0 0
1748 4 54.638408513338824 13.80115484615532 0.0010593527806138452 -1 0 0
1754 4 58.05330851333883 13.80115484615532 0.0010593527806132116 -1 0 0
1921 4 52.93095851333883 16.75854499753832 0.001059352780614484 -1 0 0
1927 4 56.345858513338825 16.75854499753832 0.0010593527806138608 -1 0 0
1760 4 61.46820851333882 13.80115484615532 0.0010593527806138452 -1 0 0
1933 4 59.76075851333883 16.75854499753832 0.0010593527806144842 -1 0 0
1939 4 63.175658513338824 16.75854499753832 0.0010593527806135275 -1 0 0
1766 4 64.88310851333883 13.80115484615532 0.0010593527806122347 -1 0 0
1772 4 68.29800851333883 13.80115484615532 0.0010593527806141416 -1 0 0
1945 4 66.59055851333883 16.75854499753832 0.0010593527806138084 -1 0 0
1778 4 71.71290851333883 13.80115484615532 0.001059352780612868 -1 0 0
1784 4 75.12780851333883 13.80115484615532 0.0010593527806134946 -1 0 0
1951 4 70.00545851333882 16.75854499753832 0.0010593527806141275 -1 0 0
1957 4 73.42035851333883 16.75854499753832 0.0010593527806135059 -1 0 0
1790 4 78.54270851333882 13.80115484615532 0.0010593527806134946 -1 0 0
1963 4 76.83525851333883 16.75854499753832 0.0010593527806147666 -1 0 0
1969 4 80.25015851333883 16.75854499753832 0.0010593527806135056 -1 0 0
1796 4 81.95760851333883 13.80115484615532 0.0010593527806128681 -1 0 0
1802 4 85.37250851333883 13.80115484615532 0.001059352780614768 -1 0 0
1975 4 83.66505851333883 16.75854499753832 0.0010593527806141278 -1 0 0
1981 4 87.07995851333882 16.75854499753832 0.001059352780615388 -1 0 0
1808 4 88.78740851333882 13.80115484615532 0.0010593527806128588 -1 0 0
1814 4 92.20230851333883 13.80115484615532 0.0010593527806128592 -1 0 0
1987 4 90.49485851333883 16.75854499753832 0.0010593527806122187 -1 0 0
1820 4 95.61720851333882 13.80115484615532 0.0010593527806147679 -1 0 0
1993 4 93.90975851333883 16.75854499753832 0.001059352780615388 -1 0 0
1999 4 97.32465851333882 16.75854499753832 0.001059352780613808 -1 0 0
2000 4 8.513338825630126e-06 19.715935148921314 0.0010593527806127536 0 0 0
2006 4 3.4149085133388284 19.715935148921314 0.0010593527806143739 0 0 0
2179 4 1.7074585133388265 22.67332530030432 0.0010593527806128874 0 0 0
2185 4 5.122358513338824 22.67332530030432 0.0010593527806138452 0 0 0
2012 4 6.829808513338825 19.715935148921314 0.0010593527806137366 0 0 0
2018 4 10.244708513338827 19.715935148921314 0.0010593527806137372 0 0 0
2191 4 8.537258513338825 22.67332530030432 0.0010593527806129004 0 0 0
2024 4 13.659608513338824 19.715935148921318 0.0010593527806146803 0 0 0
2030 4 17.07450851333882 19.715935148921314 0.0010593527806137236 0 0 0
2197 4 11.952158513338828 22.67332530030432 0.0010593527806138456 0 0 0
2203 4 15.367058513338826 22.67332530030432 0.001059352780613836 0 0 0
2036 4 20.489408513338823 19.715935148921314 0.0010593527806134048 0 0 0
2209 4 18.78195851333883 22.67332530030432 0.0010593527806128683 0 0 0
2215 4 22.196858513338828 22.67332530030432 0.0010593527806134952 0 0 0
2042 4 23.904308513338826 19.715935148921314 0.001059352780614669 0 0 0
2048 4 27.31920851333883 19.715935148921314 0.001059352780613404 0 0 0
2221 4 25.61175851333882 22.67332530030432 0.0010593527806134946 0 0 0
2227 4 29.026658513338823 22.67332530030432 0.0010593527806128683 0 0 0
2054 4 30.73410851333883 19.715935148921314 0.001059352780614026 0 0 0
2060 4 34.14900851333882 19.715935148921314 0.0010593527806140258 0 0 0
2233 4 32.441558513338826 22.67332530030432 0.0010593527806141416 0 0 0
2066 4 37.56390851333882 19.715935148921314 0.0010593527806134044 0 0 0
2239 4 35.85645851333883 22.67332530030432 0.0010593527806128686 0 0 0
2245 4 39.27135851333883 22.67332530030432 0.0010593527806134952 0 0 0
2072 4 40.97880851333883 19.715935148921314 0.0010593527806146692 0 0 0
2078 4 44.39370851333883 19.715935148921314 0.001059352780613404 0 0 0
2251 4 42.68625851333882 22.67332530030432 0.0010593527806134948 0 0 0
2257 4 46.101158513338824 22.67332530030432 0.0010593527806128681 0 0 0
2084 4 47.80860851333883 19.715935148921314 0.001059352780613724 0 0 0
1916 4 51.22350851333883 19.715935148921314 0.0010593527806140436 -1 0 0
2089 4 49.51605851333883 22.67332530030432 0.0010593527806135256 -1 0 0
1922 4 54.638408513338824 19.715935148921314 0.0010593527806143734 -1 0 0
1928 4 58.05330851333883 19.715935148921314 0.001059352780613737 -1 0 0
2095 4 52.93095851333883 22.67332530030432 0.0010593527806138452 -1 0 0
2101 4 56.345858513338825 22.67332530030432 0.0010593527806132116 -1 0 0
1934 4 61.46820851333882 19.715935148921314 0.0010593527806143739 -1 0 0
2107 4 59.76075851333883 22.67332530030432 0.0010593527806138452 -1 0 0
2113 4 63.175658513338824 22.67332530030432 0.0010593527806128872 -1 0 0
1940 4 64.88310851333883 19.715935148921314 0.0010593527806127543 -1 0 0
1946 4 68.29800851333883 19.715935148921314 0.0010593527806146688 -1 0 0
2119 4 66.59055851333883 22.67332530030432 0.00105935278061318 -1 0 0
1952 4 71.71290851333883 19.715935148921314 0.0010593527806134037 -1 0 0
1958 4 75.12780851333883 19.715935148921314 0.0010593527806140258 -1 0 0
2125 4 70.00545851333882 22.67332530030432 0.0010593527806134942 -1 0 0
2131 4 73.42035851333883 22.67332530030432 0.0010593527806128681 -1 0 0
1964 4 78.54270851333882 19.715935148921314 0.0010593527806140263 -1 0 0
2137 4 76.83525851333883 22.67332530030432 0.001059352780614142 -1 0 0
2143 4 80.25015851333883 22.67332530030432 0.0010593527806128681 -1 0 0
1970 4 81.95760851333883 19.715935148921314 0.0010593527806134042 -1 0 0
1976 4 85.37250851333883 19.715935148921318 0.0010593527806152909 -1 0 0
2149 4 83.66505851333883 22.67332530030432 0.0010593527806134948 -1 0 0
2155 4 87.07995851333882 22.67332530030432 0.0010593527806147674 -1 0 0
1982 4 88.78740851333882 19.715935148921314 0.0010593527806133905 -1 0 0
1988 4 92.20230851333883 19.715935148921314 0.001059352780613391 -1 0 0
2161 4 90.49485851333883 22.67332530030432 0.0010593527806115766 -1 0 0
1994 4 95.61720851333882 19.715935148921318 0.0010593527806152905 -1 0 0
2167 4 93.90975851333883 22.67332530030432 0.0010593527806147679 -1 0 0
2173 4 97.32465851333882 22.67332530030432 0.001059352780613179 -1 0 0
2174 4 8.51333882563011e-06 25.63071545168732 0.001059352780612869 0 0 0
2180 4 3.4149085133388284 25.63071545168732 0.0010593527806144845 0 0 0
2353 4 1.7074585133388265 28.588105603070314 0.0010593527806134044 0 0 0
2359 4 5.122358513338824 28.588105603070314 0.0010593527806143737 0 0 0
2186 4 6.829808513338825 25.63071545168732 0.0010593527806138606 0 0 0
2192 4 10.244708513338827 25.63071545168732 0.001059352780613861 0 0 0
2365 4 8.537258513338825 28.588105603070314 0.0010593527806134304 0 0 0
2198 4 13.659608513338824 25.63071545168732 0.0010593527806147906 0 0 0
2204 4 17.07450851333882 25.63071545168732 0.0010593527806138255 0 0 0
2371 4 11.952158513338828 28.588105603070314 0.001059352780614374 0 0 0
2377 4 15.367058513338826 28.588105603070314 0.0010593527806143602 0 0 0
2210 4 20.489408513338823 25.63071545168732 0.0010593527806135065 0 0 0
2383 4 18.78195851333883 28.588105603070314 0.0010593527806134042 0 0 0
2389 4 22.196858513338828 28.588105603070314 0.0010593527806140265 0 0 0
2216 4 23.904308513338826 25.63071545168732 0.0010593527806147666 0 0 0
2222 4 27.31920851333883 25.63071545168732 0.0010593527806135059 0 0 0
2395 4 25.61175851333882 28.588105603070314 0.001059352780614026 0 0 0
2401 4 29.026658513338823 28.588105603070314 0.001059352780613404 0 0 0
2228 4 30.73410851333883 25.63071545168732 0.001059352780614128 0 0 0
2234 4 34.14900851333882 25.63071545168732 0.0010593527806141278 0 0 0
2407 4 32.441558513338826 28.588105603070314 0.0010593527806146688 0 0 0
2240 4 37.56390851333882 25.63071545168732 0.0010593527806135063 0 0 0
2413 4 35.85645851333883 28.588105603070314 0.001059352780613404 0 0 0
2419 4 39.27135851333883 28.588105603070314 0.0010593527806140267 0 0 0
2246 4 40.97880851333883 25.63071545168732 0.0010593527806147668 0 0 0
2252 4 44.39370851333883 25.63071545168732 0.0010593527806135056 0 0 0
2425 4 42.68625851333882 28.588105603070314 0.001059352780614026 0 0 0
2431 4 46.101158513338824 28.588105603070314 0.001059352780613404 0 0 0
2258 4 47.80860851333883 25.63071545168732 0.0010593527806138257 0 0 0
2090 4 51.22350851333883 25.63071545168732 0.0010593527806141672 -1 0 0
2263 4 49.51605851333883 28.588105603070314 0.0010593527806140542 -1 0 0
2096 4 54.638408513338824 25.63071545168732 0.0010593527806144842 -1 0 0
2102 4 58.05330851333883 25.63071545168732 0.0010593527806138606 -1 0 0
2269 4 52.93095851333883 28.588105603070314 0.0010593527806143737 -1 0 0
2275 4 56.345858513338825 28.588105603070314 0.0010593527806137372 -1 0 0
2108 4 61.46820851333882 25.63071545168732 0.0010593527806144845 -1 0 0
2281 4 59.76075851333883 28.588105603070314 0.0010593527806143737 -1 0 0
2287 4 63.175658513338824 28.588105603070314 0.001059352780613404 -1 0 0
2114 4 64.88310851333883 25.63071545168732 0.0010593527806128694 -1 0 0
2120 4 68.29800851333883 25.63071545168732 0.0010593527806147664 -1 0 0
2293 4 66.59055851333883 28.588105603070314 0.0010593527806137064 -1 0 0
2126 4 71.71290851333883 25.63071545168732 0.0010593527806135054 -1 0 0
2132 4 75.12780851333883 25.63071545168732 0.0010593527806141275 -1 0 0
2299 4 70.00545851333882 28.588105603070314 0.0010593527806140256 -1 0 0
2305 4 73.42035851333883 28.588105603070314 0.0010593527806134042 -1 0 0
2138 4 78.54270851333882 25.63071545168732 0.001059352780614128 -1 0 0
2311 4 76.83525851333883 28.588105603070314 0.0010593527806146692 -1 0 0
2317 4 80.25015851333883 28.588105603070314 0.001059352780613404 -1 0 0
2144 4 81.95760851333883 25.63071545168732 0.0010593527806135059 -1 0 0
2150 4 85.37250851333883 25.63071545168732 0.0010593527806153883 -1 0 0
2323 4 83.66505851333883 28.588105603070314 0.0010593527806140258 -1 0 0
2329 4 87.07995851333882 28.588105603070318 0.0010593527806152905 -1 0 0
2156 4 88.78740851333882 25.63071545168732 0.001059352780613492 -1 0 0
2162 4 92.20230851333883 25.63071545168732 0.0010593527806134926 -1 0 0
2335 4 90.49485851333883 28.588105603070314 0.0010593527806121124 -1 0 0
2168 4 95.61720851333882 25.63071545168732 0.001059352780615388 -1 0 0
2341 4 93.90975851333883 28.588105603070318 0.0010593527806152907 -1 0 0
2347 4 97.32465851333882 28.588105603070314 0.0010593527806137062 -1 0 0
2348 4 8.513338825633872e-06 31.54549575445332 0.0010593527806122339 0 0 0
2354 4 3.4149085133388284 31.54549575445332 0.0010593527806138454 0 0 0
2527 4 1.7074585133388265 34.50288590583632 0.001059352780613528 0 0 0
2533 4 5.122358513338824 34.50288590583632 0.0010593527806144842 0 0 0
2360 4 6.829808513338825 31.54549575445332 0.0010593527806132112 0 0 0
2366 4 10.244708513338827 31.54549575445332 0.0010593527806132118 0 0 0
2539 4 8.537258513338825 34.50288590583632 0.0010593527806135542 0 0 0
2372 4 13.659608513338824 31.54549575445332 0.0010593527806141562 0 0 0
2378 4 17.07450851333882 31.54549575445332 0.0010593527806131878 0 0 0
2545 4 11.952158513338828 34.50288590583632 0.0010593527806144847 0 0 0
2551 4 15.367058513338826 34.50288590583632 0.001059352780614471 0 0 0
2384 4 20.489408513338823 31.54549575445332 0.0010593527806128686 0 0 0
2557 4 18.78195851333883 34.50288590583632 0.0010593527806135059 0 0 0
2563 4 22.196858513338828 34.50288590583632 0.0010593527806141286 0 0 0
2390 4 23.904308513338826 31.54549575445332 0.001059352780614142 0 0 0
2396 4 27.31920851333883 31.54549575445332 0.0010593527806128681 0 0 0
2569 4 25.61175851333882 34.50288590583632 0.0010593527806141278 0 0 0
2575 4 29.026658513338823 34.50288590583632 0.001059352780613506 0 0 0
2402 4 30.73410851333883 31.54549575445332 0.0010593527806134948 0 0 0
2408 4 34.14900851333882 31.54549575445332 0.0010593527806134944 0 0 0
2581 4 32.441558513338826 34.50288590583632 0.0010593527806147661 0 0 0
2414 4 37.56390851333882 31.54549575445332 0.0010593527806128688 0 0 0
2587 4 35.85645851333883 34.50288590583632 0.0010593527806135059 0 0 0
2593 4 39.27135851333883 34.50288590583632 0.0010593527806141284 0 0 0
2420 4 40.97880851333883 31.54549575445332 0.0010593527806141423 0 0 0
2426 4 44.39370851333883 31.54549575445332 0.0010593527806128681 0 0 0
2599 4 42.68625851333882 34.50288590583632 0.001059352780614128 0 0 0
2605 4 46.101158513338824 34.50288590583632 0.0010593527806135056 0 0 0
2432 4 47.80860851333883 31.54549575445332 0.0010593527806131882 0 0 0
2264 4 51.22350851333883 31.54549575445332 0.0010593527806135223 -1 0 0
2437 4 49.51605851333883 34.50288590583632 0.0010593527806141648 -1 0 0
2270 4 54.638408513338824 31.54549575445332 0.0010593527806138452 -1 0 0
2276 4 58.05330851333883 31.54549575445332 0.0010593527806132116 -1 0 0
2443 4 52.93095851333883 34.50288590583632 0.001059352780614484 -1 0 0
2449 4 56.345858513338825 34.50288590583632 0.0010593527806138608 -1 0 0
2282 4 61.46820851333882 31.54549575445332 0.0010593527806138452 -1 0 0
2455 4 59.76075851333883 34.50288590583632 0.0010593527806144842 -1 0 0
2461 4 63.175658513338824 34.50288590583632 0.0010593527806135275 -1 0 0
2288 4 64.88310851333883 31.54549575445332 0.0010593527806122347 -1 0 0
2294 4 68.29800851333883 31.54549575445332 0.0010593527806141416 -1 0 0
2467 4 66.59055851333883 34.50288590583632 0.0010593527806138084 -1 0 0
2300 4 71.71290851333883 31.54549575445332 0.001059352780612868 -1 0 0
2306 4 75.12780851333883 31.54549575445332 0.0010593527806134946 -1 0 0
2473 4 70.00545851333882 34.50288590583632 0.0010593527806141275 -1 0 0
2479 4 73.42035851333883 34.50288590583632 0.0010593527806135059 -1 0 0
2312 4 78.54270851333882 31.54549575445332 0.0010593527806134946 -1 0 0
2485 4 76.83525851333883 34.50288590583632 0.0010593527806147666 -1 0 0
2491 4 80.25015851333883 34.50288590583632 0.0010593527806135056 -1 0 0
2318 4 81.95760851333883 31.54549575445332 0.0010593527806128681 -1 0 0
2324 4 85.37250851333883 31.54549575445332 0.001059352780614768 -1 0 0
2497 4 83.66505851333883 34.50288590583632 0.0010593527806141278 -1 0 0
2503 4 87.07995851333882 34.50288590583632 0.001059352780615388 -1 0 0
2330 4 88.78740851333882 31.54549575445332 0.0010593527806128588 -1 0 0
2336 4 92.20230851333883 31.54549575445332 0.0010593527806128592 -1 0 0
2509 4 90.49485851333883 34.50288590583632 0.0010593527806122187 -1 0 0
2342 4 95.61720851333882 31.54549575445332 0.0010593527806147679 -1 0 0
2515 4 93.90975851333883 34.50288590583632 0.001059352780615388 -1 0 0
2521 4 97.32465851333882 34.50288590583632 0.001059352780613808 -1 0 0
2522 4 8.513338825630126e-06 37.46027605721932 0.0010593527806127536 0 0 0
2528 4 3.4149085133388284 37.46027605721932 0.0010593527806143739 0 0 0
2701 4 1.7074585133388265 40.41766620860232 0.0010593527806128874 0 0 0
2707 4 5.122358513338824 40.41766620860232 0.0010593527806138452 0 0 0
2534 4 6.829808513338825 37.46027605721932 0.0010593527806137366 0 0 0
2540 4 10.244708513338827 37.46027605721932 0.0010593527806137372 0 0 0
2713 4 8.537258513338825 40.41766620860232 0.0010593527806129004 0 0 0
2546 4 13.659608513338824 37.46027605721932 0.0010593527806146803 0 0 0
2552 4 17.07450851333882 37.46027605721932 0.0010593527806137236 0 0 0
2719 4 11.952158513338828 40.41766620860232 0.0010593527806138456 0 0 0
2725 4 15.367058513338826 40.41766620860232 0.001059352780613836 0 0 0
2558 4 20.489408513338823 37.46027605721932 0.0010593527806134048 0 0 0
2731 4 18.78195851333883 40.41766620860232 0.0010593527806128683 0 0 0
2737 4 22.196858513338828 40.41766620860232 0.0010593527806134952 0 0 0
2564 4 23.904308513338826 37.46027605721932 0.001059352780614669 0 0 0
2570 4 27.31920851333883 37.46027605721932 0.001059352780613404 0 0 0
2743 4 25.61175851333882 40.41766620860232 0.0010593527806134946 0 0 0
2749 4 29.026658513338823 40.41766620860232 0.0010593527806128683 0 0 0
2576 4 30.73410851333883 37.46027605721932 0.001059352780614026 0 0 0
2582 4 34.14900851333882 37.46027605721932 0.0010593527806140258 0 0 0
2755 4 32.441558513338826 40.41766620860232 0.0010593527806141416 0 0 0
2588 4 37.56390851333882 37.46027605721932 0.0010593527806134044 0 0 0
2761 4 35.85645851333883 40.41766620860232 0.0010593527806128686 0 0 0
2767 4 39.27135851333883 40.41766620860232 0.0010593527806134952 0 0 0
2594 4 40.97880851333883 37.46027605721932 0.0010593527806146692 0 0 0
2600 4 44.39370851333883 37.46027605721932 0.001059352780613404 0 0 0
2773 4 42.68625851333882 40.41766620860232 0.0010593527806134948 0 0 0
2779 4 46.101158513338824 40.41766620860232 0.0010593527806128681 0 0 0
2606 4 47.80860851333883 37.46027605721932 0.001059352780613724 0 0 0
2438 4 51.22350851333883 37.46027605721932 0.0010593527806140436 -1 0 0
2611 4 49.51605851333883 40.41766620860232 0.0010593527806135256 -1 0 0
2444 4 54.638408513338824 37.46027605721932 0.0010593527806143734 -1 0 0
2450 4 58.05330851333883 37.46027605721932 0.001059352780613737 -1 0 0
2617 4 52.93095851333883 40.41766620860232 0.0010593527806138452 -1 0 0
2623 4 56.345858513338825 40.41766620860232 0.0010593527806132116 -1 0 0
2456 4 61.46820851333882 37.46027605721932 0.0010593527806143739 -1 0 0
2629 4 59.76075851333883 40.41766620860232 0.0010593527806138452 -1 0 0
2635 4 63.175658513338824 40.41766620860232 0.0010593527806128872 -1 0 0
2462 4 64.88310851333883 37.46027605721932 0.0010593527806127543 -1 0 0
2468 4 68.29800851333883 37.46027605721932 0.0010593527806146688 -1 0 0
2641 4 66.59055851333883 40.41766620860232 0.00105935278061318 -1 0 0
2474 4 71.71290851333883 37.46027605721932 0.0010593527806134037 -1 0 0
2480 4 75.12780851333883 37.46027605721932 0.0010593527806140258 -1 0 0
2647 4 70.00545851333882 40.41766620860232 0.0010593527806134942 -1 0 0
2653 4 73.42035851333883 40.41766620860232 0.0010593527806128681 -1 0 0
2486 4 78.54270851333882 37.46027605721932 0.0010593527806140263 -1 0 0
2659 4 76.83525851333883 40.41766620860232 0.001059352780614142 -1 0 0
2665 4 80.25015851333883 40.41766620860232 0.0010593527806128681 -1 0 0
2492 4 81.95760851333883 37.46027605721932 0.0010593527806134042 -1 0 0
2498 4 85.37250851333883 37.46027605721932 0.0010593527806152909 -1 0 0
2671 4 83.66505851333883 40.41766620860232 0.0010593527806134948 -1 0 0
2677 4 87.07995851333882 40.41766620860232 0.0010593527806147674 -1 0 0
2504 4 88.78740851333882 37.46027605721932 0.0010593527806133905 -1 0 0
2510 4 92.20230851333883 37.46027605721932 0.001059352780613391 -1 0 0
2683 4 90.49485851333883 40.41766620860232 0.0010593527806115766 -1 0 0
2516 4 95.61720851333882 37.46027605721932 0.0010593527806152905 -1 0 0
2689 4 93.90975851333883 40.41766620860232 0.0010593527806147679 -1 0 0
2695 4 97.32465851333882 40.41766620860232 0.001059352780613179 -1 0 0
2696 4 8.51333882563011e-06 43.37505635998532 0.001059352780612869 0 0 0
2702 4 3.4149085133388284 43.37505635998532 0.0010593527806144845 0 0 0
2875 4 1.7074585133388265 46.33244651136832 0.0010593527806134044 0 0 0
2881 4 5.122358513338824 46.33244651136832 0.0010593527806143737 0 0 0
2708 4 6.829808513338825 43.37505635998532 0.0010593527806138606 0 0 0
2714 4 10.244708513338827 43.37505635998532 0.001059352780613861 0 0 0
2887 4 8.537258513338825 46.33244651136832 0.0010593527806134304 0 0 0