LAMMPS data file via write_data, version 29 Aug 2024, timestep = 0, units = metal

3060 atoms
3 atom types

0 101.44484561439 xlo xhi
0 99.567655169712 ylo yhi
0 18.058914858199 zlo zhi

Masses

1 180.94788
2 32.06
3 32.06

Atoms # atomic

1532 1 1.690747426906995 0 1.5334759151630006 0 0 0
1538 1 5.072242280719998 0 1.5334759151630006 0 0 0
1544 1 8.453737134533 0 1.5334759151630006 0 0 0
1550 1 11.835231988345996 0 1.5334759151630006 0 0 0
1556 1 15.216726842158991 0 1.5334759151630006 0 0 0
1562 1 18.598221695972 0 1.5334759151630006 0 0 0
1568 1 21.979716549784996 0 1.5334759151630006 0 0 0
1574 1 25.36121140359799 0 1.5334759151630006 0 0 0
1580 1 28.742706257411 0 1.5334759151630006 0 0 0
1586 1 32.124201111224 0 1.5334759151630006 0 0 0
1592 1 35.50569596503699 0 1.5334759151630006 0 0 0
1598 1 38.88719081885 0 1.5334759151630006 0 0 0
1604 1 42.268685672663 0 1.5334759151630006 0 0 0
1610 1 45.65018052647599 0 1.5334759151630006 0 0 0
1616 1 49.031675380289 0 1.5334759151630006 0 0 0
1442 1 52.413170234102004 0 1.5334759151630006 -1 0 0
1448 1 55.794665087915 0 1.5334759151630006 -1 0 0
1454 1 59.176159941728 0 1.5334759151630006 -1 0 0
1460 1 62.557654795541005 0 1.5334759151630006 -1 0 0
1466 1 65.939149649354 0 1.5334759151630006 -1 0 0
1472 1 69.320644503167 0 1.5334759151630006 -1 0 0
1478 1 72.70213935698 0 1.5334759151630006 -1 0 0
1484 1 76.08363421079301 0 1.5334759151630006 -1 0 0
1490 1 79.465129064606 0 1.5334759151630006 -1 0 0
1496 1 82.846623918419 0 1.5334759151630006 -1 0 0
1502 1 86.228118772232 0 1.5334759151630006 -1 0 0
1508 1 89.609613626045 0 1.5334759151630006 -1 0 0
1514 1 92.991108479858 0 1.5334759151630006 -1 0 0
1520 1 96.37260333367101 0 1.5334759151630006 -1 0 0
1526 1 99.754098187484 0 1.5334759151630006 -1 0 0
1534 3 1.690747426906995 1.9523069641120046 0 0 0 0
1711 1 0 2.9284604461680033 1.5334759151630006 0 0 0
1717 1 3.3814948538129954 2.9284604461680033 1.5334759151630006 0 0 0
1540 3 5.072242280719998 1.9523069641120046 0 0 0 0
1723 1 6.762989707625998 2.9284604461680033 1.5334759151630006 0 0 0
1546 3 8.453737134533 1.9523069641120046 0 0 0 0
1729 1 10.144484561439 2.9284604461680033 1.5334759151630006 0 0 0
1552 3 11.835231988345996 1.9523069641120046 0 0 0 0
1735 1 13.525979415251996 2.9284604461680033 1.5334759151630006 0 0 0
1558 3 15.216726842158991 1.9523069641120046 0 0 0 0
1741 1 16.90747426906499 2.9284604461680033 1.5334759151630006 0 0 0
1564 3 18.598221695972 1.9523069641120046 0 0 0 0
1747 1 20.288969122878 2.9284604461680033 1.5334759151630006 0 0 0
1570 3 21.979716549784996 1.9523069641120046 0 0 0 0
1753 1 23.670463976690996 2.9284604461680033 1.5334759151630006 0 0 0
1576 3 25.36121140359799 1.9523069641120046 0 0 0 0
1759 1 27.05195883050399 2.9284604461680033 1.5334759151630006 0 0 0
1582 3 28.742706257411 1.9523069641120046 0 0 0 0
1765 1 30.433453684317 2.9284604461680033 1.5334759151630006 0 0 0
1588 3 32.124201111224 1.9523069641120046 0 0 0 0
1771 1 33.81494853813 2.9284604461680033 1.5334759151630006 0 0 0
1594 3 35.50569596503699 1.9523069641120046 0 0 0 0
1777 1 37.19644339194299 2.9284604461680033 1.5334759151630006 0 0 0
1600 3 38.88719081885 1.9523069641120046 0 0 0 0
1783 1 40.577938245756 2.9284604461680033 1.5334759151630006 0 0 0
1606 3 42.268685672663 1.9523069641120046 0 0 0 0
1789 1 43.959433099569 2.9284604461680033 1.5334759151630006 0 0 0
1612 3 45.65018052647599 1.9523069641120046 0 0 0 0
1795 1 47.34092795338199 2.9284604461680033 1.5334759151630006 0 0 0
1618 3 49.031675380289 1.9523069641120046 0 0 0 0
1444 3 52.413170234102004 1.9523069641120046 0 -1 0 0
1621 1 50.722422807195 2.9284604461680033 1.5334759151630006 -1 0 0
1627 1 54.103917661008005 2.9284604461680033 1.5334759151630006 -1 0 0
1450 3 55.794665087915 1.9523069641120046 0 -1 0 0
1633 1 57.485412514821 2.9284604461680033 1.5334759151630006 -1 0 0
1456 3 59.176159941728 1.9523069641120046 0 -1 0 0
1639 1 60.866907368634 2.9284604461680033 1.5334759151630006 -1 0 0
1462 3 62.557654795541005 1.9523069641120046 0 -1 0 0
1645 1 64.248402222447 2.9284604461680033 1.5334759151630006 -1 0 0
1468 3 65.939149649354 1.9523069641120046 0 -1 0 0
1651 1 67.62989707626 2.9284604461680033 1.5334759151630006 -1 0 0
1474 3 69.320644503167 1.9523069641120046 0 -1 0 0
1657 1 71.011391930073 2.9284604461680033 1.5334759151630006 -1 0 0
1480 3 72.70213935698 1.9523069641120046 0 -1 0 0
1663 1 74.392886783886 2.9284604461680033 1.5334759151630006 -1 0 0
1486 3 76.08363421079301 1.9523069641120046 0 -1 0 0
1669 1 77.77438163769901 2.9284604461680033 1.5334759151630006 -1 0 0
1492 3 79.465129064606 1.9523069641120046 0 -1 0 0
1675 1 81.155876491512 2.9284604461680033 1.5334759151630006 -1 0 0
1498 3 82.846623918419 1.9523069641120046 0 -1 0 0
1681 1 84.537371345325 2.9284604461680033 1.5334759151630006 -1 0 0
1504 3 86.228118772232 1.9523069641120046 0 -1 0 0
1687 1 87.918866199138 2.9284604461680033 1.5334759151630006 -1 0 0
1510 3 89.609613626045 1.9523069641120046 0 -1 0 0
1693 1 91.300361052951 2.9284604461680033 1.5334759151630006 -1 0 0
1516 3 92.991108479858 1.9523069641120046 0 -1 0 0
1699 1 94.681855906764 2.9284604461680033 1.5334759151630006 -1 0 0
1522 3 96.37260333367101 1.9523069641120046 0 -1 0 0
1705 1 98.06335076057701 2.9284604461680033 1.5334759151630006 -1 0 0
1528 3 99.754098187484 1.9523069641120046 0 -1 0 0
1713 3 0 4.880767410280001 0 0 0 0
1719 3 3.3814948538129954 4.880767410280001 0 0 0 0
1725 3 6.762989707625998 4.880767410280001 0 0 0 0
1731 3 10.144484561439 4.880767410280001 0 0 0 0
1737 3 13.525979415251996 4.880767410280001 0 0 0 0
1743 3 16.90747426906499 4.880767410280001 0 0 0 0
1749 3 20.288969122878 4.880767410280001 0 0 0 0
1755 3 23.670463976690996 4.880767410280001 0 0 0 0
1761 3 27.05195883050399 4.880767410280001 0 0 0 0
1767 3 30.433453684317 4.880767410280001 0 0 0 0
1773 3 33.81494853813 4.880767410280001 0 0 0 0
1779 3 37.19644339194299 4.880767410280001 0 0 0 0
1785 3 40.577938245756 4.880767410280001 0 0 0 0
1791 3 43.959433099569 4.880767410280001 0 0 0 0
1797 3 47.34092795338199 4.880767410280001 0 0 0 0
1623 3 50.722422807195 4.880767410280001 0 -1 0 0
1629 3 54.103917661008005 4.880767410280001 0 -1 0 0
1635 3 57.485412514821 4.880767410280001 0 -1 0 0
1641 3 60.866907368634 4.880767410280001 0 -1 0 0
1647 3 64.248402222447 4.880767410280001 0 -1 0 0
1653 3 67.62989707626 4.880767410280001 0 -1 0 0
1659 3 71.011391930073 4.880767410280001 0 -1 0 0
1665 3 74.392886783886 4.880767410280001 0 -1 0 0
1671 3 77.77438163769901 4.880767410280001 0 -1 0 0
1677 3 81.155876491512 4.880767410280001 0 -1 0 0
1683 3 84.537371345325 4.880767410280001 0 -1 0 0
1689 3 87.918866199138 4.880767410280001 0 -1 0 0
1695 3 91.300361052951 4.880767410280001 0 -1 0 0
1701 3 94.681855906764 4.880767410280001 0 -1 0 0
1707 3 98.06335076057701 4.880767410280001 0 -1 0 0
1712 1 1.690747426906995 5.856920892335999 1.5334759151630006 0 0 0
1718 1 5.072242280719998 5.856920892335999 1.5334759151630006 0 0 0
1724 1 8.453737134533 5.856920892335999 1.5334759151630006 0 0 0
1730 1 11.835231988345996 5.856920892335999 1.5334759151630006 0 0 0
1736 1 15.216726842158991 5.856920892335999 1.5334759151630006 0 0 0
1742 1 18.598221695972 5.856920892335999 1.5334759151630006 0 0 0
1748 1 21.979716549784996 5.856920892335999 1.5334759151630006 0 0 0
1754 1 25.36121140359799 5.856920892335999 1.5334759151630006 0 0 0
1760 1 28.742706257411 5.856920892335999 1.5334759151630006 0 0 0
1766 1 32.124201111224 5.856920892335999 1.5334759151630006 0 0 0
1772 1 35.50569596503699 5.856920892335999 1.5334759151630006 0 0 0
1778 1 38.88719081885 5.856920892335999 1.5334759151630006 0 0 0
1784 1 42.268685672663 5.856920892335999 1.5334759151630006 0 0 0
1790 1 45.65018052647599 5.856920892335999 1.5334759151630006 0 0 0
1796 1 49.031675380289 5.856920892335999 1.5334759151630006 0 0 0
1622 1 52.413170234102004 5.856920892335999 1.5334759151630006 -1 0 0
1628 1 55.794665087915 5.856920892335999 1.5334759151630006 -1 0 0
1634 1 59.176159941728 5.856920892335999 1.5334759151630006 -1 0 0
1640 1 62.557654795541005 5.856920892335999 1.5334759151630006 -1 0 0
1646 1 65.939149649354 5.856920892335999 1.5334759151630006 -1 0 0
1652 1 69.320644503167 5.856920892335999 1.5334759151630006 -1 0 0
1658 1 72.70213935698 5.856920892335999 1.5334759151630006 -1 0 0
1664 1 76.08363421079301 5.856920892335999 1.5334759151630006 -1 0 0
1670 1 79.465129064606 5.856920892335999 1.5334759151630006 -1 0 0
1676 1 82.846623918419 5.856920892335999 1.5334759151630006 -1 0 0
1682 1 86.228118772232 5.856920892335999 1.5334759151630006 -1 0 0
1688 1 89.609613626045 5.856920892335999 1.5334759151630006 -1 0 0
1694 1 92.991108479858 5.856920892335999 1.5334759151630006 -1 0 0
1700 1 96.37260333367101 5.856920892335999 1.5334759151630006 -1 0 0
1706 1 99.754098187484 5.856920892335999 1.5334759151630006 -1 0 0
1714 3 1.690747426906995 7.809227856448004 0 0 0 0
1891 1 0 8.785381338504003 1.5334759151630006 0 0 0
1897 1 3.3814948538129954 8.785381338504003 1.5334759151630006 0 0 0
1720 3 5.072242280719998 7.809227856448004 0 0 0 0
1903 1 6.762989707625998 8.785381338504003 1.5334759151630006 0 0 0
1726 3 8.453737134533 7.809227856448004 0 0 0 0
1909 1 10.144484561439 8.785381338504003 1.5334759151630006 0 0 0
1732 3 11.835231988345996 7.809227856448004 0 0 0 0
1915 1 13.525979415251996 8.785381338504003 1.5334759151630006 0 0 0
1738 3 15.216726842158991 7.809227856448004 0 0 0 0
1921 1 16.90747426906499 8.785381338504003 1.5334759151630006 0 0 0
1744 3 18.598221695972 7.809227856448004 0 0 0 0
1927 1 20.288969122878 8.785381338504003 1.5334759151630006 0 0 0
1750 3 21.979716549784996 7.809227856448004 0 0 0 0
1933 1 23.670463976690996 8.785381338504003 1.5334759151630006 0 0 0
1756 3 25.36121140359799 7.809227856448004 0 0 0 0
1939 1 27.05195883050399 8.785381338504003 1.5334759151630006 0 0 0
1762 3 28.742706257411 7.809227856448004 0 0 0 0
1945 1 30.433453684317 8.785381338504003 1.5334759151630006 0 0 0
1768 3 32.124201111224 7.809227856448004 0 0 0 0
1951 1 33.81494853813 8.785381338504003 1.5334759151630006 0 0 0
1774 3 35.50569596503699 7.809227856448004 0 0 0 0
1957 1 37.19644339194299 8.785381338504003 1.5334759151630006 0 0 0
1780 3 38.88719081885 7.809227856448004 0 0 0 0
1963 1 40.577938245756 8.785381338504003 1.5334759151630006 0 0 0
1786 3 42.268685672663 7.809227856448004 0 0 0 0
1969 1 43.959433099569 8.785381338504003 1.5334759151630006 0 0 0
1792 3 45.65018052647599 7.809227856448004 0 0 0 0
1975 1 47.34092795338199 8.785381338504003 1.5334759151630006 0 0 0
1798 3 49.031675380289 7.809227856448004 0 0 0 0
1624 3 52.413170234102004 7.809227856448004 0 -1 0 0
1801 1 50.722422807195 8.785381338504003 1.5334759151630006 -1 0 0
1807 1 54.103917661008005 8.785381338504003 1.5334759151630006 -1 0 0
1630 3 55.794665087915 7.809227856448004 0 -1 0 0
1813 1 57.485412514821 8.785381338504003 1.5334759151630006 -1 0 0
1636 3 59.176159941728 7.809227856448004 0 -1 0 0
1819 1 60.866907368634 8.785381338504003 1.5334759151630006 -1 0 0
1642 3 62.557654795541005 7.809227856448004 0 -1 0 0
1825 1 64.248402222447 8.785381338504003 1.5334759151630006 -1 0 0
1648 3 65.939149649354 7.809227856448004 0 -1 0 0
1831 1 67.62989707626 8.785381338504003 1.5334759151630006 -1 0 0
1654 3 69.320644503167 7.809227856448004 0 -1 0 0
1837 1 71.011391930073 8.785381338504003 1.5334759151630006 -1 0 0
1660 3 72.70213935698 7.809227856448004 0 -1 0 0
1843 1 74.392886783886 8.785381338504003 1.5334759151630006 -1 0 0
1666 3 76.08363421079301 7.809227856448004 0 -1 0 0
1849 1 77.77438163769901 8.785381338504003 1.5334759151630006 -1 0 0
1672 3 79.465129064606 7.809227856448004 0 -1 0 0
1855 1 81.155876491512 8.785381338504003 1.5334759151630006 -1 0 0
1678 3 82.846623918419 7.809227856448004 0 -1 0 0
1861 1 84.537371345325 8.785381338504003 1.5334759151630006 -1 0 0
1684 3 86.228118772232 7.809227856448004 0 -1 0 0
1867 1 87.918866199138 8.785381338504003 1.5334759151630006 -1 0 0
1690 3 89.609613626045 7.809227856448004 0 -1 0 0
1873 1 91.300361052951 8.785381338504003 1.5334759151630006 -1 0 0
1696 3 92.991108479858 7.809227856448004 0 -1 0 0
1879 1 94.681855906764 8.785381338504003 1.5334759151630006 -1 0 0
1702 3 96.37260333367101 7.809227856448004 0 -1 0 0
1885 1 98.06335076057701 8.785381338504003 1.5334759151630006 -1 0 0
1708 3 99.754098187484 7.809227856448004 0 -1 0 0
1893 3 0 10.737688302616 0 0 0 0
1899 3 3.3814948538129954 10.737688302616 0 0 0 0
1905 3 6.762989707625998 10.737688302616 0 0 0 0
1911 3 10.144484561439 10.737688302616 0 0 0 0
1917 3 13.525979415251996 10.737688302616 0 0 0 0
1923 3 16.90747426906499 10.737688302616 0 0 0 0
1929 3 20.288969122878 10.737688302616 0 0 0 0
1935 3 23.670463976690996 10.737688302616 0 0 0 0
1941 3 27.05195883050399 10.737688302616 0 0 0 0
1947 3 30.433453684317 10.737688302616 0 0 0 0
1953 3 33.81494853813 10.737688302616 0 0 0 0
1959 3 37.19644339194299 10.737688302616 0 0 0 0
1965 3 40.577938245756 10.737688302616 0 0 0 0
1971 3 43.959433099569 10.737688302616 0 0 0 0
1977 3 47.34092795338199 10.737688302616 0 0 0 0
1803 3 50.722422807195 10.737688302616 0 -1 0 0
1809 3 54.103917661008005 10.737688302616 0 -1 0 0
1815 3 57.485412514821 10.737688302616 0 -1 0 0
1821 3 60.866907368634 10.737688302616 0 -1 0 0
1827 3 64.248402222447 10.737688302616 0 -1 0 0
1833 3 67.62989707626 10.737688302616 0 -1 0 0
1839 3 71.011391930073 10.737688302616 0 -1 0 0
1845 3 74.392886783886 10.737688302616 0 -1 0 0
1851 3 77.77438163769901 10.737688302616 0 -1 0 0
1857 3 81.155876491512 10.737688302616 0 -1 0 0
1863 3 84.537371345325 10.737688302616 0 -1 0 0
1869 3 87.918866199138 10.737688302616 0 -1 0 0
1875 3 91.300361052951 10.737688302616 0 -1 0 0
1881 3 94.681855906764 10.737688302616 0 -1 0 0
1887 3 98.06335076057701 10.737688302616 0 -1 0 0
1892 1 1.690747426906995 11.713841784671999 1.5334759151630006 0 0 0
1898 1 5.072242280719998 11.713841784671999 1.5334759151630006 0 0 0
1904 1 8.453737134533 11.713841784671999 1.5334759151630006 0 0 0
1910 1 11.835231988345996 11.713841784671999 1.5334759151630006 0 0 0
1916 1 15.216726842158991 11.713841784671999 1.5334759151630006 0 0 0
1922 1 18.598221695972 11.713841784671999 1.5334759151630006 0 0 0
1928 1 21.979716549784996 11.713841784671999 1.5334759151630006 0 0 0
1934 1 25.36121140359799 11.713841784671999 1.5334759151630006 0 0 0
1940 1 28.742706257411 11.713841784671999 1.5334759151630006 0 0 0
1946 1 32.124201111224 11.713841784671999 1.5334759151630006 0 0 0
1952 1 35.50569596503699 11.713841784671999 1.5334759151630006 0 0 0
1958 1 38.88719081885 11.713841784671999 1.5334759151630006 0 0 0
1964 1 42.268685672663 11.713841784671999 1.5334759151630006 0 0 0
1970 1 45.65018052647599 11.713841784671999 1.5334759151630006 0 0 0
1976 1 49.031675380289 11.713841784671999 1.5334759151630006 0 0 0
1802 1 52.413170234102004 11.713841784671999 1.5334759151630006 -1 0 0
1808 1 55.794665087915 11.713841784671999 1.5334759151630006 -1 0 0
1814 1 59.176159941728 11.713841784671999 1.5334759151630006 -1 0 0
1820 1 62.557654795541005 11.713841784671999 1.5334759151630006 -1 0 0
1826 1 65.939149649354 11.713841784671999 1.5334759151630006 -1 0 0
1832 1 69.320644503167 11.713841784671999 1.5334759151630006 -1 0 0
1838 1 72.70213935698 11.713841784671999 1.5334759151630006 -1 0 0
1844 1 76.08363421079301 11.713841784671999 1.5334759151630006 -1 0 0
1850 1 79.465129064606 11.713841784671999 1.5334759151630006 -1 0 0
1856 1 82.846623918419 11.713841784671999 1.5334759151630006 -1 0 0
1862 1 86.228118772232 11.713841784671999 1.5334759151630006 -1 0 0
1868 1 89.609613626045 11.713841784671999 1.5334759151630006 -1 0 0
1874 1 92.991108479858 11.713841784671999 1.5334759151630006 -1 0 0
1880 1 96.37260333367101 11.713841784671999 1.5334759151630006 -1 0 0
1886 1 99.754098187484 11.713841784671999 1.5334759151630006 -1 0 0
1894 3 1.690747426906995 13.666148748784003 0 0 0 0
1900 3 5.072242280719998 13.666148748784003 0 0 0 0
1906 3 8.453737134533 13.666148748784003 0 0 0 0
1912 3 11.835231988345996 13.666148748784003 0 0 0 0
1918 3 15.216726842158991 13.666148748784003 0 0 0 0
1924 3 18.598221695972 13.666148748784003 0 0 0 0
1930 3 21.979716549784996 13.666148748784003 0 0 0 0
1936 3 25.36121140359799 13.666148748784003 0 0 0 0
1942 3 28.742706257411 13.666148748784003 0 0 0 0
1948 3 32.124201111224 13.666148748784003 0 0 0 0
1954 3 35.50569596503699 13.666148748784003 0 0 0 0
1960 3 38.88719081885 13.666148748784003 0 0 0 0
1966 3 42.268685672663 13.666148748784003 0 0 0 0
1972 3 45.65018052647599 13.666148748784003 0 0 0 0
1978 3 49.031675380289 13.666148748784003 0 0 0 0
1804 3 52.413170234102004 13.666148748784003 0 -1 0 0
1810 3 55.794665087915 13.666148748784003 0 -1 0 0
1816 3 59.176159941728 13.666148748784003 0 -1 0 0
1822 3 62.557654795541005 13.666148748784003 0 -1 0 0
1828 3 65.939149649354 13.666148748784003 0 -1 0 0
1834 3 69.320644503167 13.666148748784003 0 -1 0 0
1840 3 72.70213935698 13.666148748784003 0 -1 0 0
1846 3 76.08363421079301 13.666148748784003 0 -1 0 0
1852 3 79.465129064606 13.666148748784003 0 -1 0 0
1858 3 82.846623918419 13.666148748784003 0 -1 0 0
1864 3 86.228118772232 13.666148748784003 0 -1 0 0
1870 3 89.609613626045 13.666148748784003 0 -1 0 0
1876 3 92.991108479858 13.666148748784003 0 -1 0 0
1882 3 96.37260333367101 13.666148748784003 0 -1 0 0
1888 3 99.754098187484 13.666148748784003 0 -1 0 0
2071 1 0 14.642302230840002 1.5334759151630006 0 0 0
2077 1 3.3814948538129954 14.642302230840002 1.5334759151630006 0 0 0
2083 1 6.762989707625998 14.642302230840002 1.5334759151630006 0 0 0
2089 1 10.144484561439 14.642302230840002 1.5334759151630006 0 0 0
2095 1 13.525979415251996 14.642302230840002 1.5334759151630006 0 0 0
2101 1 16.90747426906499 14.642302230840002 1.5334759151630006 0 0 0
2107 1 20.288969122878 14.642302230840002 1.5334759151630006 0 0 0
2113 1 23.670463976690996 14.642302230840002 1.5334759151630006 0 0 0
2119 1 27.05195883050399 14.642302230840002 1.5334759151630006 0 0 0
2125 1 30.433453684317 14.642302230840002 1.5334759151630006 0 0 0
2131 1 33.81494853813 14.642302230840002 1.5334759151630006 0 0 0
2137 1 37.19644339194299 14.642302230840002 1.5334759151630006 0 0 0
2143 1 40.577938245756 14.642302230840002 1.5334759151630006 0 0 0
2149 1 43.959433099569 14.642302230840002 1.5334759151630006 0 0 0
2155 1 47.34092795338199 14.642302230840002 1.5334759151630006 0 0 0
1981 1 50.722422807195 14.642302230840002 1.5334759151630006 -1 0 0
1987 1 54.103917661008005 14.642302230840002 1.5334759151630006 -1 0 0
1993 1 57.485412514821 14.642302230840002 1.5334759151630006 -1 0 0
1999 1 60.866907368634 14.642302230840002 1.5334759151630006 -1 0 0
2005 1 64.248402222447 14.642302230840002 1.5334759151630006 -1 0 0
2011 1 67.62989707626 14.642302230840002 1.5334759151630006 -1 0 0
2017 1 71.011391930073 14.642302230840002 1.5334759151630006 -1 0 0
2023 1 74.392886783886 14.642302230840002 1.5334759151630006 -1 0 0
2029 1 77.77438163769901 14.642302230840002 1.5334759151630006 -1 0 0
2035 1 81.155876491512 14.642302230840002 1.5334759151630006 -1 0 0
2041 1 84.537371345325 14.642302230840002 1.5334759151630006 -1 0 0
2047 1 87.918866199138 14.642302230840002 1.5334759151630006 -1 0 0
2053 1 91.300361052951 14.642302230840002 1.5334759151630006 -1 0 0
2059 1 94.681855906764 14.642302230840002 1.5334759151630006 -1 0 0
2065 1 98.06335076057701 14.642302230840002 1.5334759151630006 -1 0 0
2073 3 0 16.594609194952 0 0 0 0
2072 1 1.690747426906995 17.570762677008005 1.5334759151630006 0 0 0
2079 3 3.3814948538129954 16.594609194952 0 0 0 0
2078 1 5.072242280719998 17.570762677008005 1.5334759151630006 0 0 0
2085 3 6.762989707625998 16.594609194952 0 0 0 0
2084 1 8.453737134533 17.570762677008005 1.5334759151630006 0 0 0
2091 3 10.144484561439 16.594609194952 0 0 0 0
2090 1 11.835231988345996 17.570762677008005 1.5334759151630006 0 0 0
2097 3 13.525979415251996 16.594609194952 0 0 0 0
2096 1 15.216726842158991 17.570762677008005 1.5334759151630006 0 0 0
2103 3 16.90747426906499 16.594609194952 0 0 0 0
2102 1 18.598221695972 17.570762677008005 1.5334759151630006 0 0 0
2109 3 20.288969122878 16.594609194952 0 0 0 0
2108 1 21.979716549784996 17.570762677008005 1.5334759151630006 0 0 0
2115 3 23.670463976690996 16.594609194952 0 0 0 0
2121 3 27.05195883050399 16.594609194952 0 0 0 0
2114 1 25.36121140359799 17.570762677008005 1.5334759151630006 0 0 0
2120 1 28.742706257411 17.570762677008005 1.5334759151630006 0 0 0
2127 3 30.433453684317 16.594609194952 0 0 0 0
2126 1 32.124201111224 17.570762677008005 1.5334759151630006 0 0 0
2133 3 33.81494853813 16.594609194952 0 0 0 0
2132 1 35.50569596503699 17.570762677008005 1.5334759151630006 0 0 0
2139 3 37.19644339194299 16.594609194952 0 0 0 0
2138 1 38.88719081885 17.570762677008005 1.5334759151630006 0 0 0
2145 3 40.577938245756 16.594609194952 0 0 0 0
2144 1 42.268685672663 17.570762677008005 1.5334759151630006 0 0 0
2151 3 43.959433099569 16.594609194952 0 0 0 0
2150 1 45.65018052647599 17.570762677008005 1.5334759151630006 0 0 0
2157 3 47.34092795338199 16.594609194952 0 0 0 0
2156 1 49.031675380289 17.570762677008005 1.5334759151630006 0 0 0
1983 3 50.722422807195 16.594609194952 0 -1 0 0
1982 1 52.413170234102004 17.570762677008005 1.5334759151630006 -1 0 0
1989 3 54.103917661008005 16.594609194952 0 -1 0 0
1988 1 55.794665087915 17.570762677008005 1.5334759151630006 -1 0 0
1995 3 57.485412514821 16.594609194952 0 -1 0 0
1994 1 59.176159941728 17.570762677008005 1.5334759151630006 -1 0 0
2001 3 60.866907368634 16.594609194952 0 -1 0 0
2000 1 62.557654795541005 17.570762677008005 1.5334759151630006 -1 0 0
2007 3 64.248402222447 16.594609194952 0 -1 0 0
2006 1 65.939149649354 17.570762677008005 1.5334759151630006 -1 0 0
2013 3 67.62989707626 16.594609194952 0 -1 0 0
2012 1 69.320644503167 17.570762677008005 1.5334759151630006 -1 0 0
2019 3 71.011391930073 16.594609194952 0 -1 0 0
2018 1 72.70213935698 17.570762677008005 1.5334759151630006 -1 0 0
2025 3 74.392886783886 16.594609194952 0 -1 0 0
2031 3 77.77438163769901 16.594609194952 0 -1 0 0
2024 1 76.08363421079301 17.570762677008005 1.5334759151630006 -1 0 0
2030 1 79.465129064606 17.570762677008005 1.5334759151630006 -1 0 0
2037 3 81.155876491512 16.594609194952 0 -1 0 0
2036 1 82.846623918419 17.570762677008005 1.5334759151630006 -1 0 0
2043 3 84.537371345325 16.594609194952 0 -1 0 0
2042 1 86.228118772232 17.570762677008005 1.5334759151630006 -1 0 0
2049 3 87.918866199138 16.594609194952 0 -1 0 0
2048 1 89.609613626045 17.570762677008005 1.5334759151630006 -1 0 0
2055 3 91.300361052951 16.594609194952 0 -1 0 0
2054 1 92.991108479858 17.570762677008005 1.5334759151630006 -1 0 0
2061 3 94.681855906764 16.594609194952 0 -1 0 0
2060 1 96.37260333367101 17.570762677008005 1.5334759151630006 -1 0 0
2067 3 98.06335076057701 16.594609194952 0 -1 0 0
2066 1 99.754098187484 17.570762677008005 1.5334759151630006 -1 0 0
2074 3 1.690747426906995 19.523069641120003 0 0 0 0
2080 3 5.072242280719998 19.523069641120003 0 0 0 0
2086 3 8.453737134533 19.523069641120003 0 0 0 0
2092 3 11.835231988345996 19.523069641120003 0 0 0 0
2098 3 15.216726842158991 19.523069641120003 0 0 0 0
2104 3 18.598221695972 19.523069641120003 0 0 0 0
2110 3 21.979716549784996 19.523069641120003 0 0 0 0
2116 3 25.36121140359799 19.523069641120003 0 0 0 0
2122 3 28.742706257411 19.523069641120003 0 0 0 0
2128 3 32.124201111224 19.523069641120003 0 0 0 0
2134 3 35.50569596503699 19.523069641120003 0 0 0 0
2140 3 38.88719081885 19.523069641120003 0 0 0 0
2146 3 42.268685672663 19.523069641120003 0 0 0 0
2152 3 45.65018052647599 19.523069641120003 0 0 0 0
2158 3 49.031675380289 19.523069641120003 0 0 0 0
1984 3 52.413170234102004 19.523069641120003 0 -1 0 0
1990 3 55.794665087915 19.523069641120003 0 -1 0 0
1996 3 59.176159941728 19.523069641120003 0 -1 0 0
2002 3 62.557654795541005 19.523069641120003 0 -1 0 0
2008 3 65.939149649354 19.523069641120003 0 -1 0 0
2014 3 69.320644503167 19.523069641120003 0 -1 0 0
2020 3 72.70213935698 19.523069641120003 0 -1 0 0
2026 3 76.08363421079301 19.523069641120003 0 -1 0 0
2032 3 79.465129064606 19.523069641120003 0 -1 0 0
2038 3 82.846623918419 19.523069641120003 0 -1 0 0
2044 3 86.228118772232 19.523069641120003 0 -1 0 0
2050 3 89.609613626045 19.523069641120003 0 -1 0 0
2056 3 92.991108479858 19.523069641120003 0 -1 0 0
2062 3 96.37260333367101 19.523069641120003 0 -1 0 0
2068 3 99.754098187484 19.523069641120003 0 -1 0 0
2251 1 0 20.499223123175994 1.5334759151630006 0 0 0
2257 1 3.3814948538129954 20.499223123175994 1.5334759151630006 0 0 0
2263 1 6.762989707625998 20.499223123175994 1.5334759151630006 0 0 0
2269 1 10.144484561439 20.499223123175994 1.5334759151630006 0 0 0
2275 1 13.525979415251996 20.499223123175994 1.5334759151630006 0 0 0
2281 1 16.90747426906499 20.499223123175994 1.5334759151630006 0 0 0
2287 1 20.288969122878 20.499223123175994 1.5334759151630006 0 0 0
2293 1 23.670463976690996 20.499223123175994 1.5334759151630006 0 0 0
2299 1 27.05195883050399 20.499223123175994 1.5334759151630006 0 0 0
2305 1 30.433453684317 20.499223123175994 1.5334759151630006 0 0 0
2311 1 33.81494853813 20.499223123175994 1.5334759151630006 0 0 0
2317 1 37.19644339194299 20.499223123175994 1.5334759151630006 0 0 0
2323 1 40.577938245756 20.499223123175994 1.5334759151630006 0 0 0
2329 1 43.959433099569 20.499223123175994 1.5334759151630006 0 0 0
2335 1 47.34092795338199 20.499223123175994 1.5334759151630006 0 0 0
2161 1 50.722422807195 20.499223123175994 1.5334759151630006 -1 0 0
2167 1 54.103917661008005 20.499223123175994 1.5334759151630006 -1 0 0
2173 1 57.485412514821 20.499223123175994 1.5334759151630006 -1 0 0
2179 1 60.866907368634 20.499223123175994 1.5334759151630006 -1 0 0
2185 1 64.248402222447 20.499223123175994 1.5334759151630006 -1 0 0
2191 1 67.62989707626 20.499223123175994 1.5334759151630006 -1 0 0
2197 1 71.011391930073 20.499223123175994 1.5334759151630006 -1 0 0
2203 1 74.392886783886 20.499223123175994 1.5334759151630006 -1 0 0
2209 1 77.77438163769901 20.499223123175994 1.5334759151630006 -1 0 0
2215 1 81.155876491512 20.499223123175994 1.5334759151630006 -1 0 0
2221 1 84.537371345325 20.499223123175994 1.5334759151630006 -1 0 0
2227 1 87.918866199138 20.499223123175994 1.5334759151630006 -1 0 0
2233 1 91.300361052951 20.499223123175994 1.5334759151630006 -1 0 0
2239 1 94.681855906764 20.499223123175994 1.5334759151630006 -1 0 0
2245 1 98.06335076057701 20.499223123175994 1.5334759151630006 -1 0 0
2253 3 0 22.451530087288006 0 0 0 0
2252 1 1.690747426906995 23.427683569343998 1.5334759151630006 0 0 0
2259 3 3.3814948538129954 22.451530087288006 0 0 0 0
2258 1 5.072242280719998 23.427683569343998 1.5334759151630006 0 0 0
2265 3 6.762989707625998 22.451530087288006 0 0 0 0
2264 1 8.453737134533 23.427683569343998 1.5334759151630006 0 0 0
2271 3 10.144484561439 22.451530087288006 0 0 0 0
2270 1 11.835231988345996 23.427683569343998 1.5334759151630006 0 0 0
2277 3 13.525979415251996 22.451530087288006 0 0 0 0
2276 1 15.216726842158991 23.427683569343998 1.5334759151630006 0 0 0
2283 3 16.90747426906499 22.451530087288006 0 0 0 0
2282 1 18.598221695972 23.427683569343998 1.5334759151630006 0 0 0
2289 3 20.288969122878 22.451530087288006 0 0 0 0
2288 1 21.979716549784996 23.427683569343998 1.5334759151630006 0 0 0
2295 3 23.670463976690996 22.451530087288006 0 0 0 0
2301 3 27.05195883050399 22.451530087288006 0 0 0 0
2294 1 25.36121140359799 23.427683569343998 1.5334759151630006 0 0 0
2300 1 28.742706257411 23.427683569343998 1.5334759151630006 0 0 0
2307 3 30.433453684317 22.451530087288006 0 0 0 0
2306 1 32.124201111224 23.427683569343998 1.5334759151630006 0 0 0
2313 3 33.81494853813 22.451530087288006 0 0 0 0
2312 1 35.50569596503699 23.427683569343998 1.5334759151630006 0 0 0
2319 3 37.19644339194299 22.451530087288006 0 0 0 0
2318 1 38.88719081885 23.427683569343998 1.5334759151630006 0 0 0
2325 3 40.577938245756 22.451530087288006 0 0 0 0
2324 1 42.268685672663 23.427683569343998 1.5334759151630006 0 0 0
2331 3 43.959433099569 22.451530087288006 0 0 0 0
2330 1 45.65018052647599 23.427683569343998 1.5334759151630006 0 0 0
2337 3 47.34092795338199 22.451530087288006 0 0 0 0
2336 1 49.031675380289 23.427683569343998 1.5334759151630006 0 0 0
2163 3 50.722422807195 22.451530087288006 0 -1 0 0
2162 1 52.413170234102004 23.427683569343998 1.5334759151630006 -1 0 0
2169 3 54.103917661008005 22.451530087288006 0 -1 0 0
2168 1 55.794665087915 23.427683569343998 1.5334759151630006 -1 0 0
2175 3 57.485412514821 22.451530087288006 0 -1 0 0
2174 1 59.176159941728 23.427683569343998 1.5334759151630006 -1 0 0
2181 3 60.866907368634 22.451530087288006 0 -1 0 0
2180 1 62.557654795541005 23.427683569343998 1.5334759151630006 -1 0 0
2187 3 64.248402222447 22.451530087288006 0 -1 0 0
2186 1 65.939149649354 23.427683569343998 1.5334759151630006 -1 0 0
2193 3 67.62989707626 22.451530087288006 0 -1 0 0
2192 1 69.320644503167 23.427683569343998 1.5334759151630006 -1 0 0
2199 3 71.011391930073 22.451530087288006 0 -1 0 0
2198 1 72.70213935698 23.427683569343998 1.5334759151630006 -1 0 0
2205 3 74.392886783886 22.451530087288006 0 -1 0 0
2211 3 77.77438163769901 22.451530087288006 0 -1 0 0
2204 1 76.08363421079301 23.427683569343998 1.5334759151630006 -1 0 0
2210 1 79.465129064606 23.427683569343998 1.5334759151630006 -1 0 0
2217 3 81.155876491512 22.451530087288006 0 -1 0 0
2216 1 82.846623918419 23.427683569343998 1.5334759151630006 -1 0 0
2223 3 84.537371345325 22.451530087288006 0 -1 0 0
2222 1 86.228118772232 23.427683569343998 1.5334759151630006 -1 0 0
2229 3 87.918866199138 22.451530087288006 0 -1 0 0
2228 1 89.609613626045 23.427683569343998 1.5334759151630006 -1 0 0
2235 3 91.300361052951 22.451530087288006 0 -1 0 0
2234 1 92.991108479858 23.427683569343998 1.5334759151630006 -1 0 0
2241 3 94.681855906764 22.451530087288006 0 -1 0 0
2240 1 96.37260333367101 23.427683569343998 1.5334759151630006 -1 0 0