LAMMPS data file via write_data, version 29 Aug 2024, timestep = 2, units = metal

9180 atoms
9 atom types

0 101.44484561439 xlo xhi
0 99.567655169712 ylo yhi
-50 50 zlo zhi

Masses

1 180.94788
2 180.94788
3 180.94788
4 32.06
5 32.06
6 32.06
7 32.06
8 32.06
9 32.06

Atoms # atomic

1534 5 1.6907474269066936 1.9523065230623953 0.028353794004021608 0 0 0
1711 1 2.931824364436208e-14 2.9279884150192523 1.5313635625332411 0 0 0
1717 1 3.3814948538130265 2.9279884150192523 1.5313635625332407 0 0 0
1540 5 5.072242280719694 1.952306523062396 0.028353794004022506 0 0 0
1713 5 1.7288859242636494e-13 4.880766969230393 0.028353794004020216 0 0 0
1719 5 3.38149485381317 4.880766969230394 0.028353794004021337 0 0 0
1712 1 1.6907474269065768 5.8564488611872525 1.5313635625332396 0 0 0
1718 1 5.072242280719576 5.8564488611872525 1.5313635625332396 0 0 0
1723 1 6.762989707626028 2.9279884150192528 1.5313635625332416 0 0 0
1546 5 8.453737134532696 1.9523065230623962 0.02835379400402305 0 0 0
1729 1 10.144484561439029 2.927988415019253 1.531363562533242 0 0 0
1552 5 11.835231988345694 1.9523065230623955 0.028353794004022125 0 0 0
1725 5 6.762989707626172 4.880766969230394 0.028353794004021646 0 0 0
1731 5 10.144484561439173 4.880766969230393 0.02835379400402071 0 0 0
1724 1 8.453737134532577 5.8564488611872525 1.5313635625332396 0 0 0
1730 1 11.835231988345576 5.8564488611872525 1.5313635625332396 0 0 0
1735 1 13.525979415252026 2.9279884150192528 1.5313635625332414 0 0 0
1558 5 15.216726842158689 1.952306523062395 0.028353794004021486 0 0 0
1741 1 16.907474269065023 2.927988415019252 1.5313635625332398 0 0 0
1737 5 13.525979415252168 4.880766969230393 0.0283537940040206 0 0 0
1743 5 16.907474269065165 4.880766969230395 0.028353794004022114 0 0 0
1736 1 15.216726842158574 5.8564488611872525 1.5313635625332398 0 0 0
1564 5 18.598221695971695 1.9523065230623966 0.02835379400402332 0 0 0
1747 1 20.288969122878026 2.9279884150192537 1.531363562533243 0 0 0
1570 5 21.979716549784694 1.9523065230623955 0.028353794004022465 0 0 0
1753 1 23.670463976691025 2.9279884150192528 1.5313635625332414 0 0 0
1749 5 20.28896912287817 4.880766969230393 0.028353794004021087 0 0 0
1755 5 23.670463976691167 4.880766969230393 0.02835379400402048 0 0 0
1742 1 18.598221695971574 5.8564488611872525 1.5313635625332396 0 0 0
1748 1 21.979716549784577 5.8564488611872525 1.5313635625332396 0 0 0
1576 5 25.36121140359769 1.9523065230623953 0.028353794004021667 0 0 0
1759 1 27.051958830504024 2.927988415019252 1.5313635625332398 0 0 0
1582 5 28.742706257410696 1.9523065230623968 0.02835379400402335 0 0 0
1761 5 27.051958830504166 4.880766969230395 0.02835379400402222 0 0 0
1754 1 25.361211403597572 5.8564488611872525 1.5313635625332396 0 0 0
1760 1 28.742706257410575 5.8564488611872525 1.5313635625332396 0 0 0
1765 1 30.433453684317026 2.927988415019254 1.5313635625332436 0 0 0
1588 5 32.12420111122369 1.9523065230623957 0.02835379400402281 0 0 0
1771 1 33.814948538130025 2.9279884150192528 1.5313635625332414 0 0 0
1594 5 35.505695965036686 1.9523065230623948 0.028353794004021042 0 0 0
1767 5 30.433453684317172 4.880766969230394 0.02835379400402137 0 0 0
1773 5 33.814948538130174 4.880766969230393 0.02835379400402048 0 0 0
1766 1 32.12420111122358 5.8564488611872525 1.5313635625332391 0 0 0
1772 1 35.50569596503657 5.8564488611872525 1.5313635625332396 0 0 0
1777 1 37.19644339194302 2.9279884150192514 1.5313635625332391 0 0 0
1600 5 38.887190818849696 1.9523065230623968 0.02835379400402359 0 0 0
1783 1 40.57793824575603 2.927988415019254 1.5313635625332436 0 0 0
1779 5 37.19644339194317 4.880766969230395 0.028353794004021583 0 0 0
1785 5 40.57793824575617 4.880766969230394 0.028353794004021705 0 0 0
1778 1 38.887190818849575 5.8564488611872525 1.5313635625332398 0 0 0
1606 5 42.26868567266269 1.9523065230623957 0.028353794004022843 0 0 0
1789 1 43.959433099569026 2.9279884150192528 1.5313635625332414 0 0 0
1612 5 45.65018052647569 1.9523065230623948 0.028353794004021042 0 0 0
1795 1 47.34092795338202 2.9279884150192514 1.5313635625332394 0 0 0
1791 5 43.959433099569175 4.880766969230393 0.028353794004020504 0 0 0
1797 5 47.34092795338217 4.880766969230395 0.028353794004021573 0 0 0
1784 1 42.26868567266258 5.8564488611872525 1.5313635625332394 0 0 0
1790 1 45.65018052647557 5.8564488611872525 1.5313635625332396 0 0 0
1618 5 49.031675380288696 1.9523065230623968 0.028353794004023256 0 0 0
1444 5 52.4131702341017 1.9523065230623964 0.028353794004023394 -1 0 0
1621 1 50.72242280719503 2.927988415019253 1.5313635625332425 -1 0 0
1623 5 50.72242280719517 4.880766969230395 0.02835379400402231 -1 0 0
1796 1 49.031675380288576 5.8564488611872525 1.5313635625332398 0 0 0
1622 1 52.413170234101585 5.8564488611872525 1.5313635625332396 -1 0 0
1627 1 54.10391766100803 2.927988415019253 1.5313635625332425 -1 0 0
1450 5 55.794665087914694 1.9523065230623955 0.028353794004022253 -1 0 0
1633 1 57.48541251482103 2.927988415019252 1.5313635625332405 -1 0 0
1456 5 59.1761599417277 1.952306523062396 0.028353794004022687 -1 0 0
1629 5 54.103917661008175 4.880766969230394 0.028353794004021035 -1 0 0
1635 5 57.48541251482118 4.880766969230394 0.028353794004021115 -1 0 0
1628 1 55.79466508791458 5.8564488611872525 1.5313635625332396 -1 0 0
1634 1 59.17615994172758 5.8564488611872525 1.5313635625332396 -1 0 0
1639 1 60.86690736863403 2.9279884150192528 1.5313635625332414 -1 0 0
1462 5 62.5576547955407 1.952306523062395 0.02835379400402136 -1 0 0
1645 1 64.24840222244703 2.927988415019253 1.531363562533242 -1 0 0
1641 5 60.86690736863417 4.880766969230394 0.028353794004021188 -1 0 0
1647 5 64.24840222244717 4.880766969230393 0.02835379400402046 -1 0 0
1640 1 62.55765479554058 5.8564488611872525 1.53136356253324 -1 0 0
1468 5 65.9391496493537 1.9523065230623957 0.0283537940040227 -1 0 0
1651 1 67.62989707626002 2.9279884150192523 1.5313635625332405 -1 0 0
1474 5 69.3206445031667 1.9523065230623966 0.02835379400402296 -1 0 0
1657 1 71.01139193007303 2.927988415019253 1.5313635625332422 -1 0 0
1653 5 67.62989707626016 4.880766969230395 0.028353794004021597 -1 0 0
1659 5 71.01139193007317 4.880766969230394 0.028353794004021684 -1 0 0
1646 1 65.93914964935358 5.8564488611872525 1.5313635625332396 -1 0 0
1652 1 69.32064450316658 5.856448861187252 1.5313635625332385 -1 0 0
1480 5 72.7021393569797 1.9523065230623957 0.028353794004022624 -1 0 0
1663 1 74.39288678388603 2.9279884150192523 1.5313635625332405 -1 0 0
1486 5 76.08363421079271 1.9523065230623966 0.02835379400402296 -1 0 0
1665 5 74.39288678388617 4.880766969230395 0.028353794004021583 -1 0 0
1658 1 72.70213935697959 5.856448861187253 1.531363562533241 -1 0 0
1664 1 76.08363421079258 5.856448861187252 1.5313635625332385 -1 0 0
1669 1 77.77438163769904 2.927988415019253 1.5313635625332422 -1 0 0
1492 5 79.4651290646057 1.9523065230623955 0.028353794004022204 -1 0 0
1675 1 81.15587649151203 2.9279884150192528 1.5313635625332414 -1 0 0
1498 5 82.8466239184187 1.9523065230623953 0.02835379400402181 -1 0 0
1671 5 77.77438163769918 4.880766969230394 0.028353794004021705 -1 0 0
1677 5 81.15587649151217 4.880766969230393 0.02835379400402053 -1 0 0
1670 1 79.46512906460559 5.8564488611872525 1.5313635625332396 -1 0 0
1676 1 82.84662391841859 5.8564488611872525 1.5313635625332396 -1 0 0
1681 1 84.53737134532503 2.9279884150192528 1.5313635625332414 -1 0 0
1504 5 86.2281187722317 1.9523065230623955 0.02835379400402222 -1 0 0
1687 1 87.91886619913802 2.9279884150192523 1.5313635625332405 -1 0 0
1683 5 84.53737134532517 4.880766969230393 0.028353794004020504 -1 0 0
1689 5 87.91886619913817 4.880766969230395 0.028353794004021583 -1 0 0
1682 1 86.22811877223158 5.856448861187253 1.531363562533241 -1 0 0
1510 5 89.6096136260447 1.9523065230623966 0.028353794004022968 -1 0 0
1693 1 91.30036105295103 2.927988415019253 1.5313635625332422 -1 0 0
1516 5 92.9911084798577 1.9523065230623957 0.028353794004022617 -1 0 0
1699 1 94.68185590676403 2.9279884150192523 1.5313635625332405 -1 0 0
1695 5 91.30036105295117 4.880766969230394 0.028353794004021684 -1 0 0
1701 5 94.68185590676417 4.880766969230395 0.028353794004021583 -1 0 0
1688 1 89.60961362604458 5.856448861187252 1.5313635625332385 -1 0 0
1694 1 92.99110847985759 5.856448861187253 1.531363562533241 -1 0 0
1522 5 96.37260333367071 1.9523065230623966 0.028353794004022968 -1 0 0
1705 1 98.06335076057704 2.927988415019253 1.5313635625332422 -1 0 0
1528 5 99.7540981874837 1.9523065230623957 0.028353794004022725 -1 0 0
1707 5 98.06335076057718 4.880766969230394 0.028353794004021705 -1 0 0
1700 1 96.37260333367058 5.856448861187252 1.5313635625332385 -1 0 0
1706 1 99.75409818748359 5.8564488611872525 1.5313635625332398 -1 0 0
1714 5 1.6907474269066936 7.809227415398395 0.028353794004021455 0 0 0
1891 1 2.916494431035748e-14 8.784909307355251 1.5313635625332411 0 0 0
1897 1 3.3814948538130265 8.784909307355251 1.5313635625332407 0 0 0
1720 5 5.072242280719694 7.809227415398395 0.028353794004022426 0 0 0
1893 5 1.7295988371386846e-13 10.737687861566393 0.02835379400402089 0 0 0
1899 5 3.38149485381317 10.737687861566394 0.028353794004021958 0 0 0
1892 1 1.6907474269065765 11.713369753523253 1.5313635625332402 0 0 0
1898 1 5.072242280719576 11.713369753523253 1.5313635625332402 0 0 0
1903 1 6.762989707626027 8.784909307355251 1.5313635625332414 0 0 0
1726 5 8.453737134532696 7.809227415398396 0.028353794004022846 0 0 0
1909 1 10.144484561439029 8.784909307355253 1.5313635625332422 0 0 0
1732 5 11.835231988345694 7.809227415398395 0.028353794004021982 0 0 0
1905 5 6.762989707626172 10.737687861566394 0.028353794004022305 0 0 0
1911 5 10.144484561439173 10.737687861566393 0.028353794004021316 0 0 0
1904 1 8.453737134532577 11.713369753523253 1.5313635625332402 0 0 0
1910 1 11.835231988345576 11.713369753523253 1.5313635625332405 0 0 0
1915 1 13.525979415252026 8.784909307355251 1.5313635625332414 0 0 0
1738 5 15.216726842158689 7.809227415398395 0.02835379400402141 0 0 0
1921 1 16.907474269065023 8.784909307355251 1.5313635625332398 0 0 0
1917 5 13.525979415252168 10.737687861566393 0.028353794004021292 0 0 0
1923 5 16.907474269065165 10.737687861566394 0.028353794004022558 0 0 0
1916 1 15.216726842158574 11.713369753523253 1.5313635625332407 0 0 0
1744 5 18.598221695971695 7.809227415398396 0.02835379400402325 0 0 0
1927 1 20.288969122878026 8.784909307355253 1.531363562533243 0 0 0
1750 5 21.979716549784694 7.809227415398395 0.028353794004022305 0 0 0
1933 1 23.670463976691025 8.784909307355251 1.5313635625332416 0 0 0
1929 5 20.28896912287817 10.737687861566393 0.028353794004021646 0 0 0
1935 5 23.670463976691167 10.737687861566393 0.02835379400402111 0 0 0
1922 1 18.598221695971574 11.713369753523253 1.5313635625332402 0 0 0
1928 1 21.979716549784577 11.713369753523253 1.5313635625332402 0 0 0
1756 5 25.36121140359769 7.809227415398395 0.028353794004021576 0 0 0
1939 1 27.051958830504024 8.784909307355251 1.5313635625332398 0 0 0
1762 5 28.742706257410696 7.809227415398396 0.028353794004023283 0 0 0
1941 5 27.051958830504166 10.737687861566394 0.02835379400402273 0 0 0
1934 1 25.361211403597572 11.713369753523253 1.5313635625332405 0 0 0
1940 1 28.742706257410575 11.713369753523253 1.5313635625332402 0 0 0
1945 1 30.433453684317026 8.784909307355253 1.5313635625332436 0 0 0
1768 5 32.12420111122369 7.809227415398395 0.028353794004022596 0 0 0
1951 1 33.814948538130025 8.784909307355251 1.5313635625332416 0 0 0
1774 5 35.505695965036686 7.809227415398394 0.02835379400402096 0 0 0
1947 5 30.433453684317172 10.737687861566393 0.028353794004021975 0 0 0
1953 5 33.814948538130174 10.737687861566393 0.02835379400402111 0 0 0
1946 1 32.12420111122358 11.713369753523253 1.53136356253324 0 0 0
1952 1 35.50569596503657 11.713369753523253 1.5313635625332405 0 0 0
1957 1 37.19644339194302 8.784909307355251 1.5313635625332394 0 0 0
1780 5 38.887190818849696 7.8092274153983965 0.028353794004023516 0 0 0
1963 1 40.57793824575603 8.784909307355253 1.5313635625332436 0 0 0
1959 5 37.19644339194317 10.737687861566394 0.02835379400402208 0 0 0
1965 5 40.57793824575617 10.737687861566393 0.028353794004022267 0 0 0
1958 1 38.887190818849575 11.713369753523253 1.5313635625332402 0 0 0
1786 5 42.26868567266269 7.809227415398395 0.02835379400402262 0 0 0
1969 1 43.959433099569026 8.784909307355251 1.5313635625332416 0 0 0
1792 5 45.65018052647569 7.809227415398394 0.02835379400402096 0 0 0
1975 1 47.34092795338202 8.784909307355251 1.5313635625332394 0 0 0
1971 5 43.959433099569175 10.737687861566393 0.028353794004021136 0 0 0
1977 5 47.34092795338217 10.737687861566394 0.028353794004022066 0 0 0
1964 1 42.26868567266258 11.713369753523253 1.5313635625332405 0 0 0
1970 1 45.65018052647557 11.713369753523253 1.5313635625332405 0 0 0
1798 5 49.031675380288696 7.8092274153983965 0.028353794004023224 0 0 0
1624 5 52.4131702341017 7.809227415398396 0.02835379400402324 -1 0 0
1801 1 50.72242280719503 8.784909307355253 1.5313635625332425 -1 0 0
1803 5 50.72242280719517 10.737687861566394 0.028353794004022843 -1 0 0
1976 1 49.031675380288576 11.713369753523253 1.5313635625332402 0 0 0
1802 1 52.413170234101585 11.713369753523253 1.5313635625332402 -1 0 0
1807 1 54.10391766100803 8.784909307355253 1.5313635625332427 -1 0 0
1630 5 55.794665087914694 7.809227415398395 0.0283537940040221 -1 0 0
1813 1 57.48541251482103 8.784909307355251 1.5313635625332402 -1 0 0
1636 5 59.1761599417277 7.809227415398396 0.028353794004022603 -1 0 0
1809 5 54.103917661008175 10.737687861566393 0.028353794004021594 -1 0 0
1815 5 57.48541251482118 10.737687861566394 0.028353794004021673 -1 0 0
1808 1 55.79466508791458 11.713369753523253 1.5313635625332405 -1 0 0
1814 1 59.17615994172758 11.713369753523253 1.5313635625332402 -1 0 0
1819 1 60.86690736863403 8.784909307355251 1.5313635625332414 -1 0 0
1642 5 62.5576547955407 7.809227415398394 0.028353794004021264 -1 0 0
1825 1 64.24840222244703 8.784909307355253 1.531363562533242 -1 0 0
1821 5 60.86690736863417 10.737687861566394 0.028353794004021854 -1 0 0
1827 5 64.24840222244717 10.737687861566393 0.028353794004021007 -1 0 0
1820 1 62.55765479554058 11.713369753523253 1.531363562533241 -1 0 0
1648 5 65.9391496493537 7.809227415398395 0.028353794004022537 -1 0 0
1831 1 67.62989707626002 8.784909307355251 1.5313635625332405 -1 0 0
1654 5 69.3206445031667 7.809227415398396 0.028353794004022898 -1 0 0
1837 1 71.01139193007303 8.784909307355253 1.5313635625332425 -1 0 0
1833 5 67.62989707626016 10.737687861566394 0.028353794004022086 -1 0 0
1839 5 71.01139193007317 10.737687861566393 0.028353794004022246 -1 0 0
1826 1 65.93914964935358 11.713369753523253 1.5313635625332405 -1 0 0
1832 1 69.32064450316658 11.713369753523253 1.531363562533239 -1 0 0
1660 5 72.7021393569797 7.809227415398395 0.02835379400402253 -1 0 0
1843 1 74.39288678388603 8.784909307355251 1.5313635625332405 -1 0 0
1666 5 76.08363421079271 7.809227415398396 0.028353794004022898 -1 0 0
1845 5 74.39288678388617 10.737687861566394 0.028353794004022083 -1 0 0
1838 1 72.70213935697959 11.713369753523253 1.5313635625332418 -1 0 0
1844 1 76.08363421079258 11.713369753523253 1.531363562533239 -1 0 0
1849 1 77.77438163769904 8.784909307355253 1.5313635625332425 -1 0 0
1672 5 79.4651290646057 7.809227415398395 0.02835379400402199 -1 0 0
1855 1 81.15587649151203 8.784909307355251 1.5313635625332416 -1 0 0
1678 5 82.8466239184187 7.809227415398394 0.028353794004021594 -1 0 0
1851 5 77.77438163769918 10.737687861566393 0.028353794004022267 -1 0 0
1857 5 81.15587649151217 10.737687861566393 0.028353794004021157 -1 0 0
1850 1 79.46512906460559 11.713369753523253 1.5313635625332402 -1 0 0
1856 1 82.84662391841859 11.713369753523253 1.5313635625332402 -1 0 0
1861 1 84.53737134532503 8.784909307355251 1.5313635625332416 -1 0 0
1684 5 86.2281187722317 7.809227415398395 0.028353794004022135 -1 0 0
1867 1 87.91886619913802 8.784909307355251 1.5313635625332407 -1 0 0
1863 5 84.53737134532517 10.737687861566393 0.028353794004021136 -1 0 0
1869 5 87.91886619913817 10.737687861566394 0.02835379400402208 -1 0 0
1862 1 86.22811877223158 11.713369753523253 1.5313635625332416 -1 0 0
1690 5 89.6096136260447 7.809227415398396 0.028353794004022898 -1 0 0
1873 1 91.30036105295103 8.784909307355253 1.5313635625332425 -1 0 0
1696 5 92.9911084798577 7.809227415398395 0.02835379400402253 -1 0 0
1879 1 94.68185590676403 8.784909307355251 1.5313635625332405 -1 0 0
1875 5 91.30036105295117 10.737687861566393 0.028353794004022246 -1 0 0
1881 5 94.68185590676417 10.737687861566394 0.028353794004022083 -1 0 0
1868 1 89.60961362604458 11.713369753523253 1.531363562533239 -1 0 0
1874 1 92.99110847985759 11.713369753523253 1.5313635625332418 -1 0 0
1702 5 96.37260333367071 7.809227415398396 0.028353794004022898 -1 0 0
1885 1 98.06335076057704 8.784909307355253 1.5313635625332425 -1 0 0
1708 5 99.7540981874837 7.809227415398395 0.02835379400402251 -1 0 0
1887 5 98.06335076057718 10.737687861566393 0.028353794004022267 -1 0 0
1880 1 96.37260333367058 11.713369753523253 1.531363562533239 -1 0 0
1886 1 99.75409818748359 11.713369753523253 1.5313635625332405 -1 0 0
1894 5 1.6907474269066936 13.666148307734394 0.02835379400402178 0 0 0
1900 5 5.072242280719694 13.666148307734396 0.02835379400402284 0 0 0
2071 1 2.914746249160819e-14 14.641830199691254 1.531363562533241 0 0 0
2077 1 3.3814948538130265 14.641830199691254 1.5313635625332405 0 0 0
2073 5 1.7294846551042068e-13 16.594608753902392 0.028353794004020497 0 0 0
2079 5 3.3814948538131695 16.594608753902392 0.028353794004021635 0 0 0
2072 1 1.6907474269065763 17.570290645859252 1.5313635625332394 0 0 0
2078 1 5.072242280719576 17.570290645859252 1.5313635625332391 0 0 0
1906 5 8.453737134532696 13.666148307734396 0.028353794004023377 0 0 0
1912 5 11.835231988345694 13.666148307734394 0.02835379400402236 0 0 0
2083 1 6.762989707626028 14.641830199691254 1.5313635625332414 0 0 0
2089 1 10.144484561439029 14.641830199691254 1.5313635625332418 0 0 0
2085 5 6.762989707626172 16.594608753902392 0.028353794004021972 0 0 0
2091 5 10.144484561439173 16.594608753902392 0.02835379400402109 0 0 0
2084 1 8.453737134532577 17.570290645859252 1.5313635625332394 0 0 0
2090 1 11.835231988345576 17.570290645859256 1.5313635625332394 0 0 0
1918 5 15.216726842158689 13.666148307734394 0.028353794004021698 0 0 0
2095 1 13.525979415252026 14.641830199691254 1.5313635625332411 0 0 0
2101 1 16.907474269065023 14.641830199691253 1.5313635625332394 0 0 0
2097 5 13.525979415252168 16.594608753902392 0.02835379400402088 0 0 0
2103 5 16.907474269065165 16.594608753902396 0.028353794004022406 0 0 0
2096 1 15.216726842158574 17.570290645859256 1.5313635625332396 0 0 0
1924 5 18.598221695971695 13.666148307734396 0.02835379400402366 0 0 0
1930 5 21.979716549784694 13.666148307734394 0.02835379400402268 0 0 0
2107 1 20.288969122878026 14.641830199691256 1.5313635625332427 0 0 0
2113 1 23.670463976691025 14.641830199691254 1.5313635625332414 0 0 0
2109 5 20.28896912287817 16.594608753902392 0.028353794004021236 0 0 0
2115 5 23.670463976691167 16.594608753902392 0.028353794004020702 0 0 0
2102 1 18.598221695971574 17.570290645859256 1.5313635625332391 0 0 0
2108 1 21.979716549784577 17.570290645859256 1.5313635625332394 0 0 0
1936 5 25.36121140359769 13.666148307734394 0.028353794004021823 0 0 0
1942 5 28.742706257410696 13.666148307734396 0.0283537940040237 0 0 0
2119 1 27.051958830504024 14.641830199691254 1.5313635625332396 0 0 0
2121 5 27.051958830504166 16.594608753902396 0.028353794004022517 0 0 0
2114 1 25.361211403597572 17.570290645859252 1.5313635625332394 0 0 0
2120 1 28.742706257410575 17.570290645859256 1.5313635625332391 0 0 0
1948 5 32.12420111122369 13.666148307734394 0.028353794004023086 0 0 0
1954 5 35.505695965036686 13.666148307734394 0.028353794004021257 0 0 0
2125 1 30.433453684317026 14.641830199691256 1.5313635625332433 0 0 0
2131 1 33.814948538130025 14.641830199691254 1.5313635625332411 0 0 0
2127 5 30.433453684317172 16.594608753902392 0.028353794004021517 0 0 0
2133 5 33.814948538130174 16.594608753902392 0.028353794004020702 0 0 0
2126 1 32.12420111122358 17.570290645859256 1.5313635625332391 0 0 0
2132 1 35.50569596503657 17.570290645859252 1.5313635625332394 0 0 0
1960 5 38.887190818849696 13.666148307734396 0.02835379400402393 0 0 0
2137 1 37.19644339194302 14.641830199691253 1.5313635625332391 0 0 0
2143 1 40.57793824575603 14.641830199691256 1.5313635625332433 0 0 0
2139 5 37.19644339194317 16.594608753902396 0.028353794004021868 0 0 0
2145 5 40.57793824575617 16.594608753902396 0.02835379400402186 0 0 0
2138 1 38.887190818849575 17.570290645859256 1.5313635625332394 0 0 0
1966 5 42.26868567266269 13.666148307734394 0.02835379400402311 0 0 0
1972 5 45.65018052647569 13.666148307734394 0.028353794004021257 0 0 0
2149 1 43.959433099569026 14.641830199691254 1.5313635625332411 0 0 0
2155 1 47.34092795338202 14.641830199691253 1.5313635625332391 0 0 0
2151 5 43.959433099569175 16.594608753902392 0.028353794004020726 0 0 0
2157 5 47.34092795338217 16.594608753902396 0.028353794004021864 0 0 0
2144 1 42.26868567266258 17.570290645859256 1.5313635625332394 0 0 0
2150 1 45.65018052647557 17.570290645859252 1.5313635625332394 0 0 0
1978 5 49.031675380288696 13.666148307734396 0.028353794004023533 0 0 0
1804 5 52.4131702341017 13.666148307734396 0.028353794004023724 -1 0 0
1981 1 50.72242280719503 14.641830199691254 1.5313635625332422 -1 0 0
1983 5 50.72242280719517 16.594608753902396 0.02835379400402251 -1 0 0
2156 1 49.031675380288576 17.570290645859256 1.5313635625332391 0 0 0
1982 1 52.413170234101585 17.570290645859252 1.5313635625332394 -1 0 0
1810 5 55.794665087914694 13.666148307734394 0.028353794004022482 -1 0 0
1816 5 59.1761599417277 13.666148307734396 0.028353794004023013 -1 0 0
1987 1 54.10391766100803 14.641830199691254 1.5313635625332422 -1 0 0
1993 1 57.48541251482103 14.641830199691253 1.53136356253324 -1 0 0
1989 5 54.103917661008175 16.594608753902392 0.02835379400402143 -1 0 0
1995 5 57.48541251482118 16.594608753902392 0.02835379400402134 -1 0 0
1988 1 55.79466508791458 17.570290645859252 1.5313635625332394 -1 0 0
1994 1 59.17615994172758 17.570290645859252 1.5313635625332391 -1 0 0
1822 5 62.5576547955407 13.666148307734394 0.02835379400402166 -1 0 0
1999 1 60.86690736863403 14.641830199691254 1.5313635625332411 -1 0 0
2005 1 64.24840222244703 14.641830199691254 1.5313635625332418 -1 0 0
2001 5 60.86690736863417 16.594608753902392 0.028353794004022114 -1 0 0
2007 5 64.24840222244717 16.594608753902392 0.02835379400402008 -1 0 0
2000 1 62.557654795540586 17.570290645859256 1.5313635625332398 -1 0 0
1828 5 65.9391496493537 13.666148307734394 0.028353794004022853 -1 0 0
1834 5 69.3206445031667 13.666148307734396 0.02835379400402331 -1 0 0
2011 1 67.62989707626002 14.641830199691254 1.5313635625332402 -1 0 0
2017 1 71.01139193007303 14.641830199691256 1.531363562533242 -1 0 0
2013 5 67.62989707626016 16.594608753902396 0.028353794004021878 -1 0 0
2019 5 71.01139193007317 16.594608753902396 0.028353794004021837 -1 0 0
2006 1 65.93914964935358 17.570290645859256 1.5313635625332394 -1 0 0
2012 1 69.32064450316658 17.570290645859252 1.531363562533238 -1 0 0
1840 5 72.7021393569797 13.666148307734394 0.028353794004022905 -1 0 0
1846 5 76.08363421079271 13.666148307734396 0.02835379400402331 -1 0 0
2023 1 74.39288678388603 14.641830199691254 1.5313635625332402 -1 0 0
2025 5 74.39288678388617 16.594608753902396 0.02835379400402187 -1 0 0
2018 1 72.70213935697959 17.570290645859256 1.5313635625332407 -1 0 0
2024 1 76.08363421079258 17.570290645859252 1.531363562533238 -1 0 0
1852 5 79.4651290646057 13.666148307734394 0.02835379400402243 -1 0 0
1858 5 82.8466239184187 13.666148307734394 0.02835379400402197 -1 0 0
2029 1 77.77438163769904 14.641830199691256 1.531363562533242 -1 0 0
2035 1 81.15587649151203 14.641830199691254 1.5313635625332411 -1 0 0
2031 5 77.77438163769918 16.594608753902396 0.02835379400402186 -1 0 0
2037 5 81.15587649151217 16.594608753902392 0.02835379400402075 -1 0 0
2030 1 79.46512906460559 17.570290645859256 1.5313635625332394 -1 0 0
2036 1 82.84662391841859 17.570290645859256 1.5313635625332394 -1 0 0
1864 5 86.2281187722317 13.666148307734394 0.028353794004022444 -1 0 0
2041 1 84.53737134532503 14.641830199691254 1.5313635625332414 -1 0 0
2047 1 87.91886619913802 14.641830199691254 1.5313635625332402 -1 0 0
2043 5 84.53737134532517 16.594608753902392 0.028353794004020723 -1 0 0
2049 5 87.91886619913817 16.594608753902396 0.02835379400402187 -1 0 0
2042 1 86.22811877223158 17.570290645859256 1.5313635625332407 -1 0 0
1870 5 89.6096136260447 13.666148307734396 0.028353794004023308 -1 0 0
1876 5 92.9911084798577 13.666148307734394 0.028353794004022905 -1 0 0
2053 1 91.30036105295103 14.641830199691256 1.531363562533242 -1 0 0
2059 1 94.68185590676403 14.641830199691254 1.5313635625332402 -1 0 0
2055 5 91.30036105295117 16.594608753902396 0.028353794004021837 -1 0 0
2061 5 94.68185590676417 16.594608753902396 0.02835379400402187 -1 0 0
2048 1 89.60961362604458 17.570290645859252 1.531363562533238 -1 0 0
2054 1 92.99110847985759 17.570290645859256 1.5313635625332407 -1 0 0
1882 5 96.37260333367071 13.666148307734396 0.028353794004023308 -1 0 0
1888 5 99.7540981874837 13.666148307734394 0.028353794004023 -1 0 0
2065 1 98.06335076057704 14.641830199691256 1.531363562533242 -1 0 0
2067 5 98.06335076057718 16.594608753902396 0.02835379400402186 -1 0 0
2060 1 96.37260333367058 17.570290645859252 1.531363562533238 -1 0 0
2066 1 99.75409818748359 17.570290645859256 1.5313635625332396 -1 0 0
2074 5 1.6907474269066936 19.523069200070395 0.0283537940040189 0 0 0
2080 5 5.072242280719694 19.523069200070395 0.0283537940040199 0 0 0
2251 1 2.9151553504239265e-14 20.498751092027252 1.53136356253324 0 0 0
2257 1 3.3814948538130265 20.498751092027252 1.5313635625332398 0 0 0
2253 5 1.7295067778463e-13 22.451529646238395 0.02835379400402222 0 0 0
2252 1 1.6907474269065765 23.42721153819525 1.531363562533242 0 0 0
2259 5 3.3814948538131695 22.451529646238395 0.02835379400402316 0 0 0
2258 1 5.072242280719576 23.42721153819525 1.531363562533242 0 0 0
2086 5 8.453737134532696 19.523069200070395 0.028353794004020414 0 0 0
2092 5 11.835231988345694 19.523069200070395 0.028353794004019377 0 0 0
2263 1 6.762989707626027 20.498751092027252 1.5313635625332402 0 0 0
2269 1 10.144484561439029 20.498751092027252 1.5313635625332405 0 0 0
2265 5 6.762989707626172 22.451529646238395 0.028353794004023648 0 0 0
2264 1 8.453737134532577 23.42721153819525 1.531363562533242 0 0 0
2271 5 10.144484561439173 22.451529646238395 0.028353794004022857 0 0 0
2270 1 11.835231988345576 23.42721153819525 1.531363562533242 0 0 0
2098 5 15.216726842158689 19.523069200070395 0.028353794004018933 0 0 0
2275 1 13.525979415252026 20.498751092027252 1.5313635625332402 0 0 0
2281 1 16.907474269065023 20.498751092027252 1.531363562533239 0 0 0
2277 5 13.525979415252168 22.451529646238395 0.02835379400402262 0 0 0
2276 1 15.216726842158574 23.42721153819525 1.5313635625332422 0 0 0
2283 5 16.907474269065165 22.451529646238395 0.028353794004023956 0 0 0
2104 5 18.598221695971695 19.523069200070395 0.02835379400402087 0 0 0
2110 5 21.979716549784694 19.523069200070395 0.028353794004019852 0 0 0
2287 1 20.288969122878026 20.498751092027256 1.5313635625332416 0 0 0
2293 1 23.670463976691025 20.498751092027252 1.53136356253324 0 0 0
2282 1 18.598221695971574 23.42721153819525 1.531363562533242 0 0 0
2289 5 20.28896912287817 22.451529646238395 0.028353794004022825 0 0 0
2288 1 21.979716549784577 23.42721153819525 1.5313635625332422 0 0 0
2295 5 23.670463976691167 22.451529646238395 0.02835379400402244 0 0 0
2116 5 25.36121140359769 19.523069200070395 0.028353794004019103 0 0 0
2122 5 28.742706257410696 19.523069200070395 0.028353794004020903 0 0 0
2299 1 27.051958830504024 20.498751092027252 1.531363562533239 0 0 0
2301 5 27.051958830504166 22.451529646238395 0.028353794004024067 0 0 0
2294 1 25.361211403597572 23.42721153819525 1.531363562533242 0 0 0
2300 1 28.742706257410575 23.42721153819525 1.531363562533242 0 0 0
2128 5 32.12420111122369 19.523069200070395 0.028353794004020202 0 0 0
2134 5 35.505695965036686 19.523069200070395 0.02835379400401848 0 0 0
2305 1 30.433453684317026 20.498751092027256 1.5313635625332422 0 0 0
2311 1 33.814948538130025 20.498751092027252 1.53136356253324 0 0 0
2307 5 30.433453684317172 22.451529646238395 0.0283537940040231 0 0 0
2306 1 32.12420111122358 23.42721153819525 1.5313635625332418 0 0 0
2313 5 33.814948538130174 22.451529646238395 0.02835379400402244 0 0 0
2312 1 35.50569596503657 23.42721153819525 1.531363562533242 0 0 0
2140 5 38.887190818849696 19.523069200070395 0.0283537940040212 0 0 0
2317 1 37.19644339194302 20.498751092027252 1.5313635625332382 0 0 0
2323 1 40.57793824575603 20.498751092027256 1.5313635625332422 0 0 0
2319 5 37.19644339194317 22.451529646238395 0.028353794004023495 0 0 0
2318 1 38.887190818849575 23.42721153819525 1.531363562533242 0 0 0
2325 5 40.57793824575617 22.451529646238395 0.02835379400402351 0 0 0
2146 5 42.26868567266269 19.523069200070395 0.028353794004020227 0 0 0
2152 5 45.65018052647569 19.523069200070395 0.028353794004018485 0 0 0
2329 1 43.959433099569026 20.498751092027252 1.53136356253324 0 0 0
2335 1 47.34092795338202 20.498751092027252 1.5313635625332385 0 0 0
2324 1 42.26868567266258 23.42721153819525 1.531363562533242 0 0 0
2331 5 43.959433099569175 22.451529646238395 0.028353794004022465 0 0 0
2330 1 45.65018052647557 23.42721153819525 1.531363562533242 0 0 0
2337 5 47.34092795338217 22.451529646238395 0.02835379400402349 0 0 0
2158 5 49.031675380288696 19.523069200070395 0.028353794004020712 0 0 0
1984 5 52.4131702341017 19.523069200070395 0.028353794004020636 -1 0 0
2161 1 50.72242280719503 20.498751092027252 1.5313635625332414 -1 0 0
2336 1 49.031675380288576 23.42721153819525 1.5313635625332418 0 0 0
2163 5 50.72242280719517 22.451529646238395 0.028353794004024293 -1 0 0