LAMMPS data file via write_data, version 29 Aug 2024, timestep = 2, units = metal

6120 atoms
6 atom types

0 101.44484561439 xlo xhi
0 99.567655169712 ylo yhi
-50 50 zlo zhi

Masses

1 180.94788
2 180.94788
3 32.06
4 32.06
5 32.06
6 32.06

Atoms # atomic

1534 4 1.690747426906694 1.9523065225351464 0.028450094293729914 0 0 0
1711 1 2.851193433720532e-14 2.928001400369586 1.5314317376997209 0 0 0
1717 1 3.381494853813026 2.928001400369585 1.53143173769972 0 0 0
1540 4 5.072242280719695 1.9523065225351472 0.028450094293730757 0 0 0
1713 4 1.750380519801794e-13 4.880766968703145 0.028450094293729345 0 0 0
1719 4 3.381494853813173 4.880766968703146 0.028450094293729515 0 0 0
1712 1 1.6907474269065703 5.856461846537585 1.5314317376997186 0 0 0
1718 1 5.0722422807195695 5.856461846537585 1.5314317376997189 0 0 0
1723 1 6.762989707626027 2.928001400369586 1.5314317376997206 0 0 0
1546 4 8.453737134532696 1.9523065225351475 0.028450094293731364 0 0 0
1729 1 10.144484561439027 2.9280014003695864 1.5314317376997215 0 0 0
1552 4 11.835231988345694 1.9523065225351466 0.028450094293730344 0 0 0
1725 4 6.762989707626175 4.880766968703146 0.028450094293729803 0 0 0
1731 4 10.144484561439176 4.880766968703145 0.028450094293729078 0 0 0
1724 1 8.453737134532572 5.856461846537585 1.5314317376997186 0 0 0
1730 1 11.835231988345571 5.856461846537585 1.5314317376997189 0 0 0
1735 1 13.525979415252024 2.928001400369586 1.5314317376997206 0 0 0
1558 4 15.21672684215869 1.9523065225351464 0.02845009429372978 0 0 0
1741 1 16.907474269065023 2.928001400369585 1.5314317376997189 0 0 0
1737 4 13.525979415252172 4.880766968703145 0.028450094293728658 0 0 0
1743 4 16.90747426906517 4.8807669687031465 0.028450094293730497 0 0 0
1736 1 15.216726842158566 5.856461846537585 1.5314317376997186 0 0 0
1564 4 18.598221695971695 1.952306522535148 0.028450094293731795 0 0 0
1747 1 20.288969122878026 2.928001400369587 1.5314317376997222 0 0 0
1570 4 21.979716549784694 1.9523065225351468 0.028450094293730667 0 0 0
1753 1 23.670463976691025 2.928001400369586 1.5314317376997206 0 0 0
1749 4 20.288969122878175 4.880766968703145 0.028450094293729286 0 0 0
1755 4 23.67046397669117 4.880766968703145 0.02845009429372866 0 0 0
1742 1 18.59822169597157 5.856461846537585 1.5314317376997186 0 0 0
1748 1 21.97971654978457 5.856461846537585 1.5314317376997189 0 0 0
1576 4 25.36121140359769 1.9523065225351464 0.028450094293729956 0 0 0
1759 1 27.051958830504024 2.928001400369585 1.5314317376997189 0 0 0
1582 4 28.742706257410696 1.952306522535148 0.02845009429373179 0 0 0
1761 4 27.05195883050417 4.8807669687031465 0.028450094293730497 0 0 0
1754 1 25.361211403597565 5.856461846537585 1.5314317376997189 0 0 0
1760 1 28.74270625741057 5.856461846537585 1.5314317376997186 0 0 0
1765 1 30.433453684317026 2.928001400369587 1.5314317376997222 0 0 0
1588 4 32.1242011112237 1.9523065225351468 0.028450094293731 0 0 0
1771 1 33.814948538130025 2.928001400369586 1.5314317376997206 0 0 0
1594 4 35.50569596503669 1.9523065225351461 0.02845009429372939 0 0 0
1767 4 30.433453684317175 4.880766968703145 0.02845009429372929 0 0 0
1773 4 33.814948538130174 4.880766968703145 0.028450094293728637 0 0 0
1766 1 32.12420111122357 5.856461846537585 1.5314317376997189 0 0 0
1772 1 35.505695965036566 5.856461846537585 1.5314317376997189 0 0 0
1777 1 37.19644339194302 2.9280014003695856 1.5314317376997195 0 0 0
1600 4 38.887190818849696 1.9523065225351481 0.028450094293732152 0 0 0
1783 1 40.57793824575603 2.9280014003695864 1.5314317376997215 0 0 0
1779 4 37.19644339194318 4.8807669687031465 0.028450094293730573 0 0 0
1785 4 40.57793824575618 4.880766968703145 0.028450094293729286 0 0 0
1778 1 38.88719081884957 5.856461846537585 1.5314317376997186 0 0 0
1606 4 42.2686856726627 1.9523065225351468 0.028450094293730986 0 0 0
1789 1 43.959433099569026 2.928001400369586 1.5314317376997206 0 0 0
1612 4 45.650180526475694 1.9523065225351461 0.028450094293729394 0 0 0
1795 1 47.34092795338202 2.9280014003695856 1.5314317376997195 0 0 0
1791 4 43.959433099569175 4.880766968703145 0.028450094293728637 0 0 0
1797 4 47.34092795338218 4.8807669687031465 0.028450094293730563 0 0 0
1784 1 42.26868567266257 5.856461846537585 1.5314317376997189 0 0 0
1790 1 45.650180526475566 5.856461846537585 1.5314317376997189 0 0 0
1618 4 49.031675380288696 1.9523065225351477 0.028450094293731756 0 0 0
1444 4 52.4131702341017 1.9523065225351477 0.028450094293731663 -1 0 0
1621 1 50.72242280719503 2.928001400369586 1.5314317376997204 -1 0 0
1623 4 50.72242280719518 4.880766968703146 0.028450094293729748 -1 0 0
1796 1 49.03167538028857 5.856461846537585 1.5314317376997186 0 0 0
1622 1 52.41317023410157 5.856461846537585 1.5314317376997186 -1 0 0
1627 1 54.10391766100803 2.9280014003695864 1.5314317376997217 -1 0 0
1450 4 55.7946650879147 1.9523065225351466 0.02845009429373052 -1 0 0
1633 1 57.48541251482103 2.928001400369585 1.5314317376997195 -1 0 0
1456 4 59.176159941727704 1.9523065225351472 0.02845009429373097 -1 0 0
1629 4 54.10391766100818 4.880766968703145 0.02845009429372924 -1 0 0
1635 4 57.48541251482118 4.880766968703146 0.028450094293729286 -1 0 0
1628 1 55.794665087914574 5.856461846537585 1.5314317376997186 -1 0 0
1634 1 59.17615994172757 5.856461846537585 1.5314317376997186 -1 0 0
1639 1 60.86690736863403 2.928001400369586 1.5314317376997213 -1 0 0
1462 4 62.5576547955407 1.9523065225351461 0.028450094293729654 -1 0 0
1645 1 64.24840222244703 2.928001400369586 1.5314317376997204 -1 0 0
1641 4 60.86690736863418 4.880766968703146 0.028450094293730046 -1 0 0
1647 4 64.24840222244717 4.880766968703144 0.028450094293728558 -1 0 0
1640 1 62.55765479554057 5.856461846537586 1.5314317376997193 -1 0 0
1468 4 65.9391496493537 1.9523065225351468 0.028450094293730837 -1 0 0
1651 1 67.62989707626002 2.9280014003695856 1.5314317376997195 -1 0 0
1474 4 69.3206445031667 1.9523065225351477 0.028450094293731455 -1 0 0
1657 1 71.01139193007303 2.9280014003695864 1.5314317376997217 -1 0 0
1653 4 67.62989707626016 4.880766968703146 0.02845009429372993 -1 0 0
1659 4 71.01139193007317 4.880766968703145 0.02845009429372872 -1 0 0
1646 1 65.93914964935357 5.856461846537585 1.5314317376997186 -1 0 0
1652 1 69.32064450316658 5.856461846537585 1.5314317376997186 -1 0 0
1480 4 72.7021393569797 1.9523065225351468 0.028450094293730882 -1 0 0
1663 1 74.39288678388603 2.9280014003695856 1.5314317376997195 -1 0 0
1486 4 76.08363421079271 1.9523065225351477 0.02845009429373145 -1 0 0
1665 4 74.39288678388617 4.8807669687031465 0.028450094293731132 -1 0 0
1658 1 72.70213935697957 5.856461846537585 1.5314317376997186 -1 0 0
1664 1 76.08363421079258 5.856461846537585 1.5314317376997186 -1 0 0
1669 1 77.77438163769904 2.9280014003695864 1.5314317376997217 -1 0 0
1492 4 79.4651290646057 1.9523065225351466 0.028450094293730372 -1 0 0
1675 1 81.15587649151203 2.928001400369586 1.5314317376997206 -1 0 0
1498 4 82.8466239184187 1.9523065225351464 0.02845009429372998 -1 0 0
1671 4 77.77438163769918 4.880766968703145 0.028450094293728738 -1 0 0
1677 4 81.15587649151217 4.880766968703145 0.028450094293728752 -1 0 0
1670 1 79.46512906460558 5.856461846537585 1.5314317376997186 -1 0 0
1676 1 82.84662391841857 5.856461846537585 1.5314317376997186 -1 0 0
1681 1 84.53737134532503 2.928001400369586 1.5314317376997206 -1 0 0
1504 4 86.2281187722317 1.9523065225351466 0.028450094293730483 -1 0 0
1687 1 87.91886619913802 2.9280014003695856 1.5314317376997195 -1 0 0
1683 4 84.53737134532517 4.880766968703145 0.02845009429372873 -1 0 0
1689 4 87.91886619913817 4.8807669687031465 0.02845009429373113 -1 0 0
1682 1 86.22811877223157 5.856461846537585 1.5314317376997186 -1 0 0
1510 4 89.6096136260447 1.9523065225351477 0.028450094293731458 -1 0 0
1693 1 91.30036105295103 2.9280014003695864 1.5314317376997217 -1 0 0
1516 4 92.9911084798577 1.9523065225351468 0.028450094293730875 -1 0 0
1699 1 94.68185590676403 2.9280014003695856 1.5314317376997195 -1 0 0
1695 4 91.30036105295117 4.880766968703145 0.02845009429372872 -1 0 0
1701 4 94.68185590676417 4.8807669687031465 0.028450094293731132 -1 0 0
1688 1 89.60961362604458 5.856461846537585 1.5314317376997186 -1 0 0
1694 1 92.99110847985757 5.856461846537585 1.5314317376997186 -1 0 0
1522 4 96.37260333367071 1.9523065225351477 0.028450094293731458 -1 0 0
1705 1 98.06335076057704 2.9280014003695864 1.5314317376997217 -1 0 0
1528 4 99.7540981874837 1.9523065225351468 0.028450094293730865 -1 0 0
1707 4 98.06335076057718 4.880766968703145 0.028450094293728738 -1 0 0
1700 1 96.37260333367058 5.856461846537585 1.5314317376997186 -1 0 0
1706 1 99.75409818748358 5.856461846537585 1.5314317376997186 -1 0 0
1714 4 1.690747426906694 7.809227414871145 0.028450094293729827 0 0 0
1891 1 2.870451429119265e-14 8.784922292705586 1.5314317376997209 0 0 0
1897 1 3.3814948538130256 8.784922292705584 1.53143173769972 0 0 0
1720 4 5.072242280719695 7.809227414871146 0.028450094293730667 0 0 0
1893 4 1.7502878543764912e-13 10.737687861039145 0.028450094293729754 0 0 0
1899 4 3.3814948538131726 10.737687861039145 0.0284500942937301 0 0 0
1892 1 1.6907474269065703 11.713382738873586 1.5314317376997193 0 0 0
1898 1 5.0722422807195695 11.713382738873586 1.5314317376997195 0 0 0
1903 1 6.762989707626027 8.784922292705586 1.5314317376997206 0 0 0
1726 4 8.453737134532696 7.809227414871146 0.02845009429373122 0 0 0
1909 1 10.144484561439027 8.784922292705586 1.5314317376997213 0 0 0
1732 4 11.835231988345694 7.809227414871145 0.02845009429373018 0 0 0
1905 4 6.762989707626175 10.737687861039145 0.028450094293730306 0 0 0
1911 4 10.144484561439176 10.737687861039145 0.028450094293729664 0 0 0
1904 1 8.453737134532572 11.713382738873586 1.5314317376997195 0 0 0
1910 1 11.835231988345571 11.713382738873587 1.5314317376997197 0 0 0
1915 1 13.525979415252024 8.784922292705586 1.5314317376997206 0 0 0
1738 4 15.21672684215869 7.809227414871145 0.028450094293729692 0 0 0
1921 1 16.907474269065023 8.784922292705584 1.531431737699719 0 0 0
1917 4 13.525979415252172 10.737687861039145 0.02845009429372919 0 0 0
1923 4 16.90747426906517 10.737687861039147 0.028450094293731007 0 0 0
1916 1 15.216726842158566 11.713382738873586 1.5314317376997195 0 0 0
1744 4 18.598221695971695 7.809227414871147 0.028450094293731472 0 0 0
1927 1 20.288969122878026 8.784922292705586 1.5314317376997222 0 0 0
1750 4 21.979716549784694 7.809227414871145 0.028450094293730504 0 0 0
1933 1 23.670463976691025 8.784922292705586 1.5314317376997206 0 0 0
1929 4 20.288969122878175 10.737687861039145 0.02845009429372985 0 0 0
1935 4 23.67046397669117 10.737687861039145 0.02845009429372919 0 0 0
1922 1 18.59822169597157 11.713382738873587 1.5314317376997195 0 0 0
1928 1 21.97971654978457 11.713382738873586 1.5314317376997195 0 0 0
1756 4 25.36121140359769 7.809227414871145 0.028450094293729855 0 0 0
1939 1 27.051958830504024 8.784922292705584 1.5314317376997189 0 0 0
1762 4 28.742706257410696 7.809227414871147 0.028450094293731472 0 0 0
1941 4 27.05195883050417 10.737687861039147 0.028450094293731007 0 0 0
1934 1 25.361211403597565 11.713382738873586 1.5314317376997195 0 0 0
1940 1 28.74270625741057 11.713382738873587 1.5314317376997195 0 0 0
1945 1 30.433453684317026 8.784922292705586 1.5314317376997222 0 0 0
1768 4 32.1242011112237 7.809227414871146 0.02845009429373078 0 0 0
1951 1 33.814948538130025 8.784922292705586 1.5314317376997206 0 0 0
1774 4 35.50569596503669 7.809227414871145 0.028450094293729248 0 0 0
1947 4 30.433453684317175 10.737687861039145 0.02845009429372985 0 0 0
1953 4 33.814948538130174 10.737687861039145 0.028450094293729168 0 0 0
1946 1 32.12420111122357 11.713382738873586 1.5314317376997195 0 0 0
1952 1 35.505695965036566 11.713382738873586 1.5314317376997195 0 0 0
1957 1 37.19644339194302 8.784922292705586 1.5314317376997195 0 0 0
1780 4 38.887190818849696 7.809227414871147 0.028450094293731833 0 0 0
1963 1 40.57793824575603 8.784922292705586 1.5314317376997215 0 0 0
1959 4 37.19644339194318 10.737687861039147 0.02845009429373097 0 0 0
1965 4 40.57793824575618 10.737687861039145 0.02845009429372985 0 0 0
1958 1 38.887190818849575 11.713382738873587 1.5314317376997195 0 0 0
1786 4 42.2686856726627 7.809227414871146 0.02845009429373076 0 0 0
1969 1 43.959433099569026 8.784922292705586 1.5314317376997206 0 0 0
1792 4 45.650180526475694 7.809227414871145 0.028450094293729248 0 0 0
1975 1 47.34092795338202 8.784922292705586 1.5314317376997195 0 0 0
1971 4 43.959433099569175 10.737687861039145 0.028450094293729168 0 0 0
1977 4 47.34092795338218 10.737687861039147 0.028450094293730962 0 0 0
1964 1 42.26868567266257 11.713382738873586 1.5314317376997195 0 0 0
1970 1 45.650180526475566 11.713382738873586 1.5314317376997195 0 0 0
1798 4 49.031675380288696 7.809227414871147 0.028450094293731486 0 0 0
1624 4 52.4131702341017 7.809227414871146 0.028450094293731444 -1 0 0
1801 1 50.72242280719503 8.784922292705586 1.5314317376997204 -1 0 0
1803 4 50.72242280719518 10.737687861039145 0.028450094293730285 -1 0 0
1976 1 49.03167538028857 11.713382738873586 1.5314317376997193 0 0 0
1802 1 52.41317023410157 11.713382738873586 1.5314317376997195 -1 0 0
1807 1 54.10391766100803 8.784922292705586 1.5314317376997217 -1 0 0
1630 4 55.7946650879147 7.809227414871145 0.028450094293730376 -1 0 0
1813 1 57.48541251482103 8.784922292705584 1.5314317376997197 -1 0 0
1636 4 59.176159941727704 7.809227414871146 0.028450094293730875 -1 0 0
1809 4 54.10391766100818 10.737687861039145 0.028450094293729772 -1 0 0
1815 4 57.48541251482118 10.737687861039145 0.028450094293729886 -1 0 0
1808 1 55.794665087914574 11.713382738873586 1.5314317376997195 -1 0 0
1814 1 59.17615994172757 11.713382738873586 1.5314317376997195 -1 0 0
1819 1 60.86690736863403 8.784922292705586 1.5314317376997213 -1 0 0
1642 4 62.5576547955407 7.809227414871145 0.028450094293729477 -1 0 0
1825 1 64.24840222244703 8.784922292705586 1.5314317376997204 -1 0 0
1821 4 60.86690736863418 10.737687861039145 0.028450094293730473 -1 0 0
1827 4 64.24840222244717 10.737687861039145 0.028450094293729106 -1 0 0
1820 1 62.55765479554057 11.713382738873587 1.53143173769972 -1 0 0
1648 4 65.9391496493537 7.809227414871146 0.02845009429373074 -1 0 0
1831 1 67.62989707626002 8.784922292705586 1.5314317376997195 -1 0 0
1654 4 69.3206445031667 7.809227414871147 0.028450094293731184 -1 0 0
1837 1 71.01139193007303 8.784922292705586 1.5314317376997215 -1 0 0
1833 4 67.62989707626016 10.737687861039145 0.028450094293730407 -1 0 0
1839 4 71.01139193007317 10.737687861039143 0.028450094293729244 -1 0 0
1826 1 65.93914964935357 11.713382738873586 1.5314317376997195 -1 0 0
1832 1 69.32064450316658 11.713382738873587 1.5314317376997193 -1 0 0
1660 4 72.7021393569797 7.809227414871146 0.028450094293730795 -1 0 0
1843 1 74.39288678388603 8.784922292705586 1.5314317376997195 -1 0 0
1666 4 76.08363421079271 7.809227414871147 0.028450094293731184 -1 0 0
1845 4 74.39288678388617 10.737687861039147 0.028450094293731586 -1 0 0
1838 1 72.70213935697957 11.713382738873586 1.5314317376997195 -1 0 0
1844 1 76.08363421079258 11.713382738873587 1.5314317376997193 -1 0 0
1849 1 77.77438163769904 8.784922292705586 1.5314317376997215 -1 0 0
1672 4 79.4651290646057 7.809227414871145 0.0284500942937302 -1 0 0
1855 1 81.15587649151203 8.784922292705586 1.5314317376997206 -1 0 0
1678 4 82.8466239184187 7.809227414871145 0.02845009429372991 -1 0 0
1851 4 77.77438163769918 10.737687861039143 0.02845009429372926 -1 0 0
1857 4 81.15587649151217 10.737687861039145 0.028450094293729234 -1 0 0
1850 1 79.46512906460558 11.713382738873586 1.5314317376997195 -1 0 0
1856 1 82.84662391841857 11.713382738873586 1.5314317376997195 -1 0 0
1861 1 84.53737134532503 8.784922292705586 1.5314317376997206 -1 0 0
1684 4 86.2281187722317 7.809227414871145 0.028450094293730445 -1 0 0
1867 1 87.91886619913802 8.784922292705586 1.5314317376997195 -1 0 0
1863 4 84.53737134532517 10.737687861039145 0.028450094293729217 -1 0 0
1869 4 87.91886619913817 10.737687861039147 0.028450094293731583 -1 0 0
1862 1 86.22811877223157 11.713382738873586 1.5314317376997195 -1 0 0
1690 4 89.6096136260447 7.809227414871147 0.028450094293731184 -1 0 0
1873 1 91.30036105295103 8.784922292705586 1.5314317376997215 -1 0 0
1696 4 92.9911084798577 7.809227414871146 0.028450094293730795 -1 0 0
1879 1 94.68185590676403 8.784922292705586 1.5314317376997195 -1 0 0
1875 4 91.30036105295117 10.737687861039143 0.028450094293729244 -1 0 0
1881 4 94.68185590676417 10.737687861039147 0.028450094293731586 -1 0 0
1868 1 89.60961362604458 11.713382738873587 1.5314317376997193 -1 0 0
1874 1 92.99110847985757 11.713382738873586 1.5314317376997195 -1 0 0
1702 4 96.37260333367071 7.809227414871147 0.028450094293731184 -1 0 0
1885 1 98.06335076057704 8.784922292705586 1.5314317376997215 -1 0 0
1708 4 99.7540981874837 7.809227414871146 0.028450094293730636 -1 0 0
1887 4 98.06335076057718 10.737687861039143 0.02845009429372926 -1 0 0
1880 1 96.37260333367058 11.713382738873587 1.5314317376997193 -1 0 0
1886 1 99.75409818748358 11.713382738873587 1.5314317376997195 -1 0 0
1894 4 1.690747426906694 13.666148307207147 0.028450094293730143 0 0 0
1900 4 5.072242280719695 13.666148307207147 0.028450094293730976 0 0 0
2071 1 2.856010926739225e-14 14.641843185041589 1.5314317376997204 0 0 0
2077 1 3.3814948538130256 14.641843185041587 1.5314317376997197 0 0 0
2073 4 1.7502266775485474e-13 16.594608753375145 0.028450094293729574 0 0 0
2079 4 3.381494853813173 16.594608753375145 0.028450094293729966 0 0 0
2072 1 1.6907474269065703 17.570303631209587 1.5314317376997184 0 0 0
2078 1 5.0722422807195695 17.570303631209587 1.5314317376997184 0 0 0
1906 4 8.453737134532696 13.666148307207147 0.028450094293731607 0 0 0
1912 4 11.835231988345694 13.666148307207147 0.028450094293730632 0 0 0
2083 1 6.762989707626027 14.641843185041587 1.5314317376997204 0 0 0
2089 1 10.144484561439027 14.641843185041587 1.531431737699721 0 0 0
2085 4 6.762989707626175 16.594608753375145 0.028450094293730088 0 0 0
2091 4 10.144484561439176 16.594608753375145 0.028450094293729494 0 0 0
2084 1 8.453737134532572 17.570303631209587 1.5314317376997184 0 0 0
2090 1 11.835231988345571 17.570303631209587 1.5314317376997184 0 0 0
1918 4 15.21672684215869 13.666148307207147 0.02845009429373001 0 0 0
2095 1 13.525979415252024 14.641843185041589 1.5314317376997204 0 0 0
2101 1 16.907474269065023 14.641843185041587 1.531431737699719 0 0 0
2097 4 13.525979415252172 16.594608753375145 0.028450094293729012 0 0 0
2103 4 16.90747426906517 16.594608753375145 0.02845009429373083 0 0 0
2096 1 15.216726842158566 17.570303631209587 1.5314317376997182 0 0 0
1924 4 18.598221695971695 13.666148307207148 0.028450094293732034 0 0 0
1930 4 21.979716549784694 13.666148307207147 0.028450094293730927 0 0 0
2107 1 20.288969122878026 14.641843185041589 1.531431737699722 0 0 0
2113 1 23.670463976691025 14.641843185041589 1.5314317376997204 0 0 0
2109 4 20.288969122878175 16.594608753375145 0.02845009429372952 0 0 0
2115 4 23.67046397669117 16.594608753375145 0.028450094293729012 0 0 0
2102 1 18.59822169597157 17.570303631209587 1.5314317376997186 0 0 0
2108 1 21.97971654978457 17.570303631209587 1.5314317376997184 0 0 0
1936 4 25.36121140359769 13.666148307207147 0.02845009429373018 0 0 0
1942 4 28.742706257410696 13.666148307207148 0.028450094293732037 0 0 0
2119 1 27.051958830504024 14.641843185041587 1.531431737699719 0 0 0
2121 4 27.05195883050417 16.594608753375145 0.028450094293730833 0 0 0
2114 1 25.361211403597565 17.570303631209587 1.5314317376997184 0 0 0
2120 1 28.74270625741057 17.570303631209587 1.5314317376997186 0 0 0
1948 4 32.1242011112237 13.666148307207147 0.028450094293731205 0 0 0
1954 4 35.50569596503669 13.666148307207147 0.028450094293729647 0 0 0
2125 1 30.433453684317026 14.641843185041589 1.531431737699722 0 0 0
2131 1 33.814948538130025 14.641843185041589 1.5314317376997204 0 0 0
2127 4 30.433453684317175 16.594608753375145 0.028450094293729522 0 0 0
2133 4 33.814948538130174 16.594608753375145 0.02845009429372899 0 0 0
2126 1 32.12420111122357 17.570303631209587 1.5314317376997184 0 0 0
2132 1 35.505695965036566 17.570303631209587 1.5314317376997184 0 0 0
1960 4 38.887190818849696 13.666148307207148 0.028450094293732332 0 0 0
2137 1 37.19644339194302 14.641843185041587 1.5314317376997195 0 0 0
2143 1 40.57793824575603 14.641843185041589 1.5314317376997213 0 0 0
2139 4 37.19644339194318 16.594608753375145 0.028450094293730917 0 0 0
2145 4 40.57793824575618 16.594608753375145 0.028450094293729522 0 0 0
2138 1 38.88719081884957 17.570303631209587 1.5314317376997186 0 0 0
1966 4 42.2686856726627 13.666148307207147 0.028450094293731184 0 0 0
1972 4 45.650180526475694 13.666148307207147 0.028450094293729647 0 0 0
2149 1 43.959433099569026 14.641843185041589 1.5314317376997204 0 0 0
2155 1 47.34092795338202 14.641843185041587 1.5314317376997197 0 0 0
2151 4 43.959433099569175 16.594608753375145 0.02845009429372899 0 0 0
2157 4 47.34092795338218 16.594608753375145 0.028450094293730913 0 0 0
2144 1 42.26868567266257 17.570303631209587 1.5314317376997184 0 0 0
2150 1 45.650180526475566 17.570303631209587 1.5314317376997184 0 0 0
1978 4 49.031675380288696 13.666148307207148 0.02845009429373194 0 0 0
1804 4 52.4131702341017 13.666148307207147 0.028450094293731885 -1 0 0
1981 1 50.72242280719503 14.641843185041587 1.5314317376997202 -1 0 0
1983 4 50.72242280719518 16.594608753375145 0.028450094293730174 -1 0 0
2156 1 49.03167538028857 17.570303631209587 1.5314317376997186 0 0 0
1982 1 52.41317023410157 17.570303631209587 1.5314317376997184 -1 0 0
1810 4 55.7946650879147 13.666148307207147 0.028450094293730768 -1 0 0
1816 4 59.176159941727704 13.666148307207147 0.028450094293731184 -1 0 0
1987 1 54.10391766100803 14.641843185041589 1.5314317376997215 -1 0 0
1993 1 57.48541251482103 14.641843185041587 1.5314317376997193 -1 0 0
1989 4 54.10391766100818 16.594608753375145 0.028450094293729664 -1 0 0
1995 4 57.48541251482118 16.594608753375145 0.02845009429372976 -1 0 0
1988 1 55.794665087914574 17.570303631209587 1.5314317376997182 -1 0 0
1994 1 59.17615994172757 17.570303631209587 1.5314317376997184 -1 0 0
1822 4 62.5576547955407 13.666148307207147 0.028450094293729803 -1 0 0
1999 1 60.86690736863403 14.641843185041589 1.531431737699721 -1 0 0
2005 1 64.24840222244703 14.641843185041587 1.5314317376997202 -1 0 0
2001 4 60.86690736863418 16.594608753375145 0.028450094293730344 -1 0 0
2007 4 64.24840222244717 16.594608753375145 0.02845009429372893 -1 0 0
2000 1 62.55765479554057 17.570303631209587 1.5314317376997189 -1 0 0
1828 4 65.9391496493537 13.666148307207147 0.028450094293731094 -1 0 0
1834 4 69.3206445031667 13.666148307207148 0.028450094293731687 -1 0 0
2011 1 67.62989707626002 14.641843185041587 1.5314317376997197 -1 0 0
2017 1 71.01139193007303 14.641843185041589 1.5314317376997213 -1 0 0
2013 4 67.62989707626016 16.594608753375145 0.02845009429373022 -1 0 0
2019 4 71.01139193007317 16.594608753375145 0.028450094293728915 -1 0 0
2006 1 65.93914964935357 17.570303631209587 1.5314317376997184 -1 0 0
2012 1 69.32064450316658 17.570303631209587 1.5314317376997186 -1 0 0
1840 4 72.7021393569797 13.666148307207147 0.028450094293731173 -1 0 0
1846 4 76.08363421079271 13.666148307207148 0.028450094293731687 -1 0 0
2023 1 74.39288678388603 14.641843185041587 1.5314317376997197 -1 0 0
2025 4 74.39288678388617 16.594608753375145 0.02845009429373141 -1 0 0
2018 1 72.70213935697957 17.570303631209587 1.5314317376997184 -1 0 0
2024 1 76.08363421079258 17.570303631209587 1.5314317376997186 -1 0 0
1852 4 79.4651290646057 13.666148307207147 0.028450094293730622 -1 0 0
1858 4 82.8466239184187 13.666148307207147 0.028450094293730237 -1 0 0
2029 1 77.77438163769904 14.641843185041589 1.5314317376997213 -1 0 0
2035 1 81.15587649151203 14.641843185041589 1.5314317376997204 -1 0 0
2031 4 77.77438163769918 16.594608753375145 0.028450094293728925 -1 0 0
2037 4 81.15587649151217 16.594608753375145 0.028450094293729054 -1 0 0
2030 1 79.46512906460558 17.570303631209587 1.5314317376997184 -1 0 0
2036 1 82.84662391841857 17.570303631209587 1.5314317376997184 -1 0 0
1864 4 86.2281187722317 13.666148307207147 0.028450094293730726 -1 0 0
2041 1 84.53737134532503 14.641843185041589 1.5314317376997204 -1 0 0
2047 1 87.91886619913802 14.641843185041587 1.5314317376997197 -1 0 0
2043 4 84.53737134532517 16.594608753375145 0.028450094293729043 -1 0 0
2049 4 87.91886619913817 16.594608753375145 0.028450094293731406 -1 0 0
2042 1 86.22811877223157 17.570303631209587 1.5314317376997184 -1 0 0
1870 4 89.6096136260447 13.666148307207148 0.028450094293731687 -1 0 0
1876 4 92.9911084798577 13.666148307207147 0.028450094293731173 -1 0 0
2053 1 91.30036105295103 14.641843185041589 1.5314317376997213 -1 0 0
2059 1 94.68185590676403 14.641843185041587 1.5314317376997197 -1 0 0
2055 4 91.30036105295117 16.594608753375145 0.028450094293728915 -1 0 0
2061 4 94.68185590676417 16.594608753375145 0.02845009429373141 -1 0 0
2048 1 89.60961362604458 17.570303631209587 1.5314317376997186 -1 0 0
2054 1 92.99110847985757 17.570303631209587 1.5314317376997184 -1 0 0
1882 4 96.37260333367071 13.666148307207148 0.028450094293731683 -1 0 0
1888 4 99.7540981874837 13.666148307207147 0.028450094293731125 -1 0 0
2065 1 98.06335076057704 14.641843185041589 1.5314317376997213 -1 0 0
2067 4 98.06335076057718 16.594608753375145 0.028450094293728925 -1 0 0
2060 1 96.37260333367058 17.570303631209587 1.5314317376997186 -1 0 0
2066 1 99.75409818748358 17.570303631209587 1.5314317376997184 -1 0 0
2074 4 1.690747426906694 19.523069199543144 0.028450094293727145 0 0 0
2080 4 5.072242280719695 19.523069199543144 0.02845009429372811 0 0 0
2251 1 2.8542287982075454e-14 20.498764077377587 1.5314317376997195 0 0 0
2257 1 3.381494853813026 20.498764077377587 1.5314317376997186 0 0 0
2253 4 1.750344876730831e-13 22.451529645711144 0.028450094293731278 0 0 0
2252 1 1.6907474269065703 23.427224523545586 1.5314317376997213 0 0 0
2259 4 3.381494853813173 22.451529645711144 0.028450094293731513 0 0 0
2258 1 5.0722422807195695 23.427224523545586 1.5314317376997213 0 0 0
2086 4 8.453737134532696 19.523069199543144 0.028450094293728592 0 0 0
2092 4 11.835231988345694 19.523069199543144 0.028450094293727662 0 0 0
2263 1 6.762989707626027 20.498764077377587 1.5314317376997193 0 0 0
2269 1 10.144484561439027 20.498764077377587 1.53143173769972 0 0 0
2265 4 6.762989707626175 22.451529645711144 0.028450094293731812 0 0 0
2264 1 8.453737134532572 23.427224523545586 1.5314317376997213 0 0 0
2271 4 10.144484561439176 22.451529645711144 0.028450094293731222 0 0 0
2270 1 11.835231988345571 23.427224523545586 1.5314317376997215 0 0 0
2098 4 15.21672684215869 19.523069199543144 0.028450094293727114 0 0 0
2275 1 13.525979415252024 20.498764077377587 1.5314317376997193 0 0 0
2281 1 16.907474269065023 20.498764077377583 1.5314317376997175 0 0 0
2277 4 13.525979415252172 22.451529645711144 0.02845009429373072 0 0 0
2276 1 15.216726842158566 23.427224523545586 1.531431737699721 0 0 0
2283 4 16.90747426906517 22.451529645711148 0.028450094293732367 0 0 0
2104 4 18.598221695971695 19.523069199543144 0.028450094293729074 0 0 0
2110 4 21.979716549784694 19.523069199543144 0.028450094293728106 0 0 0
2287 1 20.288969122878026 20.498764077377587 1.5314317376997206 0 0 0
2293 1 23.670463976691025 20.498764077377587 1.5314317376997193 0 0 0
2282 1 18.59822169597157 23.427224523545586 1.5314317376997217 0 0 0
2289 4 20.288969122878175 22.451529645711144 0.028450094293731007 0 0 0
2288 1 21.97971654978457 23.427224523545586 1.5314317376997213 0 0 0
2295 4 23.67046397669117 22.451529645711144 0.02845009429373072 0 0 0
2116 4 25.36121140359769 19.523069199543144 0.02845009429372728 0 0 0
2122 4 28.742706257410696 19.523069199543144 0.028450094293729078 0 0 0
2299 1 27.051958830504024 20.498764077377583 1.5314317376997175 0 0 0
2301 4 27.05195883050417 22.451529645711148 0.028450094293732367 0 0 0
2294 1 25.36121140359757 23.427224523545586 1.5314317376997213 0 0 0
2300 1 28.74270625741057 23.427224523545586 1.5314317376997217 0 0 0
2128 4 32.1242011112237 19.523069199543148 0.02845009429372844 0 0 0
2134 4 35.50569596503669 19.523069199543144 0.028450094293726746 0 0 0
2305 1 30.433453684317026 20.498764077377587 1.5314317376997206 0 0 0
2311 1 33.814948538130025 20.498764077377587 1.5314317376997193 0 0 0
2307 4 30.433453684317175 22.451529645711144 0.02845009429373101 0 0 0
2306 1 32.12420111122357 23.427224523545586 1.5314317376997213 0 0 0
2313 4 33.814948538130174 22.451529645711144 0.028450094293730698 0 0 0
2312 1 35.505695965036566 23.427224523545586 1.5314317376997213 0 0 0
2140 4 38.887190818849696 19.523069199543148 0.028450094293729435 0 0 0
2317 1 37.19644339194302 20.498764077377583 1.5314317376997182 0 0 0
2323 1 40.57793824575603 20.498764077377587 1.53143173769972 0 0 0
2319 4 37.19644339194318 22.451529645711148 0.02845009429373234 0 0 0
2318 1 38.88719081884957 23.427224523545586 1.5314317376997217 0 0 0
2325 4 40.57793824575618 22.451529645711144 0.02845009429373101 0 0 0
2146 4 42.2686856726627 19.523069199543148 0.028450094293728415 0 0 0
2152 4 45.650180526475694 19.523069199543144 0.028450094293726746 0 0 0
2329 1 43.959433099569026 20.498764077377587 1.5314317376997193 0 0 0
2335 1 47.34092795338202 20.498764077377583 1.5314317376997182 0 0 0
2324 1 42.26868567266257 23.427224523545586 1.5314317376997213 0 0 0
2331 4 43.959433099569175 22.451529645711144 0.028450094293730698 0 0 0
2330 1 45.650180526475566 23.427224523545586 1.5314317376997213 0 0 0
2337 4 47.34092795338218 22.451529645711148 0.028450094293732332 0 0 0
2158 4 49.031675380288696 19.523069199543144 0.028450094293728922 0 0 0
1984 4 52.4131702341017 19.523069199543144 0.028450094293728752 -1 0 0
2161 1 50.72242280719503 20.498764077377583 1.5314317376997189 -1 0 0
2336 1 49.03167538028857 23.427224523545586 1.5314317376997217 0 0 0
2163 4 50.72242280719518 22.451529645711144 0.02845009429373186 -1 0 0