LAMMPS data file via write_data, version 29 Aug 2024, timestep = 0, units = metal

2688 atoms
12 atom types

0 98.185643683344 xlo xhi
0 97.178584819072 ylo yhi
0 17.668190968963 zlo zhi

Masses

1 78.95999999999999
2 78.95999999999999
3 78.95999999999999
4 58.6934
5 78.95999999999999
6 78.95999999999999
7 78.95999999999999
8 78.95999999999999
9 58.6934
10 58.6934
11 58.6934
12 78.971

Atoms # atomic

1429 9 0 0 1.3193810475420005 0 0 0
1431 2 1.7533150657740038 1.0122769251989965 0 0 0 0
1435 11 3.5066301315480004 0 1.3193810475420005 0 0 0
1437 6 5.259945197322004 1.0122769251989965 0 0 0 0
1441 9 7.013260263096001 0 1.3193810475420005 0 0 0
1443 2 8.766575328870005 1.0122769251989965 0 0 0 0
1447 11 10.519890394644001 0 1.3193810475420005 0 0 0
1449 6 12.273205460417998 1.0122769251989965 0 0 0 0
1453 9 14.026520526192002 0 1.3193810475420005 0 0 0
1455 2 15.779835591965998 1.0122769251989965 0 0 0 0
1459 11 17.533150657740002 0 1.3193810475420005 0 0 0
1461 6 19.286465723514006 1.0122769251989965 0 0 0 0
1465 9 21.039780789287995 0 1.3193810475420005 0 0 0
1467 2 22.793095855062 1.0122769251989965 0 0 0 0
1471 11 24.546410920836003 0 1.3193810475420005 0 0 0
1473 6 26.299725986610007 1.0122769251989965 0 0 0 0
1477 9 28.053041052383996 0 1.3193810475420005 0 0 0
1479 2 29.806356118158 1.0122769251989965 0 0 0 0
1483 11 31.559671183932004 0 1.3193810475420005 0 0 0
1485 6 33.31298624970601 1.0122769251989965 0 0 0 0
1489 9 35.06630131548 0 1.3193810475420005 0 0 0
1491 2 36.819616381254 1.0122769251989965 0 0 0 0
1495 11 38.572931447028004 0 1.3193810475420005 0 0 0
1497 6 40.32624651280201 1.0122769251989965 0 0 0 0
1501 9 42.079561578576 0 1.3193810475420005 0 0 0
1503 2 43.83287664435 1.0122769251989965 0 0 0 0
1507 11 45.586191710124005 0 1.3193810475420005 0 0 0
1509 6 47.339506775897995 1.0122769251989965 0 0 0 0
1345 9 49.092821841672 0 1.3193810475420005 -1 0 0
1347 2 50.846136907445995 1.0122769251989965 0 -1 0 0
1351 11 52.59945197322 0 1.3193810475420005 -1 0 0
1353 6 54.352767038993996 1.0122769251989965 0 -1 0 0
1357 9 56.106082104768 0 1.3193810475420005 -1 0 0
1359 2 57.859397170541996 1.0122769251989965 0 -1 0 0
1363 11 59.612712236316 0 1.3193810475420005 -1 0 0
1365 6 61.36602730209 1.0122769251989965 0 -1 0 0
1369 9 63.119342367864 0 1.3193810475420005 -1 0 0
1371 2 64.872657433638 1.0122769251989965 0 -1 0 0
1375 11 66.625972499412 0 1.3193810475420005 -1 0 0
1377 6 68.37928756518599 1.0122769251989965 0 -1 0 0
1381 9 70.13260263096 0 1.3193810475420005 -1 0 0
1383 2 71.885917696734 1.0122769251989965 0 -1 0 0
1387 11 73.639232762508 0 1.3193810475420005 -1 0 0
1389 6 75.392547828282 1.0122769251989965 0 -1 0 0
1393 9 77.145862894056 0 1.3193810475420005 -1 0 0
1395 2 78.89917795983 1.0122769251989965 0 -1 0 0
1399 11 80.652493025604 0 1.3193810475420005 -1 0 0
1401 6 82.40580809137799 1.0122769251989965 0 -1 0 0
1405 9 84.159123157152 0 1.3193810475420005 -1 0 0
1407 2 85.912438222926 1.0122769251989965 0 -1 0 0
1411 11 87.66575328869999 0 1.3193810475420005 -1 0 0
1413 6 89.419068354474 1.0122769251989965 0 -1 0 0
1417 9 91.172383420248 0 1.3193810475420005 -1 0 0
1419 2 92.925698486022 1.0122769251989965 0 -1 0 0
1423 11 94.679013551796 0 1.3193810475420005 -1 0 0
1425 6 96.43232861757 1.0122769251989965 0 -1 0 0
1432 10 1.7533150657740038 3.036830775596002 1.3193810475420005 0 0 0
1438 12 5.259945197322004 3.036830775596002 1.3193810475420005 0 0 0
1444 10 8.766575328870005 3.036830775596002 1.3193810475420005 0 0 0
1450 12 12.273205460417998 3.036830775596002 1.3193810475420005 0 0 0
1456 10 15.779835591965998 3.036830775596002 1.3193810475420005 0 0 0
1462 12 19.286465723514006 3.036830775596002 1.3193810475420005 0 0 0
1468 10 22.793095855062 3.036830775596002 1.3193810475420005 0 0 0
1474 12 26.299725986610007 3.036830775596002 1.3193810475420005 0 0 0
1480 10 29.806356118158 3.036830775596002 1.3193810475420005 0 0 0
1486 12 33.31298624970601 3.036830775596002 1.3193810475420005 0 0 0
1492 10 36.819616381254 3.036830775596002 1.3193810475420005 0 0 0
1498 12 40.32624651280201 3.036830775596002 1.3193810475420005 0 0 0
1504 10 43.83287664435 3.036830775596002 1.3193810475420005 0 0 0
1510 12 47.339506775897995 3.036830775596002 1.3193810475420005 0 0 0
1348 10 50.846136907445995 3.036830775596002 1.3193810475420005 -1 0 0
1354 12 54.352767038993996 3.036830775596002 1.3193810475420005 -1 0 0
1360 10 57.859397170541996 3.036830775596002 1.3193810475420005 -1 0 0
1366 12 61.36602730209 3.036830775596002 1.3193810475420005 -1 0 0
1372 10 64.872657433638 3.036830775596002 1.3193810475420005 -1 0 0
1378 12 68.37928756518599 3.036830775596002 1.3193810475420005 -1 0 0
1384 10 71.885917696734 3.036830775596002 1.3193810475420005 -1 0 0
1390 12 75.392547828282 3.036830775596002 1.3193810475420005 -1 0 0
1396 10 78.89917795983 3.036830775596002 1.3193810475420005 -1 0 0
1402 12 82.40580809137799 3.036830775596002 1.3193810475420005 -1 0 0
1408 10 85.912438222926 3.036830775596002 1.3193810475420005 -1 0 0
1414 12 89.419068354474 3.036830775596002 1.3193810475420005 -1 0 0
1420 10 92.925698486022 3.036830775596002 1.3193810475420005 -1 0 0
1426 12 96.43232861757 3.036830775596002 1.3193810475420005 -1 0 0
1434 4 0 4.049107700794998 0 0 0 0
1440 8 3.5066301315480004 4.049107700794998 0 0 0 0
1446 4 7.013260263096001 4.049107700794998 0 0 0 0
1452 8 10.519890394644001 4.049107700794998 0 0 0 0
1458 4 14.026520526192002 4.049107700794998 0 0 0 0
1464 8 17.533150657740002 4.049107700794998 0 0 0 0
1470 4 21.039780789287995 4.049107700794998 0 0 0 0
1476 8 24.546410920836003 4.049107700794998 0 0 0 0
1482 4 28.053041052383996 4.049107700794998 0 0 0 0
1488 8 31.559671183932004 4.049107700794998 0 0 0 0
1494 4 35.06630131548 4.049107700794998 0 0 0 0
1500 8 38.572931447028004 4.049107700794998 0 0 0 0
1506 4 42.079561578576 4.049107700794998 0 0 0 0
1512 8 45.586191710124005 4.049107700794998 0 0 0 0
1350 4 49.092821841672 4.049107700794998 0 -1 0 0
1356 8 52.59945197322 4.049107700794998 0 -1 0 0
1362 4 56.106082104768 4.049107700794998 0 -1 0 0
1368 8 59.612712236316 4.049107700794998 0 -1 0 0
1374 4 63.119342367864 4.049107700794998 0 -1 0 0
1380 8 66.625972499412 4.049107700794998 0 -1 0 0
1386 4 70.13260263096 4.049107700794998 0 -1 0 0
1392 8 73.639232762508 4.049107700794998 0 -1 0 0
1398 4 77.145862894056 4.049107700794998 0 -1 0 0
1404 8 80.652493025604 4.049107700794998 0 -1 0 0
1410 4 84.159123157152 4.049107700794998 0 -1 0 0
1416 8 87.66575328869999 4.049107700794998 0 -1 0 0
1422 4 91.172383420248 4.049107700794998 0 -1 0 0
1428 8 94.679013551796 4.049107700794998 0 -1 0 0
1597 9 0 6.0736615511919965 1.3193810475420005 0 0 0
1603 11 3.5066301315480004 6.0736615511919965 1.3193810475420005 0 0 0
1609 9 7.013260263096001 6.0736615511919965 1.3193810475420005 0 0 0
1615 11 10.519890394644001 6.0736615511919965 1.3193810475420005 0 0 0
1621 9 14.026520526192002 6.0736615511919965 1.3193810475420005 0 0 0
1627 11 17.533150657740002 6.0736615511919965 1.3193810475420005 0 0 0
1633 9 21.039780789287995 6.0736615511919965 1.3193810475420005 0 0 0
1639 11 24.546410920836003 6.0736615511919965 1.3193810475420005 0 0 0
1645 9 28.053041052383996 6.0736615511919965 1.3193810475420005 0 0 0
1651 11 31.559671183932004 6.0736615511919965 1.3193810475420005 0 0 0
1657 9 35.06630131548 6.0736615511919965 1.3193810475420005 0 0 0
1663 11 38.572931447028004 6.0736615511919965 1.3193810475420005 0 0 0
1669 9 42.079561578576 6.0736615511919965 1.3193810475420005 0 0 0
1675 11 45.586191710124005 6.0736615511919965 1.3193810475420005 0 0 0
1513 9 49.092821841672 6.0736615511919965 1.3193810475420005 -1 0 0
1519 11 52.59945197322 6.0736615511919965 1.3193810475420005 -1 0 0
1525 9 56.106082104768 6.0736615511919965 1.3193810475420005 -1 0 0
1531 11 59.612712236316 6.0736615511919965 1.3193810475420005 -1 0 0
1537 9 63.119342367864 6.0736615511919965 1.3193810475420005 -1 0 0
1543 11 66.625972499412 6.0736615511919965 1.3193810475420005 -1 0 0
1549 9 70.13260263096 6.0736615511919965 1.3193810475420005 -1 0 0
1555 11 73.639232762508 6.0736615511919965 1.3193810475420005 -1 0 0
1561 9 77.145862894056 6.0736615511919965 1.3193810475420005 -1 0 0
1567 11 80.652493025604 6.0736615511919965 1.3193810475420005 -1 0 0
1573 9 84.159123157152 6.0736615511919965 1.3193810475420005 -1 0 0
1579 11 87.66575328869999 6.0736615511919965 1.3193810475420005 -1 0 0
1585 9 91.172383420248 6.0736615511919965 1.3193810475420005 -1 0 0
1591 11 94.679013551796 6.0736615511919965 1.3193810475420005 -1 0 0
1599 2 1.7533150657740038 7.085938476391 0 0 0 0
1605 6 5.259945197322004 7.085938476391 0 0 0 0
1611 2 8.766575328870005 7.085938476391 0 0 0 0
1617 6 12.273205460417998 7.085938476391 0 0 0 0
1623 2 15.779835591965998 7.085938476391 0 0 0 0
1629 6 19.286465723514006 7.085938476391 0 0 0 0
1635 2 22.793095855062 7.085938476391 0 0 0 0
1641 6 26.299725986610007 7.085938476391 0 0 0 0
1647 2 29.806356118158 7.085938476391 0 0 0 0
1653 6 33.31298624970601 7.085938476391 0 0 0 0
1659 2 36.819616381254 7.085938476391 0 0 0 0
1665 6 40.32624651280201 7.085938476391 0 0 0 0
1671 2 43.83287664435 7.085938476391 0 0 0 0
1677 6 47.339506775897995 7.085938476391 0 0 0 0
1515 2 50.846136907445995 7.085938476391 0 -1 0 0
1521 6 54.352767038993996 7.085938476391 0 -1 0 0
1527 2 57.859397170541996 7.085938476391 0 -1 0 0
1533 6 61.36602730209 7.085938476391 0 -1 0 0
1539 2 64.872657433638 7.085938476391 0 -1 0 0
1545 6 68.37928756518599 7.085938476391 0 -1 0 0
1551 2 71.885917696734 7.085938476391 0 -1 0 0
1557 6 75.392547828282 7.085938476391 0 -1 0 0
1563 2 78.89917795983 7.085938476391 0 -1 0 0
1569 6 82.40580809137799 7.085938476391 0 -1 0 0
1575 2 85.912438222926 7.085938476391 0 -1 0 0
1581 6 89.419068354474 7.085938476391 0 -1 0 0
1587 2 92.925698486022 7.085938476391 0 -1 0 0
1593 6 96.43232861757 7.085938476391 0 -1 0 0
1600 10 1.7533150657740038 9.110492326787998 1.3193810475420005 0 0 0
1602 4 0 10.122769251987002 0 0 0 0
1608 8 3.5066301315480004 10.122769251987002 0 0 0 0
1606 12 5.259945197322004 9.110492326787998 1.3193810475420005 0 0 0
1614 4 7.013260263096001 10.122769251987002 0 0 0 0
1612 10 8.766575328870005 9.110492326787998 1.3193810475420005 0 0 0
1620 8 10.519890394644001 10.122769251987002 0 0 0 0
1618 12 12.273205460417998 9.110492326787998 1.3193810475420005 0 0 0
1626 4 14.026520526192002 10.122769251987002 0 0 0 0
1624 10 15.779835591965998 9.110492326787998 1.3193810475420005 0 0 0
1632 8 17.533150657740002 10.122769251987002 0 0 0 0
1630 12 19.286465723514006 9.110492326787998 1.3193810475420005 0 0 0
1638 4 21.039780789287995 10.122769251987002 0 0 0 0
1636 10 22.793095855062 9.110492326787998 1.3193810475420005 0 0 0
1644 8 24.546410920836003 10.122769251987002 0 0 0 0
1642 12 26.299725986610007 9.110492326787998 1.3193810475420005 0 0 0
1650 4 28.053041052383996 10.122769251987002 0 0 0 0
1648 10 29.806356118158 9.110492326787998 1.3193810475420005 0 0 0
1656 8 31.559671183932004 10.122769251987002 0 0 0 0
1654 12 33.31298624970601 9.110492326787998 1.3193810475420005 0 0 0
1662 4 35.06630131548 10.122769251987002 0 0 0 0
1660 10 36.819616381254 9.110492326787998 1.3193810475420005 0 0 0
1668 8 38.572931447028004 10.122769251987002 0 0 0 0
1666 12 40.32624651280201 9.110492326787998 1.3193810475420005 0 0 0
1674 4 42.079561578576 10.122769251987002 0 0 0 0
1672 10 43.83287664435 9.110492326787998 1.3193810475420005 0 0 0
1680 8 45.586191710124005 10.122769251987002 0 0 0 0
1678 12 47.339506775897995 9.110492326787998 1.3193810475420005 0 0 0
1518 4 49.092821841672 10.122769251987002 0 -1 0 0
1516 10 50.846136907445995 9.110492326787998 1.3193810475420005 -1 0 0
1524 8 52.59945197322 10.122769251987002 0 -1 0 0
1522 12 54.352767038993996 9.110492326787998 1.3193810475420005 -1 0 0
1530 4 56.106082104768 10.122769251987002 0 -1 0 0
1528 10 57.859397170541996 9.110492326787998 1.3193810475420005 -1 0 0
1536 8 59.612712236316 10.122769251987002 0 -1 0 0
1534 12 61.36602730209 9.110492326787998 1.3193810475420005 -1 0 0
1542 4 63.119342367864 10.122769251987002 0 -1 0 0
1540 10 64.872657433638 9.110492326787998 1.3193810475420005 -1 0 0
1548 8 66.625972499412 10.122769251987002 0 -1 0 0
1546 12 68.37928756518599 9.110492326787998 1.3193810475420005 -1 0 0
1554 4 70.13260263096 10.122769251987002 0 -1 0 0
1552 10 71.885917696734 9.110492326787998 1.3193810475420005 -1 0 0
1560 8 73.639232762508 10.122769251987002 0 -1 0 0
1558 12 75.392547828282 9.110492326787998 1.3193810475420005 -1 0 0
1566 4 77.145862894056 10.122769251987002 0 -1 0 0
1564 10 78.89917795983 9.110492326787998 1.3193810475420005 -1 0 0
1572 8 80.652493025604 10.122769251987002 0 -1 0 0
1570 12 82.40580809137799 9.110492326787998 1.3193810475420005 -1 0 0
1578 4 84.159123157152 10.122769251987002 0 -1 0 0
1576 10 85.912438222926 9.110492326787998 1.3193810475420005 -1 0 0
1584 8 87.66575328869999 10.122769251987002 0 -1 0 0
1582 12 89.419068354474 9.110492326787998 1.3193810475420005 -1 0 0
1590 4 91.172383420248 10.122769251987002 0 -1 0 0
1588 10 92.925698486022 9.110492326787998 1.3193810475420005 -1 0 0
1596 8 94.679013551796 10.122769251987002 0 -1 0 0
1594 12 96.43232861757 9.110492326787998 1.3193810475420005 -1 0 0
1765 9 0 12.147323102384 1.3193810475420005 0 0 0
1771 11 3.5066301315480004 12.147323102384 1.3193810475420005 0 0 0
1777 9 7.013260263096001 12.147323102384 1.3193810475420005 0 0 0
1783 11 10.519890394644001 12.147323102384 1.3193810475420005 0 0 0
1789 9 14.026520526192002 12.147323102384 1.3193810475420005 0 0 0
1795 11 17.533150657740002 12.147323102384 1.3193810475420005 0 0 0
1801 9 21.039780789287995 12.147323102384 1.3193810475420005 0 0 0
1807 11 24.546410920836003 12.147323102384 1.3193810475420005 0 0 0
1813 9 28.053041052383996 12.147323102384 1.3193810475420005 0 0 0
1819 11 31.559671183932004 12.147323102384 1.3193810475420005 0 0 0
1825 9 35.06630131548 12.147323102384 1.3193810475420005 0 0 0
1831 11 38.572931447028004 12.147323102384 1.3193810475420005 0 0 0
1837 9 42.079561578576 12.147323102384 1.3193810475420005 0 0 0
1843 11 45.586191710124005 12.147323102384 1.3193810475420005 0 0 0
1681 9 49.092821841672 12.147323102384 1.3193810475420005 -1 0 0
1687 11 52.59945197322 12.147323102384 1.3193810475420005 -1 0 0
1693 9 56.106082104768 12.147323102384 1.3193810475420005 -1 0 0
1699 11 59.612712236316 12.147323102384 1.3193810475420005 -1 0 0
1705 9 63.119342367864 12.147323102384 1.3193810475420005 -1 0 0
1711 11 66.625972499412 12.147323102384 1.3193810475420005 -1 0 0
1717 9 70.13260263096 12.147323102384 1.3193810475420005 -1 0 0
1723 11 73.639232762508 12.147323102384 1.3193810475420005 -1 0 0
1729 9 77.145862894056 12.147323102384 1.3193810475420005 -1 0 0
1735 11 80.652493025604 12.147323102384 1.3193810475420005 -1 0 0
1741 9 84.159123157152 12.147323102384 1.3193810475420005 -1 0 0
1747 11 87.66575328869999 12.147323102384 1.3193810475420005 -1 0 0
1753 9 91.172383420248 12.147323102384 1.3193810475420005 -1 0 0
1759 11 94.679013551796 12.147323102384 1.3193810475420005 -1 0 0
1767 2 1.7533150657740038 13.159600027582997 0 0 0 0
1773 6 5.259945197322004 13.159600027582997 0 0 0 0
1779 2 8.766575328870005 13.159600027582997 0 0 0 0
1785 6 12.273205460417998 13.159600027582997 0 0 0 0
1791 2 15.779835591965998 13.159600027582997 0 0 0 0
1797 6 19.286465723514006 13.159600027582997 0 0 0 0
1803 2 22.793095855062 13.159600027582997 0 0 0 0
1809 6 26.299725986610007 13.159600027582997 0 0 0 0
1815 2 29.806356118158 13.159600027582997 0 0 0 0
1821 6 33.31298624970601 13.159600027582997 0 0 0 0
1827 2 36.819616381254 13.159600027582997 0 0 0 0
1833 6 40.32624651280201 13.159600027582997 0 0 0 0
1839 2 43.83287664435 13.159600027582997 0 0 0 0
1845 6 47.339506775897995 13.159600027582997 0 0 0 0
1683 2 50.846136907445995 13.159600027582997 0 -1 0 0
1689 6 54.352767038993996 13.159600027582997 0 -1 0 0
1695 2 57.859397170541996 13.159600027582997 0 -1 0 0
1701 6 61.36602730209 13.159600027582997 0 -1 0 0
1707 2 64.872657433638 13.159600027582997 0 -1 0 0
1713 6 68.37928756518599 13.159600027582997 0 -1 0 0
1719 2 71.885917696734 13.159600027582997 0 -1 0 0
1725 6 75.392547828282 13.159600027582997 0 -1 0 0
1731 2 78.89917795983 13.159600027582997 0 -1 0 0
1737 6 82.40580809137799 13.159600027582997 0 -1 0 0
1743 2 85.912438222926 13.159600027582997 0 -1 0 0
1749 6 89.419068354474 13.159600027582997 0 -1 0 0
1755 2 92.925698486022 13.159600027582997 0 -1 0 0
1761 6 96.43232861757 13.159600027582997 0 -1 0 0
1768 10 1.7533150657740038 15.184153877980002 1.3193810475420005 0 0 0
1774 12 5.259945197322004 15.184153877980002 1.3193810475420005 0 0 0
1780 10 8.766575328870005 15.184153877980002 1.3193810475420005 0 0 0
1786 12 12.273205460417998 15.184153877980002 1.3193810475420005 0 0 0
1792 10 15.779835591965998 15.184153877980002 1.3193810475420005 0 0 0
1798 12 19.286465723514006 15.184153877980002 1.3193810475420005 0 0 0
1804 10 22.793095855062 15.184153877980002 1.3193810475420005 0 0 0
1810 12 26.299725986610007 15.184153877980002 1.3193810475420005 0 0 0
1816 10 29.806356118158 15.184153877980002 1.3193810475420005 0 0 0
1822 12 33.31298624970601 15.184153877980002 1.3193810475420005 0 0 0
1828 10 36.819616381254 15.184153877980002 1.3193810475420005 0 0 0
1834 12 40.32624651280201 15.184153877980002 1.3193810475420005 0 0 0
1840 10 43.83287664435 15.184153877980002 1.3193810475420005 0 0 0
1846 12 47.339506775897995 15.184153877980002 1.3193810475420005 0 0 0
1684 10 50.846136907445995 15.184153877980002 1.3193810475420005 -1 0 0
1690 12 54.352767038993996 15.184153877980002 1.3193810475420005 -1 0 0
1696 10 57.859397170541996 15.184153877980002 1.3193810475420005 -1 0 0
1702 12 61.36602730209 15.184153877980002 1.3193810475420005 -1 0 0
1708 10 64.872657433638 15.184153877980002 1.3193810475420005 -1 0 0
1714 12 68.37928756518599 15.184153877980002 1.3193810475420005 -1 0 0
1720 10 71.885917696734 15.184153877980002 1.3193810475420005 -1 0 0
1726 12 75.392547828282 15.184153877980002 1.3193810475420005 -1 0 0
1732 10 78.89917795983 15.184153877980002 1.3193810475420005 -1 0 0
1738 12 82.40580809137799 15.184153877980002 1.3193810475420005 -1 0 0
1744 10 85.912438222926 15.184153877980002 1.3193810475420005 -1 0 0
1750 12 89.419068354474 15.184153877980002 1.3193810475420005 -1 0 0
1756 10 92.925698486022 15.184153877980002 1.3193810475420005 -1 0 0
1762 12 96.43232861757 15.184153877980002 1.3193810475420005 -1 0 0
1770 4 0 16.196430803179 0 0 0 0
1776 8 3.5066301315480004 16.196430803179 0 0 0 0
1782 4 7.013260263096001 16.196430803179 0 0 0 0
1788 8 10.519890394644001 16.196430803179 0 0 0 0
1794 4 14.026520526192002 16.196430803179 0 0 0 0
1800 8 17.533150657740002 16.196430803179 0 0 0 0
1806 4 21.039780789287995 16.196430803179 0 0 0 0
1812 8 24.546410920836003 16.196430803179 0 0 0 0
1818 4 28.053041052383996 16.196430803179 0 0 0 0
1824 8 31.559671183932004 16.196430803179 0 0 0 0
1830 4 35.06630131548 16.196430803179 0 0 0 0
1836 8 38.572931447028004 16.196430803179 0 0 0 0
1842 4 42.079561578576 16.196430803179 0 0 0 0
1848 8 45.586191710124005 16.196430803179 0 0 0 0
1686 4 49.092821841672 16.196430803179 0 -1 0 0
1692 8 52.59945197322 16.196430803179 0 -1 0 0
1698 4 56.106082104768 16.196430803179 0 -1 0 0
1704 8 59.612712236316 16.196430803179 0 -1 0 0
1710 4 63.119342367864 16.196430803179 0 -1 0 0
1716 8 66.625972499412 16.196430803179 0 -1 0 0
1722 4 70.13260263096 16.196430803179 0 -1 0 0
1728 8 73.639232762508 16.196430803179 0 -1 0 0
1734 4 77.145862894056 16.196430803179 0 -1 0 0
1740 8 80.652493025604 16.196430803179 0 -1 0 0
1746 4 84.159123157152 16.196430803179 0 -1 0 0
1752 8 87.66575328869999 16.196430803179 0 -1 0 0
1758 4 91.172383420248 16.196430803179 0 -1 0 0
1764 8 94.679013551796 16.196430803179 0 -1 0 0
1933 9 0 18.220984653575997 1.3193810475420005 0 0 0
1935 2 1.7533150657740038 19.233261578775 0 0 0 0
1939 11 3.5066301315480004 18.220984653575997 1.3193810475420005 0 0 0
1941 6 5.259945197322004 19.233261578775 0 0 0 0
1945 9 7.013260263096001 18.220984653575997 1.3193810475420005 0 0 0
1947 2 8.766575328870005 19.233261578775 0 0 0 0
1951 11 10.519890394644001 18.220984653575997 1.3193810475420005 0 0 0
1953 6 12.273205460417998 19.233261578775 0 0 0 0
1957 9 14.026520526192002 18.220984653575997 1.3193810475420005 0 0 0
1959 2 15.779835591965998 19.233261578775 0 0 0 0
1963 11 17.533150657740002 18.220984653575997 1.3193810475420005 0 0 0
1965 6 19.286465723514006 19.233261578775 0 0 0 0
1969 9 21.039780789287995 18.220984653575997 1.3193810475420005 0 0 0
1971 2 22.793095855062 19.233261578775 0 0 0 0
1975 11 24.546410920836003 18.220984653575997 1.3193810475420005 0 0 0
1977 6 26.299725986610007 19.233261578775 0 0 0 0
1981 9 28.053041052383996 18.220984653575997 1.3193810475420005 0 0 0
1983 2 29.806356118158 19.233261578775 0 0 0 0
1987 11 31.559671183932004 18.220984653575997 1.3193810475420005 0 0 0
1989 6 33.31298624970601 19.233261578775 0 0 0 0
1993 9 35.06630131548 18.220984653575997 1.3193810475420005 0 0 0
1995 2 36.819616381254 19.233261578775 0 0 0 0
1999 11 38.572931447028004 18.220984653575997 1.3193810475420005 0 0 0
2001 6 40.32624651280201 19.233261578775 0 0 0 0
2005 9 42.079561578576 18.220984653575997 1.3193810475420005 0 0 0
2007 2 43.83287664435 19.233261578775 0 0 0 0
2011 11 45.586191710124005 18.220984653575997 1.3193810475420005 0 0 0
2013 6 47.339506775897995 19.233261578775 0 0 0 0
1849 9 49.092821841672 18.220984653575997 1.3193810475420005 -1 0 0
1851 2 50.846136907445995 19.233261578775 0 -1 0 0
1855 11 52.59945197322 18.220984653575997 1.3193810475420005 -1 0 0
1857 6 54.352767038993996 19.233261578775 0 -1 0 0
1861 9 56.106082104768 18.220984653575997 1.3193810475420005 -1 0 0
1863 2 57.859397170541996 19.233261578775 0 -1 0 0
1867 11 59.612712236316 18.220984653575997 1.3193810475420005 -1 0 0
1869 6 61.36602730209 19.233261578775 0 -1 0 0
1873 9 63.119342367864 18.220984653575997 1.3193810475420005 -1 0 0
1875 2 64.872657433638 19.233261578775 0 -1 0 0
1879 11 66.625972499412 18.220984653575997 1.3193810475420005 -1 0 0
1881 6 68.37928756518599 19.233261578775 0 -1 0 0
1885 9 70.13260263096 18.220984653575997 1.3193810475420005 -1 0 0
1887 2 71.885917696734 19.233261578775 0 -1 0 0
1891 11 73.639232762508 18.220984653575997 1.3193810475420005 -1 0 0
1893 6 75.392547828282 19.233261578775 0 -1 0 0
1897 9 77.145862894056 18.220984653575997 1.3193810475420005 -1 0 0
1899 2 78.89917795983 19.233261578775 0 -1 0 0
1903 11 80.652493025604 18.220984653575997 1.3193810475420005 -1 0 0
1905 6 82.40580809137799 19.233261578775 0 -1 0 0
1909 9 84.159123157152 18.220984653575997 1.3193810475420005 -1 0 0
1911 2 85.912438222926 19.233261578775 0 -1 0 0
1915 11 87.66575328869999 18.220984653575997 1.3193810475420005 -1 0 0
1917 6 89.419068354474 19.233261578775 0 -1 0 0
1921 9 91.172383420248 18.220984653575997 1.3193810475420005 -1 0 0
1923 2 92.925698486022 19.233261578775 0 -1 0 0
1927 11 94.679013551796 18.220984653575997 1.3193810475420005 -1 0 0
1929 6 96.43232861757 19.233261578775 0 -1 0 0
1936 10 1.7533150657740038 21.257815429172 1.3193810475420005 0 0 0
1938 4 0 22.270092354371002 0 0 0 0
1944 8 3.5066301315480004 22.270092354371002 0 0 0 0
1942 12 5.259945197322004 21.257815429172 1.3193810475420005 0 0 0
1950 4 7.013260263096001 22.270092354371002 0 0 0 0
1948 10 8.766575328870005 21.257815429172 1.3193810475420005 0 0 0
1956 8 10.519890394644001 22.270092354371002 0 0 0 0
1954 12 12.273205460417998 21.257815429172 1.3193810475420005 0 0 0
1962 4 14.026520526192002 22.270092354371002 0 0 0 0
1960 10 15.779835591965998 21.257815429172 1.3193810475420005 0 0 0
1968 8 17.533150657740002 22.270092354371002 0 0 0 0
1966 12 19.286465723514006 21.257815429172 1.3193810475420005 0 0 0
1974 4 21.039780789287995 22.270092354371002 0 0 0 0
1972 10 22.793095855062 21.257815429172 1.3193810475420005 0 0 0
1980 8 24.546410920836003 22.270092354371002 0 0 0 0
1978 12 26.299725986610007 21.257815429172 1.3193810475420005 0 0 0
1986 4 28.053041052383996 22.270092354371002 0 0 0 0
1984 10 29.806356118158 21.257815429172 1.3193810475420005 0 0 0
1992 8 31.559671183932004 22.270092354371002 0 0 0 0
1990 12 33.31298624970601 21.257815429172 1.3193810475420005 0 0 0
1998 4 35.06630131548 22.270092354371002 0 0 0 0
1996 10 36.819616381254 21.257815429172 1.3193810475420005 0 0 0
2004 8 38.572931447028004 22.270092354371002 0 0 0 0
2002 12 40.32624651280201 21.257815429172 1.3193810475420005 0 0 0
2010 4 42.079561578576 22.270092354371002 0 0 0 0
2008 10 43.83287664435 21.257815429172 1.3193810475420005 0 0 0
2016 8 45.586191710124005 22.270092354371002 0 0 0 0
2014 12 47.339506775897995 21.257815429172 1.3193810475420005 0 0 0
1854 4 49.092821841672 22.270092354371002 0 -1 0 0
1852 10 50.846136907445995 21.257815429172 1.3193810475420005 -1 0 0
1860 8 52.59945197322 22.270092354371002 0 -1 0 0
1858 12 54.352767038993996 21.257815429172 1.3193810475420005 -1 0 0
1866 4 56.106082104768 22.270092354371002 0 -1 0 0
1864 10 57.859397170541996 21.257815429172 1.3193810475420005 -1 0 0
1872 8 59.612712236316 22.270092354371002 0 -1 0 0
1870 12 61.36602730209 21.257815429172 1.3193810475420005 -1 0 0
1878 4 63.119342367864 22.270092354371002 0 -1 0 0
1876 10 64.872657433638 21.257815429172 1.3193810475420005 -1 0 0
1884 8 66.625972499412 22.270092354371002 0 -1 0 0
1882 12 68.37928756518599 21.257815429172 1.3193810475420005 -1 0 0
1890 4 70.13260263096 22.270092354371002 0 -1 0 0
1888 10 71.885917696734 21.257815429172 1.3193810475420005 -1 0 0
1896 8 73.639232762508 22.270092354371002 0 -1 0 0
1894 12 75.392547828282 21.257815429172 1.3193810475420005 -1 0 0
1902 4 77.145862894056 22.270092354371002 0 -1 0 0
1900 10 78.89917795983 21.257815429172 1.3193810475420005 -1 0 0
1908 8 80.652493025604 22.270092354371002 0 -1 0 0
1906 12 82.40580809137799 21.257815429172 1.3193810475420005 -1 0 0
1914 4 84.159123157152 22.270092354371002 0 -1 0 0
1912 10 85.912438222926 21.257815429172 1.3193810475420005 -1 0 0
1920 8 87.66575328869999 22.270092354371002 0 -1 0 0
1918 12 89.419068354474 21.257815429172 1.3193810475420005 -1 0 0
1926 4 91.172383420248 22.270092354371002 0 -1 0 0
1924 10 92.925698486022 21.257815429172 1.3193810475420005 -1 0 0
1932 8 94.679013551796 22.270092354371002 0 -1 0 0
1930 12 96.43232861757 21.257815429172 1.3193810475420005 -1 0 0
2101 9 0 24.294646204768 1.3193810475420005 0 0 0
2107 11 3.5066301315480004 24.294646204768 1.3193810475420005 0 0 0
2113 9 7.013260263096001 24.294646204768 1.3193810475420005 0 0 0
2119 11 10.519890394644001 24.294646204768 1.3193810475420005 0 0 0
2125 9 14.026520526192002 24.294646204768 1.3193810475420005 0 0 0
2131 11 17.533150657740002 24.294646204768 1.3193810475420005 0 0 0
2137 9 21.039780789287995 24.294646204768 1.3193810475420005 0 0 0
2143 11 24.546410920836003 24.294646204768 1.3193810475420005 0 0 0
2149 9 28.053041052383996 24.294646204768 1.3193810475420005 0 0 0
2155 11 31.559671183932004 24.294646204768 1.3193810475420005 0 0 0
2161 9 35.06630131548 24.294646204768 1.3193810475420005 0 0 0
2167 11 38.572931447028004 24.294646204768 1.3193810475420005 0 0 0
2173 9 42.079561578576 24.294646204768 1.3193810475420005 0 0 0
2179 11 45.586191710124005 24.294646204768 1.3193810475420005 0 0 0
2017 9 49.092821841672 24.294646204768 1.3193810475420005 -1 0 0
2023 11 52.59945197322 24.294646204768 1.3193810475420005 -1 0 0
2029 9 56.106082104768 24.294646204768 1.3193810475420005 -1 0 0
2035 11 59.612712236316 24.294646204768 1.3193810475420005 -1 0 0
2041 9 63.119342367864 24.294646204768 1.3193810475420005 -1 0 0
2047 11 66.625972499412 24.294646204768 1.3193810475420005 -1 0 0
2053 9 70.13260263096 24.294646204768 1.3193810475420005 -1 0 0
2059 11 73.639232762508 24.294646204768 1.3193810475420005 -1 0 0
2065 9 77.145862894056 24.294646204768 1.3193810475420005 -1 0 0
2071 11 80.652493025604 24.294646204768 1.3193810475420005 -1 0 0
2077 9 84.159123157152 24.294646204768 1.3193810475420005 -1 0 0
2083 11 87.66575328869999 24.294646204768 1.3193810475420005 -1 0 0
2089 9 91.172383420248 24.294646204768 1.3193810475420005 -1 0 0
2095 11 94.679013551796 24.294646204768 1.3193810475420005 -1 0 0
2103 2 1.7533150657740038 25.306923129967004 0 0 0 0
2109 6 5.259945197322004 25.306923129967004 0 0 0 0
2115 2 8.766575328870005 25.306923129967004 0 0 0 0
2121 6 12.273205460417998 25.306923129967004 0 0 0 0
2127 2 15.779835591965998 25.306923129967004 0 0 0 0
2133 6 19.286465723514006 25.306923129967004 0 0 0 0
2139 2 22.793095855062 25.306923129967004 0 0 0 0
2145 6 26.299725986610007 25.306923129967004 0 0 0 0
2151 2 29.806356118158 25.306923129967004 0 0 0 0
2157 6 33.31298624970601 25.306923129967004 0 0 0 0
2163 2 36.819616381254 25.306923129967004 0 0 0 0
2169 6 40.32624651280201 25.306923129967004 0 0 0 0
2175 2 43.83287664435 25.306923129967004 0 0 0 0
2181 6 47.339506775897995 25.306923129967004 0 0 0 0
2019 2 50.846136907445995 25.306923129967004 0 -1 0 0
2025 6 54.352767038993996 25.306923129967004 0 -1 0 0
2031 2 57.859397170541996 25.306923129967004 0 -1 0 0
2037 6 61.36602730209 25.306923129967004 0 -1 0 0
2043 2 64.872657433638 25.306923129967004 0 -1 0 0
2049 6 68.37928756518599 25.306923129967004 0 -1 0 0
2055 2 71.885917696734 25.306923129967004 0 -1 0 0
2061 6 75.392547828282 25.306923129967004 0 -1 0 0
2067 2 78.89917795983 25.306923129967004 0 -1 0 0
2073 6 82.40580809137799 25.306923129967004 0 -1 0 0
2079 2 85.912438222926 25.306923129967004 0 -1 0 0
2085 6 89.419068354474 25.306923129967004 0 -1 0 0
2091 2 92.925698486022 25.306923129967004 0 -1 0 0
2097 6 96.43232861757 25.306923129967004 0 -1 0 0
2104 10 1.7533150657740038 27.331476980364002 1.3193810475420005 0 0 0
2110 12 5.259945197322004 27.331476980364002 1.3193810475420005 0 0 0
2116 10 8.766575328870005 27.331476980364002 1.3193810475420005 0 0 0
2122 12 12.273205460417998 27.331476980364002 1.3193810475420005 0 0 0