LAMMPS data file via write_data, version 29 Aug 2024, timestep = 158, units = metal

8064 atoms
36 atom types

0 98.185643683344 xlo xhi
0 97.178584819072 ylo yhi
-50 50 zlo zhi

Masses

1 58.6934
2 58.6934
3 58.6934
4 58.6934
5 58.6934
6 58.6934
7 58.6934
8 58.6934
9 58.6934
10 58.6934
11 58.6934
12 58.6934
13 78.971
14 78.971
15 78.971
16 78.971
17 78.971
18 78.971
19 78.971
20 78.971
21 78.971
22 78.971
23 78.971
24 78.971
25 78.971
26 78.971
27 78.971
28 78.971
29 78.971
30 78.971
31 78.971
32 78.971
33 78.971
34 78.971
35 78.971
36 78.971

Atoms # atomic

1431 2 2.5862805950575294 1.191789240164025 1.9858160265235514 0 0 0
1435 19 4.927284536065511 1.0231369472821024 2.193132000653267 0 0 0
1437 14 4.92686957512239 1.01692296610418 2.1915604328950717 0 0 0
1432 18 1.756952431468034 3.8202980548370435 1.0477116660851515 0 0 0
1438 20 5.514756621159169 3.313861086734318 1.3120460114980124 0 0 0
1440 16 2.8299489097217143 3.2352649654405 0.8568224507328369 0 0 0
1436 13 5.640047622959254 1.4045526190655466 2.132644304311695 0 0 0
1433 3 0.3549115310158364 2.8951427015482256 2.6815486753760207 0 0 0
1439 15 2.1482913914767297 4.4686779591958095 0.2617883014913366 0 0 0
1443 2 9.599540858153494 1.1917892401640253 1.9858160265236837 0 0 0
1444 18 8.770212694564014 3.82029805483698 1.0477116660851928 0 0 0
1446 4 6.9626134805350235 3.9500148014646994 -0.4272771417935868 0 0 0
1452 16 9.843209172817787 3.23526496544046 0.8568224507329243 0 0 0
1445 3 7.368171794111906 2.8951427015481777 2.681548675375954 0 0 0
1451 15 9.161551654572731 4.468677959195862 0.2617883014912728 0 0 0
1609 17 6.27485054461512 4.717993768733331 1.6823472625510525 0 0 0
1447 19 11.940544799161483 1.0231369472820495 2.193132000653498 0 0 0
1449 14 11.940129838218358 1.0169229661041508 2.1915604328953124 0 0 0
1455 2 16.612801121249465 1.191789240164014 1.9858160265236224 0 0 0
1450 20 12.528016884255196 3.313861086734305 1.3120460114979786 0 0 0
1456 18 15.783472957660042 3.820298054837001 1.0477116660851913 0 0 0
1458 4 13.97587374363107 3.9500148014647016 -0.427277141793603 0 0 0
1448 13 12.653307886055254 1.4045526190655748 2.1326443043117753 0 0 0
1457 3 14.381432057207915 2.895142701548193 2.6815486753759563 0 0 0
1464 16 16.856469435913773 3.235264965440465 0.8568224507328854 0 0 0
1463 15 16.174811917668766 4.468677959195844 0.26178830149129395 0 0 0
1621 17 13.288110807711117 4.7179937687333355 1.6823472625510185 0 0 0
1459 19 18.9538050622575 1.0231369472820493 2.1931320006533945 0 0 0
1461 14 18.95339010131438 1.0169229661041443 2.1915604328951983 0 0 0
1462 20 19.541277147351217 3.313861086734287 1.3120460114979653 0 0 0
1468 18 22.796733220756074 3.8202980548369716 1.0477116660851578 0 0 0
1470 4 20.989134006727095 3.9500148014646697 -0.42727714179362014 0 0 0
1460 13 19.666568149151313 1.4045526190655295 2.13264430431174 0 0 0
1469 3 21.394692320303946 2.8951427015481372 2.681548675375943 0 0 0
1633 17 20.30137107080713 4.717993768733292 1.6823472625509863 0 0 0
1467 2 23.62606138434552 1.191789240163958 1.9858160265236653 0 0 0
1471 19 25.967065325353488 1.0231369472820413 2.193132000653486 0 0 0
1473 14 25.966650364410373 1.016922966104121 2.191560432895299 0 0 0
1474 20 26.554537410447214 3.313861086734329 1.3120460114979442 0 0 0
1476 16 23.869729699009774 3.2352649654404058 0.8568224507329205 0 0 0
1482 4 28.002394269823096 3.9500148014647114 -0.42727714179363113 0 0 0
1472 13 26.67982841224726 1.404552619065576 2.132644304311763 0 0 0
1475 15 23.18807218076478 4.46867795919584 0.2617883014912408 0 0 0
1481 3 28.407952583399965 2.8951427015481666 2.6815486753759163 0 0 0
1645 17 27.314631333903133 4.717993768733319 1.6823472625509899 0 0 0
1479 2 30.639321647441484 1.1917892401639747 1.9858160265235956 0 0 0
1483 19 32.98032558844949 1.0231369472820513 2.1931320006534 0 0 0
1485 14 32.97991062750637 1.0169229661041386 2.1915604328952005 0 0 0
1480 18 29.809993483852065 3.820298054837005 1.0477116660851493 0 0 0
1486 20 33.567797673543204 3.3138610867342817 1.3120460114979513 0 0 0
1488 16 30.882989962105746 3.2352649654404413 0.8568224507328771 0 0 0
1484 13 33.6930886753433 1.404552619065577 2.132644304311687 0 0 0
1487 15 30.201332443860796 4.468677959195882 0.26178830149125326 0 0 0
1657 17 34.32789159699911 4.717993768733351 1.6823472625509752 0 0 0
1491 2 37.652581910537485 1.1917892401640282 1.985816026523569 0 0 0
1495 19 39.99358585154547 1.0231369472820964 2.193132000653359 0 0 0
1497 14 39.99317089060234 1.0169229661041832 2.1915604328951734 0 0 0
1492 18 36.823253746948076 3.820298054836964 1.0477116660852148 0 0 0
1494 4 35.015654532919115 3.950014801464667 -0.4272771417936161 0 0 0
1500 16 37.89625022520172 3.2352649654405266 0.8568224507329147 0 0 0
1493 3 35.421212846495855 2.8951427015481928 2.681548675375995 0 0 0
1499 15 37.21459270695681 4.468677959195799 0.2617883014912972 0 0 0
1498 20 40.58105793663916 3.3138610867343052 1.3120460114979957 0 0 0
1496 13 40.706348938439255 1.4045526190655744 2.132644304311654 0 0 0
1503 2 44.6658421736335 1.191789240164024 1.9858160265235933 0 0 0
1504 18 43.83651401004403 3.820298054836947 1.0477116660851815 0 0 0
1506 4 42.028914796015016 3.9500148014647256 -0.42727714179358944 0 0 0
1512 16 44.90951048829768 3.2352649654405004 0.8568224507328893 0 0 0
1505 3 42.43447310959189 2.8951427015481723 2.6815486753759745 0 0 0
1511 15 44.22785297005275 4.468677959195784 0.2617883014912642 0 0 0
1669 17 41.34115186009511 4.717993768733366 1.682347262551045 0 0 0
1507 19 47.006846114641476 1.0231369472821505 2.193132000653345 0 0 0
1509 14 47.00643115369835 1.0169229661042272 2.191560432895148 0 0 0
1347 2 51.6791024367294 1.1917892401639445 1.9858160265236136 -1 0 0
1510 20 47.594318199735206 3.3138610867342937 1.3120460114979484 0 0 0
1348 18 50.84977427314007 3.8202980548369667 1.0477116660851882 -1 0 0
1350 4 49.04217505911105 3.95001480146466 -0.42727714179361825 -1 0 0
1508 13 47.719609201535235 1.4045526190655226 2.1326443043117504 0 0 0
1349 3 49.44773337268797 2.895142701548142 2.6815486753759306 -1 0 0
1356 16 51.922770751393706 3.2352649654404195 0.8568224507329112 -1 0 0
1355 15 51.24111323314878 4.46867795919585 0.261788301491272 -1 0 0
1513 17 48.35441212319112 4.717993768733276 1.6823472625509914 -1 0 0
1351 19 54.02010637773746 1.0231369472820244 2.193132000653435 -1 0 0
1353 14 54.01969141679436 1.016922966104153 2.19156043289524 -1 0 0
1354 20 54.607578462831185 3.3138610867342657 1.3120460114979515 -1 0 0
1362 4 56.05543532220709 3.9500148014647016 -0.42727714179363685 -1 0 0
1352 13 54.732869464631364 1.4045526190655373 2.132644304311758 -1 0 0
1361 3 56.460993635783915 2.8951427015481372 2.681548675375985 -1 0 0
1525 17 55.36767238628704 4.71799376873333 1.6823472625509768 -1 0 0
1359 2 58.69236269982553 1.1917892401639383 1.9858160265236162 -1 0 0
1363 19 61.03336664083352 1.0231369472820409 2.193132000653398 -1 0 0
1365 14 61.032951679890395 1.016922966104117 2.1915604328951983 -1 0 0
1360 18 57.86303453623607 3.8202980548369783 1.0477116660850927 -1 0 0
1366 20 61.62083872592717 3.3138610867342613 1.3120460114978887 -1 0 0
1368 16 58.93603101448974 3.2352649654403858 0.8568224507328565 -1 0 0
1374 4 63.06869558530309 3.95001480146469 -0.42727714179362486 -1 0 0
1364 13 61.74612972772725 1.404552619065566 2.132644304311652 -1 0 0
1367 15 58.25437349624476 4.4686779591957775 0.26178830149122867 -1 0 0
1373 3 63.474253898879894 2.8951427015482443 2.6815486753759403 -1 0 0
1537 17 62.380932649383126 4.71799376873336 1.6823472625509266 -1 0 0
1371 2 65.70562296292142 1.1917892401640158 1.98581602652357 -1 0 0
1375 19 68.04662690392946 1.0231369472821057 2.193132000653348 -1 0 0
1377 14 68.04621194298636 1.0169229661041863 2.191560432895137 -1 0 0
1372 18 64.87629479933203 3.820298054836981 1.0477116660851447 -1 0 0
1378 20 68.63409898902316 3.3138610867342577 1.3120460114979013 -1 0 0
1380 16 65.94929127758569 3.2352649654404955 0.8568224507328657 -1 0 0
1376 13 68.75938999082322 1.4045526190655953 2.132644304311665 -1 0 0
1379 15 65.26763375934075 4.468677959195807 0.2617883014912924 -1 0 0
1383 2 72.71888322601752 1.19178924016387 1.9858160265236178 -1 0 0
1387 19 75.05988716702554 1.0231369472820389 2.193132000653474 -1 0 0
1384 18 71.88955506242799 3.8202980548369854 1.0477116660852335 -1 0 0
1386 4 70.08195584839905 3.9500148014646337 -0.4272771417936219 -1 0 0
1392 16 72.96255154068172 3.2352649654403614 0.856822450732929 -1 0 0
1385 3 70.48751416197582 2.895142701548248 2.6815486753759648 -1 0 0
1391 15 72.28089402243675 4.468677959195828 0.2617883014913034 -1 0 0
1389 14 75.05947220608242 1.0169229661041224 2.191560432895292 -1 0 0
1549 17 69.39419291247908 4.717993768733392 1.6823472625509224 -1 0 0
1395 2 79.73214348911338 1.1917892401640409 1.9858160265236058 -1 0 0
1390 20 75.64735925211914 3.313861086734267 1.312046011497922 -1 0 0
1396 18 78.90281532552397 3.820298054837021 1.0477116660852215 -1 0 0
1398 4 77.09521611149502 3.950014801464655 -0.42727714179360243 -1 0 0
1404 16 79.97581180377773 3.2352649654404835 0.8568224507328505 -1 0 0
1388 13 75.77265025391921 1.404552619065636 2.132644304311733 -1 0 0
1397 3 77.50077442507187 2.895142701548339 2.681548675375951 -1 0 0
1403 15 79.29415428553273 4.468677959195819 0.2617883014912795 -1 0 0
1561 17 76.40745317557509 4.717993768733407 1.6823472625509426 -1 0 0
1399 19 82.07314743012147 1.0231369472820648 2.1931320006534025 -1 0 0
1401 14 82.07273246917832 1.0169229661041674 2.19156043289519 -1 0 0
1402 20 82.66061951521515 3.313861086734261 1.3120460114979027 -1 0 0
1408 18 85.91607558862 3.8202980548370027 1.0477116660851962 -1 0 0
1410 4 84.108476374591 3.950014801464666 -0.4272771417936777 -1 0 0
1400 13 82.78591051701522 1.4045526190656636 2.1326443043116323 -1 0 0
1409 3 84.5140346881677 2.89514270154832 2.6815486753759528 -1 0 0
1415 15 86.30741454862874 4.468677959195788 0.2617883014912881 -1 0 0
1573 17 83.42071343867106 4.717993768733445 1.6823472625509184 -1 0 0
1407 2 86.74540375220947 1.191789240163976 1.9858160265235216 -1 0 0
1411 19 89.08640769321747 1.0231369472820993 2.193132000653357 -1 0 0
1413 14 89.08599273227433 1.0169229661042098 2.1915604328951437 -1 0 0
1414 20 89.67387977831115 3.3138610867342737 1.312046011497847 -1 0 0
1416 16 86.98907206687367 3.2352649654404764 0.8568224507328637 -1 0 0
1422 4 91.1217366376871 3.950014801464646 -0.42727714179374326 -1 0 0
1412 13 89.79917078011134 1.4045526190656017 2.132644304311646 -1 0 0
1421 3 91.52729495126377 2.8951427015482785 2.6815486753759803 -1 0 0
1585 17 90.43397370176702 4.717993768733401 1.6823472625508475 -1 0 0
1434 4 98.13499690078302 3.9500148014647487 -0.4272771417936031 -1 0 0
1419 2 93.7586640153054 1.1917892401638994 1.985816026523558 -1 0 0
1423 19 96.0996679563135 1.0231369472821696 2.1931320006534194 -1 0 0
1425 14 96.09925299537035 1.0169229661042953 2.1915604328952054 -1 0 0
1420 18 92.92933585171608 3.8202980548370293 1.047711666085119 -1 0 0
1426 20 96.68714004140712 3.3138610867343234 1.3120460114979693 -1 0 0
1428 16 94.00233232996956 3.235264965440394 0.8568224507328818 -1 0 0
1424 13 96.81243104320728 1.4045526190656368 2.1326443043117687 -1 0 0
1427 15 93.32067481172477 4.468677959195804 0.2617883014912434 -1 0 0
1597 17 97.44723396486305 4.717993768733424 1.6823472625510145 -1 0 0
1603 19 4.927284536065492 7.096798498473982 2.193132000653414 0 0 0
1599 2 2.586280595057494 7.2654507913559625 1.9858160265235967 0 0 0
1605 14 4.92686957512237 7.090584517296087 2.1915604328952285 0 0 0
1600 18 1.756952431468023 9.893959606029027 1.0477116660852317 0 0 0
1608 16 2.82994890972179 9.30892651663244 0.8568224507329033 0 0 0
1606 20 5.514756621159179 9.387522637926347 1.3120460114979717 0 0 0
1598 1 1.249950082407362 5.968407123350058 1.8294709422200777 0 0 0
1604 13 5.6400476229592815 7.47821417025755 2.132644304311713 0 0 0
1601 3 0.35491153101594813 8.968804252740261 2.681548675375934 0 0 0
1607 15 2.14829139147677 10.542339510387903 0.2617883014913175 0 0 0
1611 2 9.599540858153441 7.265450791355999 1.985816026523633 0 0 0
1614 4 6.962613480535071 10.023676352656716 -0.42727714179363363 0 0 0
1612 18 8.770212694564048 9.893959606029002 1.0477116660851324 0 0 0
1620 16 9.843209172817732 9.308926516632456 0.8568224507329024 0 0 0
1610 1 8.263210345503419 5.968407123350019 1.8294709422200424 0 0 0
1613 3 7.368171794111914 8.968804252740144 2.681548675375928 0 0 0
1619 15 9.16155165457275 10.542339510387873 0.26178830149123655 0 0 0
1777 17 6.274850544615095 10.79165531992532 1.682347262551008 0 0 0
1615 19 11.940544799161472 7.0967984984740795 2.1931320006534523 0 0 0
1617 14 11.94012983821835 7.09058451729617 2.1915604328952565 0 0 0
1623 2 16.612801121249472 7.265450791356027 1.985816026523577 0 0 0
1618 20 12.52801688425522 9.387522637926335 1.3120460114979413 0 0 0
1626 4 13.975873743631114 10.023676352656722 -0.42727714179364473 0 0 0
1624 18 15.78347295766009 9.893959606029014 1.047711666085159 0 0 0
1616 13 12.653307886055272 7.478214170257593 2.1326443043117496 0 0 0
1622 1 15.276470608599414 5.968407123350027 1.8294709422200357 0 0 0
1625 3 14.38143205720791 8.968804252740178 2.68154867537592 0 0 0
1632 16 16.856469435913805 9.308926516632503 0.8568224507328887 0 0 0
1631 15 16.1748119176688 10.542339510387865 0.26178830149126014 0 0 0
1789 17 13.288110807711135 10.791655319925342 1.6823472625509752 0 0 0
1627 19 18.953805062257494 7.096798498474039 2.1931320006533834 0 0 0
1629 14 18.953390101314373 7.090584517296128 2.1915604328951956 0 0 0
1630 20 19.54127714735121 9.387522637926345 1.3120460114979577 0 0 0
1638 4 20.989134006727124 10.023676352656729 -0.42727714179365917 0 0 0
1636 18 22.79673322075609 9.893959606028998 1.0477116660851145 0 0 0
1628 13 19.666568149151313 7.47821417025755 2.1326443043117123 0 0 0
1634 1 22.28973087169542 5.968407123349976 1.8294709422200255 0 0 0
1637 3 21.39469232030394 8.968804252740101 2.681548675375914 0 0 0
1801 17 20.301371070807125 10.791655319925313 1.6823472625510012 0 0 0
1635 2 23.62606138434547 7.265450791356045 1.9858160265236036 0 0 0
1639 19 25.967065325353474 7.096798498474091 2.193132000653429 0 0 0
1641 14 25.966650364410345 7.090584517296171 2.1915604328952387 0 0 0
1644 16 23.869729699009778 9.308926516632516 0.8568224507329093 0 0 0
1642 20 26.554537410447235 9.387522637926356 1.3120460114979589 0 0 0
1650 4 28.002394269823117 10.023676352656747 -0.42727714179365334 0 0 0
1640 13 26.67982841224728 7.47821417025758 2.1326443043117447 0 0 0
1643 15 23.188072180764784 10.542339510387881 0.26178830149122384 0 0 0
1649 3 28.407952583399954 8.968804252740144 2.6815486753758955 0 0 0
1813 17 27.314631333903147 10.791655319925322 1.6823472625509952 0 0 0
1651 19 32.98032558844948 7.096798498474039 2.1931320006534074 0 0 0
1647 2 30.639321647441452 7.26545079135599 1.9858160265235814 0 0 0
1653 14 32.979910627506364 7.090584517296117 2.1915604328952183 0 0 0
1648 18 29.809993483852107 9.893959606029014 1.0477116660851358 0 0 0
1656 16 30.88298996210579 9.308926516632468 0.8568224507329034 0 0 0
1654 20 33.56779767354323 9.38752263792629 1.3120460114979589 0 0 0
1646 1 29.302991134791434 5.9684071233500315 1.8294709422200275 0 0 0
1652 13 33.693088675343304 7.478214170257546 2.1326443043117473 0 0 0
1655 15 30.201332443860803 10.542339510387897 0.2617883014912309 0 0 0
1825 17 34.32789159699914 10.791655319925301 1.6823472625510099 0 0 0
1663 19 39.9935858515455 7.096798498473926 2.1931320006534003 0 0 0
1659 2 37.652581910537435 7.2654507913559465 1.9858160265235927 0 0 0
1665 14 39.99317089060237 7.090584517296042 2.1915604328951943 0 0 0
1662 4 35.01565453291906 10.023676352656745 -0.4272771417936905 0 0 0
1660 18 36.82325374694811 9.893959606029005 1.0477116660851027 0 0 0
1668 16 37.89625022520181 9.308926516632372 0.8568224507328428 0 0 0
1658 1 36.316251397887456 5.968407123350002 1.8294709422200282 0 0 0
1661 3 35.421212846495926 8.968804252740112 2.6815486753758453 0 0 0
1667 15 37.21459270695678 10.542339510387858 0.26178830149124327 0 0 0
1666 20 40.58105793663927 9.387522637926278 1.312046011497858 0 0 0
1664 13 40.70634893843938 7.478214170257483 2.1326443043116767 0 0 0
1671 2 44.66584217363352 7.265450791355995 1.9858160265236056 0 0 0
1674 4 42.02891479601518 10.02367635265672 -0.4272771417937291 0 0 0
1672 18 43.83651401004416 9.893959606028996 1.0477116660850838 0 0 0
1680 16 44.909510488297784 9.308926516632456 0.8568224507328848 0 0 0
1670 1 43.32951166098347 5.968407123349967 1.8294709422200477 0 0 0
1673 3 42.434473109591934 8.9688042527401 2.681548675375875 0 0 0
1679 15 44.22785297005285 10.542339510387855 0.2617883014912205 0 0 0
1837 17 41.341151860095124 10.79165531992529 1.6823472625508917 0 0 0
1675 19 47.00684611464148 7.0967984984740555 2.193132000653418 0 0 0
1677 14 47.006431153698365 7.090584517296125 2.19156043289523 0 0 0
1515 2 51.679102436729494 7.265450791356055 1.9858160265235931 -1 0 0
1678 20 47.59431819973519 9.387522637926345 1.3120460114979173 0 0 0
1518 4 49.04217505911106 10.023676352656715 -0.4272771417936511 -1 0 0
1516 18 50.84977427314005 9.893959606029009 1.0477116660851429 -1 0 0
1676 13 47.71960920153523 7.478214170257542 2.1326443043117167 0 0 0
1514 1 50.342771924079415 5.9684071233499765 1.8294709422200257 -1 0 0
1517 3 49.447733372687956 8.968804252740165 2.6815486753758853 -1 0 0
1524 16 51.92277075139383 9.308926516632507 0.856822450732868 -1 0 0
1523 15 51.241113233148766 10.542339510387892 0.2617883014912655 -1 0 0
1681 17 48.35441212319112 10.791655319925301 1.6823472625509859 -1 0 0
1519 19 54.02010637773749 7.096798498474075 2.1931320006534207 -1 0 0
1521 14 54.019691416794366 7.090584517296148 2.191560432895237 -1 0 0
1522 20 54.60757846283119 9.387522637926299 1.3120460114979366 -1 0 0
1530 4 56.0554353222071 10.023676352656706 -0.4272771417936574 -1 0 0
1520 13 54.732869464631264 7.478214170257575 2.132644304311721 -1 0 0
1529 3 56.46099363578391 8.968804252740165 2.6815486753759403 -1 0 0
1526 1 57.3560321871754 5.9684071233499845 1.8294709422200448 -1 0 0
1693 17 55.367672386287126 10.791655319925338 1.6823472625509954 -1 0 0
1531 19 61.03336664083349 7.096798498474087 2.1931320006533617 -1 0 0
1527 2 58.69236269982544 7.265450791356057 1.9858160265235796 -1 0 0
1533 14 61.03295167989037 7.090584517296178 2.191560432895166 -1 0 0
1528 18 57.863034536236064 9.89395960602899 1.0477116660851495 -1 0 0
1536 16 58.93603101448975 9.308926516632505 0.8568224507328418 -1 0 0
1534 20 61.62083872592715 9.387522637926297 1.3120460114979242 -1 0 0
1542 4 63.06869558530303 10.023676352656675 -0.4272771417935852 -1 0 0
1532 13 61.74612972772724 7.478214170257537 2.1326443043116776 -1 0 0
1535 15 58.254373496244774 10.542339510387816 0.2617883014912733 -1 0 0
1541 3 63.47425389887986 8.968804252740236 2.6815486753759905 -1 0 0
1705 17 62.3809326493831 10.791655319925372 1.6823472625509632 -1 0 0
1543 19 68.04662690392948 7.096798498474137 2.1931320006533417 -1 0 0
1539 2 65.70562296292157 7.265450791355986 1.9858160265235936 -1 0 0
1545 14 68.04621194298633 7.090584517296215 2.1915604328951406 -1 0 0
1540 18 64.87629479933199 9.89395960602899 1.0477116660852055 -1 0 0
1548 16 65.94929127758563 9.308926516632464 0.8568224507328748 -1 0 0
1546 20 68.63409898902309 9.387522637926311 1.3120460114979755 -1 0 0
1538 1 64.36929245027143 5.968407123350031 1.8294709422199773 -1 0 0
1544 13 68.7593899908232 7.4782141702576626 2.1326443043116505 -1 0 0
1547 15 65.26763375934074 10.542339510387777 0.26178830149134086 -1 0 0
1555 19 75.0598871670254 7.0967984984741745 2.1931320006534385 -1 0 0
1551 2 72.7188832260174 7.26545079135611 1.985816026523599 -1 0 0
1554 4 70.08195584839903 10.02367635265662 -0.4272771417935712 -1 0 0
1552 18 71.88955506242793 9.893959606028984 1.0477116660852224 -1 0 0
1560 16 72.96255154068167 9.308926516632585 0.8568224507329087 -1 0 0
1550 1 71.38255271336739 5.968407123350031 1.8294709422199524 -1 0 0
1553 3 70.48751416197575 8.968804252740311 2.681548675376087 -1 0 0
1559 15 72.28089402243671 10.54233951038777 0.2617883014913042 -1 0 0
1557 14 75.05947220608226 7.090584517296286 2.191560432895238 -1 0 0
1717 17 69.39419291247907 10.791655319925454 1.682347262550978 -1 0 0
1563 2 79.73214348911347 7.265450791355971 1.9858160265235287 -1 0 0
1558 20 75.64735925211907 9.387522637926397 1.312046011498002 -1 0 0
1566 4 77.09521611149502 10.023676352656743 -0.42727714179360726 -1 0 0
1564 18 78.90281532552396 9.893959606029005 1.0477116660851384 -1 0 0
1572 16 79.97581180377763 9.308926516632482 0.8568224507328724 -1 0 0
1556 13 75.77265025391922 7.478214170257621 2.1326443043117616 -1 0 0
1562 1 78.39581297646338 5.968407123350088 1.829470942219872 -1 0 0
1565 3 77.50077442507187 8.968804252740224 2.6815486753759994 -1 0 0
1571 15 79.29415428553268 10.542339510387826 0.26178830149126203 -1 0 0
1729 17 76.40745317557499 10.791655319925425 1.6823472625510196 -1 0 0
1567 19 82.0731474301215 7.096798498474124 2.193132000653318 -1 0 0
1569 14 82.07273246917838 7.090584517296227 2.191560432895114 -1 0 0
1570 20 82.6606195152151 9.387522637926264 1.31204601149796 -1 0 0
1578 4 84.10847637459109 10.023676352656695 -0.4272771417936093 -1 0 0
1576 18 85.91607558861998 9.893959606028988 1.0477116660852233 -1 0 0
1568 13 82.78591051701525 7.478214170257655 2.1326443043116408 -1 0 0
1574 1 85.4090732395594 5.968407123350064 1.8294709422199142 -1 0 0
1577 3 84.51403468816777 8.968804252740307 2.6815486753760234 -1 0 0
1583 15 86.30741454862873 10.542339510387771 0.26178830149133303 -1 0 0
1741 17 83.42071343867109 10.79165531992543 1.682347262550988 -1 0 0
1575 2 86.7454037522094 7.265450791355967 1.9858160265235505 -1 0 0
1579 19 89.08640769321748 7.09679849847413 2.1931320006532924 -1 0 0
1581 14 89.08599273227435 7.090584517296213 2.1915604328950957 -1 0 0
1584 16 86.98907206687359 9.308926516632479 0.8568224507329 -1 0 0
1582 20 89.67387977831108 9.387522637926358 1.3120460114979142 -1 0 0
1590 4 91.12173663768704 10.023676352656707 -0.4272771417936078 -1 0 0
1580 13 89.7991707801112 7.478214170257657 2.1326443043115995 -1 0 0
1589 3 91.52729495126377 8.968804252740306 2.6815486753759608 -1 0 0
1753 17 90.43397370176712 10.791655319925454 1.6823472625509277 -1 0 0
1602 4 98.13499690078307 10.023676352656722 -0.42727714179358 -1 0 0
1591 19 96.09966795631351 7.096798498474152 2.193132000653455 -1 0 0
1587 2 93.75866401530556 7.26545079135591 1.985816026523578 -1 0 0
1593 14 96.09925299537039 7.090584517296235 2.191560432895267 -1 0 0
1588 18 92.92933585171595 9.893959606029009 1.0477116660851953 -1 0 0
1596 16 94.00233232996968 9.308926516632425 0.8568224507329285 -1 0 0
1594 20 96.6871400414072 9.387522637926393 1.312046011497994 -1 0 0
1586 1 92.42233350265536 5.968407123350049 1.8294709422199156 -1 0 0
1592 13 96.81243104320716 7.478214170257648 2.1326443043118073 -1 0 0
1595 15 93.32067481172473 10.542339510387862 0.2617883014912677 -1 0 0
1765 17 97.44723396486314 10.791655319925379 1.6823472625510496 -1 0 0
1771 19 4.927284536065499 13.170460049666003 2.1931320006534047 0 0 0
1767 2 2.586280595057483 13.339112342547924 1.9858160265235816 0 0 0
1773 14 4.926869575122376 13.164246068488087 2.1915604328952085 0 0 0
1768 18 1.7569524314680682 15.967621157221068 1.047711666085137 0 0 0
1774 20 5.514756621159187 15.461184189118327 1.3120460114979198 0 0 0
1776 16 2.8299489097217605 15.382588067824393 0.8568224507328699 0 0 0
1766 1 1.2499500824074445 12.042068674542097 1.8294709422200304 0 0 0
1772 13 5.640047622959291 13.551875721449594 2.132644304311664 0 0 0
1769 3 0.35491153101590617 15.042465803932275 2.6815486753759044 0 0 0
1775 15 2.1482913914767594 16.616001061579897 0.26178830149125704 0 0 0
1779 2 9.59954085815346 13.339112342548006 1.9858160265235778 0 0 0
1780 18 8.770212694564062 15.967621157221007 1.0477116660851422 0 0 0
1782 4 6.962613480535112 16.097337903848715 -0.42727714179365894 0 0 0
1788 16 9.843209172817732 15.382588067824495 0.8568224507328936 0 0 0
1778 1 8.263210345503408 12.042068674542012 1.829470942220045 0 0 0
1781 3 7.3681717941118805 15.042465803932187 2.681548675375937 0 0 0
1787 15 9.161551654572783 16.61600106157986 0.2617883014912416 0 0 0
1945 17 6.274850544615109 16.865316871117372 1.6823472625509543 0 0 0
1783 19 11.940544799161483 13.170460049666112 2.193132000653423 0 0 0
1785 14 11.94012983821836 13.16424606848821 2.1915604328952325 0 0 0
1791 2 16.612801121249458 13.339112342547978 1.9858160265235956 0 0 0
1786 20 12.528016884255203 15.461184189118317 1.312046011497966 0 0 0
1792 18 15.783472957660061 15.967621157221025 1.0477116660851427 0 0 0
1794 4 13.975873743631082 16.09733790384871 -0.4272771417936465 0 0 0
1784 13 12.65330788605528 13.55187572144959 2.1326443043117673 0 0 0
1790 1 15.276470608599421 12.042068674542012 1.8294709422200301 0 0 0
1793 3 14.381432057207922 15.042465803932185 2.6815486753759297 0 0 0
1800 16 16.856469435913787 15.382588067824434 0.8568224507328764 0 0 0
1799 15 16.174811917668762 16.61600106157986 0.2617883014912625 0 0 0
1957 17 13.288110807711096 16.865316871117336 1.6823472625509963 0 0 0
1795 19 18.953805062257505 13.170460049666016 2.193132000653402 0 0 0
1797 14 18.953390101314376 13.164246068488099 2.1915604328952063 0 0 0
1798 20 19.54127714735121 15.461184189118294 1.3120460114979309 0 0 0
1804 18 22.796733220756074 15.967621157220991 1.047711666085151 0 0 0
1806 4 20.989134006727106 16.097337903848686 -0.42727714179367166 0 0 0
1796 13 19.666568149151317 13.551875721449582 2.132644304311678 0 0 0
1802 1 22.289730871695426 12.042068674542005 1.8294709422200606 0 0 0
1805 3 21.39469232030387 15.04246580393218 2.681548675375934 0 0 0
1969 17 20.301371070807107 16.86531687111735 1.6823472625509492 0 0 0
1803 2 23.626061384345462 13.339112342547981 1.9858160265236031 0 0 0
1807 19 25.967065325353502 13.170460049666081 2.1931320006534363 0 0 0
1809 14 25.966650364410384 13.164246068488165 2.191560432895245 0 0 0
1810 20 26.55453741044723 15.461184189118333 1.3120460114979489 0 0 0
1812 16 23.86972969900975 15.382588067824459 0.8568224507329069 0 0 0
1818 4 28.002394269823135 16.09733790384869 -0.42727714179363707 0 0 0
1808 13 26.679828412247293 13.551875721449573 2.1326443043117562 0 0 0
1811 15 23.188072180764795 16.616001061579844 0.26178830149124205 0 0 0
1817 3 28.407952583399954 15.04246580393217 2.681548675375924 0 0 0
1981 17 27.314631333903133 16.86531687111731 1.6823472625509592 0 0 0
1819 19 32.9803255884495 13.170460049666064 2.193132000653452 0 0 0
1815 2 30.63932164744156 13.339112342547985 1.9858160265236102 0 0 0
1821 14 32.97991062750637 13.16424606848811 2.1915604328952667 0 0 0
1816 18 29.809993483852086 15.967621157221014 1.0477116660851362 0 0 0
1822 20 33.56779767354321 15.4611841891183 1.31204601149793 0 0 0
1824 16 30.882989962105828 15.382588067824454 0.8568224507329053 0 0 0
1814 1 29.302991134791444 12.04206867454201 1.8294709422200515 0 0 0
1820 13 33.693088675343226 13.551875721449566 2.132644304311713 0 0 0
1823 15 30.201332443860796 16.616001061579908 0.26178830149121374 0 0 0
1993 17 34.32789159699912 16.86531687111733 1.6823472625509674 0 0 0
1831 19 39.993585851545525 13.170460049666106 2.1931320006533355 0 0 0
1827 2 37.6525819105376 13.33911234254804 1.9858160265235716 0 0 0
1833 14 39.993170890602414 13.164246068488168 2.19156043289515 0 0 0
1828 18 36.82325374694803 15.967621157220979 1.0477116660852157 0 0 0
1830 4 35.015654532919086 16.097337903848665 -0.42727714179360193 0 0 0
1836 16 37.89625022520179 15.382588067824518 0.8568224507328677 0 0 0
1826 1 36.31625139788742 12.042068674541984 1.8294709422200464 0 0 0
1829 3 35.421212846495905 15.042465803932206 2.6815486753759568 0 0 0
1835 15 37.21459270695679 16.616001061579805 0.26178830149133375 0 0 0
1834 20 40.58105793663916 15.461184189118304 1.3120460114979824 0 0 0
1832 13 40.706348938439206 13.551875721449552 2.1326443043116927 0 0 0
1839 2 44.66584217363349 13.339112342548072 1.985816026523643 0 0 0
1840 18 43.836514010044 15.967621157220961 1.047711666085209 0 0 0
1842 4 42.028914796015016 16.09733790384867 -0.4272771417935873 0 0 0
1848 16 44.90951048829778 15.382588067824514 0.8568224507328945 0 0 0
1838 1 43.32951166098343 12.042068674541964 1.829470942220048 0 0 0
1841 3 42.434473109591934 15.042465803932203 2.6815486753759292 0 0 0
1847 15 44.227852970052744 16.61600106157984 0.26178830149129767 0 0 0
2005 17 41.34115186009514 16.86531687111731 1.6823472625510414 0 0 0
1843 19 47.00684611464147 13.170460049666096 2.19313200065342 0 0 0
1845 14 47.00643115369835 13.164246068488165 2.1915604328952276 0 0 0
1683 2 51.67910243672943 13.339112342547988 1.9858160265235913 -1 0 0
1846 20 47.59431819973517 15.461184189118327 1.312046011497963 0 0 0
1684 18 50.84977427313999 15.967621157220997 1.0477116660851982 -1 0 0
1686 4 49.04217505911109 16.097337903848672 -0.42727714179360426 -1 0 0
1844 13 47.719609201535214 13.551875721449584 2.132644304311719 0 0 0
1682 1 50.34277192407942 12.042068674542032 1.8294709422200301 -1 0 0
1685 3 49.447733372687885 15.042465803932197 2.6815486753759497 -1 0 0
1692 16 51.92277075139371 15.382588067824482 0.856822450732926 -1 0 0
1691 15 51.24111323314874 16.616001061579876 0.26178830149127863 -1 0 0
1849 17 48.3544121231911 16.865316871117336 1.6823472625509914 -1 0 0
1687 19 54.02010637773748 13.17046004966607 2.1931320006534105 -1 0 0
1689 14 54.019691416794345 13.164246068488179 2.191560432895219 -1 0 0
1690 20 54.60757846283122 15.461184189118319 1.312046011497993 -1 0 0
1698 4 56.05543532220709 16.097337903848718 -0.42727714179365206 -1 0 0
1688 13 54.73286946463133 13.551875721449587 2.132644304311744 -1 0 0
1697 3 56.46099363578389 15.042465803932142 2.681548675375958 -1 0 0
1694 1 57.35603218717544 12.042068674542032 1.8294709422200093 -1 0 0
1861 17 55.36767238628711 16.86531687111735 1.6823472625509854 -1 0 0
1699 19 61.03336664083349 13.170460049666051 2.193132000653406 -1 0 0
1695 2 58.69236269982555 13.339112342547923 1.985816026523597 -1 0 0