LAMMPS data file via write_data, version 29 Aug 2024, timestep = 119, units = metal

5376 atoms
24 atom types

0 98.185643683344 xlo xhi
0 97.178584819072 ylo yhi
-50 50 zlo zhi

Masses

1 58.6934
2 58.6934
3 58.6934
4 58.6934
5 58.6934
6 58.6934
7 58.6934
8 58.6934
9 78.971
10 78.971
11 78.971
12 78.971
13 78.971
14 78.971
15 78.971
16 78.971
17 78.971
18 78.971
19 78.971
20 78.971
21 78.971
22 78.971
23 78.971
24 78.971

Atoms # atomic

1431 2 2.682561410885916 1.0175102460849168 1.569719963161271 0 0 0
1435 15 5.0094868349764585 1.0620941166298157 1.902677835831616 0 0 0
1437 10 5.017847988256756 0.9781120443400987 1.89968346843684 0 0 0
1432 14 1.7074055613763273 3.7048821734603172 1.1667419040656084 0 0 0
1438 16 5.433801814249723 3.6251743563993113 1.2679033701664377 0 0 0
1434 4 0.023033978781286695 3.655728106252931 -0.4538428789332064 0 0 0
1440 12 2.794591890035947 3.2765128837460633 0.9334551795335991 0 0 0
1436 9 5.692012523536308 1.494775565450189 1.8631952308962172 0 0 0
1433 3 0.11960806139908155 3.100085379114145 2.7846177881003484 0 0 0
1439 11 2.1729036167355877 4.118734237914864 0.4198383504064277 0 0 0
1443 2 9.695821673979351 1.0175102460849037 1.5697199631609453 0 0 0
1444 14 8.720665824471942 3.7048821734604354 1.1667419040647384 0 0 0
1446 4 7.036294241878294 3.65572810625257 -0.453842878932167 0 0 0
1452 12 9.807852153132382 3.2765128837457036 0.9334551795340034 0 0 0
1445 3 7.132868324495103 3.1000853791149767 2.784617788101167 0 0 0
1451 11 9.18616387983122 4.11873423791377 0.41983835040624456 0 0 0
1609 13 6.215815276813603 4.790866568714647 1.4378424574817747 0 0 0
1447 15 12.022747098074504 1.0620941166300268 1.9026778358317453 0 0 0
1449 10 12.03110825135506 0.9781120443403141 1.8996834684370347 0 0 0
1455 2 16.70908193707873 1.0175102460848793 1.569719963161391 0 0 0
1450 16 12.44706207734551 3.625174356399411 1.2679033701659062 0 0 0
1456 14 15.733926087568227 3.7048821734602857 1.1667419040653304 0 0 0
1458 4 14.049554504973466 3.6557281062528384 -0.4538428789328008 0 0 0
1448 9 12.705272786632127 1.4947755654507364 1.8631952308967552 0 0 0
1457 3 14.146128587591388 3.100085379114968 2.784617788100497 0 0 0
1464 12 16.821112416228015 3.2765128837460824 0.9334551795336147 0 0 0
1463 11 16.199424142927715 4.118734237914403 0.41983835040624695 0 0 0
1621 13 13.229075539909918 4.7908665687142635 1.4378424574817195 0 0 0
1459 15 19.036007361168082 1.062094116629862 1.9026778358316092 0 0 0
1461 10 19.044368514448276 0.9781120443399789 1.8996834684367851 0 0 0
1462 16 19.460322340441998 3.625174356399434 1.2679033701664504 0 0 0
1468 14 22.74718635066412 3.704882173460328 1.1667419040646725 0 0 0
1470 4 21.062814768070346 3.655728106252768 -0.4538428789319951 0 0 0
1460 9 19.7185330497284 1.4947755654502297 1.8631952308960087 0 0 0
1469 3 21.159388850686994 3.1000853791152676 2.7846177881013032 0 0 0
1633 13 20.24233580300563 4.7908665687147085 1.4378424574816329 0 0 0
1467 2 23.722342200173443 1.0175102460848644 1.5697199631613654 0 0 0
1471 15 26.049267624264953 1.0620941166300188 1.9026778358316652 0 0 0
1473 10 26.05762877754527 0.9781120443400763 1.899683468436905 0 0 0
1474 16 26.47358260353779 3.625174356399315 1.2679033701661906 0 0 0
1476 12 23.83437267932398 3.2765128837459336 0.933455179533734 0 0 0
1482 4 28.076075031166273 3.655728106252758 -0.4538428789324628 0 0 0
1472 9 26.731793312824372 1.4947755654506016 1.8631952308964428 0 0 0
1475 11 23.212684406023556 4.11873423791377 0.4198383504061253 0 0 0
1481 3 28.172649113782967 3.100085379115053 2.784617788101148 0 0 0
1645 13 27.255596066101766 4.790866568714779 1.4378424574815565 0 0 0
1479 2 30.73560246327 1.0175102460848642 1.569719963161418 0 0 0
1483 15 33.06252788736058 1.0620941166298452 1.902677835831663 0 0 0
1485 10 33.070889040640836 0.9781120443400079 1.8996834684368755 0 0 0
1480 14 29.76044661376036 3.7048821734604127 1.1667419040647642 0 0 0
1486 16 33.48684286663389 3.625174356399474 1.2679033701663107 0 0 0
1488 12 30.84763294242004 3.2765128837458244 0.933455179533846 0 0 0
1484 9 33.74505357592029 1.4947755654502894 1.86319523089605 0 0 0
1487 11 30.22594466911965 4.118734237913911 0.4198383504061702 0 0 0
1657 13 34.26885632919774 4.7908665687145815 1.4378424574816442 0 0 0
1491 2 37.74886272636407 1.0175102460851269 1.56971996316139 0 0 0
1495 15 40.07578815045758 1.0620941166300613 1.902677835831719 0 0 0
1497 10 40.08414930373805 0.9781120443402237 1.899683468436974 0 0 0
1492 14 36.773706876856 3.7048821734603337 1.16674190406494 0 0 0
1494 4 35.08933529426235 3.6557281062526576 -0.4538428789320679 0 0 0
1500 12 37.86089320551615 3.2765128837460304 0.9334551795338132 0 0 0
1493 3 35.18590937687925 3.1000853791154754 2.784617788101082 0 0 0
1499 11 37.23920493221539 4.118734237913767 0.4198383504063617 0 0 0
1498 16 40.500103129729396 3.625174356399207 1.2679033701661102 0 0 0
1496 9 40.75831383901617 1.4947755654507004 1.8631952308968731 0 0 0
1503 2 44.76212298946015 1.0175102460847696 1.569719963161135 0 0 0
1504 14 43.786967139952445 3.7048821734601627 1.1667419040649136 0 0 0
1506 4 42.10259555735814 3.655728106252389 -0.4538428789327635 0 0 0
1512 12 44.87415346861214 3.2765128837454904 0.9334551795340693 0 0 0
1505 3 42.19916963997472 3.1000853791142813 2.7846177881012504 0 0 0
1511 11 44.252465195311515 4.118734237913701 0.4198383504064279 0 0 0
1669 13 41.28211659229369 4.790866568714642 1.4378424574816782 0 0 0
1507 15 47.08904841355397 1.0620941166299858 1.9026778358317353 0 0 0
1509 10 47.09740956683447 0.9781120443400665 1.8996834684370605 0 0 0
1347 2 51.77538325255658 1.0175102460848175 1.569719963161063 -1 0 0
1510 16 47.513363392825426 3.6251743563994294 1.267903370165995 0 0 0
1348 14 50.8002274030482 3.7048821734604704 1.166741904065278 -1 0 0
1350 4 49.11585582045383 3.6557281062527336 -0.4538428789329029 -1 0 0
1508 9 47.771574102112204 1.494775565450746 1.8631952308966107 0 0 0
1349 3 49.21242990307113 3.1000853791150265 2.7846177881007645 -1 0 0
1356 12 51.88741373170833 3.27651288374574 0.9334551795338782 -1 0 0
1355 11 51.26572545840757 4.118734237914169 0.4198383504062583 -1 0 0
1513 13 48.29537685538987 4.790866568714699 1.437842457481727 -1 0 0
1351 15 54.10230867664956 1.0620941166298892 1.9026778358316745 -1 0 0
1353 10 54.110669829930025 0.9781120443400684 1.8996834684369919 -1 0 0
1354 16 54.52662365592155 3.625174356399497 1.267903370166051 -1 0 0
1362 4 56.129116083549846 3.6557281062528255 -0.453842878932586 -1 0 0
1352 9 54.784834365208134 1.4947755654504407 1.8631952308964088 -1 0 0
1361 3 56.22569016616731 3.1000853791151624 2.7846177881006735 -1 0 0
1525 13 55.30863711848572 4.7908665687145096 1.4378424574818132 -1 0 0
1359 2 58.78864351565229 1.0175102460848822 1.5697199631611933 -1 0 0
1363 15 61.11556893974565 1.0620941166299285 1.9026778358316438 -1 0 0
1365 10 61.123930093026146 0.9781120443401307 1.8996834684369412 -1 0 0
1360 14 57.813487666143985 3.704882173460524 1.166741904065293 -1 0 0
1366 16 61.53988391901752 3.6251743563994006 1.2679033701660036 -1 0 0
1368 12 58.900673994804436 3.27651288374593 0.9334551795338102 -1 0 0
1374 4 63.1423763466457 3.6557281062527367 -0.45384287893227315 -1 0 0
1364 9 61.79809462830415 1.4947755654504709 1.863195230896354 -1 0 0
1367 11 58.278985721503375 4.118734237914265 0.4198383504063958 -1 0 0
1373 3 63.23895042926328 3.100085379115328 2.7846177881006646 -1 0 0
1537 13 62.321897381581735 4.790866568714321 1.437842457481584 -1 0 0
1371 2 65.80190377874939 1.0175102460848562 1.569719963161416 -1 0 0
1375 15 68.12882920284069 1.062094116629903 1.9026778358316676 -1 0 0
1377 10 68.13719035612105 0.9781120443400146 1.8996834684369028 -1 0 0
1372 14 64.82674792923983 3.704882173460203 1.1667419040651767 -1 0 0
1378 16 68.55314418211354 3.6251743563991585 1.2679033701664169 -1 0 0
1380 12 65.91393425789994 3.2765128837458573 0.9334551795337009 -1 0 0
1376 9 68.81135489140026 1.4947755654503994 1.8631952308966524 -1 0 0
1379 11 65.29224598459936 4.11873423791396 0.4198383504063382 -1 0 0
1383 2 72.81516404184241 1.0175102460851102 1.5697199631609828 -1 0 0
1384 14 71.84000819233628 3.7048821734603288 1.1667419040647107 -1 0 0
1386 4 70.15563660974259 3.6557281062522695 -0.45384287893262415 -1 0 0
1392 12 72.92719452099647 3.276512883745553 0.9334551795342036 -1 0 0
1385 3 70.25221069235872 3.100085379114372 2.7846177881014507 -1 0 0
1391 11 72.30550624769519 4.118734237913464 0.4198383504064867 -1 0 0
1549 13 69.33515764467771 4.790866568714737 1.4378424574818358 -1 0 0
1387 15 75.14208946593929 1.0620941166300373 1.9026778358316971 -1 0 0
1389 10 75.15045061922005 0.978112044340312 1.8996834684370465 -1 0 0
1395 2 79.82842430494294 1.0175102460846954 1.569719963161475 -1 0 0
1390 16 75.56640444520919 3.625174356399692 1.267903370165653 -1 0 0
1396 14 78.85326845543212 3.7048821734603967 1.1667419040656954 -1 0 0
1398 4 77.16889687283714 3.655728106253081 -0.453842878933071 -1 0 0
1404 12 79.94045478409164 3.2765128837458612 0.9334551795336986 -1 0 0
1388 9 75.82461515449602 1.4947755654510335 1.8631952308966293 -1 0 0
1397 3 77.26547095545516 3.1000853791150993 2.7846177881001384 -1 0 0
1403 11 79.3187665107917 4.11873423791469 0.419838350406333 -1 0 0
1561 13 76.34841790777404 4.7908665687144865 1.437842457481776 -1 0 0
1399 15 82.15534972903193 1.0620941166298312 1.902677835831575 -1 0 0
1401 10 82.1637108823121 0.9781120443399107 1.8996834684368014 -1 0 0
1402 16 82.57966470830584 3.6251743563994845 1.2679033701665043 -1 0 0
1408 14 85.86652871852799 3.70488217346062 1.1667419040644542 -1 0 0
1410 4 84.18215713593474 3.6557281062527225 -0.45384287893218994 -1 0 0
1400 9 82.83787541759244 1.494775565450242 1.8631952308959907 -1 0 0
1409 3 84.2787312185509 3.1000853791151006 2.7846177881013587 -1 0 0
1415 11 86.33202677388721 4.11873423791382 0.4198383504060138 -1 0 0
1573 13 83.36167817086965 4.790866568715045 1.4378424574817508 -1 0 0
1407 2 86.8416845680347 1.01751024608498 1.569719963161134 -1 0 0
1411 15 89.16860999213058 1.0620941166299311 1.9026778358316963 -1 0 0
1413 10 89.17697114541116 0.9781120443402109 1.8996834684369952 -1 0 0
1414 16 89.59292497140095 3.6251743563995187 1.2679033701661095 -1 0 0
1416 12 86.9537150471887 3.276512883745969 0.9334551795338994 -1 0 0
1422 4 91.19541739902994 3.655728106252549 -0.4538428789333771 -1 0 0
1412 9 89.85113568068823 1.494775565450993 1.8631952308969328 -1 0 0
1421 3 91.29199148164659 3.100085379114014 2.7846177881007392 -1 0 0
1585 13 90.37493843396578 4.790866568714765 1.4378424574821096 -1 0 0
1419 2 93.8549448311298 1.0175102460853156 1.5697199631605891 -1 0 0
1423 15 96.18187025522717 1.0620941166300417 1.9026778358317207 -1 0 0
1425 10 96.19023140850787 0.978112044340357 1.8996834684370325 -1 0 0
1420 14 92.87978898162423 3.7048821734605557 1.166741904065099 -1 0 0
1426 16 96.6061852344971 3.625174356399499 1.2679033701657636 -1 0 0
1428 12 93.96697531028481 3.2765128837458457 0.9334551795338399 -1 0 0
1424 9 96.86439594378382 1.494775565450796 1.863195230897224 -1 0 0
1427 11 93.34528703698302 4.118734237914331 0.41983835040645 -1 0 0
1597 13 97.38819869706174 4.7908665687141445 1.4378424574820465 -1 0 0
1603 15 5.009486834977697 7.135755667821892 1.902677835831804 0 0 0
1599 2 2.6825614108844755 7.091171797276988 1.5697199631611434 0 0 0
1605 10 5.017847988258157 7.051773595532126 1.8996834684370894 0 0 0
1600 14 1.7074055613763615 9.778543724652316 1.1667419040653708 0 0 0
1602 4 0.023033978781493766 9.729389657444676 -0.45384287893318426 0 0 0
1608 12 2.7945918900364313 9.35017443493781 0.933455179533631 0 0 0
1606 16 5.43380181424958 9.698835907591336 1.2679033701661053 0 0 0
1598 1 1.2392964032766585 5.964647226856447 1.5367359452204163 0 0 0
1604 9 5.692012523536303 7.568437116642438 1.863195230896741 0 0 0
1601 3 0.11960806139913145 9.1737469303064 2.7846177881005354 0 0 0
1607 11 2.1729036167355535 10.192395789106437 0.4198383504063744 0 0 0
1611 2 9.695821673979863 7.091171797277066 1.5697199631610959 0 0 0
1614 4 7.036294241878068 9.729389657444646 -0.4538428789327362 0 0 0
1612 14 8.720665824472055 9.77854372465248 1.1667419040651714 0 0 0
1620 12 9.807852153132556 9.350174434938092 0.9334551795336583 0 0 0
1610 1 8.252556666372925 5.964647226855918 1.53673594521976 0 0 0
1613 3 7.132868324495172 9.173746930306875 2.784617788100722 0 0 0
1619 11 9.186163879831367 10.192395789106127 0.4198383504063712 0 0 0
1777 13 6.215815276813816 10.86452811990645 1.4378424574818256 0 0 0
1615 15 12.022747098073976 7.135755667822012 1.9026778358317282 0 0 0
1617 10 12.031108251354445 7.051773595532125 1.899683468437009 0 0 0
1623 2 16.70908193707737 7.09117179727703 1.569719963161175 0 0 0
1618 16 12.447062077345464 9.69883590759105 1.267903370166059 0 0 0
1626 4 14.049554504974017 9.729389657444639 -0.4538428789329062 0 0 0
1624 14 15.73392608756849 9.778543724652451 1.1667419040649658 0 0 0
1616 9 12.70527278663231 7.568437116642551 1.8631952308971187 0 0 0
1622 1 15.26581692946906 5.964647226856479 1.5367359452200025 0 0 0
1625 3 14.14612858759097 9.173746930306292 2.784617788101005 0 0 0
1632 12 16.821112416228175 9.350174434937982 0.9334551795337135 0 0 0
1631 11 16.1994241429275 10.192395789106364 0.4198383504063115 0 0 0
1789 13 13.229075539909644 10.864528119906415 1.4378424574817952 0 0 0
1627 15 19.03600736116905 7.135755667821947 1.9026778358316785 0 0 0
1629 10 19.044368514449452 7.051773595532046 1.899683468436961 0 0 0
1630 16 19.46032234044179 9.698835907591135 1.267903370166165 0 0 0
1638 4 21.062814768070005 9.729389657444626 -0.45384287893234093 0 0 0
1636 14 22.74718635066409 9.778543724652348 1.1667419040649403 0 0 0
1628 9 19.71853304972832 7.56843711664224 1.8631952308965527 0 0 0
1634 1 22.279077192565193 5.964647226856328 1.5367359452199847 0 0 0
1637 3 21.1593888506872 9.17374693030713 2.7846177881009337 0 0 0
1801 13 20.242335803005666 10.864528119906405 1.4378424574816273 0 0 0
1635 2 23.722342200173244 7.091171797276917 1.5697199631613041 0 0 0
1639 15 26.049267624265074 7.135755667821926 1.902677835831714 0 0 0
1641 10 26.057628777545446 7.051773595532018 1.8996834684369883 0 0 0
1644 12 23.834372679324105 9.350174434938017 0.9334551795337199 0 0 0
1642 16 26.473582603537697 9.69883590759101 1.2679033701662488 0 0 0
1650 4 28.0760750311663 9.729389657444605 -0.4538428789326416 0 0 0
1640 9 26.731793312824447 7.568437116642296 1.863195230896795 0 0 0
1643 11 23.212684406023513 10.192395789105975 0.41983835040624373 0 0 0
1649 3 28.172649113782946 9.173746930306661 2.784617788101108 0 0 0
1813 13 27.255596066101674 10.864528119906542 1.4378424574817834 0 0 0
1651 15 33.062527887361725 7.13575566782191 1.9026778358317515 0 0 0
1647 2 30.735602463268457 7.091171797276943 1.5697199631612002 0 0 0
1653 10 33.070889040642214 7.051773595532101 1.8996834684370625 0 0 0
1648 14 29.76044661376031 9.778543724652502 1.1667419040648341 0 0 0
1656 12 30.847632942420404 9.350174434937893 0.9334551795337899 0 0 0
1654 16 33.48684286663358 9.698835907591103 1.2679033701661155 0 0 0
1646 1 29.29233745566124 5.964647226856516 1.536735945219828 0 0 0
1652 9 33.74505357592039 7.568437116642392 1.8631952308967696 0 0 0
1655 11 30.225944669119425 10.192395789106024 0.41983835040626505 0 0 0
1825 13 34.26885632919773 10.864528119906357 1.4378424574818007 0 0 0
1663 15 40.07578815045821 7.135755667821968 1.9026778358318017 0 0 0
1659 2 37.74886272636384 7.091171797277173 1.569719963161225 0 0 0
1665 10 40.0841493037388 7.051773595532287 1.8996834684370878 0 0 0
1662 4 35.089335294262064 9.729389657444447 -0.4538428789326611 0 0 0
1660 14 36.77370687685615 9.778543724652422 1.1667419040650977 0 0 0
1668 12 37.86089320551644 9.350174434938037 0.9334551795338704 0 0 0
1658 1 36.30559771875719 5.96464722685592 1.5367359452198068 0 0 0
1661 3 35.185909376879145 9.173746930306805 2.784617788100877 0 0 0
1667 11 37.239204932215316 10.192395789106016 0.4198383504064639 0 0 0
1666 16 40.5001031297294 9.698835907591176 1.2679033701660043 0 0 0
1664 9 40.75831383901646 7.568437116642562 1.8631952308968782 0 0 0
1671 2 44.76212298946057 7.0911717972768615 1.5697199631612984 0 0 0
1674 4 42.10259555735791 9.729389657444495 -0.45384287893288766 0 0 0
1672 14 43.786967139952395 9.778543724652293 1.1667419040651654 0 0 0
1680 12 44.8741534686122 9.350174434937966 0.9334551795336556 0 0 0
1670 1 43.31885798185296 5.964647226856287 1.5367359452197993 0 0 0
1673 3 42.1991696399748 9.17374693030642 2.78461778810094 0 0 0
1679 11 44.25246519531154 10.1923957891061 0.4198383504064835 0 0 0
1837 13 41.2821165922937 10.864528119906431 1.4378424574817492 0 0 0
1675 15 47.089048413553655 7.135755667821931 1.902677835831771 0 0 0
1677 10 47.097409566834074 7.051773595532101 1.899683468437053 0 0 0
1515 2 51.77538325255544 7.091171797276966 1.569719963161096 -1 0 0
1678 16 47.51336339282555 9.698835907591064 1.2679033701661238 0 0 0
1518 4 49.115855820454236 9.729389657444438 -0.4538428789327071 -1 0 0
1516 14 50.8002274030483 9.778543724652407 1.1667419040648501 -1 0 0
1676 9 47.77157410211258 7.568437116642471 1.8631952308968145 0 0 0
1514 1 50.33211824494922 5.964647226856215 1.536735945219669 -1 0 0
1517 3 49.21242990307095 9.1737469303066 2.7846177881010763 -1 0 0
1524 12 51.887413731708534 9.350174434937768 0.9334551795337903 -1 0 0
1523 11 51.265725458407395 10.192395789105845 0.41983835040628714 -1 0 0
1681 13 48.29537685538975 10.864528119906566 1.4378424574816457 -1 0 0
1519 15 54.102308676650274 7.135755667821869 1.9026778358317467 -1 0 0
1521 10 54.11066982993084 7.051773595532122 1.8996834684370725 -1 0 0
1522 16 54.52662365592135 9.69883590759135 1.267903370166044 -1 0 0
1530 4 56.129116083549796 9.729389657444637 -0.4538428789327379 -1 0 0
1520 9 54.78483436520829 7.568437116642567 1.8631952308967374 -1 0 0
1529 3 56.22569016616715 9.173746930306738 2.7846177881006433 -1 0 0
1526 1 57.34537850804496 5.964647226856076 1.5367359452198608 -1 0 0
1693 13 55.30863711848582 10.864528119906383 1.4378424574818574 -1 0 0
1531 15 61.1155689397464 7.1357556678220115 1.9026778358318133 -1 0 0
1527 2 58.78864351565148 7.091171797277038 1.5697199631610603 -1 0 0
1533 10 61.12393009302695 7.051773595532211 1.8996834684371144 -1 0 0
1528 14 57.81348766614401 9.778543724652298 1.1667419040653237 -1 0 0
1536 12 58.90067399480466 9.350174434937863 0.9334551795336767 -1 0 0
1534 16 61.5398839190173 9.698835907591073 1.2679033701659508 -1 0 0
1542 4 63.142376346645996 9.729389657444472 -0.45384287893311287 -1 0 0
1532 9 61.798094628304355 7.568437116642674 1.8631952308971382 -1 0 0
1535 11 58.278985721503346 10.192395789106062 0.41983835040643797 -1 0 0
1541 3 63.238950429262864 9.173746930306248 2.7846177881008973 -1 0 0
1705 13 62.32189738158173 10.864528119906467 1.4378424574817825 -1 0 0
1543 15 68.1288292028415 7.135755667821748 1.9026778358317251 -1 0 0
1539 2 65.80190377874865 7.091171797276945 1.5697199631611907 -1 0 0
1545 10 68.13719035612195 7.051773595532072 1.899683468436968 -1 0 0
1540 14 64.82674792924038 9.778543724652435 1.166741904065126 -1 0 0
1548 12 65.91393425790034 9.350174434938051 0.9334551795337034 -1 0 0
1546 16 68.55314418211356 9.698835907591315 1.2679033701662503 -1 0 0
1538 1 64.35863877114097 5.964647226856228 1.5367359452198313 -1 0 0
1544 9 68.8113548914005 7.568437116642308 1.8631952308964588 -1 0 0
1547 11 65.29224598459945 10.192395789106282 0.419838350406337 -1 0 0
1551 2 72.81516404184315 7.091171797277104 1.569719963161035 -1 0 0
1554 4 70.1556366097421 9.729389657444651 -0.45384287893252456 -1 0 0
1552 14 71.8400081923361 9.778543724652431 1.16674190406502 -1 0 0
1560 12 72.92719452099638 9.350174434938026 0.9334551795336573 -1 0 0
1550 1 71.37189903423696 5.964647226855603 1.5367359452197105 -1 0 0
1553 3 70.25221069235893 9.173746930306633 2.784617788100893 -1 0 0
1559 11 72.30550624769522 10.192395789106083 0.41983835040642326 -1 0 0
1717 13 69.33515764467768 10.864528119906481 1.4378424574819408 -1 0 0
1555 15 75.14208946593864 7.135755667822132 1.9026778358318033 -1 0 0
1557 10 75.1504506192192 7.0517735955323 1.8996834684371038 -1 0 0
1563 2 79.82842430494105 7.0911717972769335 1.569719963161222 -1 0 0
1558 16 75.56640444520924 9.69883590759093 1.267903370165841 -1 0 0
1566 4 77.16889687283822 9.729389657444615 -0.45384287893344355 -1 0 0
1564 14 78.85326845543284 9.778543724652607 1.1667419040649771 -1 0 0
1572 12 79.9404547840924 9.350174434938092 0.9334551795337205 -1 0 0
1556 9 75.82461515449654 7.568437116642821 1.8631952308975284 -1 0 0
1562 1 78.38515929733306 5.96464722685658 1.536735945219971 -1 0 0
1565 3 77.26547095545469 9.173746930305718 2.7846177881011727 -1 0 0
1571 11 79.31876651079163 10.19239578910656 0.419838350406339 -1 0 0
1729 13 76.34841790777367 10.864528119906618 1.437842457481752 -1 0 0
1567 15 82.15534972903333 7.135755667821885 1.9026778358316758 -1 0 0
1569 10 82.16371088231372 7.0517735955320395 1.8996834684369417 -1 0 0
1570 16 82.5796647083055 9.698835907591176 1.2679033701662974 -1 0 0
1578 4 84.18215713593432 9.729389657444328 -0.4538428789327399 -1 0 0
1576 14 85.86652871852819 9.778543724652579 1.166741904064899 -1 0 0
1568 9 82.83787541759261 7.5684371166424675 1.863195230896584 -1 0 0
1574 1 85.39841956042908 5.964647226855866 1.5367359452196978 -1 0 0
1577 3 84.27873121855077 9.173746930306676 2.784617788101183 -1 0 0
1583 11 86.33202677388715 10.19239578910597 0.41983835040639944 -1 0 0
1741 13 83.36167817086962 10.86452811990674 1.4378424574818556 -1 0 0
1575 2 86.84168456803413 7.091171797277193 1.5697199631609287 -1 0 0
1579 15 89.16860999213134 7.135755667821923 1.9026778358318335 -1 0 0
1581 10 89.176971145412 7.051773595532289 1.8996834684371808 -1 0 0
1584 12 86.95371504718874 9.35017443493773 0.9334551795338453 -1 0 0
1582 16 89.59292497140108 9.69883590759132 1.2679033701659177 -1 0 0
1590 4 91.19541739902989 9.729389657444452 -0.453842878933338 -1 0 0
1580 9 89.85113568068839 7.56843711664286 1.8631952308972402 -1 0 0
1589 3 91.29199148164693 9.173746930306203 2.784617788100502 -1 0 0
1753 13 90.37493843396598 10.864528119906387 1.4378424574820474 -1 0 0
1591 15 96.18187025522747 7.13575566782206 1.9026778358318117 -1 0 0
1587 2 93.85494483112991 7.0911717972774575 1.569719963160839 -1 0 0
1593 10 96.1902314085082 7.051773595532455 1.8996834684371449 -1 0 0
1588 14 92.87978898162422 9.7785437246525 1.1667419040654186 -1 0 0
1596 12 93.96697531028494 9.35017443493794 0.9334551795337331 -1 0 0
1594 16 96.60618523449706 9.698835907591372 1.267903370165698 -1 0 0
1586 1 92.41167982352457 5.9646472268557655 1.5367359452198404 -1 0 0
1592 9 96.8643959437842 7.5684371166430555 1.8631952308971154 -1 0 0
1595 11 93.34528703698322 10.192395789106307 0.4198383504065851 -1 0 0
1765 13 97.38819869706191 10.864528119906392 1.4378424574816857 -1 0 0
1771 15 5.0094868349774515 13.209417219013908 1.9026778358316971 0 0 0
1767 2 2.682561410884855 13.164833348468886 1.5697199631612557 0 0 0
1773 10 5.017847988257826 13.125435146723971 1.899683468436967 0 0 0
1768 14 1.7074055613764338 15.852205275844241 1.1667419040653124 0 0 0
1774 16 5.433801814249504 15.772497458783334 1.2679033701662736 0 0 0
1770 4 0.023033978781688693 15.803051208636298 -0.45384287893312913 0 0 0
1776 12 2.794591890036344 15.423835986129857 0.9334551795336653 0 0 0
1766 1 1.2392964032768703 12.03830877804847 1.536735945219722 0 0 0
1772 9 5.692012523536488 13.642098667834633 1.8631952308965147 0 0 0
1769 3 0.1196080613991182 15.247408481498033 2.7846177881005842 0 0 0
1775 11 2.172903616735512 16.266057340298246 0.4198383504065317 0 0 0
1779 2 9.695821673978786 13.164833348469214 1.5697199631609262 0 0 0
1780 14 8.720665824472166 15.852205275844439 1.166741904064781 0 0 0
1782 4 7.036294241878284 15.803051208636518 -0.45384287893264613 0 0 0
1788 12 9.80785215313239 15.4238359861298 0.9334551795338927 0 0 0
1778 1 8.252556666372968 12.038308778047806 1.5367359452198084 0 0 0
1781 3 7.132868324494927 15.247408481498722 2.7846177881011207 0 0 0
1787 11 9.186163879831234 16.26605734029777 0.41983835040631284 0 0 0
1945 13 6.215815276813784 16.938189671098765 1.437842457481763 0 0 0
1783 15 12.02274709807455 13.209417219013957 1.9026778358317529 0 0 0
1785 10 12.031108251355185 13.12543514672432 1.8996834684370634 0 0 0
1791 2 16.70908193707618 13.164833348469035 1.5697199631611554 0 0 0
1786 16 12.447062077345313 15.772497458783343 1.2679033701659261 0 0 0
1792 14 15.73392608756815 15.852205275844309 1.1667419040653357 0 0 0
1794 4 14.049554504973688 15.803051208636752 -0.45384287893283176 0 0 0
1784 9 12.705272786631992 13.64209866783461 1.8631952308970234 0 0 0
1790 1 15.265816929468683 12.0383087780484 1.5367359452199654 0 0 0
1793 3 14.146128587591297 15.247408481498494 2.7846177881005385 0 0 0
1800 12 16.82111241622838 15.42383598612992 0.9334551795337648 0 0 0
1799 11 16.199424142927448 16.266057340298342 0.41983835040635403 0 0 0
1957 13 13.229075539909879 16.938189671098215 1.4378424574819046 0 0 0
1795 15 19.036007361169755 13.209417219013986 1.9026778358317364 0 0 0
1797 10 19.044368514450255 13.125435146724183 1.8996834684370199 0 0 0
1798 16 19.46032234044152 15.772497458783231 1.2679033701660825 0 0 0
1804 14 22.747186350664276 15.85220527584437 1.1667419040650078 0 0 0
1806 4 21.06281476806998 15.803051208636589 -0.45384287893280406 0 0 0
1796 9 19.718533049728233 13.642098667834533 1.8631952308968593 0 0 0
1802 1 22.27907719256493 12.038308778048238 1.5367359452198202 0 0 0
1805 3 21.159388850687048 15.247408481498512 2.784617788100844 0 0 0
1969 13 20.242335803005783 16.93818967109845 1.4378424574817736 0 0 0
1803 2 23.72234220017264 13.164833348468944 1.5697199631612284 0 0 0
1807 15 26.049267624265255 13.20941721901386 1.902677835831668 0 0 0
1809 10 26.05762877754566 13.12543514672407 1.8996834684369235 0 0 0
1810 16 26.473582603537576 15.772497458783354 1.2679033701662539 0 0 0
1812 12 23.83437267932412 15.42383598612992 0.9334551795337794 0 0 0
1818 4 28.076075031166127 15.803051208636704 -0.4538428789324905 0 0 0
1808 9 26.731793312824212 13.642098667834416 1.863195230896567 0 0 0
1811 11 23.21268440602349 16.26605734029813 0.4198383504062404 0 0 0
1817 3 28.172649113783063 15.24740848149877 2.7846177881008614 0 0 0
1981 13 27.255596066101766 16.938189671098513 1.4378424574818813 0 0 0
1819 15 33.06252788736219 13.20941721901391 1.902677835831724 0 0 0
1815 2 30.735602463267362 13.164833348469044 1.569719963161003 0 0 0
1821 10 33.07088904064274 13.125435146724236 1.8996834684370056 0 0 0
1816 14 29.76044661376006 15.852205275844428 1.1667419040649152 0 0 0
1822 16 33.48684286663332 15.772497458783329 1.2679033701660953 0 0 0
1824 12 30.847632942420518 15.423835986129909 0.933455179533827 0 0 0
1814 1 29.292337455660885 12.0383087780481 1.5367359452198495 0 0 0
1820 9 33.74505357592018 13.642098667834592 1.8631952308969133 0 0 0
1823 11 30.22594466911925 16.266057340298023 0.41983835040626216 0 0 0
1993 13 34.268856329197774 16.93818967109834 1.4378424574819464 0 0 0
1831 15 40.07578815045833 13.209417219014002 1.9026778358318068 0 0 0
1827 2 37.748862726363406 13.164833348469129 1.5697199631611103 0 0 0
1833 10 40.08414930373891 13.125435146724307 1.899683468437098 0 0 0
1828 14 36.77370687685611 15.852205275844277 1.166741904065161 0 0 0
1830 4 35.089335294261915 15.803051208636553 -0.45384287893274955 0 0 0
1836 12 37.860893205516454 15.423835986129804 0.9334551795338248 0 0 0
1826 1 36.30559771875675 12.038308778047915 1.536735945219769 0 0 0
1829 3 35.18590937687903 15.247408481498365 2.7846177881007845 0 0 0
1835 11 37.239204932215294 16.266057340297998 0.41983835040647677 0 0 0
1834 16 40.50010312972935 15.772497458783212 1.2679033701659468 0 0 0
1832 9 40.75831383901622 13.642098667834777 1.8631952308969464 0 0 0
1839 2 44.762122989460586 13.164833348468996 1.5697199631611678 0 0 0
1840 14 43.786967139952274 15.852205275844241 1.166741904065219 0 0 0
1842 4 42.10259555735781 15.803051208636413 -0.4538428789328984 0 0 0
1848 12 44.87415346861218 15.423835986129804 0.9334551795337844 0 0 0
1838 1 43.31885798185272 12.038308778048286 1.5367359452199043 0 0 0
1841 3 42.199169639974976 15.247408481498647 2.7846177881007654 0 0 0
1847 11 44.252465195311466 16.266057340297884 0.4198383504065241 0 0 0
2005 13 41.28211659229389 16.938189671098385 1.4378424574816597 0 0 0
1843 15 47.089048413553556 13.209417219013904 1.9026778358317487 0 0 0
1845 10 47.097409566833996 13.125435146724138 1.8996834684370012 0 0 0
1683 2 51.7753832525561 13.164833348469049 1.569719963161173 -1 0 0
1846 16 47.51336339282556 15.772497458783253 1.2679033701662104 0 0 0
1684 14 50.80022740304826 15.852205275844385 1.1667419040649545 -1 0 0
1686 4 49.11585582045421 15.80305120863648 -0.45384287893272157 -1 0 0
1844 9 47.771574102112325 13.642098667834519 1.8631952308967903 0 0 0
1682 1 50.332118244948894 12.038308778048076 1.5367359452195999 -1 0 0
1685 3 49.21242990307095 15.2474084814986 2.7846177881009715 -1 0 0
1692 12 51.88741373170848 15.423835986129964 0.9334551795337621 -1 0 0
1691 11 51.265725458407374 16.266057340297888 0.4198383504063611 -1 0 0
1849 13 48.29537685538983 16.93818967109854 1.4378424574818156 -1 0 0
1687 15 54.10230867664991 13.209417219013936 1.902677835831734 -1 0 0
1689 10 54.11066982993037 13.125435146724154 1.8996834684369952 -1 0 0
1690 16 54.526623655921476 15.77249745878329 1.2679033701661877 -1 0 0
1698 4 56.12911608355012 15.803051208636465 -0.453842878932749 -1 0 0
1688 9 54.78483436520845 13.642098667834677 1.8631952308967896 -1 0 0
1697 3 56.225690166166764 15.24740848149845 2.784617788101015 -1 0 0
1694 1 57.34537850804494 12.038308778047993 1.5367359452198688 -1 0 0
1861 13 55.30863711848578 16.93818967109853 1.4378424574817854 -1 0 0
1699 15 61.1155689397458 13.209417219014004 1.902677835831782 -1 0 0
1695 2 58.78864351565212 13.164833348469143 1.5697199631612069 -1 0 0
1701 10 61.123930093026225 13.125435146724227 1.8996834684370112 -1 0 0
1696 14 57.813487666144376 15.852205275844312 1.166741904064923 -1 0 0