 # Al16 O16
  
        5440  atoms
           2  atom types
 
      0.000000000000     101.189100000000  xlo xhi
      0.000000000000     103.097000000000  ylo yhi
      0.000000000000      18.958700000000  zlo zhi
 
Masses
 
            1   26.98153860             # Al
            2   15.99900000             # O
 
Atoms # atomic
 
         1    1        1.488075000000       0.859138230100       8.168109431900
         2    1        4.464225000000       6.013988230100       8.168109431900
         3    1        1.488075000000       0.859138230100      10.790590568100
         4    1        4.464225000000       6.013988230100      10.790590568100
         5    2        4.464225000000       4.295711769900       7.500004843900
         6    2        2.976150000000       1.718286769900       7.500004843900
         7    1        0.000000000000       3.436563230100       8.168109431900
         8    2        1.488075000000       9.450561769900       7.500004843900
         9    1        4.464225000000       0.859138230100       8.168109431900
        10    2        0.000000000000       6.873136769900       7.500004843900
        11    1        1.488075000000       6.013988230100       8.168109431900
        12    2        0.000000000000       1.718286769900       7.500004843900
        13    1        2.976150000000       8.591413230100       8.168109431900
        14    2        2.976150000000       6.873136769900       7.500004843900
        15    2        4.464225000000       4.295711769900      11.458695156100
        16    2        1.488075000000       9.450561769900      11.458695156100
        17    1        4.464225000000       0.859138230100      10.790590568100
        18    1        1.488075000000       6.013988230100      10.790590568100
        19    1        0.000000000000       3.436563230100      10.790590568100
        20    2        2.976150000000       1.718286769900      11.458695156100
        21    2        0.000000000000       1.718286769900      11.458695156100
        22    2        0.000000000000       6.873136769900      11.458695156100
        23    1        2.976150000000       8.591413230100      10.790590568100
        24    2        2.976150000000       6.873136769900      11.458695156100
        25    2        1.488075000000       4.295711769900       7.500004843900
        26    2        4.464225000000       9.450561769900       7.500004843900
        27    2        1.488075000000       4.295711769900      11.458695156100
        28    2        4.464225000000       9.450561769900      11.458695156100
        29    1        2.976150000000       3.436563230100       8.168109431900
        30    1        0.000000000000       8.591413230100       8.168109431900
        31    1        2.976150000000       3.436563230100      10.790590568100
        32    1        0.000000000000       8.591413230100      10.790590568100
        33    1        7.440375000000       0.859138230100       8.168109431900
        34    1       10.416525000000       6.013988230100       8.168109431900
        35    1        7.440375000000       0.859138230100      10.790590568100
        36    1       10.416525000000       6.013988230100      10.790590568100
        37    2       10.416525000000       4.295711769900       7.500004843900
        38    2        8.928450000000       1.718286769900       7.500004843900
        39    1        5.952300000000       3.436563230100       8.168109431900
        40    2        7.440375000000       9.450561769900       7.500004843900
        41    1       10.416525000000       0.859138230100       8.168109431900
        42    2        5.952300000000       6.873136769900       7.500004843900
        43    1        7.440375000000       6.013988230100       8.168109431900
        44    2        5.952300000000       1.718286769900       7.500004843900
        45    1        8.928450000000       8.591413230100       8.168109431900
        46    2        8.928450000000       6.873136769900       7.500004843900
        47    2       10.416525000000       4.295711769900      11.458695156100
        48    2        7.440375000000       9.450561769900      11.458695156100
        49    1       10.416525000000       0.859138230100      10.790590568100
        50    1        7.440375000000       6.013988230100      10.790590568100
        51    1        5.952300000000       3.436563230100      10.790590568100
        52    2        8.928450000000       1.718286769900      11.458695156100
        53    2        5.952300000000       1.718286769900      11.458695156100
        54    2        5.952300000000       6.873136769900      11.458695156100
        55    1        8.928450000000       8.591413230100      10.790590568100
        56    2        8.928450000000       6.873136769900      11.458695156100
        57    2        7.440375000000       4.295711769900       7.500004843900
        58    2       10.416525000000       9.450561769900       7.500004843900
        59    2        7.440375000000       4.295711769900      11.458695156100
        60    2       10.416525000000       9.450561769900      11.458695156100
        61    1        8.928450000000       3.436563230100       8.168109431900
        62    1        5.952300000000       8.591413230100       8.168109431900
        63    1        8.928450000000       3.436563230100      10.790590568100
        64    1        5.952300000000       8.591413230100      10.790590568100
        65    1       13.392675000000       0.859138230100       8.168109431900
        66    1       16.368825000000       6.013988230100       8.168109431900
        67    1       13.392675000000       0.859138230100      10.790590568100
        68    1       16.368825000000       6.013988230100      10.790590568100
        69    2       16.368825000000       4.295711769900       7.500004843900
        70    2       14.880750000000       1.718286769900       7.500004843900
        71    1       11.904600000000       3.436563230100       8.168109431900
        72    2       13.392675000000       9.450561769900       7.500004843900
        73    1       16.368825000000       0.859138230100       8.168109431900
        74    2       11.904600000000       6.873136769900       7.500004843900
        75    1       13.392675000000       6.013988230100       8.168109431900
        76    2       11.904600000000       1.718286769900       7.500004843900
        77    1       14.880750000000       8.591413230100       8.168109431900
        78    2       14.880750000000       6.873136769900       7.500004843900
        79    2       16.368825000000       4.295711769900      11.458695156100
        80    2       13.392675000000       9.450561769900      11.458695156100
        81    1       16.368825000000       0.859138230100      10.790590568100
        82    1       13.392675000000       6.013988230100      10.790590568100
        83    1       11.904600000000       3.436563230100      10.790590568100
        84    2       14.880750000000       1.718286769900      11.458695156100
        85    2       11.904600000000       1.718286769900      11.458695156100
        86    2       11.904600000000       6.873136769900      11.458695156100
        87    1       14.880750000000       8.591413230100      10.790590568100
        88    2       14.880750000000       6.873136769900      11.458695156100
        89    2       13.392675000000       4.295711769900       7.500004843900
        90    2       16.368825000000       9.450561769900       7.500004843900
        91    2       13.392675000000       4.295711769900      11.458695156100
        92    2       16.368825000000       9.450561769900      11.458695156100
        93    1       14.880750000000       3.436563230100       8.168109431900
        94    1       11.904600000000       8.591413230100       8.168109431900
        95    1       14.880750000000       3.436563230100      10.790590568100
        96    1       11.904600000000       8.591413230100      10.790590568100
        97    1       19.344975000000       0.859138230100       8.168109431900
        98    1       22.321125000000       6.013988230100       8.168109431900
        99    1       19.344975000000       0.859138230100      10.790590568100
       100    1       22.321125000000       6.013988230100      10.790590568100
       101    2       22.321125000000       4.295711769900       7.500004843900
       102    2       20.833050000000       1.718286769900       7.500004843900
       103    1       17.856900000000       3.436563230100       8.168109431900
       104    2       19.344975000000       9.450561769900       7.500004843900
       105    1       22.321125000000       0.859138230100       8.168109431900
       106    2       17.856900000000       6.873136769900       7.500004843900
       107    1       19.344975000000       6.013988230100       8.168109431900
       108    2       17.856900000000       1.718286769900       7.500004843900
       109    1       20.833050000000       8.591413230100       8.168109431900
       110    2       20.833050000000       6.873136769900       7.500004843900
       111    2       22.321125000000       4.295711769900      11.458695156100
       112    2       19.344975000000       9.450561769900      11.458695156100
       113    1       22.321125000000       0.859138230100      10.790590568100
       114    1       19.344975000000       6.013988230100      10.790590568100
       115    1       17.856900000000       3.436563230100      10.790590568100
       116    2       20.833050000000       1.718286769900      11.458695156100
       117    2       17.856900000000       1.718286769900      11.458695156100
       118    2       17.856900000000       6.873136769900      11.458695156100
       119    1       20.833050000000       8.591413230100      10.790590568100
       120    2       20.833050000000       6.873136769900      11.458695156100
       121    2       19.344975000000       4.295711769900       7.500004843900
       122    2       22.321125000000       9.450561769900       7.500004843900
       123    2       19.344975000000       4.295711769900      11.458695156100
       124    2       22.321125000000       9.450561769900      11.458695156100
       125    1       20.833050000000       3.436563230100       8.168109431900
       126    1       17.856900000000       8.591413230100       8.168109431900
       127    1       20.833050000000       3.436563230100      10.790590568100
       128    1       17.856900000000       8.591413230100      10.790590568100
       129    1       25.297275000000       0.859138230100       8.168109431900
       130    1       28.273425000000       6.013988230100       8.168109431900
       131    1       25.297275000000       0.859138230100      10.790590568100
       132    1       28.273425000000       6.013988230100      10.790590568100
       133    2       28.273425000000       4.295711769900       7.500004843900
       134    2       26.785350000000       1.718286769900       7.500004843900
       135    1       23.809200000000       3.436563230100       8.168109431900
       136    2       25.297275000000       9.450561769900       7.500004843900
       137    1       28.273425000000       0.859138230100       8.168109431900
       138    2       23.809200000000       6.873136769900       7.500004843900
       139    1       25.297275000000       6.013988230100       8.168109431900
       140    2       23.809200000000       1.718286769900       7.500004843900
       141    1       26.785350000000       8.591413230100       8.168109431900
       142    2       26.785350000000       6.873136769900       7.500004843900
       143    2       28.273425000000       4.295711769900      11.458695156100
       144    2       25.297275000000       9.450561769900      11.458695156100
       145    1       28.273425000000       0.859138230100      10.790590568100
       146    1       25.297275000000       6.013988230100      10.790590568100
       147    1       23.809200000000       3.436563230100      10.790590568100
       148    2       26.785350000000       1.718286769900      11.458695156100
       149    2       23.809200000000       1.718286769900      11.458695156100
       150    2       23.809200000000       6.873136769900      11.458695156100
       151    1       26.785350000000       8.591413230100      10.790590568100
       152    2       26.785350000000       6.873136769900      11.458695156100
       153    2       25.297275000000       4.295711769900       7.500004843900
       154    2       28.273425000000       9.450561769900       7.500004843900
       155    2       25.297275000000       4.295711769900      11.458695156100
       156    2       28.273425000000       9.450561769900      11.458695156100
       157    1       26.785350000000       3.436563230100       8.168109431900
       158    1       23.809200000000       8.591413230100       8.168109431900
       159    1       26.785350000000       3.436563230100      10.790590568100
       160    1       23.809200000000       8.591413230100      10.790590568100
       161    1       31.249575000000       0.859138230100       8.168109431900
       162    1       34.225725000000       6.013988230100       8.168109431900
       163    1       31.249575000000       0.859138230100      10.790590568100
       164    1       34.225725000000       6.013988230100      10.790590568100
       165    2       34.225725000000       4.295711769900       7.500004843900
       166    2       32.737650000000       1.718286769900       7.500004843900
       167    1       29.761500000000       3.436563230100       8.168109431900
       168    2       31.249575000000       9.450561769900       7.500004843900
       169    1       34.225725000000       0.859138230100       8.168109431900
       170    2       29.761500000000       6.873136769900       7.500004843900
       171    1       31.249575000000       6.013988230100       8.168109431900
       172    2       29.761500000000       1.718286769900       7.500004843900
       173    1       32.737650000000       8.591413230100       8.168109431900
       174    2       32.737650000000       6.873136769900       7.500004843900
       175    2       34.225725000000       4.295711769900      11.458695156100
       176    2       31.249575000000       9.450561769900      11.458695156100
       177    1       34.225725000000       0.859138230100      10.790590568100
       178    1       31.249575000000       6.013988230100      10.790590568100
       179    1       29.761500000000       3.436563230100      10.790590568100
       180    2       32.737650000000       1.718286769900      11.458695156100
       181    2       29.761500000000       1.718286769900      11.458695156100
       182    2       29.761500000000       6.873136769900      11.458695156100
       183    1       32.737650000000       8.591413230100      10.790590568100
       184    2       32.737650000000       6.873136769900      11.458695156100
       185    2       31.249575000000       4.295711769900       7.500004843900
       186    2       34.225725000000       9.450561769900       7.500004843900
       187    2       31.249575000000       4.295711769900      11.458695156100
       188    2       34.225725000000       9.450561769900      11.458695156100
       189    1       32.737650000000       3.436563230100       8.168109431900
       190    1       29.761500000000       8.591413230100       8.168109431900
       191    1       32.737650000000       3.436563230100      10.790590568100
       192    1       29.761500000000       8.591413230100      10.790590568100
       193    1       37.201875000000       0.859138230100       8.168109431900
       194    1       40.178025000000       6.013988230100       8.168109431900
       195    1       37.201875000000       0.859138230100      10.790590568100
       196    1       40.178025000000       6.013988230100      10.790590568100
       197    2       40.178025000000       4.295711769900       7.500004843900
       198    2       38.689950000000       1.718286769900       7.500004843900
       199    1       35.713800000000       3.436563230100       8.168109431900
       200    2       37.201875000000       9.450561769900       7.500004843900
       201    1       40.178025000000       0.859138230100       8.168109431900
       202    2       35.713800000000       6.873136769900       7.500004843900
       203    1       37.201875000000       6.013988230100       8.168109431900
       204    2       35.713800000000       1.718286769900       7.500004843900
       205    1       38.689950000000       8.591413230100       8.168109431900
       206    2       38.689950000000       6.873136769900       7.500004843900
       207    2       40.178025000000       4.295711769900      11.458695156100
       208    2       37.201875000000       9.450561769900      11.458695156100
       209    1       40.178025000000       0.859138230100      10.790590568100
       210    1       37.201875000000       6.013988230100      10.790590568100
       211    1       35.713800000000       3.436563230100      10.790590568100
       212    2       38.689950000000       1.718286769900      11.458695156100
       213    2       35.713800000000       1.718286769900      11.458695156100
       214    2       35.713800000000       6.873136769900      11.458695156100
       215    1       38.689950000000       8.591413230100      10.790590568100
       216    2       38.689950000000       6.873136769900      11.458695156100
       217    2       37.201875000000       4.295711769900       7.500004843900
       218    2       40.178025000000       9.450561769900       7.500004843900
       219    2       37.201875000000       4.295711769900      11.458695156100
       220    2       40.178025000000       9.450561769900      11.458695156100
       221    1       38.689950000000       3.436563230100       8.168109431900
       222    1       35.713800000000       8.591413230100       8.168109431900
       223    1       38.689950000000       3.436563230100      10.790590568100
       224    1       35.713800000000       8.591413230100      10.790590568100
       225    1       43.154175000000       0.859138230100       8.168109431900
       226    1       46.130325000000       6.013988230100       8.168109431900
       227    1       43.154175000000       0.859138230100      10.790590568100
       228    1       46.130325000000       6.013988230100      10.790590568100
       229    2       46.130325000000       4.295711769900       7.500004843900
       230    2       44.642250000000       1.718286769900       7.500004843900
       231    1       41.666100000000       3.436563230100       8.168109431900
       232    2       43.154175000000       9.450561769900       7.500004843900
       233    1       46.130325000000       0.859138230100       8.168109431900
       234    2       41.666100000000       6.873136769900       7.500004843900
       235    1       43.154175000000       6.013988230100       8.168109431900
       236    2       41.666100000000       1.718286769900       7.500004843900
       237    1       44.642250000000       8.591413230100       8.168109431900
       238    2       44.642250000000       6.873136769900       7.500004843900
       239    2       46.130325000000       4.295711769900      11.458695156100
       240    2       43.154175000000       9.450561769900      11.458695156100
       241    1       46.130325000000       0.859138230100      10.790590568100
       242    1       43.154175000000       6.013988230100      10.790590568100
       243    1       41.666100000000       3.436563230100      10.790590568100
       244    2       44.642250000000       1.718286769900      11.458695156100
       245    2       41.666100000000       1.718286769900      11.458695156100
       246    2       41.666100000000       6.873136769900      11.458695156100
       247    1       44.642250000000       8.591413230100      10.790590568100
       248    2       44.642250000000       6.873136769900      11.458695156100
       249    2       43.154175000000       4.295711769900       7.500004843900
       250    2       46.130325000000       9.450561769900       7.500004843900
       251    2       43.154175000000       4.295711769900      11.458695156100
       252    2       46.130325000000       9.450561769900      11.458695156100
       253    1       44.642250000000       3.436563230100       8.168109431900
       254    1       41.666100000000       8.591413230100       8.168109431900
       255    1       44.642250000000       3.436563230100      10.790590568100
       256    1       41.666100000000       8.591413230100      10.790590568100
       257    1       49.106475000000       0.859138230100       8.168109431900
       258    1       52.082625000000       6.013988230100       8.168109431900
       259    1       49.106475000000       0.859138230100      10.790590568100
       260    1       52.082625000000       6.013988230100      10.790590568100
       261    2       52.082625000000       4.295711769900       7.500004843900
       262    2       50.594550000000       1.718286769900       7.500004843900
       263    1       47.618400000000       3.436563230100       8.168109431900
       264    2       49.106475000000       9.450561769900       7.500004843900
       265    1       52.082625000000       0.859138230100       8.168109431900
       266    2       47.618400000000       6.873136769900       7.500004843900
       267    1       49.106475000000       6.013988230100       8.168109431900
       268    2       47.618400000000       1.718286769900       7.500004843900
       269    1       50.594550000000       8.591413230100       8.168109431900
       270    2       50.594550000000       6.873136769900       7.500004843900
       271    2       52.082625000000       4.295711769900      11.458695156100
       272    2       49.106475000000       9.450561769900      11.458695156100
       273    1       52.082625000000       0.859138230100      10.790590568100
       274    1       49.106475000000       6.013988230100      10.790590568100
       275    1       47.618400000000       3.436563230100      10.790590568100
       276    2       50.594550000000       1.718286769900      11.458695156100
       277    2       47.618400000000       1.718286769900      11.458695156100
       278    2       47.618400000000       6.873136769900      11.458695156100
       279    1       50.594550000000       8.591413230100      10.790590568100
       280    2       50.594550000000       6.873136769900      11.458695156100
       281    2       49.106475000000       4.295711769900       7.500004843900
       282    2       52.082625000000       9.450561769900       7.500004843900
       283    2       49.106475000000       4.295711769900      11.458695156100
       284    2       52.082625000000       9.450561769900      11.458695156100
       285    1       50.594550000000       3.436563230100       8.168109431900
       286    1       47.618400000000       8.591413230100       8.168109431900
       287    1       50.594550000000       3.436563230100      10.790590568100
       288    1       47.618400000000       8.591413230100      10.790590568100
       289    1       55.058775000000       0.859138230100       8.168109431900
       290    1       58.034925000000       6.013988230100       8.168109431900
       291    1       55.058775000000       0.859138230100      10.790590568100
       292    1       58.034925000000       6.013988230100      10.790590568100
       293    2       58.034925000000       4.295711769900       7.500004843900
       294    2       56.546850000000       1.718286769900       7.500004843900
       295    1       53.570700000000       3.436563230100       8.168109431900
       296    2       55.058775000000       9.450561769900       7.500004843900
       297    1       58.034925000000       0.859138230100       8.168109431900
       298    2       53.570700000000       6.873136769900       7.500004843900
       299    1       55.058775000000       6.013988230100       8.168109431900
       300    2       53.570700000000       1.718286769900       7.500004843900
       301    1       56.546850000000       8.591413230100       8.168109431900
       302    2       56.546850000000       6.873136769900       7.500004843900
       303    2       58.034925000000       4.295711769900      11.458695156100
       304    2       55.058775000000       9.450561769900      11.458695156100
       305    1       58.034925000000       0.859138230100      10.790590568100
       306    1       55.058775000000       6.013988230100      10.790590568100
       307    1       53.570700000000       3.436563230100      10.790590568100
       308    2       56.546850000000       1.718286769900      11.458695156100
       309    2       53.570700000000       1.718286769900      11.458695156100
       310    2       53.570700000000       6.873136769900      11.458695156100
       311    1       56.546850000000       8.591413230100      10.790590568100
       312    2       56.546850000000       6.873136769900      11.458695156100
       313    2       55.058775000000       4.295711769900       7.500004843900
       314    2       58.034925000000       9.450561769900       7.500004843900
       315    2       55.058775000000       4.295711769900      11.458695156100
       316    2       58.034925000000       9.450561769900      11.458695156100
       317    1       56.546850000000       3.436563230100       8.168109431900
       318    1       53.570700000000       8.591413230100       8.168109431900
       319    1       56.546850000000       3.436563230100      10.790590568100
       320    1       53.570700000000       8.591413230100      10.790590568100
       321    1       61.011075000000       0.859138230100       8.168109431900
       322    1       63.987225000000       6.013988230100       8.168109431900
       323    1       61.011075000000       0.859138230100      10.790590568100
       324    1       63.987225000000       6.013988230100      10.790590568100
       325    2       63.987225000000       4.295711769900       7.500004843900
       326    2       62.499150000000       1.718286769900       7.500004843900
       327    1       59.523000000000       3.436563230100       8.168109431900
       328    2       61.011075000000       9.450561769900       7.500004843900
       329    1       63.987225000000       0.859138230100       8.168109431900
       330    2       59.523000000000       6.873136769900       7.500004843900
       331    1       61.011075000000       6.013988230100       8.168109431900
       332    2       59.523000000000       1.718286769900       7.500004843900
       333    1       62.499150000000       8.591413230100       8.168109431900
       334    2       62.499150000000       6.873136769900       7.500004843900
       335    2       63.987225000000       4.295711769900      11.458695156100
       336    2       61.011075000000       9.450561769900      11.458695156100
       337    1       63.987225000000       0.859138230100      10.790590568100
       338    1       61.011075000000       6.013988230100      10.790590568100
       339    1       59.523000000000       3.436563230100      10.790590568100
       340    2       62.499150000000       1.718286769900      11.458695156100
       341    2       59.523000000000       1.718286769900      11.458695156100
       342    2       59.523000000000       6.873136769900      11.458695156100
       343    1       62.499150000000       8.591413230100      10.790590568100
       344    2       62.499150000000       6.873136769900      11.458695156100
       345    2       61.011075000000       4.295711769900       7.500004843900
       346    2       63.987225000000       9.450561769900       7.500004843900
       347    2       61.011075000000       4.295711769900      11.458695156100
       348    2       63.987225000000       9.450561769900      11.458695156100
       349    1       62.499150000000       3.436563230100       8.168109431900
       350    1       59.523000000000       8.591413230100       8.168109431900
       351    1       62.499150000000       3.436563230100      10.790590568100
       352    1       59.523000000000       8.591413230100      10.790590568100
       353    1       66.963375000000       0.859138230100       8.168109431900
       354    1       69.939525000000       6.013988230100       8.168109431900
       355    1       66.963375000000       0.859138230100      10.790590568100
       356    1       69.939525000000       6.013988230100      10.790590568100
       357    2       69.939525000000       4.295711769900       7.500004843900
       358    2       68.451450000000       1.718286769900       7.500004843900
       359    1       65.475300000000       3.436563230100       8.168109431900
       360    2       66.963375000000       9.450561769900       7.500004843900
       361    1       69.939525000000       0.859138230100       8.168109431900
       362    2       65.475300000000       6.873136769900       7.500004843900
       363    1       66.963375000000       6.013988230100       8.168109431900
       364    2       65.475300000000       1.718286769900       7.500004843900
       365    1       68.451450000000       8.591413230100       8.168109431900
       366    2       68.451450000000       6.873136769900       7.500004843900
       367    2       69.939525000000       4.295711769900      11.458695156100
       368    2       66.963375000000       9.450561769900      11.458695156100
       369    1       69.939525000000       0.859138230100      10.790590568100
       370    1       66.963375000000       6.013988230100      10.790590568100