 # Al16 S16
  
        3584  atoms
           2  atom types
 
      0.000000000000     100.352000000000  xlo xhi
      0.000000000000      99.323200000000  ylo yhi
      0.000000000000      19.736500000000  zlo zhi
 
Masses
 
            1   26.98153860             # Al
            2   32.06000000             # S
 
Atoms # atomic
 
         1    1        1.792000000000       1.034612528200       8.569173833500
         2    1        5.376000000000       7.242312528200       8.569173833500
         3    2        1.792000000000       5.173087471800      12.236511581000
         4    2        5.376000000000      11.380787471800      12.236511581000
         5    2        3.584000000000       2.069237471800      12.236511581000
         6    1        1.792000000000       1.034612528200      11.167326166500
         7    2        0.000000000000       8.276937471800      12.236511581000
         8    1        3.584000000000       4.138462528200       8.569173833500
         9    2        1.792000000000       5.173087471800       7.499988419000
        10    1        3.584000000000       4.138462528200      11.167326166500
        11    2        0.000000000000       2.069237471800       7.499988419000
        12    1        5.376000000000       7.242312528200      11.167326166500
        13    2        0.000000000000       2.069237471800      12.236511581000
        14    1        0.000000000000      10.346162528200       8.569173833500
        15    1        0.000000000000      10.346162528200      11.167326166500
        16    2        5.376000000000      11.380787471800       7.499988419000
        17    2        3.584000000000       8.276937471800       7.499988419000
        18    2        3.584000000000       8.276937471800      12.236511581000
        19    1        5.376000000000       1.034612528200      11.167326166500
        20    1        1.792000000000       7.242312528200      11.167326166500
        21    1        0.000000000000       4.138462528200       8.569173833500
        22    1        7.168000000000       4.138462528200      11.167326166500
        23    2        3.584000000000       2.069237471800       7.499988419000
        24    2        5.376000000000       5.173087471800      12.236511581000
        25    2        0.000000000000       8.276937471800       7.499988419000
        26    1        3.584000000000      10.346162528200      11.167326166500
        27    1        3.584000000000      10.346162528200       8.569173833500
        28    2        5.376000000000       5.173087471800       7.499988419000
        29    2        1.792000000000      11.380787471800      12.236511581000
        30    2        1.792000000000      11.380787471800       7.499988419000
        31    1        5.376000000000       1.034612528200       8.569173833500
        32    1        1.792000000000       7.242312528200       8.569173833500
        33    1        8.960000000000       1.034612528200       8.569173833500
        34    1       12.544000000000       7.242312528200       8.569173833500
        35    2        8.960000000000       5.173087471800      12.236511581000
        36    2       12.544000000000      11.380787471800      12.236511581000
        37    2       10.752000000000       2.069237471800      12.236511581000
        38    1        8.960000000000       1.034612528200      11.167326166500
        39    2        7.168000000000       8.276937471800      12.236511581000
        40    1       10.752000000000       4.138462528200       8.569173833500
        41    2        8.960000000000       5.173087471800       7.499988419000
        42    1       10.752000000000       4.138462528200      11.167326166500
        43    2        7.168000000000       2.069237471800       7.499988419000
        44    1       12.544000000000       7.242312528200      11.167326166500
        45    2        7.168000000000       2.069237471800      12.236511581000
        46    1        7.168000000000      10.346162528200       8.569173833500
        47    1        7.168000000000      10.346162528200      11.167326166500
        48    2       12.544000000000      11.380787471800       7.499988419000
        49    2       10.752000000000       8.276937471800       7.499988419000
        50    2       10.752000000000       8.276937471800      12.236511581000
        51    1       12.544000000000       1.034612528200      11.167326166500
        52    1        8.960000000000       7.242312528200      11.167326166500
        53    1        7.168000000000       4.138462528200       8.569173833500
        54    1       14.336000000000       4.138462528200      11.167326166500
        55    2       10.752000000000       2.069237471800       7.499988419000
        56    2       12.544000000000       5.173087471800      12.236511581000
        57    2        7.168000000000       8.276937471800       7.499988419000
        58    1       10.752000000000      10.346162528200      11.167326166500
        59    1       10.752000000000      10.346162528200       8.569173833500
        60    2       12.544000000000       5.173087471800       7.499988419000
        61    2        8.960000000000      11.380787471800      12.236511581000
        62    2        8.960000000000      11.380787471800       7.499988419000
        63    1       12.544000000000       1.034612528200       8.569173833500
        64    1        8.960000000000       7.242312528200       8.569173833500
        65    1       16.128000000000       1.034612528200       8.569173833500
        66    1       19.712000000000       7.242312528200       8.569173833500
        67    2       16.128000000000       5.173087471800      12.236511581000
        68    2       19.712000000000      11.380787471800      12.236511581000
        69    2       17.920000000000       2.069237471800      12.236511581000
        70    1       16.128000000000       1.034612528200      11.167326166500
        71    2       14.336000000000       8.276937471800      12.236511581000
        72    1       17.920000000000       4.138462528200       8.569173833500
        73    2       16.128000000000       5.173087471800       7.499988419000
        74    1       17.920000000000       4.138462528200      11.167326166500
        75    2       14.336000000000       2.069237471800       7.499988419000
        76    1       19.712000000000       7.242312528200      11.167326166500
        77    2       14.336000000000       2.069237471800      12.236511581000
        78    1       14.336000000000      10.346162528200       8.569173833500
        79    1       14.336000000000      10.346162528200      11.167326166500
        80    2       19.712000000000      11.380787471800       7.499988419000
        81    2       17.920000000000       8.276937471800       7.499988419000
        82    2       17.920000000000       8.276937471800      12.236511581000
        83    1       19.712000000000       1.034612528200      11.167326166500
        84    1       16.128000000000       7.242312528200      11.167326166500
        85    1       14.336000000000       4.138462528200       8.569173833500
        86    1       21.504000000000       4.138462528200      11.167326166500
        87    2       17.920000000000       2.069237471800       7.499988419000
        88    2       19.712000000000       5.173087471800      12.236511581000
        89    2       14.336000000000       8.276937471800       7.499988419000
        90    1       17.920000000000      10.346162528200      11.167326166500
        91    1       17.920000000000      10.346162528200       8.569173833500
        92    2       19.712000000000       5.173087471800       7.499988419000
        93    2       16.128000000000      11.380787471800      12.236511581000
        94    2       16.128000000000      11.380787471800       7.499988419000
        95    1       19.712000000000       1.034612528200       8.569173833500
        96    1       16.128000000000       7.242312528200       8.569173833500
        97    1       23.296000000000       1.034612528200       8.569173833500
        98    1       26.880000000000       7.242312528200       8.569173833500
        99    2       23.296000000000       5.173087471800      12.236511581000
       100    2       26.880000000000      11.380787471800      12.236511581000
       101    2       25.088000000000       2.069237471800      12.236511581000
       102    1       23.296000000000       1.034612528200      11.167326166500
       103    2       21.504000000000       8.276937471800      12.236511581000
       104    1       25.088000000000       4.138462528200       8.569173833500
       105    2       23.296000000000       5.173087471800       7.499988419000
       106    1       25.088000000000       4.138462528200      11.167326166500
       107    2       21.504000000000       2.069237471800       7.499988419000
       108    1       26.880000000000       7.242312528200      11.167326166500
       109    2       21.504000000000       2.069237471800      12.236511581000
       110    1       21.504000000000      10.346162528200       8.569173833500
       111    1       21.504000000000      10.346162528200      11.167326166500
       112    2       26.880000000000      11.380787471800       7.499988419000
       113    2       25.088000000000       8.276937471800       7.499988419000
       114    2       25.088000000000       8.276937471800      12.236511581000
       115    1       26.880000000000       1.034612528200      11.167326166500
       116    1       23.296000000000       7.242312528200      11.167326166500
       117    1       21.504000000000       4.138462528200       8.569173833500
       118    1       28.672000000000       4.138462528200      11.167326166500
       119    2       25.088000000000       2.069237471800       7.499988419000
       120    2       26.880000000000       5.173087471800      12.236511581000
       121    2       21.504000000000       8.276937471800       7.499988419000
       122    1       25.088000000000      10.346162528200      11.167326166500
       123    1       25.088000000000      10.346162528200       8.569173833500
       124    2       26.880000000000       5.173087471800       7.499988419000
       125    2       23.296000000000      11.380787471800      12.236511581000
       126    2       23.296000000000      11.380787471800       7.499988419000
       127    1       26.880000000000       1.034612528200       8.569173833500
       128    1       23.296000000000       7.242312528200       8.569173833500
       129    1       30.464000000000       1.034612528200       8.569173833500
       130    1       34.048000000000       7.242312528200       8.569173833500
       131    2       30.464000000000       5.173087471800      12.236511581000
       132    2       34.048000000000      11.380787471800      12.236511581000
       133    2       32.256000000000       2.069237471800      12.236511581000
       134    1       30.464000000000       1.034612528200      11.167326166500
       135    2       28.672000000000       8.276937471800      12.236511581000
       136    1       32.256000000000       4.138462528200       8.569173833500
       137    2       30.464000000000       5.173087471800       7.499988419000
       138    1       32.256000000000       4.138462528200      11.167326166500
       139    2       28.672000000000       2.069237471800       7.499988419000
       140    1       34.048000000000       7.242312528200      11.167326166500
       141    2       28.672000000000       2.069237471800      12.236511581000
       142    1       28.672000000000      10.346162528200       8.569173833500
       143    1       28.672000000000      10.346162528200      11.167326166500
       144    2       34.048000000000      11.380787471800       7.499988419000
       145    2       32.256000000000       8.276937471800       7.499988419000
       146    2       32.256000000000       8.276937471800      12.236511581000
       147    1       34.048000000000       1.034612528200      11.167326166500
       148    1       30.464000000000       7.242312528200      11.167326166500
       149    1       28.672000000000       4.138462528200       8.569173833500
       150    1       35.840000000000       4.138462528200      11.167326166500
       151    2       32.256000000000       2.069237471800       7.499988419000
       152    2       34.048000000000       5.173087471800      12.236511581000
       153    2       28.672000000000       8.276937471800       7.499988419000
       154    1       32.256000000000      10.346162528200      11.167326166500
       155    1       32.256000000000      10.346162528200       8.569173833500
       156    2       34.048000000000       5.173087471800       7.499988419000
       157    2       30.464000000000      11.380787471800      12.236511581000
       158    2       30.464000000000      11.380787471800       7.499988419000
       159    1       34.048000000000       1.034612528200       8.569173833500
       160    1       30.464000000000       7.242312528200       8.569173833500
       161    1       37.632000000000       1.034612528200       8.569173833500
       162    1       41.216000000000       7.242312528200       8.569173833500
       163    2       37.632000000000       5.173087471800      12.236511581000
       164    2       41.216000000000      11.380787471800      12.236511581000
       165    2       39.424000000000       2.069237471800      12.236511581000
       166    1       37.632000000000       1.034612528200      11.167326166500
       167    2       35.840000000000       8.276937471800      12.236511581000
       168    1       39.424000000000       4.138462528200       8.569173833500
       169    2       37.632000000000       5.173087471800       7.499988419000
       170    1       39.424000000000       4.138462528200      11.167326166500
       171    2       35.840000000000       2.069237471800       7.499988419000
       172    1       41.216000000000       7.242312528200      11.167326166500
       173    2       35.840000000000       2.069237471800      12.236511581000
       174    1       35.840000000000      10.346162528200       8.569173833500
       175    1       35.840000000000      10.346162528200      11.167326166500
       176    2       41.216000000000      11.380787471800       7.499988419000
       177    2       39.424000000000       8.276937471800       7.499988419000
       178    2       39.424000000000       8.276937471800      12.236511581000
       179    1       41.216000000000       1.034612528200      11.167326166500
       180    1       37.632000000000       7.242312528200      11.167326166500
       181    1       35.840000000000       4.138462528200       8.569173833500
       182    1       43.008000000000       4.138462528200      11.167326166500
       183    2       39.424000000000       2.069237471800       7.499988419000
       184    2       41.216000000000       5.173087471800      12.236511581000
       185    2       35.840000000000       8.276937471800       7.499988419000
       186    1       39.424000000000      10.346162528200      11.167326166500
       187    1       39.424000000000      10.346162528200       8.569173833500
       188    2       41.216000000000       5.173087471800       7.499988419000
       189    2       37.632000000000      11.380787471800      12.236511581000
       190    2       37.632000000000      11.380787471800       7.499988419000
       191    1       41.216000000000       1.034612528200       8.569173833500
       192    1       37.632000000000       7.242312528200       8.569173833500
       193    1       44.800000000000       1.034612528200       8.569173833500
       194    1       48.384000000000       7.242312528200       8.569173833500
       195    2       44.800000000000       5.173087471800      12.236511581000
       196    2       48.384000000000      11.380787471800      12.236511581000
       197    2       46.592000000000       2.069237471800      12.236511581000
       198    1       44.800000000000       1.034612528200      11.167326166500
       199    2       43.008000000000       8.276937471800      12.236511581000
       200    1       46.592000000000       4.138462528200       8.569173833500
       201    2       44.800000000000       5.173087471800       7.499988419000
       202    1       46.592000000000       4.138462528200      11.167326166500
       203    2       43.008000000000       2.069237471800       7.499988419000
       204    1       48.384000000000       7.242312528200      11.167326166500
       205    2       43.008000000000       2.069237471800      12.236511581000
       206    1       43.008000000000      10.346162528200       8.569173833500
       207    1       43.008000000000      10.346162528200      11.167326166500
       208    2       48.384000000000      11.380787471800       7.499988419000
       209    2       46.592000000000       8.276937471800       7.499988419000
       210    2       46.592000000000       8.276937471800      12.236511581000
       211    1       48.384000000000       1.034612528200      11.167326166500
       212    1       44.800000000000       7.242312528200      11.167326166500
       213    1       43.008000000000       4.138462528200       8.569173833500
       214    1       50.176000000000       4.138462528200      11.167326166500
       215    2       46.592000000000       2.069237471800       7.499988419000
       216    2       48.384000000000       5.173087471800      12.236511581000
       217    2       43.008000000000       8.276937471800       7.499988419000
       218    1       46.592000000000      10.346162528200      11.167326166500
       219    1       46.592000000000      10.346162528200       8.569173833500
       220    2       48.384000000000       5.173087471800       7.499988419000
       221    2       44.800000000000      11.380787471800      12.236511581000
       222    2       44.800000000000      11.380787471800       7.499988419000
       223    1       48.384000000000       1.034612528200       8.569173833500
       224    1       44.800000000000       7.242312528200       8.569173833500
       225    1       51.968000000000       1.034612528200       8.569173833500
       226    1       55.552000000000       7.242312528200       8.569173833500
       227    2       51.968000000000       5.173087471800      12.236511581000
       228    2       55.552000000000      11.380787471800      12.236511581000
       229    2       53.760000000000       2.069237471800      12.236511581000
       230    1       51.968000000000       1.034612528200      11.167326166500
       231    2       50.176000000000       8.276937471800      12.236511581000
       232    1       53.760000000000       4.138462528200       8.569173833500
       233    2       51.968000000000       5.173087471800       7.499988419000
       234    1       53.760000000000       4.138462528200      11.167326166500
       235    2       50.176000000000       2.069237471800       7.499988419000
       236    1       55.552000000000       7.242312528200      11.167326166500
       237    2       50.176000000000       2.069237471800      12.236511581000
       238    1       50.176000000000      10.346162528200       8.569173833500
       239    1       50.176000000000      10.346162528200      11.167326166500
       240    2       55.552000000000      11.380787471800       7.499988419000
       241    2       53.760000000000       8.276937471800       7.499988419000
       242    2       53.760000000000       8.276937471800      12.236511581000
       243    1       55.552000000000       1.034612528200      11.167326166500
       244    1       51.968000000000       7.242312528200      11.167326166500
       245    1       50.176000000000       4.138462528200       8.569173833500
       246    1       57.344000000000       4.138462528200      11.167326166500
       247    2       53.760000000000       2.069237471800       7.499988419000
       248    2       55.552000000000       5.173087471800      12.236511581000
       249    2       50.176000000000       8.276937471800       7.499988419000
       250    1       53.760000000000      10.346162528200      11.167326166500
       251    1       53.760000000000      10.346162528200       8.569173833500
       252    2       55.552000000000       5.173087471800       7.499988419000
       253    2       51.968000000000      11.380787471800      12.236511581000
       254    2       51.968000000000      11.380787471800       7.499988419000
       255    1       55.552000000000       1.034612528200       8.569173833500
       256    1       51.968000000000       7.242312528200       8.569173833500
       257    1       59.136000000000       1.034612528200       8.569173833500
       258    1       62.720000000000       7.242312528200       8.569173833500
       259    2       59.136000000000       5.173087471800      12.236511581000
       260    2       62.720000000000      11.380787471800      12.236511581000
       261    2       60.928000000000       2.069237471800      12.236511581000
       262    1       59.136000000000       1.034612528200      11.167326166500
       263    2       57.344000000000       8.276937471800      12.236511581000
       264    1       60.928000000000       4.138462528200       8.569173833500
       265    2       59.136000000000       5.173087471800       7.499988419000
       266    1       60.928000000000       4.138462528200      11.167326166500
       267    2       57.344000000000       2.069237471800       7.499988419000
       268    1       62.720000000000       7.242312528200      11.167326166500
       269    2       57.344000000000       2.069237471800      12.236511581000
       270    1       57.344000000000      10.346162528200       8.569173833500
       271    1       57.344000000000      10.346162528200      11.167326166500
       272    2       62.720000000000      11.380787471800       7.499988419000
       273    2       60.928000000000       8.276937471800       7.499988419000
       274    2       60.928000000000       8.276937471800      12.236511581000
       275    1       62.720000000000       1.034612528200      11.167326166500
       276    1       59.136000000000       7.242312528200      11.167326166500
       277    1       57.344000000000       4.138462528200       8.569173833500
       278    1       64.512000000000       4.138462528200      11.167326166500
       279    2       60.928000000000       2.069237471800       7.499988419000
       280    2       62.720000000000       5.173087471800      12.236511581000
       281    2       57.344000000000       8.276937471800       7.499988419000
       282    1       60.928000000000      10.346162528200      11.167326166500
       283    1       60.928000000000      10.346162528200       8.569173833500
       284    2       62.720000000000       5.173087471800       7.499988419000
       285    2       59.136000000000      11.380787471800      12.236511581000
       286    2       59.136000000000      11.380787471800       7.499988419000
       287    1       62.720000000000       1.034612528200       8.569173833500
       288    1       59.136000000000       7.242312528200       8.569173833500
       289    1       66.304000000000       1.034612528200       8.569173833500
       290    1       69.888000000000       7.242312528200       8.569173833500
       291    2       66.304000000000       5.173087471800      12.236511581000
       292    2       69.888000000000      11.380787471800      12.236511581000
       293    2       68.096000000000       2.069237471800      12.236511581000
       294    1       66.304000000000       1.034612528200      11.167326166500
       295    2       64.512000000000       8.276937471800      12.236511581000
       296    1       68.096000000000       4.138462528200       8.569173833500
       297    2       66.304000000000       5.173087471800       7.499988419000
       298    1       68.096000000000       4.138462528200      11.167326166500
       299    2       64.512000000000       2.069237471800       7.499988419000
       300    1       69.888000000000       7.242312528200      11.167326166500
       301    2       64.512000000000       2.069237471800      12.236511581000
       302    1       64.512000000000      10.346162528200       8.569173833500
       303    1       64.512000000000      10.346162528200      11.167326166500
       304    2       69.888000000000      11.380787471800       7.499988419000
       305    2       68.096000000000       8.276937471800       7.499988419000
       306    2       68.096000000000       8.276937471800      12.236511581000
       307    1       69.888000000000       1.034612528200      11.167326166500
       308    1       66.304000000000       7.242312528200      11.167326166500
       309    1       64.512000000000       4.138462528200       8.569173833500
       310    1       71.680000000000       4.138462528200      11.167326166500
       311    2       68.096000000000       2.069237471800       7.499988419000
       312    2       69.888000000000       5.173087471800      12.236511581000
       313    2       64.512000000000       8.276937471800       7.499988419000
       314    1       68.096000000000      10.346162528200      11.167326166500
       315    1       68.096000000000      10.346162528200       8.569173833500
       316    2       69.888000000000       5.173087471800       7.499988419000
       317    2       66.304000000000      11.380787471800      12.236511581000
       318    2       66.304000000000      11.380787471800       7.499988419000
       319    1       69.888000000000       1.034612528200       8.569173833500
       320    1       66.304000000000       7.242312528200       8.569173833500
       321    1       73.472000000000       1.034612528200       8.569173833500
       322    1       77.056000000000       7.242312528200       8.569173833500
       323    2       73.472000000000       5.173087471800      12.236511581000
       324    2       77.056000000000      11.380787471800      12.236511581000
       325    2       75.264000000000       2.069237471800      12.236511581000
       326    1       73.472000000000       1.034612528200      11.167326166500
       327    2       71.680000000000       8.276937471800      12.236511581000
       328    1       75.264000000000       4.138462528200       8.569173833500
       329    2       73.472000000000       5.173087471800       7.499988419000
       330    1       75.264000000000       4.138462528200      11.167326166500
       331    2       71.680000000000       2.069237471800       7.499988419000
       332    1       77.056000000000       7.242312528200      11.167326166500
       333    2       71.680000000000       2.069237471800      12.236511581000
       334    1       71.680000000000      10.346162528200       8.569173833500
       335    1       71.680000000000      10.346162528200      11.167326166500
       336    2       77.056000000000      11.380787471800       7.499988419000
       337    2       75.264000000000       8.276937471800       7.499988419000
       338    2       75.264000000000       8.276937471800      12.236511581000
       339    1       77.056000000000       1.034612528200      11.167326166500
       340    1       73.472000000000       7.242312528200      11.167326166500
       341    1       71.680000000000       4.138462528200       8.569173833500
       342    1       78.848000000000       4.138462528200      11.167326166500
       343    2       75.264000000000       2.069237471800       7.499988419000
       344    2       77.056000000000       5.173087471800      12.236511581000
       345    2       71.680000000000       8.276937471800       7.499988419000
       346    1       75.264000000000      10.346162528200      11.167326166500
       347    1       75.264000000000      10.346162528200       8.569173833500
       348    2       77.056000000000       5.173087471800       7.499988419000
       349    2       73.472000000000      11.380787471800      12.236511581000
       350    2       73.472000000000      11.380787471800       7.499988419000
       351    1       77.056000000000       1.034612528200       8.569173833500
       352    1       73.472000000000       7.242312528200       8.569173833500
       353    1       80.640000000000       1.034612528200       8.569173833500
       354    1       84.224000000000       7.242312528200       8.569173833500
       355    2       80.640000000000       5.173087471800      12.236511581000
       356    2       84.224000000000      11.380787471800      12.236511581000
       357    2       82.432000000000       2.069237471800      12.236511581000
       358    1       80.640000000000       1.034612528200      11.167326166500
       359    2       78.848000000000       8.276937471800      12.236511581000
       360    1       82.432000000000       4.138462528200       8.569173833500
       361    2       80.640000000000       5.173087471800       7.499988419000
       362    1       82.432000000000       4.138462528200      11.167326166500
       363    2       78.848000000000       2.069237471800       7.499988419000
       364    1       84.224000000000       7.242312528200      11.167326166500
       365    2       78.848000000000       2.069237471800      12.236511581000
       366    1       78.848000000000      10.346162528200       8.569173833500
       367    1       78.848000000000      10.346162528200      11.167326166500
       368    2       84.224000000000      11.380787471800       7.499988419000
       369    2       82.432000000000       8.276937471800       7.499988419000
       370    2       82.432000000000       8.276937471800      12.236511581000