 # Al16 Se16
  
        3328  atoms
           2  atom types
 
      0.000000000000      98.220200000000  xlo xhi
      0.000000000000     104.691200000000  ylo yhi
      0.000000000000      19.912700000000  zlo zhi
 
Masses
 
            1   26.98153860             # Al
            2   78.96000000             # Se
 
Atoms # charge
 
         1    1   0.000000        7.555400000000       4.362128971200       8.662422754000
         2    2   0.000000        1.888850000000       5.452671028800      12.417758847000
         3    2   0.000000        7.555400000000       2.181071028800      12.417758847000
         4    2   0.000000        5.666550000000       5.452671028800       7.494941153000
         5    2   0.000000        1.888850000000      11.995871028800       7.494941153000
         6    1   0.000000        3.777700000000      10.905328971200       8.662422754000
         7    2   0.000000        3.777700000000       8.724271028800      12.417758847000
         8    2   0.000000        5.666550000000      11.995871028800      12.417758847000
         9    2   0.000000        3.777700000000       2.181071028800       7.494941153000
        10    2   0.000000        0.000000000000       8.724271028800       7.494941153000
        11    2   0.000000        3.777700000000       2.181071028800      12.417758847000
        12    1   0.000000        5.666550000000       1.090528971200       8.662422754000
        13    2   0.000000        0.000000000000       2.181071028800       7.494941153000
        14    1   0.000000        1.888850000000       7.633728971200       8.662422754000
        15    2   0.000000        0.000000000000       8.724271028800      12.417758847000
        16    2   0.000000        3.777700000000       8.724271028800       7.494941153000
        17    1   0.000000        3.777700000000       4.362128971200       8.662422754000
        18    1   0.000000        7.555400000000      10.905328971200       8.662422754000
        19    1   0.000000        3.777700000000       4.362128971200      11.250277246000
        20    1   0.000000        0.000000000000      10.905328971200      11.250277246000
        21    2   0.000000        1.888850000000       5.452671028800       7.494941153000
        22    2   0.000000        5.666550000000      11.995871028800       7.494941153000
        23    1   0.000000        0.000000000000       4.362128971200      11.250277246000
        24    1   0.000000        3.777700000000      10.905328971200      11.250277246000
        25    2   0.000000        5.666550000000       5.452671028800      12.417758847000
        26    2   0.000000        1.888850000000      11.995871028800      12.417758847000
        27    1   0.000000        1.888850000000       1.090528971200      11.250277246000
        28    1   0.000000        5.666550000000       7.633728971200      11.250277246000
        29    1   0.000000        5.666550000000       1.090528971200      11.250277246000
        30    1   0.000000        1.888850000000       7.633728971200      11.250277246000
        31    1   0.000000        1.888850000000       1.090528971200       8.662422754000
        32    1   0.000000        5.666550000000       7.633728971200       8.662422754000
        33    1   0.000000       15.110800000000       4.362128971200       8.662422754000
        34    2   0.000000        9.444250000000       5.452671028800      12.417758847000
        35    2   0.000000       15.110800000000       2.181071028800      12.417758847000
        36    2   0.000000       13.221950000000       5.452671028800       7.494941153000
        37    2   0.000000        9.444250000000      11.995871028800       7.494941153000
        38    1   0.000000       11.333100000000      10.905328971200       8.662422754000
        39    2   0.000000       11.333100000000       8.724271028800      12.417758847000
        40    2   0.000000       13.221950000000      11.995871028800      12.417758847000
        41    2   0.000000       11.333100000000       2.181071028800       7.494941153000
        42    2   0.000000        7.555400000000       8.724271028800       7.494941153000
        43    2   0.000000       11.333100000000       2.181071028800      12.417758847000
        44    1   0.000000       13.221950000000       1.090528971200       8.662422754000
        45    2   0.000000        7.555400000000       2.181071028800       7.494941153000
        46    1   0.000000        9.444250000000       7.633728971200       8.662422754000
        47    2   0.000000        7.555400000000       8.724271028800      12.417758847000
        48    2   0.000000       11.333100000000       8.724271028800       7.494941153000
        49    1   0.000000       11.333100000000       4.362128971200       8.662422754000
        50    1   0.000000       15.110800000000      10.905328971200       8.662422754000
        51    1   0.000000       11.333100000000       4.362128971200      11.250277246000
        52    1   0.000000        7.555400000000      10.905328971200      11.250277246000
        53    2   0.000000        9.444250000000       5.452671028800       7.494941153000
        54    2   0.000000       13.221950000000      11.995871028800       7.494941153000
        55    1   0.000000        7.555400000000       4.362128971200      11.250277246000
        56    1   0.000000       11.333100000000      10.905328971200      11.250277246000
        57    2   0.000000       13.221950000000       5.452671028800      12.417758847000
        58    2   0.000000        9.444250000000      11.995871028800      12.417758847000
        59    1   0.000000        9.444250000000       1.090528971200      11.250277246000
        60    1   0.000000       13.221950000000       7.633728971200      11.250277246000
        61    1   0.000000       13.221950000000       1.090528971200      11.250277246000
        62    1   0.000000        9.444250000000       7.633728971200      11.250277246000
        63    1   0.000000        9.444250000000       1.090528971200       8.662422754000
        64    1   0.000000       13.221950000000       7.633728971200       8.662422754000
        65    1   0.000000       22.666200000000       4.362128971200       8.662422754000
        66    2   0.000000       16.999650000000       5.452671028800      12.417758847000
        67    2   0.000000       22.666200000000       2.181071028800      12.417758847000
        68    2   0.000000       20.777350000000       5.452671028800       7.494941153000
        69    2   0.000000       16.999650000000      11.995871028800       7.494941153000
        70    1   0.000000       18.888500000000      10.905328971200       8.662422754000
        71    2   0.000000       18.888500000000       8.724271028800      12.417758847000
        72    2   0.000000       20.777350000000      11.995871028800      12.417758847000
        73    2   0.000000       18.888500000000       2.181071028800       7.494941153000
        74    2   0.000000       15.110800000000       8.724271028800       7.494941153000
        75    2   0.000000       18.888500000000       2.181071028800      12.417758847000
        76    1   0.000000       20.777350000000       1.090528971200       8.662422754000
        77    2   0.000000       15.110800000000       2.181071028800       7.494941153000
        78    1   0.000000       16.999650000000       7.633728971200       8.662422754000
        79    2   0.000000       15.110800000000       8.724271028800      12.417758847000
        80    2   0.000000       18.888500000000       8.724271028800       7.494941153000
        81    1   0.000000       18.888500000000       4.362128971200       8.662422754000
        82    1   0.000000       22.666200000000      10.905328971200       8.662422754000
        83    1   0.000000       18.888500000000       4.362128971200      11.250277246000
        84    1   0.000000       15.110800000000      10.905328971200      11.250277246000
        85    2   0.000000       16.999650000000       5.452671028800       7.494941153000
        86    2   0.000000       20.777350000000      11.995871028800       7.494941153000
        87    1   0.000000       15.110800000000       4.362128971200      11.250277246000
        88    1   0.000000       18.888500000000      10.905328971200      11.250277246000
        89    2   0.000000       20.777350000000       5.452671028800      12.417758847000
        90    2   0.000000       16.999650000000      11.995871028800      12.417758847000
        91    1   0.000000       16.999650000000       1.090528971200      11.250277246000
        92    1   0.000000       20.777350000000       7.633728971200      11.250277246000
        93    1   0.000000       20.777350000000       1.090528971200      11.250277246000
        94    1   0.000000       16.999650000000       7.633728971200      11.250277246000
        95    1   0.000000       16.999650000000       1.090528971200       8.662422754000
        96    1   0.000000       20.777350000000       7.633728971200       8.662422754000
        97    1   0.000000       30.221600000000       4.362128971200       8.662422754000
        98    2   0.000000       24.555050000000       5.452671028800      12.417758847000
        99    2   0.000000       30.221600000000       2.181071028800      12.417758847000
       100    2   0.000000       28.332750000000       5.452671028800       7.494941153000
       101    2   0.000000       24.555050000000      11.995871028800       7.494941153000
       102    1   0.000000       26.443900000000      10.905328971200       8.662422754000
       103    2   0.000000       26.443900000000       8.724271028800      12.417758847000
       104    2   0.000000       28.332750000000      11.995871028800      12.417758847000
       105    2   0.000000       26.443900000000       2.181071028800       7.494941153000
       106    2   0.000000       22.666200000000       8.724271028800       7.494941153000
       107    2   0.000000       26.443900000000       2.181071028800      12.417758847000
       108    1   0.000000       28.332750000000       1.090528971200       8.662422754000
       109    2   0.000000       22.666200000000       2.181071028800       7.494941153000
       110    1   0.000000       24.555050000000       7.633728971200       8.662422754000
       111    2   0.000000       22.666200000000       8.724271028800      12.417758847000
       112    2   0.000000       26.443900000000       8.724271028800       7.494941153000
       113    1   0.000000       26.443900000000       4.362128971200       8.662422754000
       114    1   0.000000       30.221600000000      10.905328971200       8.662422754000
       115    1   0.000000       26.443900000000       4.362128971200      11.250277246000
       116    1   0.000000       22.666200000000      10.905328971200      11.250277246000
       117    2   0.000000       24.555050000000       5.452671028800       7.494941153000
       118    2   0.000000       28.332750000000      11.995871028800       7.494941153000
       119    1   0.000000       22.666200000000       4.362128971200      11.250277246000
       120    1   0.000000       26.443900000000      10.905328971200      11.250277246000
       121    2   0.000000       28.332750000000       5.452671028800      12.417758847000
       122    2   0.000000       24.555050000000      11.995871028800      12.417758847000
       123    1   0.000000       24.555050000000       1.090528971200      11.250277246000
       124    1   0.000000       28.332750000000       7.633728971200      11.250277246000
       125    1   0.000000       28.332750000000       1.090528971200      11.250277246000
       126    1   0.000000       24.555050000000       7.633728971200      11.250277246000
       127    1   0.000000       24.555050000000       1.090528971200       8.662422754000
       128    1   0.000000       28.332750000000       7.633728971200       8.662422754000
       129    1   0.000000       37.777000000000       4.362128971200       8.662422754000
       130    2   0.000000       32.110450000000       5.452671028800      12.417758847000
       131    2   0.000000       37.777000000000       2.181071028800      12.417758847000
       132    2   0.000000       35.888150000000       5.452671028800       7.494941153000
       133    2   0.000000       32.110450000000      11.995871028800       7.494941153000
       134    1   0.000000       33.999300000000      10.905328971200       8.662422754000
       135    2   0.000000       33.999300000000       8.724271028800      12.417758847000
       136    2   0.000000       35.888150000000      11.995871028800      12.417758847000
       137    2   0.000000       33.999300000000       2.181071028800       7.494941153000
       138    2   0.000000       30.221600000000       8.724271028800       7.494941153000
       139    2   0.000000       33.999300000000       2.181071028800      12.417758847000
       140    1   0.000000       35.888150000000       1.090528971200       8.662422754000
       141    2   0.000000       30.221600000000       2.181071028800       7.494941153000
       142    1   0.000000       32.110450000000       7.633728971200       8.662422754000
       143    2   0.000000       30.221600000000       8.724271028800      12.417758847000
       144    2   0.000000       33.999300000000       8.724271028800       7.494941153000
       145    1   0.000000       33.999300000000       4.362128971200       8.662422754000
       146    1   0.000000       37.777000000000      10.905328971200       8.662422754000
       147    1   0.000000       33.999300000000       4.362128971200      11.250277246000
       148    1   0.000000       30.221600000000      10.905328971200      11.250277246000
       149    2   0.000000       32.110450000000       5.452671028800       7.494941153000
       150    2   0.000000       35.888150000000      11.995871028800       7.494941153000
       151    1   0.000000       30.221600000000       4.362128971200      11.250277246000
       152    1   0.000000       33.999300000000      10.905328971200      11.250277246000
       153    2   0.000000       35.888150000000       5.452671028800      12.417758847000
       154    2   0.000000       32.110450000000      11.995871028800      12.417758847000
       155    1   0.000000       32.110450000000       1.090528971200      11.250277246000
       156    1   0.000000       35.888150000000       7.633728971200      11.250277246000
       157    1   0.000000       35.888150000000       1.090528971200      11.250277246000
       158    1   0.000000       32.110450000000       7.633728971200      11.250277246000
       159    1   0.000000       32.110450000000       1.090528971200       8.662422754000
       160    1   0.000000       35.888150000000       7.633728971200       8.662422754000
       161    1   0.000000       45.332400000000       4.362128971200       8.662422754000
       162    2   0.000000       39.665850000000       5.452671028800      12.417758847000
       163    2   0.000000       45.332400000000       2.181071028800      12.417758847000
       164    2   0.000000       43.443550000000       5.452671028800       7.494941153000
       165    2   0.000000       39.665850000000      11.995871028800       7.494941153000
       166    1   0.000000       41.554700000000      10.905328971200       8.662422754000
       167    2   0.000000       41.554700000000       8.724271028800      12.417758847000
       168    2   0.000000       43.443550000000      11.995871028800      12.417758847000
       169    2   0.000000       41.554700000000       2.181071028800       7.494941153000
       170    2   0.000000       37.777000000000       8.724271028800       7.494941153000
       171    2   0.000000       41.554700000000       2.181071028800      12.417758847000
       172    1   0.000000       43.443550000000       1.090528971200       8.662422754000
       173    2   0.000000       37.777000000000       2.181071028800       7.494941153000
       174    1   0.000000       39.665850000000       7.633728971200       8.662422754000
       175    2   0.000000       37.777000000000       8.724271028800      12.417758847000
       176    2   0.000000       41.554700000000       8.724271028800       7.494941153000
       177    1   0.000000       41.554700000000       4.362128971200       8.662422754000
       178    1   0.000000       45.332400000000      10.905328971200       8.662422754000
       179    1   0.000000       41.554700000000       4.362128971200      11.250277246000
       180    1   0.000000       37.777000000000      10.905328971200      11.250277246000
       181    2   0.000000       39.665850000000       5.452671028800       7.494941153000
       182    2   0.000000       43.443550000000      11.995871028800       7.494941153000
       183    1   0.000000       37.777000000000       4.362128971200      11.250277246000
       184    1   0.000000       41.554700000000      10.905328971200      11.250277246000
       185    2   0.000000       43.443550000000       5.452671028800      12.417758847000
       186    2   0.000000       39.665850000000      11.995871028800      12.417758847000
       187    1   0.000000       39.665850000000       1.090528971200      11.250277246000
       188    1   0.000000       43.443550000000       7.633728971200      11.250277246000
       189    1   0.000000       43.443550000000       1.090528971200      11.250277246000
       190    1   0.000000       39.665850000000       7.633728971200      11.250277246000
       191    1   0.000000       39.665850000000       1.090528971200       8.662422754000
       192    1   0.000000       43.443550000000       7.633728971200       8.662422754000
       193    1   0.000000       52.887800000000       4.362128971200       8.662422754000
       194    2   0.000000       47.221250000000       5.452671028800      12.417758847000
       195    2   0.000000       52.887800000000       2.181071028800      12.417758847000
       196    2   0.000000       50.998950000000       5.452671028800       7.494941153000
       197    2   0.000000       47.221250000000      11.995871028800       7.494941153000
       198    1   0.000000       49.110100000000      10.905328971200       8.662422754000
       199    2   0.000000       49.110100000000       8.724271028800      12.417758847000
       200    2   0.000000       50.998950000000      11.995871028800      12.417758847000
       201    2   0.000000       49.110100000000       2.181071028800       7.494941153000
       202    2   0.000000       45.332400000000       8.724271028800       7.494941153000
       203    2   0.000000       49.110100000000       2.181071028800      12.417758847000
       204    1   0.000000       50.998950000000       1.090528971200       8.662422754000
       205    2   0.000000       45.332400000000       2.181071028800       7.494941153000
       206    1   0.000000       47.221250000000       7.633728971200       8.662422754000
       207    2   0.000000       45.332400000000       8.724271028800      12.417758847000
       208    2   0.000000       49.110100000000       8.724271028800       7.494941153000
       209    1   0.000000       49.110100000000       4.362128971200       8.662422754000
       210    1   0.000000       52.887800000000      10.905328971200       8.662422754000
       211    1   0.000000       49.110100000000       4.362128971200      11.250277246000
       212    1   0.000000       45.332400000000      10.905328971200      11.250277246000
       213    2   0.000000       47.221250000000       5.452671028800       7.494941153000
       214    2   0.000000       50.998950000000      11.995871028800       7.494941153000
       215    1   0.000000       45.332400000000       4.362128971200      11.250277246000
       216    1   0.000000       49.110100000000      10.905328971200      11.250277246000
       217    2   0.000000       50.998950000000       5.452671028800      12.417758847000
       218    2   0.000000       47.221250000000      11.995871028800      12.417758847000
       219    1   0.000000       47.221250000000       1.090528971200      11.250277246000
       220    1   0.000000       50.998950000000       7.633728971200      11.250277246000
       221    1   0.000000       50.998950000000       1.090528971200      11.250277246000
       222    1   0.000000       47.221250000000       7.633728971200      11.250277246000
       223    1   0.000000       47.221250000000       1.090528971200       8.662422754000
       224    1   0.000000       50.998950000000       7.633728971200       8.662422754000
       225    1   0.000000       60.443200000000       4.362128971200       8.662422754000
       226    2   0.000000       54.776650000000       5.452671028800      12.417758847000
       227    2   0.000000       60.443200000000       2.181071028800      12.417758847000
       228    2   0.000000       58.554350000000       5.452671028800       7.494941153000
       229    2   0.000000       54.776650000000      11.995871028800       7.494941153000
       230    1   0.000000       56.665500000000      10.905328971200       8.662422754000
       231    2   0.000000       56.665500000000       8.724271028800      12.417758847000
       232    2   0.000000       58.554350000000      11.995871028800      12.417758847000
       233    2   0.000000       56.665500000000       2.181071028800       7.494941153000
       234    2   0.000000       52.887800000000       8.724271028800       7.494941153000
       235    2   0.000000       56.665500000000       2.181071028800      12.417758847000
       236    1   0.000000       58.554350000000       1.090528971200       8.662422754000
       237    2   0.000000       52.887800000000       2.181071028800       7.494941153000
       238    1   0.000000       54.776650000000       7.633728971200       8.662422754000
       239    2   0.000000       52.887800000000       8.724271028800      12.417758847000
       240    2   0.000000       56.665500000000       8.724271028800       7.494941153000
       241    1   0.000000       56.665500000000       4.362128971200       8.662422754000
       242    1   0.000000       60.443200000000      10.905328971200       8.662422754000
       243    1   0.000000       56.665500000000       4.362128971200      11.250277246000
       244    1   0.000000       52.887800000000      10.905328971200      11.250277246000
       245    2   0.000000       54.776650000000       5.452671028800       7.494941153000
       246    2   0.000000       58.554350000000      11.995871028800       7.494941153000
       247    1   0.000000       52.887800000000       4.362128971200      11.250277246000
       248    1   0.000000       56.665500000000      10.905328971200      11.250277246000
       249    2   0.000000       58.554350000000       5.452671028800      12.417758847000
       250    2   0.000000       54.776650000000      11.995871028800      12.417758847000
       251    1   0.000000       54.776650000000       1.090528971200      11.250277246000
       252    1   0.000000       58.554350000000       7.633728971200      11.250277246000
       253    1   0.000000       58.554350000000       1.090528971200      11.250277246000
       254    1   0.000000       54.776650000000       7.633728971200      11.250277246000
       255    1   0.000000       54.776650000000       1.090528971200       8.662422754000
       256    1   0.000000       58.554350000000       7.633728971200       8.662422754000
       257    1   0.000000       67.998600000000       4.362128971200       8.662422754000
       258    2   0.000000       62.332050000000       5.452671028800      12.417758847000
       259    2   0.000000       67.998600000000       2.181071028800      12.417758847000
       260    2   0.000000       66.109750000000       5.452671028800       7.494941153000
       261    2   0.000000       62.332050000000      11.995871028800       7.494941153000
       262    1   0.000000       64.220900000000      10.905328971200       8.662422754000
       263    2   0.000000       64.220900000000       8.724271028800      12.417758847000
       264    2   0.000000       66.109750000000      11.995871028800      12.417758847000
       265    2   0.000000       64.220900000000       2.181071028800       7.494941153000
       266    2   0.000000       60.443200000000       8.724271028800       7.494941153000
       267    2   0.000000       64.220900000000       2.181071028800      12.417758847000
       268    1   0.000000       66.109750000000       1.090528971200       8.662422754000
       269    2   0.000000       60.443200000000       2.181071028800       7.494941153000
       270    1   0.000000       62.332050000000       7.633728971200       8.662422754000
       271    2   0.000000       60.443200000000       8.724271028800      12.417758847000
       272    2   0.000000       64.220900000000       8.724271028800       7.494941153000
       273    1   0.000000       64.220900000000       4.362128971200       8.662422754000
       274    1   0.000000       67.998600000000      10.905328971200       8.662422754000
       275    1   0.000000       64.220900000000       4.362128971200      11.250277246000
       276    1   0.000000       60.443200000000      10.905328971200      11.250277246000
       277    2   0.000000       62.332050000000       5.452671028800       7.494941153000
       278    2   0.000000       66.109750000000      11.995871028800       7.494941153000
       279    1   0.000000       60.443200000000       4.362128971200      11.250277246000
       280    1   0.000000       64.220900000000      10.905328971200      11.250277246000
       281    2   0.000000       66.109750000000       5.452671028800      12.417758847000
       282    2   0.000000       62.332050000000      11.995871028800      12.417758847000
       283    1   0.000000       62.332050000000       1.090528971200      11.250277246000
       284    1   0.000000       66.109750000000       7.633728971200      11.250277246000
       285    1   0.000000       66.109750000000       1.090528971200      11.250277246000
       286    1   0.000000       62.332050000000       7.633728971200      11.250277246000
       287    1   0.000000       62.332050000000       1.090528971200       8.662422754000
       288    1   0.000000       66.109750000000       7.633728971200       8.662422754000
       289    1   0.000000       75.554000000000       4.362128971200       8.662422754000
       290    2   0.000000       69.887450000000       5.452671028800      12.417758847000
       291    2   0.000000       75.554000000000       2.181071028800      12.417758847000
       292    2   0.000000       73.665150000000       5.452671028800       7.494941153000
       293    2   0.000000       69.887450000000      11.995871028800       7.494941153000
       294    1   0.000000       71.776300000000      10.905328971200       8.662422754000
       295    2   0.000000       71.776300000000       8.724271028800      12.417758847000
       296    2   0.000000       73.665150000000      11.995871028800      12.417758847000
       297    2   0.000000       71.776300000000       2.181071028800       7.494941153000
       298    2   0.000000       67.998600000000       8.724271028800       7.494941153000
       299    2   0.000000       71.776300000000       2.181071028800      12.417758847000
       300    1   0.000000       73.665150000000       1.090528971200       8.662422754000
       301    2   0.000000       67.998600000000       2.181071028800       7.494941153000
       302    1   0.000000       69.887450000000       7.633728971200       8.662422754000
       303    2   0.000000       67.998600000000       8.724271028800      12.417758847000
       304    2   0.000000       71.776300000000       8.724271028800       7.494941153000
       305    1   0.000000       71.776300000000       4.362128971200       8.662422754000
       306    1   0.000000       75.554000000000      10.905328971200       8.662422754000
       307    1   0.000000       71.776300000000       4.362128971200      11.250277246000
       308    1   0.000000       67.998600000000      10.905328971200      11.250277246000
       309    2   0.000000       69.887450000000       5.452671028800       7.494941153000
       310    2   0.000000       73.665150000000      11.995871028800       7.494941153000
       311    1   0.000000       67.998600000000       4.362128971200      11.250277246000
       312    1   0.000000       71.776300000000      10.905328971200      11.250277246000
       313    2   0.000000       73.665150000000       5.452671028800      12.417758847000
       314    2   0.000000       69.887450000000      11.995871028800      12.417758847000
       315    1   0.000000       69.887450000000       1.090528971200      11.250277246000
       316    1   0.000000       73.665150000000       7.633728971200      11.250277246000
       317    1   0.000000       73.665150000000       1.090528971200      11.250277246000
       318    1   0.000000       69.887450000000       7.633728971200      11.250277246000
       319    1   0.000000       69.887450000000       1.090528971200       8.662422754000
       320    1   0.000000       73.665150000000       7.633728971200       8.662422754000
       321    1   0.000000       83.109400000000       4.362128971200       8.662422754000
       322    2   0.000000       77.442850000000       5.452671028800      12.417758847000
       323    2   0.000000       83.109400000000       2.181071028800      12.417758847000
       324    2   0.000000       81.220550000000       5.452671028800       7.494941153000
       325    2   0.000000       77.442850000000      11.995871028800       7.494941153000