 # Al8 Sb8
  
        1232  atoms
           2  atom types
 
      0.000000000000      96.658100000000  xlo xhi
      0.000000000000     106.537900000000  ylo yhi
      0.000000000000      15.620500000000  zlo zhi
 
Masses
 
            1   26.98153860             # Al
            2   121.76000000            # Sb
 
Atoms # atomic
 
         1    1        8.787100000000       2.536621739900       7.499995629000
         2    1        4.393550000000      10.146471739900       7.499995629000
         3    2        4.393550000000       5.073228260100       8.120504371000
         4    2        8.787100000000      12.683078260100       8.120504371000
         5    1        6.590325000000       6.341546739900       7.499995629000
         6    1        2.196775000000      13.951396739900       7.499995629000
         7    1        2.196775000000       6.341546739900       7.499995629000
         8    1        6.590325000000      13.951396739900       7.499995629000
         9    2        6.590325000000       1.268303260100       8.120504371000
        10    2        2.196775000000       8.878153260100       8.120504371000
        11    2        8.787100000000       5.073228260100       8.120504371000
        12    2        4.393550000000      12.683078260100       8.120504371000
        13    2        2.196775000000       1.268303260100       8.120504371000
        14    2        6.590325000000       8.878153260100       8.120504371000
        15    1        4.393550000000       2.536621739900       7.499995629000
        16    1        8.787100000000      10.146471739900       7.499995629000
        17    1       17.574200000000       2.536621739900       7.499995629000
        18    1       13.180650000000      10.146471739900       7.499995629000
        19    2       13.180650000000       5.073228260100       8.120504371000
        20    2       17.574200000000      12.683078260100       8.120504371000
        21    1       15.377425000000       6.341546739900       7.499995629000
        22    1       10.983875000000      13.951396739900       7.499995629000
        23    1       10.983875000000       6.341546739900       7.499995629000
        24    1       15.377425000000      13.951396739900       7.499995629000
        25    2       15.377425000000       1.268303260100       8.120504371000
        26    2       10.983875000000       8.878153260100       8.120504371000
        27    2       17.574200000000       5.073228260100       8.120504371000
        28    2       13.180650000000      12.683078260100       8.120504371000
        29    2       10.983875000000       1.268303260100       8.120504371000
        30    2       15.377425000000       8.878153260100       8.120504371000
        31    1       13.180650000000       2.536621739900       7.499995629000
        32    1       17.574200000000      10.146471739900       7.499995629000
        33    1       26.361300000000       2.536621739900       7.499995629000
        34    1       21.967750000000      10.146471739900       7.499995629000
        35    2       21.967750000000       5.073228260100       8.120504371000
        36    2       26.361300000000      12.683078260100       8.120504371000
        37    1       24.164525000000       6.341546739900       7.499995629000
        38    1       19.770975000000      13.951396739900       7.499995629000
        39    1       19.770975000000       6.341546739900       7.499995629000
        40    1       24.164525000000      13.951396739900       7.499995629000
        41    2       24.164525000000       1.268303260100       8.120504371000
        42    2       19.770975000000       8.878153260100       8.120504371000
        43    2       26.361300000000       5.073228260100       8.120504371000
        44    2       21.967750000000      12.683078260100       8.120504371000
        45    2       19.770975000000       1.268303260100       8.120504371000
        46    2       24.164525000000       8.878153260100       8.120504371000
        47    1       21.967750000000       2.536621739900       7.499995629000
        48    1       26.361300000000      10.146471739900       7.499995629000
        49    1       35.148400000000       2.536621739900       7.499995629000
        50    1       30.754850000000      10.146471739900       7.499995629000
        51    2       30.754850000000       5.073228260100       8.120504371000
        52    2       35.148400000000      12.683078260100       8.120504371000
        53    1       32.951625000000       6.341546739900       7.499995629000
        54    1       28.558075000000      13.951396739900       7.499995629000
        55    1       28.558075000000       6.341546739900       7.499995629000
        56    1       32.951625000000      13.951396739900       7.499995629000
        57    2       32.951625000000       1.268303260100       8.120504371000
        58    2       28.558075000000       8.878153260100       8.120504371000
        59    2       35.148400000000       5.073228260100       8.120504371000
        60    2       30.754850000000      12.683078260100       8.120504371000
        61    2       28.558075000000       1.268303260100       8.120504371000
        62    2       32.951625000000       8.878153260100       8.120504371000
        63    1       30.754850000000       2.536621739900       7.499995629000
        64    1       35.148400000000      10.146471739900       7.499995629000
        65    1       43.935500000000       2.536621739900       7.499995629000
        66    1       39.541950000000      10.146471739900       7.499995629000
        67    2       39.541950000000       5.073228260100       8.120504371000
        68    2       43.935500000000      12.683078260100       8.120504371000
        69    1       41.738725000000       6.341546739900       7.499995629000
        70    1       37.345175000000      13.951396739900       7.499995629000
        71    1       37.345175000000       6.341546739900       7.499995629000
        72    1       41.738725000000      13.951396739900       7.499995629000
        73    2       41.738725000000       1.268303260100       8.120504371000
        74    2       37.345175000000       8.878153260100       8.120504371000
        75    2       43.935500000000       5.073228260100       8.120504371000
        76    2       39.541950000000      12.683078260100       8.120504371000
        77    2       37.345175000000       1.268303260100       8.120504371000
        78    2       41.738725000000       8.878153260100       8.120504371000
        79    1       39.541950000000       2.536621739900       7.499995629000
        80    1       43.935500000000      10.146471739900       7.499995629000
        81    1       52.722600000000       2.536621739900       7.499995629000
        82    1       48.329050000000      10.146471739900       7.499995629000
        83    2       48.329050000000       5.073228260100       8.120504371000
        84    2       52.722600000000      12.683078260100       8.120504371000
        85    1       50.525825000000       6.341546739900       7.499995629000
        86    1       46.132275000000      13.951396739900       7.499995629000
        87    1       46.132275000000       6.341546739900       7.499995629000
        88    1       50.525825000000      13.951396739900       7.499995629000
        89    2       50.525825000000       1.268303260100       8.120504371000
        90    2       46.132275000000       8.878153260100       8.120504371000
        91    2       52.722600000000       5.073228260100       8.120504371000
        92    2       48.329050000000      12.683078260100       8.120504371000
        93    2       46.132275000000       1.268303260100       8.120504371000
        94    2       50.525825000000       8.878153260100       8.120504371000
        95    1       48.329050000000       2.536621739900       7.499995629000
        96    1       52.722600000000      10.146471739900       7.499995629000
        97    1       61.509700000000       2.536621739900       7.499995629000
        98    1       57.116150000000      10.146471739900       7.499995629000
        99    2       57.116150000000       5.073228260100       8.120504371000
       100    2       61.509700000000      12.683078260100       8.120504371000
       101    1       59.312925000000       6.341546739900       7.499995629000
       102    1       54.919375000000      13.951396739900       7.499995629000
       103    1       54.919375000000       6.341546739900       7.499995629000
       104    1       59.312925000000      13.951396739900       7.499995629000
       105    2       59.312925000000       1.268303260100       8.120504371000
       106    2       54.919375000000       8.878153260100       8.120504371000
       107    2       61.509700000000       5.073228260100       8.120504371000
       108    2       57.116150000000      12.683078260100       8.120504371000
       109    2       54.919375000000       1.268303260100       8.120504371000
       110    2       59.312925000000       8.878153260100       8.120504371000
       111    1       57.116150000000       2.536621739900       7.499995629000
       112    1       61.509700000000      10.146471739900       7.499995629000
       113    1       70.296800000000       2.536621739900       7.499995629000
       114    1       65.903250000000      10.146471739900       7.499995629000
       115    2       65.903250000000       5.073228260100       8.120504371000
       116    2       70.296800000000      12.683078260100       8.120504371000
       117    1       68.100025000000       6.341546739900       7.499995629000
       118    1       63.706475000000      13.951396739900       7.499995629000
       119    1       63.706475000000       6.341546739900       7.499995629000
       120    1       68.100025000000      13.951396739900       7.499995629000
       121    2       68.100025000000       1.268303260100       8.120504371000
       122    2       63.706475000000       8.878153260100       8.120504371000
       123    2       70.296800000000       5.073228260100       8.120504371000
       124    2       65.903250000000      12.683078260100       8.120504371000
       125    2       63.706475000000       1.268303260100       8.120504371000
       126    2       68.100025000000       8.878153260100       8.120504371000
       127    1       65.903250000000       2.536621739900       7.499995629000
       128    1       70.296800000000      10.146471739900       7.499995629000
       129    1       79.083900000000       2.536621739900       7.499995629000
       130    1       74.690350000000      10.146471739900       7.499995629000
       131    2       74.690350000000       5.073228260100       8.120504371000
       132    2       79.083900000000      12.683078260100       8.120504371000
       133    1       76.887125000000       6.341546739900       7.499995629000
       134    1       72.493575000000      13.951396739900       7.499995629000
       135    1       72.493575000000       6.341546739900       7.499995629000
       136    1       76.887125000000      13.951396739900       7.499995629000
       137    2       76.887125000000       1.268303260100       8.120504371000
       138    2       72.493575000000       8.878153260100       8.120504371000
       139    2       79.083900000000       5.073228260100       8.120504371000
       140    2       74.690350000000      12.683078260100       8.120504371000
       141    2       72.493575000000       1.268303260100       8.120504371000
       142    2       76.887125000000       8.878153260100       8.120504371000
       143    1       74.690350000000       2.536621739900       7.499995629000
       144    1       79.083900000000      10.146471739900       7.499995629000
       145    1       87.871000000000       2.536621739900       7.499995629000
       146    1       83.477450000000      10.146471739900       7.499995629000
       147    2       83.477450000000       5.073228260100       8.120504371000
       148    2       87.871000000000      12.683078260100       8.120504371000
       149    1       85.674225000000       6.341546739900       7.499995629000
       150    1       81.280675000000      13.951396739900       7.499995629000
       151    1       81.280675000000       6.341546739900       7.499995629000
       152    1       85.674225000000      13.951396739900       7.499995629000
       153    2       85.674225000000       1.268303260100       8.120504371000
       154    2       81.280675000000       8.878153260100       8.120504371000
       155    2       87.871000000000       5.073228260100       8.120504371000
       156    2       83.477450000000      12.683078260100       8.120504371000
       157    2       81.280675000000       1.268303260100       8.120504371000
       158    2       85.674225000000       8.878153260100       8.120504371000
       159    1       83.477450000000       2.536621739900       7.499995629000
       160    1       87.871000000000      10.146471739900       7.499995629000
       161    1       96.658100000000       2.536621739900       7.499995629000
       162    1       92.264550000000      10.146471739900       7.499995629000
       163    2       92.264550000000       5.073228260100       8.120504371000
       164    2       96.658100000000      12.683078260100       8.120504371000
       165    1       94.461325000000       6.341546739900       7.499995629000
       166    1       90.067775000000      13.951396739900       7.499995629000
       167    1       90.067775000000       6.341546739900       7.499995629000
       168    1       94.461325000000      13.951396739900       7.499995629000
       169    2       94.461325000000       1.268303260100       8.120504371000
       170    2       90.067775000000       8.878153260100       8.120504371000
       171    2       96.658100000000       5.073228260100       8.120504371000
       172    2       92.264550000000      12.683078260100       8.120504371000
       173    2       90.067775000000       1.268303260100       8.120504371000
       174    2       94.461325000000       8.878153260100       8.120504371000
       175    1       92.264550000000       2.536621739900       7.499995629000
       176    1       96.658100000000      10.146471739900       7.499995629000
       177    1        8.787100000000      17.756321739900       7.499995629000
       178    1        4.393550000000      25.366171739900       7.499995629000
       179    2        4.393550000000      20.292928260100       8.120504371000
       180    2        8.787100000000      27.902778260100       8.120504371000
       181    1        6.590325000000      21.561246739900       7.499995629000
       182    1        2.196775000000      29.171096739900       7.499995629000
       183    1        2.196775000000      21.561246739900       7.499995629000
       184    1        6.590325000000      29.171096739900       7.499995629000
       185    2        6.590325000000      16.488003260100       8.120504371000
       186    2        2.196775000000      24.097853260100       8.120504371000
       187    2        8.787100000000      20.292928260100       8.120504371000
       188    2        4.393550000000      27.902778260100       8.120504371000
       189    2        2.196775000000      16.488003260100       8.120504371000
       190    2        6.590325000000      24.097853260100       8.120504371000
       191    1        4.393550000000      17.756321739900       7.499995629000
       192    1        8.787100000000      25.366171739900       7.499995629000
       193    1       17.574200000000      17.756321739900       7.499995629000
       194    1       13.180650000000      25.366171739900       7.499995629000
       195    2       13.180650000000      20.292928260100       8.120504371000
       196    2       17.574200000000      27.902778260100       8.120504371000
       197    1       15.377425000000      21.561246739900       7.499995629000
       198    1       10.983875000000      29.171096739900       7.499995629000
       199    1       10.983875000000      21.561246739900       7.499995629000
       200    1       15.377425000000      29.171096739900       7.499995629000
       201    2       15.377425000000      16.488003260100       8.120504371000
       202    2       10.983875000000      24.097853260100       8.120504371000
       203    2       17.574200000000      20.292928260100       8.120504371000
       204    2       13.180650000000      27.902778260100       8.120504371000
       205    2       10.983875000000      16.488003260100       8.120504371000
       206    2       15.377425000000      24.097853260100       8.120504371000
       207    1       13.180650000000      17.756321739900       7.499995629000
       208    1       17.574200000000      25.366171739900       7.499995629000
       209    1       26.361300000000      17.756321739900       7.499995629000
       210    1       21.967750000000      25.366171739900       7.499995629000
       211    2       21.967750000000      20.292928260100       8.120504371000
       212    2       26.361300000000      27.902778260100       8.120504371000
       213    1       24.164525000000      21.561246739900       7.499995629000
       214    1       19.770975000000      29.171096739900       7.499995629000
       215    1       19.770975000000      21.561246739900       7.499995629000
       216    1       24.164525000000      29.171096739900       7.499995629000
       217    2       24.164525000000      16.488003260100       8.120504371000
       218    2       19.770975000000      24.097853260100       8.120504371000
       219    2       26.361300000000      20.292928260100       8.120504371000
       220    2       21.967750000000      27.902778260100       8.120504371000
       221    2       19.770975000000      16.488003260100       8.120504371000
       222    2       24.164525000000      24.097853260100       8.120504371000
       223    1       21.967750000000      17.756321739900       7.499995629000
       224    1       26.361300000000      25.366171739900       7.499995629000
       225    1       35.148400000000      17.756321739900       7.499995629000
       226    1       30.754850000000      25.366171739900       7.499995629000
       227    2       30.754850000000      20.292928260100       8.120504371000
       228    2       35.148400000000      27.902778260100       8.120504371000
       229    1       32.951625000000      21.561246739900       7.499995629000
       230    1       28.558075000000      29.171096739900       7.499995629000
       231    1       28.558075000000      21.561246739900       7.499995629000
       232    1       32.951625000000      29.171096739900       7.499995629000
       233    2       32.951625000000      16.488003260100       8.120504371000
       234    2       28.558075000000      24.097853260100       8.120504371000
       235    2       35.148400000000      20.292928260100       8.120504371000
       236    2       30.754850000000      27.902778260100       8.120504371000
       237    2       28.558075000000      16.488003260100       8.120504371000
       238    2       32.951625000000      24.097853260100       8.120504371000
       239    1       30.754850000000      17.756321739900       7.499995629000
       240    1       35.148400000000      25.366171739900       7.499995629000
       241    1       43.935500000000      17.756321739900       7.499995629000
       242    1       39.541950000000      25.366171739900       7.499995629000
       243    2       39.541950000000      20.292928260100       8.120504371000
       244    2       43.935500000000      27.902778260100       8.120504371000
       245    1       41.738725000000      21.561246739900       7.499995629000
       246    1       37.345175000000      29.171096739900       7.499995629000
       247    1       37.345175000000      21.561246739900       7.499995629000
       248    1       41.738725000000      29.171096739900       7.499995629000
       249    2       41.738725000000      16.488003260100       8.120504371000
       250    2       37.345175000000      24.097853260100       8.120504371000
       251    2       43.935500000000      20.292928260100       8.120504371000
       252    2       39.541950000000      27.902778260100       8.120504371000
       253    2       37.345175000000      16.488003260100       8.120504371000
       254    2       41.738725000000      24.097853260100       8.120504371000
       255    1       39.541950000000      17.756321739900       7.499995629000
       256    1       43.935500000000      25.366171739900       7.499995629000
       257    1       52.722600000000      17.756321739900       7.499995629000
       258    1       48.329050000000      25.366171739900       7.499995629000
       259    2       48.329050000000      20.292928260100       8.120504371000
       260    2       52.722600000000      27.902778260100       8.120504371000
       261    1       50.525825000000      21.561246739900       7.499995629000
       262    1       46.132275000000      29.171096739900       7.499995629000
       263    1       46.132275000000      21.561246739900       7.499995629000
       264    1       50.525825000000      29.171096739900       7.499995629000
       265    2       50.525825000000      16.488003260100       8.120504371000
       266    2       46.132275000000      24.097853260100       8.120504371000
       267    2       52.722600000000      20.292928260100       8.120504371000
       268    2       48.329050000000      27.902778260100       8.120504371000
       269    2       46.132275000000      16.488003260100       8.120504371000
       270    2       50.525825000000      24.097853260100       8.120504371000
       271    1       48.329050000000      17.756321739900       7.499995629000
       272    1       52.722600000000      25.366171739900       7.499995629000
       273    1       61.509700000000      17.756321739900       7.499995629000
       274    1       57.116150000000      25.366171739900       7.499995629000
       275    2       57.116150000000      20.292928260100       8.120504371000
       276    2       61.509700000000      27.902778260100       8.120504371000
       277    1       59.312925000000      21.561246739900       7.499995629000
       278    1       54.919375000000      29.171096739900       7.499995629000
       279    1       54.919375000000      21.561246739900       7.499995629000
       280    1       59.312925000000      29.171096739900       7.499995629000
       281    2       59.312925000000      16.488003260100       8.120504371000
       282    2       54.919375000000      24.097853260100       8.120504371000
       283    2       61.509700000000      20.292928260100       8.120504371000
       284    2       57.116150000000      27.902778260100       8.120504371000
       285    2       54.919375000000      16.488003260100       8.120504371000
       286    2       59.312925000000      24.097853260100       8.120504371000
       287    1       57.116150000000      17.756321739900       7.499995629000
       288    1       61.509700000000      25.366171739900       7.499995629000
       289    1       70.296800000000      17.756321739900       7.499995629000
       290    1       65.903250000000      25.366171739900       7.499995629000
       291    2       65.903250000000      20.292928260100       8.120504371000
       292    2       70.296800000000      27.902778260100       8.120504371000
       293    1       68.100025000000      21.561246739900       7.499995629000
       294    1       63.706475000000      29.171096739900       7.499995629000
       295    1       63.706475000000      21.561246739900       7.499995629000
       296    1       68.100025000000      29.171096739900       7.499995629000
       297    2       68.100025000000      16.488003260100       8.120504371000
       298    2       63.706475000000      24.097853260100       8.120504371000
       299    2       70.296800000000      20.292928260100       8.120504371000
       300    2       65.903250000000      27.902778260100       8.120504371000
       301    2       63.706475000000      16.488003260100       8.120504371000
       302    2       68.100025000000      24.097853260100       8.120504371000
       303    1       65.903250000000      17.756321739900       7.499995629000
       304    1       70.296800000000      25.366171739900       7.499995629000
       305    1       79.083900000000      17.756321739900       7.499995629000
       306    1       74.690350000000      25.366171739900       7.499995629000
       307    2       74.690350000000      20.292928260100       8.120504371000
       308    2       79.083900000000      27.902778260100       8.120504371000
       309    1       76.887125000000      21.561246739900       7.499995629000
       310    1       72.493575000000      29.171096739900       7.499995629000
       311    1       72.493575000000      21.561246739900       7.499995629000
       312    1       76.887125000000      29.171096739900       7.499995629000
       313    2       76.887125000000      16.488003260100       8.120504371000
       314    2       72.493575000000      24.097853260100       8.120504371000
       315    2       79.083900000000      20.292928260100       8.120504371000
       316    2       74.690350000000      27.902778260100       8.120504371000
       317    2       72.493575000000      16.488003260100       8.120504371000
       318    2       76.887125000000      24.097853260100       8.120504371000
       319    1       74.690350000000      17.756321739900       7.499995629000
       320    1       79.083900000000      25.366171739900       7.499995629000
       321    1       87.871000000000      17.756321739900       7.499995629000
       322    1       83.477450000000      25.366171739900       7.499995629000
       323    2       83.477450000000      20.292928260100       8.120504371000
       324    2       87.871000000000      27.902778260100       8.120504371000
       325    1       85.674225000000      21.561246739900       7.499995629000
       326    1       81.280675000000      29.171096739900       7.499995629000
       327    1       81.280675000000      21.561246739900       7.499995629000
       328    1       85.674225000000      29.171096739900       7.499995629000
       329    2       85.674225000000      16.488003260100       8.120504371000
       330    2       81.280675000000      24.097853260100       8.120504371000
       331    2       87.871000000000      20.292928260100       8.120504371000
       332    2       83.477450000000      27.902778260100       8.120504371000
       333    2       81.280675000000      16.488003260100       8.120504371000
       334    2       85.674225000000      24.097853260100       8.120504371000
       335    1       83.477450000000      17.756321739900       7.499995629000
       336    1       87.871000000000      25.366171739900       7.499995629000
       337    1       96.658100000000      17.756321739900       7.499995629000
       338    1       92.264550000000      25.366171739900       7.499995629000
       339    2       92.264550000000      20.292928260100       8.120504371000
       340    2       96.658100000000      27.902778260100       8.120504371000
       341    1       94.461325000000      21.561246739900       7.499995629000
       342    1       90.067775000000      29.171096739900       7.499995629000
       343    1       90.067775000000      21.561246739900       7.499995629000
       344    1       94.461325000000      29.171096739900       7.499995629000
       345    2       94.461325000000      16.488003260100       8.120504371000
       346    2       90.067775000000      24.097853260100       8.120504371000
       347    2       96.658100000000      20.292928260100       8.120504371000
       348    2       92.264550000000      27.902778260100       8.120504371000
       349    2       90.067775000000      16.488003260100       8.120504371000
       350    2       94.461325000000      24.097853260100       8.120504371000
       351    1       92.264550000000      17.756321739900       7.499995629000
       352    1       96.658100000000      25.366171739900       7.499995629000
       353    1        8.787100000000      32.976021739900       7.499995629000
       354    1        4.393550000000      40.585871739900       7.499995629000
       355    2        4.393550000000      35.512628260100       8.120504371000
       356    2        8.787100000000      43.122478260100       8.120504371000
       357    1        6.590325000000      36.780946739900       7.499995629000
       358    1        2.196775000000      44.390796739900       7.499995629000
       359    1        2.196775000000      36.780946739900       7.499995629000
       360    1        6.590325000000      44.390796739900       7.499995629000
       361    2        6.590325000000      31.707703260100       8.120504371000
       362    2        2.196775000000      39.317553260100       8.120504371000
       363    2        8.787100000000      35.512628260100       8.120504371000
       364    2        4.393550000000      43.122478260100       8.120504371000
       365    2        2.196775000000      31.707703260100       8.120504371000
       366    2        6.590325000000      39.317553260100       8.120504371000
       367    1        4.393550000000      32.976021739900       7.499995629000
       368    1        8.787100000000      40.585871739900       7.499995629000
       369    1       17.574200000000      32.976021739900       7.499995629000
       370    1       13.180650000000      40.585871739900       7.499995629000