 # As16
  
        1792  atoms
           1  atom types
 
      0.000000000000     101.010000000000  xlo xhi
      0.000000000000      99.974400000000  ylo yhi
      0.000000000000      15.458800000000  zlo zhi
 
Masses
 
            1   74.92160000             # As
 
Atoms # atomic
 
         1    1        7.215000000000      12.496800000000       8.427442114000
         2    1        3.607500000000       6.248400000000       8.427442114000
         3    1        5.411250000000       1.041395834400       7.031357886000
         4    1        1.803750000000       7.289795834400       7.031357886000
         5    1        3.607500000000       4.165595834400       7.031357886000
         6    1        0.000000000000      10.413995834400       7.031357886000
         7    1        1.803750000000       3.124200000000       8.427442114000
         8    1        7.215000000000       4.165595834400       7.031357886000
         9    1        5.411250000000       3.124200000000       8.427442114000
        10    1        1.803750000000       1.041395834400       7.031357886000
        11    1        1.803750000000       9.372600000000       8.427442114000
        12    1        3.607500000000      10.413995834400       7.031357886000
        13    1        5.411250000000       9.372600000000       8.427442114000
        14    1        5.411250000000       7.289795834400       7.031357886000
        15    1        3.607500000000      12.496800000000       8.427442114000
        16    1        7.215000000000       6.248400000000       8.427442114000
        17    1       14.430000000000      12.496800000000       8.427442114000
        18    1       10.822500000000       6.248400000000       8.427442114000
        19    1       12.626250000000       1.041395834400       7.031357886000
        20    1        9.018750000000       7.289795834400       7.031357886000
        21    1       10.822500000000       4.165595834400       7.031357886000
        22    1        7.215000000000      10.413995834400       7.031357886000
        23    1        9.018750000000       3.124200000000       8.427442114000
        24    1       14.430000000000       4.165595834400       7.031357886000
        25    1       12.626250000000       3.124200000000       8.427442114000
        26    1        9.018750000000       1.041395834400       7.031357886000
        27    1        9.018750000000       9.372600000000       8.427442114000
        28    1       10.822500000000      10.413995834400       7.031357886000
        29    1       12.626250000000       9.372600000000       8.427442114000
        30    1       12.626250000000       7.289795834400       7.031357886000
        31    1       10.822500000000      12.496800000000       8.427442114000
        32    1       14.430000000000       6.248400000000       8.427442114000
        33    1       21.645000000000      12.496800000000       8.427442114000
        34    1       18.037500000000       6.248400000000       8.427442114000
        35    1       19.841250000000       1.041395834400       7.031357886000
        36    1       16.233750000000       7.289795834400       7.031357886000
        37    1       18.037500000000       4.165595834400       7.031357886000
        38    1       14.430000000000      10.413995834400       7.031357886000
        39    1       16.233750000000       3.124200000000       8.427442114000
        40    1       21.645000000000       4.165595834400       7.031357886000
        41    1       19.841250000000       3.124200000000       8.427442114000
        42    1       16.233750000000       1.041395834400       7.031357886000
        43    1       16.233750000000       9.372600000000       8.427442114000
        44    1       18.037500000000      10.413995834400       7.031357886000
        45    1       19.841250000000       9.372600000000       8.427442114000
        46    1       19.841250000000       7.289795834400       7.031357886000
        47    1       18.037500000000      12.496800000000       8.427442114000
        48    1       21.645000000000       6.248400000000       8.427442114000
        49    1       28.860000000000      12.496800000000       8.427442114000
        50    1       25.252500000000       6.248400000000       8.427442114000
        51    1       27.056250000000       1.041395834400       7.031357886000
        52    1       23.448750000000       7.289795834400       7.031357886000
        53    1       25.252500000000       4.165595834400       7.031357886000
        54    1       21.645000000000      10.413995834400       7.031357886000
        55    1       23.448750000000       3.124200000000       8.427442114000
        56    1       28.860000000000       4.165595834400       7.031357886000
        57    1       27.056250000000       3.124200000000       8.427442114000
        58    1       23.448750000000       1.041395834400       7.031357886000
        59    1       23.448750000000       9.372600000000       8.427442114000
        60    1       25.252500000000      10.413995834400       7.031357886000
        61    1       27.056250000000       9.372600000000       8.427442114000
        62    1       27.056250000000       7.289795834400       7.031357886000
        63    1       25.252500000000      12.496800000000       8.427442114000
        64    1       28.860000000000       6.248400000000       8.427442114000
        65    1       36.075000000000      12.496800000000       8.427442114000
        66    1       32.467500000000       6.248400000000       8.427442114000
        67    1       34.271250000000       1.041395834400       7.031357886000
        68    1       30.663750000000       7.289795834400       7.031357886000
        69    1       32.467500000000       4.165595834400       7.031357886000
        70    1       28.860000000000      10.413995834400       7.031357886000
        71    1       30.663750000000       3.124200000000       8.427442114000
        72    1       36.075000000000       4.165595834400       7.031357886000
        73    1       34.271250000000       3.124200000000       8.427442114000
        74    1       30.663750000000       1.041395834400       7.031357886000
        75    1       30.663750000000       9.372600000000       8.427442114000
        76    1       32.467500000000      10.413995834400       7.031357886000
        77    1       34.271250000000       9.372600000000       8.427442114000
        78    1       34.271250000000       7.289795834400       7.031357886000
        79    1       32.467500000000      12.496800000000       8.427442114000
        80    1       36.075000000000       6.248400000000       8.427442114000
        81    1       43.290000000000      12.496800000000       8.427442114000
        82    1       39.682500000000       6.248400000000       8.427442114000
        83    1       41.486250000000       1.041395834400       7.031357886000
        84    1       37.878750000000       7.289795834400       7.031357886000
        85    1       39.682500000000       4.165595834400       7.031357886000
        86    1       36.075000000000      10.413995834400       7.031357886000
        87    1       37.878750000000       3.124200000000       8.427442114000
        88    1       43.290000000000       4.165595834400       7.031357886000
        89    1       41.486250000000       3.124200000000       8.427442114000
        90    1       37.878750000000       1.041395834400       7.031357886000
        91    1       37.878750000000       9.372600000000       8.427442114000
        92    1       39.682500000000      10.413995834400       7.031357886000
        93    1       41.486250000000       9.372600000000       8.427442114000
        94    1       41.486250000000       7.289795834400       7.031357886000
        95    1       39.682500000000      12.496800000000       8.427442114000
        96    1       43.290000000000       6.248400000000       8.427442114000
        97    1       50.505000000000      12.496800000000       8.427442114000
        98    1       46.897500000000       6.248400000000       8.427442114000
        99    1       48.701250000000       1.041395834400       7.031357886000
       100    1       45.093750000000       7.289795834400       7.031357886000
       101    1       46.897500000000       4.165595834400       7.031357886000
       102    1       43.290000000000      10.413995834400       7.031357886000
       103    1       45.093750000000       3.124200000000       8.427442114000
       104    1       50.505000000000       4.165595834400       7.031357886000
       105    1       48.701250000000       3.124200000000       8.427442114000
       106    1       45.093750000000       1.041395834400       7.031357886000
       107    1       45.093750000000       9.372600000000       8.427442114000
       108    1       46.897500000000      10.413995834400       7.031357886000
       109    1       48.701250000000       9.372600000000       8.427442114000
       110    1       48.701250000000       7.289795834400       7.031357886000
       111    1       46.897500000000      12.496800000000       8.427442114000
       112    1       50.505000000000       6.248400000000       8.427442114000
       113    1       57.720000000000      12.496800000000       8.427442114000
       114    1       54.112500000000       6.248400000000       8.427442114000
       115    1       55.916250000000       1.041395834400       7.031357886000
       116    1       52.308750000000       7.289795834400       7.031357886000
       117    1       54.112500000000       4.165595834400       7.031357886000
       118    1       50.505000000000      10.413995834400       7.031357886000
       119    1       52.308750000000       3.124200000000       8.427442114000
       120    1       57.720000000000       4.165595834400       7.031357886000
       121    1       55.916250000000       3.124200000000       8.427442114000
       122    1       52.308750000000       1.041395834400       7.031357886000
       123    1       52.308750000000       9.372600000000       8.427442114000
       124    1       54.112500000000      10.413995834400       7.031357886000
       125    1       55.916250000000       9.372600000000       8.427442114000
       126    1       55.916250000000       7.289795834400       7.031357886000
       127    1       54.112500000000      12.496800000000       8.427442114000
       128    1       57.720000000000       6.248400000000       8.427442114000
       129    1       64.935000000000      12.496800000000       8.427442114000
       130    1       61.327500000000       6.248400000000       8.427442114000
       131    1       63.131250000000       1.041395834400       7.031357886000
       132    1       59.523750000000       7.289795834400       7.031357886000
       133    1       61.327500000000       4.165595834400       7.031357886000
       134    1       57.720000000000      10.413995834400       7.031357886000
       135    1       59.523750000000       3.124200000000       8.427442114000
       136    1       64.935000000000       4.165595834400       7.031357886000
       137    1       63.131250000000       3.124200000000       8.427442114000
       138    1       59.523750000000       1.041395834400       7.031357886000
       139    1       59.523750000000       9.372600000000       8.427442114000
       140    1       61.327500000000      10.413995834400       7.031357886000
       141    1       63.131250000000       9.372600000000       8.427442114000
       142    1       63.131250000000       7.289795834400       7.031357886000
       143    1       61.327500000000      12.496800000000       8.427442114000
       144    1       64.935000000000       6.248400000000       8.427442114000
       145    1       72.150000000000      12.496800000000       8.427442114000
       146    1       68.542500000000       6.248400000000       8.427442114000
       147    1       70.346250000000       1.041395834400       7.031357886000
       148    1       66.738750000000       7.289795834400       7.031357886000
       149    1       68.542500000000       4.165595834400       7.031357886000
       150    1       64.935000000000      10.413995834400       7.031357886000
       151    1       66.738750000000       3.124200000000       8.427442114000
       152    1       72.150000000000       4.165595834400       7.031357886000
       153    1       70.346250000000       3.124200000000       8.427442114000
       154    1       66.738750000000       1.041395834400       7.031357886000
       155    1       66.738750000000       9.372600000000       8.427442114000
       156    1       68.542500000000      10.413995834400       7.031357886000
       157    1       70.346250000000       9.372600000000       8.427442114000
       158    1       70.346250000000       7.289795834400       7.031357886000
       159    1       68.542500000000      12.496800000000       8.427442114000
       160    1       72.150000000000       6.248400000000       8.427442114000
       161    1       79.365000000000      12.496800000000       8.427442114000
       162    1       75.757500000000       6.248400000000       8.427442114000
       163    1       77.561250000000       1.041395834400       7.031357886000
       164    1       73.953750000000       7.289795834400       7.031357886000
       165    1       75.757500000000       4.165595834400       7.031357886000
       166    1       72.150000000000      10.413995834400       7.031357886000
       167    1       73.953750000000       3.124200000000       8.427442114000
       168    1       79.365000000000       4.165595834400       7.031357886000
       169    1       77.561250000000       3.124200000000       8.427442114000
       170    1       73.953750000000       1.041395834400       7.031357886000
       171    1       73.953750000000       9.372600000000       8.427442114000
       172    1       75.757500000000      10.413995834400       7.031357886000
       173    1       77.561250000000       9.372600000000       8.427442114000
       174    1       77.561250000000       7.289795834400       7.031357886000
       175    1       75.757500000000      12.496800000000       8.427442114000
       176    1       79.365000000000       6.248400000000       8.427442114000
       177    1       86.580000000000      12.496800000000       8.427442114000
       178    1       82.972500000000       6.248400000000       8.427442114000
       179    1       84.776250000000       1.041395834400       7.031357886000
       180    1       81.168750000000       7.289795834400       7.031357886000
       181    1       82.972500000000       4.165595834400       7.031357886000
       182    1       79.365000000000      10.413995834400       7.031357886000
       183    1       81.168750000000       3.124200000000       8.427442114000
       184    1       86.580000000000       4.165595834400       7.031357886000
       185    1       84.776250000000       3.124200000000       8.427442114000
       186    1       81.168750000000       1.041395834400       7.031357886000
       187    1       81.168750000000       9.372600000000       8.427442114000
       188    1       82.972500000000      10.413995834400       7.031357886000
       189    1       84.776250000000       9.372600000000       8.427442114000
       190    1       84.776250000000       7.289795834400       7.031357886000
       191    1       82.972500000000      12.496800000000       8.427442114000
       192    1       86.580000000000       6.248400000000       8.427442114000
       193    1       93.795000000000      12.496800000000       8.427442114000
       194    1       90.187500000000       6.248400000000       8.427442114000
       195    1       91.991250000000       1.041395834400       7.031357886000
       196    1       88.383750000000       7.289795834400       7.031357886000
       197    1       90.187500000000       4.165595834400       7.031357886000
       198    1       86.580000000000      10.413995834400       7.031357886000
       199    1       88.383750000000       3.124200000000       8.427442114000
       200    1       93.795000000000       4.165595834400       7.031357886000
       201    1       91.991250000000       3.124200000000       8.427442114000
       202    1       88.383750000000       1.041395834400       7.031357886000
       203    1       88.383750000000       9.372600000000       8.427442114000
       204    1       90.187500000000      10.413995834400       7.031357886000
       205    1       91.991250000000       9.372600000000       8.427442114000
       206    1       91.991250000000       7.289795834400       7.031357886000
       207    1       90.187500000000      12.496800000000       8.427442114000
       208    1       93.795000000000       6.248400000000       8.427442114000
       209    1      101.010000000000      12.496800000000       8.427442114000
       210    1       97.402500000000       6.248400000000       8.427442114000
       211    1       99.206250000000       1.041395834400       7.031357886000
       212    1       95.598750000000       7.289795834400       7.031357886000
       213    1       97.402500000000       4.165595834400       7.031357886000
       214    1       93.795000000000      10.413995834400       7.031357886000
       215    1       95.598750000000       3.124200000000       8.427442114000
       216    1      101.010000000000       4.165595834400       7.031357886000
       217    1       99.206250000000       3.124200000000       8.427442114000
       218    1       95.598750000000       1.041395834400       7.031357886000
       219    1       95.598750000000       9.372600000000       8.427442114000
       220    1       97.402500000000      10.413995834400       7.031357886000
       221    1       99.206250000000       9.372600000000       8.427442114000
       222    1       99.206250000000       7.289795834400       7.031357886000
       223    1       97.402500000000      12.496800000000       8.427442114000
       224    1      101.010000000000       6.248400000000       8.427442114000
       225    1        7.215000000000      24.993600000000       8.427442114000
       226    1        3.607500000000      18.745200000000       8.427442114000
       227    1        5.411250000000      13.538195834400       7.031357886000
       228    1        1.803750000000      19.786595834400       7.031357886000
       229    1        3.607500000000      16.662395834400       7.031357886000
       230    1        0.000000000000      22.910795834400       7.031357886000
       231    1        1.803750000000      15.621000000000       8.427442114000
       232    1        7.215000000000      16.662395834400       7.031357886000
       233    1        5.411250000000      15.621000000000       8.427442114000
       234    1        1.803750000000      13.538195834400       7.031357886000
       235    1        1.803750000000      21.869400000000       8.427442114000
       236    1        3.607500000000      22.910795834400       7.031357886000
       237    1        5.411250000000      21.869400000000       8.427442114000
       238    1        5.411250000000      19.786595834400       7.031357886000
       239    1        3.607500000000      24.993600000000       8.427442114000
       240    1        7.215000000000      18.745200000000       8.427442114000
       241    1       14.430000000000      24.993600000000       8.427442114000
       242    1       10.822500000000      18.745200000000       8.427442114000
       243    1       12.626250000000      13.538195834400       7.031357886000
       244    1        9.018750000000      19.786595834400       7.031357886000
       245    1       10.822500000000      16.662395834400       7.031357886000
       246    1        7.215000000000      22.910795834400       7.031357886000
       247    1        9.018750000000      15.621000000000       8.427442114000
       248    1       14.430000000000      16.662395834400       7.031357886000
       249    1       12.626250000000      15.621000000000       8.427442114000
       250    1        9.018750000000      13.538195834400       7.031357886000
       251    1        9.018750000000      21.869400000000       8.427442114000
       252    1       10.822500000000      22.910795834400       7.031357886000
       253    1       12.626250000000      21.869400000000       8.427442114000
       254    1       12.626250000000      19.786595834400       7.031357886000
       255    1       10.822500000000      24.993600000000       8.427442114000
       256    1       14.430000000000      18.745200000000       8.427442114000
       257    1       21.645000000000      24.993600000000       8.427442114000
       258    1       18.037500000000      18.745200000000       8.427442114000
       259    1       19.841250000000      13.538195834400       7.031357886000
       260    1       16.233750000000      19.786595834400       7.031357886000
       261    1       18.037500000000      16.662395834400       7.031357886000
       262    1       14.430000000000      22.910795834400       7.031357886000
       263    1       16.233750000000      15.621000000000       8.427442114000
       264    1       21.645000000000      16.662395834400       7.031357886000
       265    1       19.841250000000      15.621000000000       8.427442114000
       266    1       16.233750000000      13.538195834400       7.031357886000
       267    1       16.233750000000      21.869400000000       8.427442114000
       268    1       18.037500000000      22.910795834400       7.031357886000
       269    1       19.841250000000      21.869400000000       8.427442114000
       270    1       19.841250000000      19.786595834400       7.031357886000
       271    1       18.037500000000      24.993600000000       8.427442114000
       272    1       21.645000000000      18.745200000000       8.427442114000
       273    1       28.860000000000      24.993600000000       8.427442114000
       274    1       25.252500000000      18.745200000000       8.427442114000
       275    1       27.056250000000      13.538195834400       7.031357886000
       276    1       23.448750000000      19.786595834400       7.031357886000
       277    1       25.252500000000      16.662395834400       7.031357886000
       278    1       21.645000000000      22.910795834400       7.031357886000
       279    1       23.448750000000      15.621000000000       8.427442114000
       280    1       28.860000000000      16.662395834400       7.031357886000
       281    1       27.056250000000      15.621000000000       8.427442114000
       282    1       23.448750000000      13.538195834400       7.031357886000
       283    1       23.448750000000      21.869400000000       8.427442114000
       284    1       25.252500000000      22.910795834400       7.031357886000
       285    1       27.056250000000      21.869400000000       8.427442114000
       286    1       27.056250000000      19.786595834400       7.031357886000
       287    1       25.252500000000      24.993600000000       8.427442114000
       288    1       28.860000000000      18.745200000000       8.427442114000
       289    1       36.075000000000      24.993600000000       8.427442114000
       290    1       32.467500000000      18.745200000000       8.427442114000
       291    1       34.271250000000      13.538195834400       7.031357886000
       292    1       30.663750000000      19.786595834400       7.031357886000
       293    1       32.467500000000      16.662395834400       7.031357886000
       294    1       28.860000000000      22.910795834400       7.031357886000
       295    1       30.663750000000      15.621000000000       8.427442114000
       296    1       36.075000000000      16.662395834400       7.031357886000
       297    1       34.271250000000      15.621000000000       8.427442114000
       298    1       30.663750000000      13.538195834400       7.031357886000
       299    1       30.663750000000      21.869400000000       8.427442114000
       300    1       32.467500000000      22.910795834400       7.031357886000
       301    1       34.271250000000      21.869400000000       8.427442114000
       302    1       34.271250000000      19.786595834400       7.031357886000
       303    1       32.467500000000      24.993600000000       8.427442114000
       304    1       36.075000000000      18.745200000000       8.427442114000
       305    1       43.290000000000      24.993600000000       8.427442114000
       306    1       39.682500000000      18.745200000000       8.427442114000
       307    1       41.486250000000      13.538195834400       7.031357886000
       308    1       37.878750000000      19.786595834400       7.031357886000
       309    1       39.682500000000      16.662395834400       7.031357886000
       310    1       36.075000000000      22.910795834400       7.031357886000
       311    1       37.878750000000      15.621000000000       8.427442114000
       312    1       43.290000000000      16.662395834400       7.031357886000
       313    1       41.486250000000      15.621000000000       8.427442114000
       314    1       37.878750000000      13.538195834400       7.031357886000
       315    1       37.878750000000      21.869400000000       8.427442114000
       316    1       39.682500000000      22.910795834400       7.031357886000
       317    1       41.486250000000      21.869400000000       8.427442114000
       318    1       41.486250000000      19.786595834400       7.031357886000
       319    1       39.682500000000      24.993600000000       8.427442114000
       320    1       43.290000000000      18.745200000000       8.427442114000
       321    1       50.505000000000      24.993600000000       8.427442114000
       322    1       46.897500000000      18.745200000000       8.427442114000
       323    1       48.701250000000      13.538195834400       7.031357886000
       324    1       45.093750000000      19.786595834400       7.031357886000
       325    1       46.897500000000      16.662395834400       7.031357886000
       326    1       43.290000000000      22.910795834400       7.031357886000
       327    1       45.093750000000      15.621000000000       8.427442114000
       328    1       50.505000000000      16.662395834400       7.031357886000
       329    1       48.701250000000      15.621000000000       8.427442114000
       330    1       45.093750000000      13.538195834400       7.031357886000
       331    1       45.093750000000      21.869400000000       8.427442114000
       332    1       46.897500000000      22.910795834400       7.031357886000
       333    1       48.701250000000      21.869400000000       8.427442114000
       334    1       48.701250000000      19.786595834400       7.031357886000
       335    1       46.897500000000      24.993600000000       8.427442114000
       336    1       50.505000000000      18.745200000000       8.427442114000
       337    1       57.720000000000      24.993600000000       8.427442114000
       338    1       54.112500000000      18.745200000000       8.427442114000
       339    1       55.916250000000      13.538195834400       7.031357886000
       340    1       52.308750000000      19.786595834400       7.031357886000
       341    1       54.112500000000      16.662395834400       7.031357886000
       342    1       50.505000000000      22.910795834400       7.031357886000
       343    1       52.308750000000      15.621000000000       8.427442114000
       344    1       57.720000000000      16.662395834400       7.031357886000
       345    1       55.916250000000      15.621000000000       8.427442114000
       346    1       52.308750000000      13.538195834400       7.031357886000
       347    1       52.308750000000      21.869400000000       8.427442114000
       348    1       54.112500000000      22.910795834400       7.031357886000
       349    1       55.916250000000      21.869400000000       8.427442114000
       350    1       55.916250000000      19.786595834400       7.031357886000
       351    1       54.112500000000      24.993600000000       8.427442114000
       352    1       57.720000000000      18.745200000000       8.427442114000
       353    1       64.935000000000      24.993600000000       8.427442114000
       354    1       61.327500000000      18.745200000000       8.427442114000
       355    1       63.131250000000      13.538195834400       7.031357886000
       356    1       59.523750000000      19.786595834400       7.031357886000
       357    1       61.327500000000      16.662395834400       7.031357886000
       358    1       57.720000000000      22.910795834400       7.031357886000
       359    1       59.523750000000      15.621000000000       8.427442114000
       360    1       64.935000000000      16.662395834400       7.031357886000
       361    1       63.131250000000      15.621000000000       8.427442114000
       362    1       59.523750000000      13.538195834400       7.031357886000
       363    1       59.523750000000      21.869400000000       8.427442114000
       364    1       61.327500000000      22.910795834400       7.031357886000
       365    1       63.131250000000      21.869400000000       8.427442114000
       366    1       63.131250000000      19.786595834400       7.031357886000
       367    1       61.327500000000      24.993600000000       8.427442114000
       368    1       64.935000000000      18.745200000000       8.427442114000
       369    1       72.150000000000      24.993600000000       8.427442114000
       370    1       68.542500000000      18.745200000000       8.427442114000
       371    1       70.346250000000      13.538195834400       7.031357886000