 # Bi16
  
        1344  atoms
           1  atom types
 
      0.000000000000     104.084400000000  xlo xhi
      0.000000000000     105.163100000000  ylo yhi
      0.000000000000      16.746400000000  zlo zhi
 
Masses
 
            1   208.98040000            # Bi
 
Atoms # atomic
 
         1    1        8.673700000000       5.007761658900       7.508281932800
         2    1        4.336850000000      12.519411658900       7.508281932800
         3    1        4.336850000000       2.503888341100       9.238118067200
         4    1        8.673700000000      10.015538341100       9.238118067200
         5    1        2.168425000000       6.259713341100       9.238118067200
         6    1        6.505275000000       6.259713341100       9.238118067200
         7    1        2.168425000000      13.771363341100       9.238118067200
         8    1        6.505275000000      13.771363341100       9.238118067200
         9    1        8.673700000000       2.503888341100       9.238118067200
        10    1        4.336850000000      10.015538341100       9.238118067200
        11    1        6.505275000000       1.251936658900       7.508281932800
        12    1        2.168425000000       8.763586658900       7.508281932800
        13    1        4.336850000000       5.007761658900       7.508281932800
        14    1        8.673700000000      12.519411658900       7.508281932800
        15    1        2.168425000000       1.251936658900       7.508281932800
        16    1        6.505275000000       8.763586658900       7.508281932800
        17    1       17.347400000000       5.007761658900       7.508281932800
        18    1       13.010550000000      12.519411658900       7.508281932800
        19    1       13.010550000000       2.503888341100       9.238118067200
        20    1       17.347400000000      10.015538341100       9.238118067200
        21    1       10.842125000000       6.259713341100       9.238118067200
        22    1       15.178975000000       6.259713341100       9.238118067200
        23    1       10.842125000000      13.771363341100       9.238118067200
        24    1       15.178975000000      13.771363341100       9.238118067200
        25    1       17.347400000000       2.503888341100       9.238118067200
        26    1       13.010550000000      10.015538341100       9.238118067200
        27    1       15.178975000000       1.251936658900       7.508281932800
        28    1       10.842125000000       8.763586658900       7.508281932800
        29    1       13.010550000000       5.007761658900       7.508281932800
        30    1       17.347400000000      12.519411658900       7.508281932800
        31    1       10.842125000000       1.251936658900       7.508281932800
        32    1       15.178975000000       8.763586658900       7.508281932800
        33    1       26.021100000000       5.007761658900       7.508281932800
        34    1       21.684250000000      12.519411658900       7.508281932800
        35    1       21.684250000000       2.503888341100       9.238118067200
        36    1       26.021100000000      10.015538341100       9.238118067200
        37    1       19.515825000000       6.259713341100       9.238118067200
        38    1       23.852675000000       6.259713341100       9.238118067200
        39    1       19.515825000000      13.771363341100       9.238118067200
        40    1       23.852675000000      13.771363341100       9.238118067200
        41    1       26.021100000000       2.503888341100       9.238118067200
        42    1       21.684250000000      10.015538341100       9.238118067200
        43    1       23.852675000000       1.251936658900       7.508281932800
        44    1       19.515825000000       8.763586658900       7.508281932800
        45    1       21.684250000000       5.007761658900       7.508281932800
        46    1       26.021100000000      12.519411658900       7.508281932800
        47    1       19.515825000000       1.251936658900       7.508281932800
        48    1       23.852675000000       8.763586658900       7.508281932800
        49    1       34.694800000000       5.007761658900       7.508281932800
        50    1       30.357950000000      12.519411658900       7.508281932800
        51    1       30.357950000000       2.503888341100       9.238118067200
        52    1       34.694800000000      10.015538341100       9.238118067200
        53    1       28.189525000000       6.259713341100       9.238118067200
        54    1       32.526375000000       6.259713341100       9.238118067200
        55    1       28.189525000000      13.771363341100       9.238118067200
        56    1       32.526375000000      13.771363341100       9.238118067200
        57    1       34.694800000000       2.503888341100       9.238118067200
        58    1       30.357950000000      10.015538341100       9.238118067200
        59    1       32.526375000000       1.251936658900       7.508281932800
        60    1       28.189525000000       8.763586658900       7.508281932800
        61    1       30.357950000000       5.007761658900       7.508281932800
        62    1       34.694800000000      12.519411658900       7.508281932800
        63    1       28.189525000000       1.251936658900       7.508281932800
        64    1       32.526375000000       8.763586658900       7.508281932800
        65    1       43.368500000000       5.007761658900       7.508281932800
        66    1       39.031650000000      12.519411658900       7.508281932800
        67    1       39.031650000000       2.503888341100       9.238118067200
        68    1       43.368500000000      10.015538341100       9.238118067200
        69    1       36.863225000000       6.259713341100       9.238118067200
        70    1       41.200075000000       6.259713341100       9.238118067200
        71    1       36.863225000000      13.771363341100       9.238118067200
        72    1       41.200075000000      13.771363341100       9.238118067200
        73    1       43.368500000000       2.503888341100       9.238118067200
        74    1       39.031650000000      10.015538341100       9.238118067200
        75    1       41.200075000000       1.251936658900       7.508281932800
        76    1       36.863225000000       8.763586658900       7.508281932800
        77    1       39.031650000000       5.007761658900       7.508281932800
        78    1       43.368500000000      12.519411658900       7.508281932800
        79    1       36.863225000000       1.251936658900       7.508281932800
        80    1       41.200075000000       8.763586658900       7.508281932800
        81    1       52.042200000000       5.007761658900       7.508281932800
        82    1       47.705350000000      12.519411658900       7.508281932800
        83    1       47.705350000000       2.503888341100       9.238118067200
        84    1       52.042200000000      10.015538341100       9.238118067200
        85    1       45.536925000000       6.259713341100       9.238118067200
        86    1       49.873775000000       6.259713341100       9.238118067200
        87    1       45.536925000000      13.771363341100       9.238118067200
        88    1       49.873775000000      13.771363341100       9.238118067200
        89    1       52.042200000000       2.503888341100       9.238118067200
        90    1       47.705350000000      10.015538341100       9.238118067200
        91    1       49.873775000000       1.251936658900       7.508281932800
        92    1       45.536925000000       8.763586658900       7.508281932800
        93    1       47.705350000000       5.007761658900       7.508281932800
        94    1       52.042200000000      12.519411658900       7.508281932800
        95    1       45.536925000000       1.251936658900       7.508281932800
        96    1       49.873775000000       8.763586658900       7.508281932800
        97    1       60.715900000000       5.007761658900       7.508281932800
        98    1       56.379050000000      12.519411658900       7.508281932800
        99    1       56.379050000000       2.503888341100       9.238118067200
       100    1       60.715900000000      10.015538341100       9.238118067200
       101    1       54.210625000000       6.259713341100       9.238118067200
       102    1       58.547475000000       6.259713341100       9.238118067200
       103    1       54.210625000000      13.771363341100       9.238118067200
       104    1       58.547475000000      13.771363341100       9.238118067200
       105    1       60.715900000000       2.503888341100       9.238118067200
       106    1       56.379050000000      10.015538341100       9.238118067200
       107    1       58.547475000000       1.251936658900       7.508281932800
       108    1       54.210625000000       8.763586658900       7.508281932800
       109    1       56.379050000000       5.007761658900       7.508281932800
       110    1       60.715900000000      12.519411658900       7.508281932800
       111    1       54.210625000000       1.251936658900       7.508281932800
       112    1       58.547475000000       8.763586658900       7.508281932800
       113    1       69.389600000000       5.007761658900       7.508281932800
       114    1       65.052750000000      12.519411658900       7.508281932800
       115    1       65.052750000000       2.503888341100       9.238118067200
       116    1       69.389600000000      10.015538341100       9.238118067200
       117    1       62.884325000000       6.259713341100       9.238118067200
       118    1       67.221175000000       6.259713341100       9.238118067200
       119    1       62.884325000000      13.771363341100       9.238118067200
       120    1       67.221175000000      13.771363341100       9.238118067200
       121    1       69.389600000000       2.503888341100       9.238118067200
       122    1       65.052750000000      10.015538341100       9.238118067200
       123    1       67.221175000000       1.251936658900       7.508281932800
       124    1       62.884325000000       8.763586658900       7.508281932800
       125    1       65.052750000000       5.007761658900       7.508281932800
       126    1       69.389600000000      12.519411658900       7.508281932800
       127    1       62.884325000000       1.251936658900       7.508281932800
       128    1       67.221175000000       8.763586658900       7.508281932800
       129    1       78.063300000000       5.007761658900       7.508281932800
       130    1       73.726450000000      12.519411658900       7.508281932800
       131    1       73.726450000000       2.503888341100       9.238118067200
       132    1       78.063300000000      10.015538341100       9.238118067200
       133    1       71.558025000000       6.259713341100       9.238118067200
       134    1       75.894875000000       6.259713341100       9.238118067200
       135    1       71.558025000000      13.771363341100       9.238118067200
       136    1       75.894875000000      13.771363341100       9.238118067200
       137    1       78.063300000000       2.503888341100       9.238118067200
       138    1       73.726450000000      10.015538341100       9.238118067200
       139    1       75.894875000000       1.251936658900       7.508281932800
       140    1       71.558025000000       8.763586658900       7.508281932800
       141    1       73.726450000000       5.007761658900       7.508281932800
       142    1       78.063300000000      12.519411658900       7.508281932800
       143    1       71.558025000000       1.251936658900       7.508281932800
       144    1       75.894875000000       8.763586658900       7.508281932800
       145    1       86.737000000000       5.007761658900       7.508281932800
       146    1       82.400150000000      12.519411658900       7.508281932800
       147    1       82.400150000000       2.503888341100       9.238118067200
       148    1       86.737000000000      10.015538341100       9.238118067200
       149    1       80.231725000000       6.259713341100       9.238118067200
       150    1       84.568575000000       6.259713341100       9.238118067200
       151    1       80.231725000000      13.771363341100       9.238118067200
       152    1       84.568575000000      13.771363341100       9.238118067200
       153    1       86.737000000000       2.503888341100       9.238118067200
       154    1       82.400150000000      10.015538341100       9.238118067200
       155    1       84.568575000000       1.251936658900       7.508281932800
       156    1       80.231725000000       8.763586658900       7.508281932800
       157    1       82.400150000000       5.007761658900       7.508281932800
       158    1       86.737000000000      12.519411658900       7.508281932800
       159    1       80.231725000000       1.251936658900       7.508281932800
       160    1       84.568575000000       8.763586658900       7.508281932800
       161    1       95.410700000000       5.007761658900       7.508281932800
       162    1       91.073850000000      12.519411658900       7.508281932800
       163    1       91.073850000000       2.503888341100       9.238118067200
       164    1       95.410700000000      10.015538341100       9.238118067200
       165    1       88.905425000000       6.259713341100       9.238118067200
       166    1       93.242275000000       6.259713341100       9.238118067200
       167    1       88.905425000000      13.771363341100       9.238118067200
       168    1       93.242275000000      13.771363341100       9.238118067200
       169    1       95.410700000000       2.503888341100       9.238118067200
       170    1       91.073850000000      10.015538341100       9.238118067200
       171    1       93.242275000000       1.251936658900       7.508281932800
       172    1       88.905425000000       8.763586658900       7.508281932800
       173    1       91.073850000000       5.007761658900       7.508281932800
       174    1       95.410700000000      12.519411658900       7.508281932800
       175    1       88.905425000000       1.251936658900       7.508281932800
       176    1       93.242275000000       8.763586658900       7.508281932800
       177    1      104.084400000000       5.007761658900       7.508281932800
       178    1       99.747550000000      12.519411658900       7.508281932800
       179    1       99.747550000000       2.503888341100       9.238118067200
       180    1      104.084400000000      10.015538341100       9.238118067200
       181    1       97.579125000000       6.259713341100       9.238118067200
       182    1      101.915975000000       6.259713341100       9.238118067200
       183    1       97.579125000000      13.771363341100       9.238118067200
       184    1      101.915975000000      13.771363341100       9.238118067200
       185    1      104.084400000000       2.503888341100       9.238118067200
       186    1       99.747550000000      10.015538341100       9.238118067200
       187    1      101.915975000000       1.251936658900       7.508281932800
       188    1       97.579125000000       8.763586658900       7.508281932800
       189    1       99.747550000000       5.007761658900       7.508281932800
       190    1      104.084400000000      12.519411658900       7.508281932800
       191    1       97.579125000000       1.251936658900       7.508281932800
       192    1      101.915975000000       8.763586658900       7.508281932800
       193    1        8.673700000000      20.031061658900       7.508281932800
       194    1        4.336850000000      27.542711658900       7.508281932800
       195    1        4.336850000000      17.527188341100       9.238118067200
       196    1        8.673700000000      25.038838341100       9.238118067200
       197    1        2.168425000000      21.283013341100       9.238118067200
       198    1        6.505275000000      21.283013341100       9.238118067200
       199    1        2.168425000000      28.794663341100       9.238118067200
       200    1        6.505275000000      28.794663341100       9.238118067200
       201    1        8.673700000000      17.527188341100       9.238118067200
       202    1        4.336850000000      25.038838341100       9.238118067200
       203    1        6.505275000000      16.275236658900       7.508281932800
       204    1        2.168425000000      23.786886658900       7.508281932800
       205    1        4.336850000000      20.031061658900       7.508281932800
       206    1        8.673700000000      27.542711658900       7.508281932800
       207    1        2.168425000000      16.275236658900       7.508281932800
       208    1        6.505275000000      23.786886658900       7.508281932800
       209    1       17.347400000000      20.031061658900       7.508281932800
       210    1       13.010550000000      27.542711658900       7.508281932800
       211    1       13.010550000000      17.527188341100       9.238118067200
       212    1       17.347400000000      25.038838341100       9.238118067200
       213    1       10.842125000000      21.283013341100       9.238118067200
       214    1       15.178975000000      21.283013341100       9.238118067200
       215    1       10.842125000000      28.794663341100       9.238118067200
       216    1       15.178975000000      28.794663341100       9.238118067200
       217    1       17.347400000000      17.527188341100       9.238118067200
       218    1       13.010550000000      25.038838341100       9.238118067200
       219    1       15.178975000000      16.275236658900       7.508281932800
       220    1       10.842125000000      23.786886658900       7.508281932800
       221    1       13.010550000000      20.031061658900       7.508281932800
       222    1       17.347400000000      27.542711658900       7.508281932800
       223    1       10.842125000000      16.275236658900       7.508281932800
       224    1       15.178975000000      23.786886658900       7.508281932800
       225    1       26.021100000000      20.031061658900       7.508281932800
       226    1       21.684250000000      27.542711658900       7.508281932800
       227    1       21.684250000000      17.527188341100       9.238118067200
       228    1       26.021100000000      25.038838341100       9.238118067200
       229    1       19.515825000000      21.283013341100       9.238118067200
       230    1       23.852675000000      21.283013341100       9.238118067200
       231    1       19.515825000000      28.794663341100       9.238118067200
       232    1       23.852675000000      28.794663341100       9.238118067200
       233    1       26.021100000000      17.527188341100       9.238118067200
       234    1       21.684250000000      25.038838341100       9.238118067200
       235    1       23.852675000000      16.275236658900       7.508281932800
       236    1       19.515825000000      23.786886658900       7.508281932800
       237    1       21.684250000000      20.031061658900       7.508281932800
       238    1       26.021100000000      27.542711658900       7.508281932800
       239    1       19.515825000000      16.275236658900       7.508281932800
       240    1       23.852675000000      23.786886658900       7.508281932800
       241    1       34.694800000000      20.031061658900       7.508281932800
       242    1       30.357950000000      27.542711658900       7.508281932800
       243    1       30.357950000000      17.527188341100       9.238118067200
       244    1       34.694800000000      25.038838341100       9.238118067200
       245    1       28.189525000000      21.283013341100       9.238118067200
       246    1       32.526375000000      21.283013341100       9.238118067200
       247    1       28.189525000000      28.794663341100       9.238118067200
       248    1       32.526375000000      28.794663341100       9.238118067200
       249    1       34.694800000000      17.527188341100       9.238118067200
       250    1       30.357950000000      25.038838341100       9.238118067200
       251    1       32.526375000000      16.275236658900       7.508281932800
       252    1       28.189525000000      23.786886658900       7.508281932800
       253    1       30.357950000000      20.031061658900       7.508281932800
       254    1       34.694800000000      27.542711658900       7.508281932800
       255    1       28.189525000000      16.275236658900       7.508281932800
       256    1       32.526375000000      23.786886658900       7.508281932800
       257    1       43.368500000000      20.031061658900       7.508281932800
       258    1       39.031650000000      27.542711658900       7.508281932800
       259    1       39.031650000000      17.527188341100       9.238118067200
       260    1       43.368500000000      25.038838341100       9.238118067200
       261    1       36.863225000000      21.283013341100       9.238118067200
       262    1       41.200075000000      21.283013341100       9.238118067200
       263    1       36.863225000000      28.794663341100       9.238118067200
       264    1       41.200075000000      28.794663341100       9.238118067200
       265    1       43.368500000000      17.527188341100       9.238118067200
       266    1       39.031650000000      25.038838341100       9.238118067200
       267    1       41.200075000000      16.275236658900       7.508281932800
       268    1       36.863225000000      23.786886658900       7.508281932800
       269    1       39.031650000000      20.031061658900       7.508281932800
       270    1       43.368500000000      27.542711658900       7.508281932800
       271    1       36.863225000000      16.275236658900       7.508281932800
       272    1       41.200075000000      23.786886658900       7.508281932800
       273    1       52.042200000000      20.031061658900       7.508281932800
       274    1       47.705350000000      27.542711658900       7.508281932800
       275    1       47.705350000000      17.527188341100       9.238118067200
       276    1       52.042200000000      25.038838341100       9.238118067200
       277    1       45.536925000000      21.283013341100       9.238118067200
       278    1       49.873775000000      21.283013341100       9.238118067200
       279    1       45.536925000000      28.794663341100       9.238118067200
       280    1       49.873775000000      28.794663341100       9.238118067200
       281    1       52.042200000000      17.527188341100       9.238118067200
       282    1       47.705350000000      25.038838341100       9.238118067200
       283    1       49.873775000000      16.275236658900       7.508281932800
       284    1       45.536925000000      23.786886658900       7.508281932800
       285    1       47.705350000000      20.031061658900       7.508281932800
       286    1       52.042200000000      27.542711658900       7.508281932800
       287    1       45.536925000000      16.275236658900       7.508281932800
       288    1       49.873775000000      23.786886658900       7.508281932800
       289    1       60.715900000000      20.031061658900       7.508281932800
       290    1       56.379050000000      27.542711658900       7.508281932800
       291    1       56.379050000000      17.527188341100       9.238118067200
       292    1       60.715900000000      25.038838341100       9.238118067200
       293    1       54.210625000000      21.283013341100       9.238118067200
       294    1       58.547475000000      21.283013341100       9.238118067200
       295    1       54.210625000000      28.794663341100       9.238118067200
       296    1       58.547475000000      28.794663341100       9.238118067200
       297    1       60.715900000000      17.527188341100       9.238118067200
       298    1       56.379050000000      25.038838341100       9.238118067200
       299    1       58.547475000000      16.275236658900       7.508281932800
       300    1       54.210625000000      23.786886658900       7.508281932800
       301    1       56.379050000000      20.031061658900       7.508281932800
       302    1       60.715900000000      27.542711658900       7.508281932800
       303    1       54.210625000000      16.275236658900       7.508281932800
       304    1       58.547475000000      23.786886658900       7.508281932800
       305    1       69.389600000000      20.031061658900       7.508281932800
       306    1       65.052750000000      27.542711658900       7.508281932800
       307    1       65.052750000000      17.527188341100       9.238118067200
       308    1       69.389600000000      25.038838341100       9.238118067200
       309    1       62.884325000000      21.283013341100       9.238118067200
       310    1       67.221175000000      21.283013341100       9.238118067200
       311    1       62.884325000000      28.794663341100       9.238118067200
       312    1       67.221175000000      28.794663341100       9.238118067200
       313    1       69.389600000000      17.527188341100       9.238118067200
       314    1       65.052750000000      25.038838341100       9.238118067200
       315    1       67.221175000000      16.275236658900       7.508281932800
       316    1       62.884325000000      23.786886658900       7.508281932800
       317    1       65.052750000000      20.031061658900       7.508281932800
       318    1       69.389600000000      27.542711658900       7.508281932800
       319    1       62.884325000000      16.275236658900       7.508281932800
       320    1       67.221175000000      23.786886658900       7.508281932800
       321    1       78.063300000000      20.031061658900       7.508281932800
       322    1       73.726450000000      27.542711658900       7.508281932800
       323    1       73.726450000000      17.527188341100       9.238118067200
       324    1       78.063300000000      25.038838341100       9.238118067200
       325    1       71.558025000000      21.283013341100       9.238118067200
       326    1       75.894875000000      21.283013341100       9.238118067200
       327    1       71.558025000000      28.794663341100       9.238118067200
       328    1       75.894875000000      28.794663341100       9.238118067200
       329    1       78.063300000000      17.527188341100       9.238118067200
       330    1       73.726450000000      25.038838341100       9.238118067200
       331    1       75.894875000000      16.275236658900       7.508281932800
       332    1       71.558025000000      23.786886658900       7.508281932800
       333    1       73.726450000000      20.031061658900       7.508281932800
       334    1       78.063300000000      27.542711658900       7.508281932800
       335    1       71.558025000000      16.275236658900       7.508281932800
       336    1       75.894875000000      23.786886658900       7.508281932800
       337    1       86.737000000000      20.031061658900       7.508281932800
       338    1       82.400150000000      27.542711658900       7.508281932800
       339    1       82.400150000000      17.527188341100       9.238118067200
       340    1       86.737000000000      25.038838341100       9.238118067200
       341    1       80.231725000000      21.283013341100       9.238118067200
       342    1       84.568575000000      21.283013341100       9.238118067200
       343    1       80.231725000000      28.794663341100       9.238118067200
       344    1       84.568575000000      28.794663341100       9.238118067200
       345    1       86.737000000000      17.527188341100       9.238118067200
       346    1       82.400150000000      25.038838341100       9.238118067200
       347    1       84.568575000000      16.275236658900       7.508281932800
       348    1       80.231725000000      23.786886658900       7.508281932800
       349    1       82.400150000000      20.031061658900       7.508281932800
       350    1       86.737000000000      27.542711658900       7.508281932800
       351    1       80.231725000000      16.275236658900       7.508281932800
       352    1       84.568575000000      23.786886658900       7.508281932800
       353    1       95.410700000000      20.031061658900       7.508281932800
       354    1       91.073850000000      27.542711658900       7.508281932800
       355    1       91.073850000000      17.527188341100       9.238118067200
       356    1       95.410700000000      25.038838341100       9.238118067200
       357    1       88.905425000000      21.283013341100       9.238118067200
       358    1       93.242275000000      21.283013341100       9.238118067200
       359    1       88.905425000000      28.794663341100       9.238118067200
       360    1       93.242275000000      28.794663341100       9.238118067200
       361    1       95.410700000000      17.527188341100       9.238118067200
       362    1       91.073850000000      25.038838341100       9.238118067200
       363    1       93.242275000000      16.275236658900       7.508281932800
       364    1       88.905425000000      23.786886658900       7.508281932800
       365    1       91.073850000000      20.031061658900       7.508281932800
       366    1       95.410700000000      27.542711658900       7.508281932800
       367    1       88.905425000000      16.275236658900       7.508281932800
       368    1       93.242275000000      23.786886658900       7.508281932800
       369    1      104.084400000000      20.031061658900       7.508281932800
       370    1       99.747550000000      27.542711658900       7.508281932800
       371    1       99.747550000000      17.527188341100       9.238118067200