 # C8 O8
  
        3840  atoms
           2  atom types
 
      0.000000000000      98.160000000000  xlo xhi
      0.000000000000     102.010800000000  ylo yhi
      0.000000000000     106.000000000000  zlo zhi
 
Masses
 
            1   12.01100000             # C
            2   15.99900000             # O
 
Atoms # atomic
 
         1    1        2.454000000000       1.416819500300      53.000000000000
         2    2        4.908000000000       2.833630499700      53.818002000000
         3    1        0.000000000000       5.667269500300      53.000000000000
         4    2        2.454000000000       7.084080499700      53.818002000000
         5    2        1.227000000000       0.708405499700      53.818002000000
         6    2        3.681000000000       4.958855499700      53.818002000000
         7    1        3.681000000000       3.542044500300      53.000000000000
         8    1        1.227000000000       7.792494500300      53.000000000000
         9    1        0.000000000000       1.416819500300      53.000000000000
        10    1        2.454000000000       5.667269500300      53.000000000000
        11    2        2.454000000000       2.833630499700      53.818002000000
        12    2        4.908000000000       7.084080499700      53.818002000000
        13    1        1.227000000000       3.542044500300      53.000000000000
        14    1        3.681000000000       7.792494500300      53.000000000000
        15    2        3.681000000000       0.708405499700      53.818002000000
        16    2        1.227000000000       4.958855499700      53.818002000000
        17    1        7.362000000000       1.416819500300      53.000000000000
        18    2        9.816000000000       2.833630499700      53.818002000000
        19    1        4.908000000000       5.667269500300      53.000000000000
        20    2        7.362000000000       7.084080499700      53.818002000000
        21    2        6.135000000000       0.708405499700      53.818002000000
        22    2        8.589000000000       4.958855499700      53.818002000000
        23    1        8.589000000000       3.542044500300      53.000000000000
        24    1        6.135000000000       7.792494500300      53.000000000000
        25    1        4.908000000000       1.416819500300      53.000000000000
        26    1        7.362000000000       5.667269500300      53.000000000000
        27    2        7.362000000000       2.833630499700      53.818002000000
        28    2        9.816000000000       7.084080499700      53.818002000000
        29    1        6.135000000000       3.542044500300      53.000000000000
        30    1        8.589000000000       7.792494500300      53.000000000000
        31    2        8.589000000000       0.708405499700      53.818002000000
        32    2        6.135000000000       4.958855499700      53.818002000000
        33    1       12.270000000000       1.416819500300      53.000000000000
        34    2       14.724000000000       2.833630499700      53.818002000000
        35    1        9.816000000000       5.667269500300      53.000000000000
        36    2       12.270000000000       7.084080499700      53.818002000000
        37    2       11.043000000000       0.708405499700      53.818002000000
        38    2       13.497000000000       4.958855499700      53.818002000000
        39    1       13.497000000000       3.542044500300      53.000000000000
        40    1       11.043000000000       7.792494500300      53.000000000000
        41    1        9.816000000000       1.416819500300      53.000000000000
        42    1       12.270000000000       5.667269500300      53.000000000000
        43    2       12.270000000000       2.833630499700      53.818002000000
        44    2       14.724000000000       7.084080499700      53.818002000000
        45    1       11.043000000000       3.542044500300      53.000000000000
        46    1       13.497000000000       7.792494500300      53.000000000000
        47    2       13.497000000000       0.708405499700      53.818002000000
        48    2       11.043000000000       4.958855499700      53.818002000000
        49    1       17.178000000000       1.416819500300      53.000000000000
        50    2       19.632000000000       2.833630499700      53.818002000000
        51    1       14.724000000000       5.667269500300      53.000000000000
        52    2       17.178000000000       7.084080499700      53.818002000000
        53    2       15.951000000000       0.708405499700      53.818002000000
        54    2       18.405000000000       4.958855499700      53.818002000000
        55    1       18.405000000000       3.542044500300      53.000000000000
        56    1       15.951000000000       7.792494500300      53.000000000000
        57    1       14.724000000000       1.416819500300      53.000000000000
        58    1       17.178000000000       5.667269500300      53.000000000000
        59    2       17.178000000000       2.833630499700      53.818002000000
        60    2       19.632000000000       7.084080499700      53.818002000000
        61    1       15.951000000000       3.542044500300      53.000000000000
        62    1       18.405000000000       7.792494500300      53.000000000000
        63    2       18.405000000000       0.708405499700      53.818002000000
        64    2       15.951000000000       4.958855499700      53.818002000000
        65    1       22.086000000000       1.416819500300      53.000000000000
        66    2       24.540000000000       2.833630499700      53.818002000000
        67    1       19.632000000000       5.667269500300      53.000000000000
        68    2       22.086000000000       7.084080499700      53.818002000000
        69    2       20.859000000000       0.708405499700      53.818002000000
        70    2       23.313000000000       4.958855499700      53.818002000000
        71    1       23.313000000000       3.542044500300      53.000000000000
        72    1       20.859000000000       7.792494500300      53.000000000000
        73    1       19.632000000000       1.416819500300      53.000000000000
        74    1       22.086000000000       5.667269500300      53.000000000000
        75    2       22.086000000000       2.833630499700      53.818002000000
        76    2       24.540000000000       7.084080499700      53.818002000000
        77    1       20.859000000000       3.542044500300      53.000000000000
        78    1       23.313000000000       7.792494500300      53.000000000000
        79    2       23.313000000000       0.708405499700      53.818002000000
        80    2       20.859000000000       4.958855499700      53.818002000000
        81    1       26.994000000000       1.416819500300      53.000000000000
        82    2       29.448000000000       2.833630499700      53.818002000000
        83    1       24.540000000000       5.667269500300      53.000000000000
        84    2       26.994000000000       7.084080499700      53.818002000000
        85    2       25.767000000000       0.708405499700      53.818002000000
        86    2       28.221000000000       4.958855499700      53.818002000000
        87    1       28.221000000000       3.542044500300      53.000000000000
        88    1       25.767000000000       7.792494500300      53.000000000000
        89    1       24.540000000000       1.416819500300      53.000000000000
        90    1       26.994000000000       5.667269500300      53.000000000000
        91    2       26.994000000000       2.833630499700      53.818002000000
        92    2       29.448000000000       7.084080499700      53.818002000000
        93    1       25.767000000000       3.542044500300      53.000000000000
        94    1       28.221000000000       7.792494500300      53.000000000000
        95    2       28.221000000000       0.708405499700      53.818002000000
        96    2       25.767000000000       4.958855499700      53.818002000000
        97    1       31.902000000000       1.416819500300      53.000000000000
        98    2       34.356000000000       2.833630499700      53.818002000000
        99    1       29.448000000000       5.667269500300      53.000000000000
       100    2       31.902000000000       7.084080499700      53.818002000000
       101    2       30.675000000000       0.708405499700      53.818002000000
       102    2       33.129000000000       4.958855499700      53.818002000000
       103    1       33.129000000000       3.542044500300      53.000000000000
       104    1       30.675000000000       7.792494500300      53.000000000000
       105    1       29.448000000000       1.416819500300      53.000000000000
       106    1       31.902000000000       5.667269500300      53.000000000000
       107    2       31.902000000000       2.833630499700      53.818002000000
       108    2       34.356000000000       7.084080499700      53.818002000000
       109    1       30.675000000000       3.542044500300      53.000000000000
       110    1       33.129000000000       7.792494500300      53.000000000000
       111    2       33.129000000000       0.708405499700      53.818002000000
       112    2       30.675000000000       4.958855499700      53.818002000000
       113    1       36.810000000000       1.416819500300      53.000000000000
       114    2       39.264000000000       2.833630499700      53.818002000000
       115    1       34.356000000000       5.667269500300      53.000000000000
       116    2       36.810000000000       7.084080499700      53.818002000000
       117    2       35.583000000000       0.708405499700      53.818002000000
       118    2       38.037000000000       4.958855499700      53.818002000000
       119    1       38.037000000000       3.542044500300      53.000000000000
       120    1       35.583000000000       7.792494500300      53.000000000000
       121    1       34.356000000000       1.416819500300      53.000000000000
       122    1       36.810000000000       5.667269500300      53.000000000000
       123    2       36.810000000000       2.833630499700      53.818002000000
       124    2       39.264000000000       7.084080499700      53.818002000000
       125    1       35.583000000000       3.542044500300      53.000000000000
       126    1       38.037000000000       7.792494500300      53.000000000000
       127    2       38.037000000000       0.708405499700      53.818002000000
       128    2       35.583000000000       4.958855499700      53.818002000000
       129    1       41.718000000000       1.416819500300      53.000000000000
       130    2       44.172000000000       2.833630499700      53.818002000000
       131    1       39.264000000000       5.667269500300      53.000000000000
       132    2       41.718000000000       7.084080499700      53.818002000000
       133    2       40.491000000000       0.708405499700      53.818002000000
       134    2       42.945000000000       4.958855499700      53.818002000000
       135    1       42.945000000000       3.542044500300      53.000000000000
       136    1       40.491000000000       7.792494500300      53.000000000000
       137    1       39.264000000000       1.416819500300      53.000000000000
       138    1       41.718000000000       5.667269500300      53.000000000000
       139    2       41.718000000000       2.833630499700      53.818002000000
       140    2       44.172000000000       7.084080499700      53.818002000000
       141    1       40.491000000000       3.542044500300      53.000000000000
       142    1       42.945000000000       7.792494500300      53.000000000000
       143    2       42.945000000000       0.708405499700      53.818002000000
       144    2       40.491000000000       4.958855499700      53.818002000000
       145    1       46.626000000000       1.416819500300      53.000000000000
       146    2       49.080000000000       2.833630499700      53.818002000000
       147    1       44.172000000000       5.667269500300      53.000000000000
       148    2       46.626000000000       7.084080499700      53.818002000000
       149    2       45.399000000000       0.708405499700      53.818002000000
       150    2       47.853000000000       4.958855499700      53.818002000000
       151    1       47.853000000000       3.542044500300      53.000000000000
       152    1       45.399000000000       7.792494500300      53.000000000000
       153    1       44.172000000000       1.416819500300      53.000000000000
       154    1       46.626000000000       5.667269500300      53.000000000000
       155    2       46.626000000000       2.833630499700      53.818002000000
       156    2       49.080000000000       7.084080499700      53.818002000000
       157    1       45.399000000000       3.542044500300      53.000000000000
       158    1       47.853000000000       7.792494500300      53.000000000000
       159    2       47.853000000000       0.708405499700      53.818002000000
       160    2       45.399000000000       4.958855499700      53.818002000000
       161    1       51.534000000000       1.416819500300      53.000000000000
       162    2       53.988000000000       2.833630499700      53.818002000000
       163    1       49.080000000000       5.667269500300      53.000000000000
       164    2       51.534000000000       7.084080499700      53.818002000000
       165    2       50.307000000000       0.708405499700      53.818002000000
       166    2       52.761000000000       4.958855499700      53.818002000000
       167    1       52.761000000000       3.542044500300      53.000000000000
       168    1       50.307000000000       7.792494500300      53.000000000000
       169    1       49.080000000000       1.416819500300      53.000000000000
       170    1       51.534000000000       5.667269500300      53.000000000000
       171    2       51.534000000000       2.833630499700      53.818002000000
       172    2       53.988000000000       7.084080499700      53.818002000000
       173    1       50.307000000000       3.542044500300      53.000000000000
       174    1       52.761000000000       7.792494500300      53.000000000000
       175    2       52.761000000000       0.708405499700      53.818002000000
       176    2       50.307000000000       4.958855499700      53.818002000000
       177    1       56.442000000000       1.416819500300      53.000000000000
       178    2       58.896000000000       2.833630499700      53.818002000000
       179    1       53.988000000000       5.667269500300      53.000000000000
       180    2       56.442000000000       7.084080499700      53.818002000000
       181    2       55.215000000000       0.708405499700      53.818002000000
       182    2       57.669000000000       4.958855499700      53.818002000000
       183    1       57.669000000000       3.542044500300      53.000000000000
       184    1       55.215000000000       7.792494500300      53.000000000000
       185    1       53.988000000000       1.416819500300      53.000000000000
       186    1       56.442000000000       5.667269500300      53.000000000000
       187    2       56.442000000000       2.833630499700      53.818002000000
       188    2       58.896000000000       7.084080499700      53.818002000000
       189    1       55.215000000000       3.542044500300      53.000000000000
       190    1       57.669000000000       7.792494500300      53.000000000000
       191    2       57.669000000000       0.708405499700      53.818002000000
       192    2       55.215000000000       4.958855499700      53.818002000000
       193    1       61.350000000000       1.416819500300      53.000000000000
       194    2       63.804000000000       2.833630499700      53.818002000000
       195    1       58.896000000000       5.667269500300      53.000000000000
       196    2       61.350000000000       7.084080499700      53.818002000000
       197    2       60.123000000000       0.708405499700      53.818002000000
       198    2       62.577000000000       4.958855499700      53.818002000000
       199    1       62.577000000000       3.542044500300      53.000000000000
       200    1       60.123000000000       7.792494500300      53.000000000000
       201    1       58.896000000000       1.416819500300      53.000000000000
       202    1       61.350000000000       5.667269500300      53.000000000000
       203    2       61.350000000000       2.833630499700      53.818002000000
       204    2       63.804000000000       7.084080499700      53.818002000000
       205    1       60.123000000000       3.542044500300      53.000000000000
       206    1       62.577000000000       7.792494500300      53.000000000000
       207    2       62.577000000000       0.708405499700      53.818002000000
       208    2       60.123000000000       4.958855499700      53.818002000000
       209    1       66.258000000000       1.416819500300      53.000000000000
       210    2       68.712000000000       2.833630499700      53.818002000000
       211    1       63.804000000000       5.667269500300      53.000000000000
       212    2       66.258000000000       7.084080499700      53.818002000000
       213    2       65.031000000000       0.708405499700      53.818002000000
       214    2       67.485000000000       4.958855499700      53.818002000000
       215    1       67.485000000000       3.542044500300      53.000000000000
       216    1       65.031000000000       7.792494500300      53.000000000000
       217    1       63.804000000000       1.416819500300      53.000000000000
       218    1       66.258000000000       5.667269500300      53.000000000000
       219    2       66.258000000000       2.833630499700      53.818002000000
       220    2       68.712000000000       7.084080499700      53.818002000000
       221    1       65.031000000000       3.542044500300      53.000000000000
       222    1       67.485000000000       7.792494500300      53.000000000000
       223    2       67.485000000000       0.708405499700      53.818002000000
       224    2       65.031000000000       4.958855499700      53.818002000000
       225    1       71.166000000000       1.416819500300      53.000000000000
       226    2       73.620000000000       2.833630499700      53.818002000000
       227    1       68.712000000000       5.667269500300      53.000000000000
       228    2       71.166000000000       7.084080499700      53.818002000000
       229    2       69.939000000000       0.708405499700      53.818002000000
       230    2       72.393000000000       4.958855499700      53.818002000000
       231    1       72.393000000000       3.542044500300      53.000000000000
       232    1       69.939000000000       7.792494500300      53.000000000000
       233    1       68.712000000000       1.416819500300      53.000000000000
       234    1       71.166000000000       5.667269500300      53.000000000000
       235    2       71.166000000000       2.833630499700      53.818002000000
       236    2       73.620000000000       7.084080499700      53.818002000000
       237    1       69.939000000000       3.542044500300      53.000000000000
       238    1       72.393000000000       7.792494500300      53.000000000000
       239    2       72.393000000000       0.708405499700      53.818002000000
       240    2       69.939000000000       4.958855499700      53.818002000000
       241    1       76.074000000000       1.416819500300      53.000000000000
       242    2       78.528000000000       2.833630499700      53.818002000000
       243    1       73.620000000000       5.667269500300      53.000000000000
       244    2       76.074000000000       7.084080499700      53.818002000000
       245    2       74.847000000000       0.708405499700      53.818002000000
       246    2       77.301000000000       4.958855499700      53.818002000000
       247    1       77.301000000000       3.542044500300      53.000000000000
       248    1       74.847000000000       7.792494500300      53.000000000000
       249    1       73.620000000000       1.416819500300      53.000000000000
       250    1       76.074000000000       5.667269500300      53.000000000000
       251    2       76.074000000000       2.833630499700      53.818002000000
       252    2       78.528000000000       7.084080499700      53.818002000000
       253    1       74.847000000000       3.542044500300      53.000000000000
       254    1       77.301000000000       7.792494500300      53.000000000000
       255    2       77.301000000000       0.708405499700      53.818002000000
       256    2       74.847000000000       4.958855499700      53.818002000000
       257    1       80.982000000000       1.416819500300      53.000000000000
       258    2       83.436000000000       2.833630499700      53.818002000000
       259    1       78.528000000000       5.667269500300      53.000000000000
       260    2       80.982000000000       7.084080499700      53.818002000000
       261    2       79.755000000000       0.708405499700      53.818002000000
       262    2       82.209000000000       4.958855499700      53.818002000000
       263    1       82.209000000000       3.542044500300      53.000000000000
       264    1       79.755000000000       7.792494500300      53.000000000000
       265    1       78.528000000000       1.416819500300      53.000000000000
       266    1       80.982000000000       5.667269500300      53.000000000000
       267    2       80.982000000000       2.833630499700      53.818002000000
       268    2       83.436000000000       7.084080499700      53.818002000000
       269    1       79.755000000000       3.542044500300      53.000000000000
       270    1       82.209000000000       7.792494500300      53.000000000000
       271    2       82.209000000000       0.708405499700      53.818002000000
       272    2       79.755000000000       4.958855499700      53.818002000000
       273    1       85.890000000000       1.416819500300      53.000000000000
       274    2       88.344000000000       2.833630499700      53.818002000000
       275    1       83.436000000000       5.667269500300      53.000000000000
       276    2       85.890000000000       7.084080499700      53.818002000000
       277    2       84.663000000000       0.708405499700      53.818002000000
       278    2       87.117000000000       4.958855499700      53.818002000000
       279    1       87.117000000000       3.542044500300      53.000000000000
       280    1       84.663000000000       7.792494500300      53.000000000000
       281    1       83.436000000000       1.416819500300      53.000000000000
       282    1       85.890000000000       5.667269500300      53.000000000000
       283    2       85.890000000000       2.833630499700      53.818002000000
       284    2       88.344000000000       7.084080499700      53.818002000000
       285    1       84.663000000000       3.542044500300      53.000000000000
       286    1       87.117000000000       7.792494500300      53.000000000000
       287    2       87.117000000000       0.708405499700      53.818002000000
       288    2       84.663000000000       4.958855499700      53.818002000000
       289    1       90.798000000000       1.416819500300      53.000000000000
       290    2       93.252000000000       2.833630499700      53.818002000000
       291    1       88.344000000000       5.667269500300      53.000000000000
       292    2       90.798000000000       7.084080499700      53.818002000000
       293    2       89.571000000000       0.708405499700      53.818002000000
       294    2       92.025000000000       4.958855499700      53.818002000000
       295    1       92.025000000000       3.542044500300      53.000000000000
       296    1       89.571000000000       7.792494500300      53.000000000000
       297    1       88.344000000000       1.416819500300      53.000000000000
       298    1       90.798000000000       5.667269500300      53.000000000000
       299    2       90.798000000000       2.833630499700      53.818002000000
       300    2       93.252000000000       7.084080499700      53.818002000000
       301    1       89.571000000000       3.542044500300      53.000000000000
       302    1       92.025000000000       7.792494500300      53.000000000000
       303    2       92.025000000000       0.708405499700      53.818002000000
       304    2       89.571000000000       4.958855499700      53.818002000000
       305    1       95.706000000000       1.416819500300      53.000000000000
       306    2       98.160000000000       2.833630499700      53.818002000000
       307    1       93.252000000000       5.667269500300      53.000000000000
       308    2       95.706000000000       7.084080499700      53.818002000000
       309    2       94.479000000000       0.708405499700      53.818002000000
       310    2       96.933000000000       4.958855499700      53.818002000000
       311    1       96.933000000000       3.542044500300      53.000000000000
       312    1       94.479000000000       7.792494500300      53.000000000000
       313    1       93.252000000000       1.416819500300      53.000000000000
       314    1       95.706000000000       5.667269500300      53.000000000000
       315    2       95.706000000000       2.833630499700      53.818002000000
       316    2       98.160000000000       7.084080499700      53.818002000000
       317    1       94.479000000000       3.542044500300      53.000000000000
       318    1       96.933000000000       7.792494500300      53.000000000000
       319    2       96.933000000000       0.708405499700      53.818002000000
       320    2       94.479000000000       4.958855499700      53.818002000000
       321    1        2.454000000000       9.917719500300      53.000000000000
       322    2        4.908000000000      11.334530499700      53.818002000000
       323    1        0.000000000000      14.168169500300      53.000000000000
       324    2        2.454000000000      15.584980499700      53.818002000000
       325    2        1.227000000000       9.209305499700      53.818002000000
       326    2        3.681000000000      13.459755499700      53.818002000000
       327    1        3.681000000000      12.042944500300      53.000000000000
       328    1        1.227000000000      16.293394500300      53.000000000000
       329    1        0.000000000000       9.917719500300      53.000000000000
       330    1        2.454000000000      14.168169500300      53.000000000000
       331    2        2.454000000000      11.334530499700      53.818002000000
       332    2        4.908000000000      15.584980499700      53.818002000000
       333    1        1.227000000000      12.042944500300      53.000000000000
       334    1        3.681000000000      16.293394500300      53.000000000000
       335    2        3.681000000000       9.209305499700      53.818002000000
       336    2        1.227000000000      13.459755499700      53.818002000000
       337    1        7.362000000000       9.917719500300      53.000000000000
       338    2        9.816000000000      11.334530499700      53.818002000000
       339    1        4.908000000000      14.168169500300      53.000000000000
       340    2        7.362000000000      15.584980499700      53.818002000000
       341    2        6.135000000000       9.209305499700      53.818002000000
       342    2        8.589000000000      13.459755499700      53.818002000000
       343    1        8.589000000000      12.042944500300      53.000000000000
       344    1        6.135000000000      16.293394500300      53.000000000000
       345    1        4.908000000000       9.917719500300      53.000000000000
       346    1        7.362000000000      14.168169500300      53.000000000000
       347    2        7.362000000000      11.334530499700      53.818002000000
       348    2        9.816000000000      15.584980499700      53.818002000000
       349    1        6.135000000000      12.042944500300      53.000000000000
       350    1        8.589000000000      16.293394500300      53.000000000000
       351    2        8.589000000000       9.209305499700      53.818002000000
       352    2        6.135000000000      13.459755499700      53.818002000000
       353    1       12.270000000000       9.917719500300      53.000000000000
       354    2       14.724000000000      11.334530499700      53.818002000000
       355    1        9.816000000000      14.168169500300      53.000000000000
       356    2       12.270000000000      15.584980499700      53.818002000000
       357    2       11.043000000000       9.209305499700      53.818002000000
       358    2       13.497000000000      13.459755499700      53.818002000000
       359    1       13.497000000000      12.042944500300      53.000000000000
       360    1       11.043000000000      16.293394500300      53.000000000000
       361    1        9.816000000000       9.917719500300      53.000000000000
       362    1       12.270000000000      14.168169500300      53.000000000000
       363    2       12.270000000000      11.334530499700      53.818002000000
       364    2       14.724000000000      15.584980499700      53.818002000000
       365    1       11.043000000000      12.042944500300      53.000000000000
       366    1       13.497000000000      16.293394500300      53.000000000000
       367    2       13.497000000000       9.209305499700      53.818002000000
       368    2       11.043000000000      13.459755499700      53.818002000000
       369    1       17.178000000000       9.917719500300      53.000000000000
       370    2       19.632000000000      11.334530499700      53.818002000000