 # C8 Se8
  
        2304  atoms
           2  atom types
 
      0.000000000000      98.016000000000  xlo xhi
      0.000000000000      95.494500000000  ylo yhi
      0.000000000000     106.000000000000  zlo zhi
 
Masses
 
            1   12.01100000             # C
            2   78.96000000             # Se
 
Atoms # atomic
 
         1    1        3.063000000000       1.768420203500      53.000000000000
         2    1        0.000000000000       7.073670203500      53.000000000000
         3    2        4.594500000000       0.884204796500      54.046750000000
         4    2        1.531500000000       6.189454796500      54.046750000000
         5    2        1.531500000000       0.884204796500      54.046750000000
         6    2        4.594500000000       6.189454796500      54.046750000000
         7    2        0.000000000000       3.536829796500      54.046750000000
         8    2        3.063000000000       8.842079796500      54.046750000000
         9    1        0.000000000000       1.768420203500      53.000000000000
        10    1        3.063000000000       7.073670203500      53.000000000000
        11    1        4.594500000000       4.421045203500      53.000000000000
        12    1        1.531500000000       9.726295203500      53.000000000000
        13    1        1.531500000000       4.421045203500      53.000000000000
        14    1        4.594500000000       9.726295203500      53.000000000000
        15    2        3.063000000000       3.536829796500      54.046750000000
        16    2        0.000000000000       8.842079796500      54.046750000000
        17    1        9.189000000000       1.768420203500      53.000000000000
        18    1        6.126000000000       7.073670203500      53.000000000000
        19    2       10.720500000000       0.884204796500      54.046750000000
        20    2        7.657500000000       6.189454796500      54.046750000000
        21    2        7.657500000000       0.884204796500      54.046750000000
        22    2       10.720500000000       6.189454796500      54.046750000000
        23    2        6.126000000000       3.536829796500      54.046750000000
        24    2        9.189000000000       8.842079796500      54.046750000000
        25    1        6.126000000000       1.768420203500      53.000000000000
        26    1        9.189000000000       7.073670203500      53.000000000000
        27    1       10.720500000000       4.421045203500      53.000000000000
        28    1        7.657500000000       9.726295203500      53.000000000000
        29    1        7.657500000000       4.421045203500      53.000000000000
        30    1       10.720500000000       9.726295203500      53.000000000000
        31    2        9.189000000000       3.536829796500      54.046750000000
        32    2        6.126000000000       8.842079796500      54.046750000000
        33    1       15.315000000000       1.768420203500      53.000000000000
        34    1       12.252000000000       7.073670203500      53.000000000000
        35    2       16.846500000000       0.884204796500      54.046750000000
        36    2       13.783500000000       6.189454796500      54.046750000000
        37    2       13.783500000000       0.884204796500      54.046750000000
        38    2       16.846500000000       6.189454796500      54.046750000000
        39    2       12.252000000000       3.536829796500      54.046750000000
        40    2       15.315000000000       8.842079796500      54.046750000000
        41    1       12.252000000000       1.768420203500      53.000000000000
        42    1       15.315000000000       7.073670203500      53.000000000000
        43    1       16.846500000000       4.421045203500      53.000000000000
        44    1       13.783500000000       9.726295203500      53.000000000000
        45    1       13.783500000000       4.421045203500      53.000000000000
        46    1       16.846500000000       9.726295203500      53.000000000000
        47    2       15.315000000000       3.536829796500      54.046750000000
        48    2       12.252000000000       8.842079796500      54.046750000000
        49    1       21.441000000000       1.768420203500      53.000000000000
        50    1       18.378000000000       7.073670203500      53.000000000000
        51    2       22.972500000000       0.884204796500      54.046750000000
        52    2       19.909500000000       6.189454796500      54.046750000000
        53    2       19.909500000000       0.884204796500      54.046750000000
        54    2       22.972500000000       6.189454796500      54.046750000000
        55    2       18.378000000000       3.536829796500      54.046750000000
        56    2       21.441000000000       8.842079796500      54.046750000000
        57    1       18.378000000000       1.768420203500      53.000000000000
        58    1       21.441000000000       7.073670203500      53.000000000000
        59    1       22.972500000000       4.421045203500      53.000000000000
        60    1       19.909500000000       9.726295203500      53.000000000000
        61    1       19.909500000000       4.421045203500      53.000000000000
        62    1       22.972500000000       9.726295203500      53.000000000000
        63    2       21.441000000000       3.536829796500      54.046750000000
        64    2       18.378000000000       8.842079796500      54.046750000000
        65    1       27.567000000000       1.768420203500      53.000000000000
        66    1       24.504000000000       7.073670203500      53.000000000000
        67    2       29.098500000000       0.884204796500      54.046750000000
        68    2       26.035500000000       6.189454796500      54.046750000000
        69    2       26.035500000000       0.884204796500      54.046750000000
        70    2       29.098500000000       6.189454796500      54.046750000000
        71    2       24.504000000000       3.536829796500      54.046750000000
        72    2       27.567000000000       8.842079796500      54.046750000000
        73    1       24.504000000000       1.768420203500      53.000000000000
        74    1       27.567000000000       7.073670203500      53.000000000000
        75    1       29.098500000000       4.421045203500      53.000000000000
        76    1       26.035500000000       9.726295203500      53.000000000000
        77    1       26.035500000000       4.421045203500      53.000000000000
        78    1       29.098500000000       9.726295203500      53.000000000000
        79    2       27.567000000000       3.536829796500      54.046750000000
        80    2       24.504000000000       8.842079796500      54.046750000000
        81    1       33.693000000000       1.768420203500      53.000000000000
        82    1       30.630000000000       7.073670203500      53.000000000000
        83    2       35.224500000000       0.884204796500      54.046750000000
        84    2       32.161500000000       6.189454796500      54.046750000000
        85    2       32.161500000000       0.884204796500      54.046750000000
        86    2       35.224500000000       6.189454796500      54.046750000000
        87    2       30.630000000000       3.536829796500      54.046750000000
        88    2       33.693000000000       8.842079796500      54.046750000000
        89    1       30.630000000000       1.768420203500      53.000000000000
        90    1       33.693000000000       7.073670203500      53.000000000000
        91    1       35.224500000000       4.421045203500      53.000000000000
        92    1       32.161500000000       9.726295203500      53.000000000000
        93    1       32.161500000000       4.421045203500      53.000000000000
        94    1       35.224500000000       9.726295203500      53.000000000000
        95    2       33.693000000000       3.536829796500      54.046750000000
        96    2       30.630000000000       8.842079796500      54.046750000000
        97    1       39.819000000000       1.768420203500      53.000000000000
        98    1       36.756000000000       7.073670203500      53.000000000000
        99    2       41.350500000000       0.884204796500      54.046750000000
       100    2       38.287500000000       6.189454796500      54.046750000000
       101    2       38.287500000000       0.884204796500      54.046750000000
       102    2       41.350500000000       6.189454796500      54.046750000000
       103    2       36.756000000000       3.536829796500      54.046750000000
       104    2       39.819000000000       8.842079796500      54.046750000000
       105    1       36.756000000000       1.768420203500      53.000000000000
       106    1       39.819000000000       7.073670203500      53.000000000000
       107    1       41.350500000000       4.421045203500      53.000000000000
       108    1       38.287500000000       9.726295203500      53.000000000000
       109    1       38.287500000000       4.421045203500      53.000000000000
       110    1       41.350500000000       9.726295203500      53.000000000000
       111    2       39.819000000000       3.536829796500      54.046750000000
       112    2       36.756000000000       8.842079796500      54.046750000000
       113    1       45.945000000000       1.768420203500      53.000000000000
       114    1       42.882000000000       7.073670203500      53.000000000000
       115    2       47.476500000000       0.884204796500      54.046750000000
       116    2       44.413500000000       6.189454796500      54.046750000000
       117    2       44.413500000000       0.884204796500      54.046750000000
       118    2       47.476500000000       6.189454796500      54.046750000000
       119    2       42.882000000000       3.536829796500      54.046750000000
       120    2       45.945000000000       8.842079796500      54.046750000000
       121    1       42.882000000000       1.768420203500      53.000000000000
       122    1       45.945000000000       7.073670203500      53.000000000000
       123    1       47.476500000000       4.421045203500      53.000000000000
       124    1       44.413500000000       9.726295203500      53.000000000000
       125    1       44.413500000000       4.421045203500      53.000000000000
       126    1       47.476500000000       9.726295203500      53.000000000000
       127    2       45.945000000000       3.536829796500      54.046750000000
       128    2       42.882000000000       8.842079796500      54.046750000000
       129    1       52.071000000000       1.768420203500      53.000000000000
       130    1       49.008000000000       7.073670203500      53.000000000000
       131    2       53.602500000000       0.884204796500      54.046750000000
       132    2       50.539500000000       6.189454796500      54.046750000000
       133    2       50.539500000000       0.884204796500      54.046750000000
       134    2       53.602500000000       6.189454796500      54.046750000000
       135    2       49.008000000000       3.536829796500      54.046750000000
       136    2       52.071000000000       8.842079796500      54.046750000000
       137    1       49.008000000000       1.768420203500      53.000000000000
       138    1       52.071000000000       7.073670203500      53.000000000000
       139    1       53.602500000000       4.421045203500      53.000000000000
       140    1       50.539500000000       9.726295203500      53.000000000000
       141    1       50.539500000000       4.421045203500      53.000000000000
       142    1       53.602500000000       9.726295203500      53.000000000000
       143    2       52.071000000000       3.536829796500      54.046750000000
       144    2       49.008000000000       8.842079796500      54.046750000000
       145    1       58.197000000000       1.768420203500      53.000000000000
       146    1       55.134000000000       7.073670203500      53.000000000000
       147    2       59.728500000000       0.884204796500      54.046750000000
       148    2       56.665500000000       6.189454796500      54.046750000000
       149    2       56.665500000000       0.884204796500      54.046750000000
       150    2       59.728500000000       6.189454796500      54.046750000000
       151    2       55.134000000000       3.536829796500      54.046750000000
       152    2       58.197000000000       8.842079796500      54.046750000000
       153    1       55.134000000000       1.768420203500      53.000000000000
       154    1       58.197000000000       7.073670203500      53.000000000000
       155    1       59.728500000000       4.421045203500      53.000000000000
       156    1       56.665500000000       9.726295203500      53.000000000000
       157    1       56.665500000000       4.421045203500      53.000000000000
       158    1       59.728500000000       9.726295203500      53.000000000000
       159    2       58.197000000000       3.536829796500      54.046750000000
       160    2       55.134000000000       8.842079796500      54.046750000000
       161    1       64.323000000000       1.768420203500      53.000000000000
       162    1       61.260000000000       7.073670203500      53.000000000000
       163    2       65.854500000000       0.884204796500      54.046750000000
       164    2       62.791500000000       6.189454796500      54.046750000000
       165    2       62.791500000000       0.884204796500      54.046750000000
       166    2       65.854500000000       6.189454796500      54.046750000000
       167    2       61.260000000000       3.536829796500      54.046750000000
       168    2       64.323000000000       8.842079796500      54.046750000000
       169    1       61.260000000000       1.768420203500      53.000000000000
       170    1       64.323000000000       7.073670203500      53.000000000000
       171    1       65.854500000000       4.421045203500      53.000000000000
       172    1       62.791500000000       9.726295203500      53.000000000000
       173    1       62.791500000000       4.421045203500      53.000000000000
       174    1       65.854500000000       9.726295203500      53.000000000000
       175    2       64.323000000000       3.536829796500      54.046750000000
       176    2       61.260000000000       8.842079796500      54.046750000000
       177    1       70.449000000000       1.768420203500      53.000000000000
       178    1       67.386000000000       7.073670203500      53.000000000000
       179    2       71.980500000000       0.884204796500      54.046750000000
       180    2       68.917500000000       6.189454796500      54.046750000000
       181    2       68.917500000000       0.884204796500      54.046750000000
       182    2       71.980500000000       6.189454796500      54.046750000000
       183    2       67.386000000000       3.536829796500      54.046750000000
       184    2       70.449000000000       8.842079796500      54.046750000000
       185    1       67.386000000000       1.768420203500      53.000000000000
       186    1       70.449000000000       7.073670203500      53.000000000000
       187    1       71.980500000000       4.421045203500      53.000000000000
       188    1       68.917500000000       9.726295203500      53.000000000000
       189    1       68.917500000000       4.421045203500      53.000000000000
       190    1       71.980500000000       9.726295203500      53.000000000000
       191    2       70.449000000000       3.536829796500      54.046750000000
       192    2       67.386000000000       8.842079796500      54.046750000000
       193    1       76.575000000000       1.768420203500      53.000000000000
       194    1       73.512000000000       7.073670203500      53.000000000000
       195    2       78.106500000000       0.884204796500      54.046750000000
       196    2       75.043500000000       6.189454796500      54.046750000000
       197    2       75.043500000000       0.884204796500      54.046750000000
       198    2       78.106500000000       6.189454796500      54.046750000000
       199    2       73.512000000000       3.536829796500      54.046750000000
       200    2       76.575000000000       8.842079796500      54.046750000000
       201    1       73.512000000000       1.768420203500      53.000000000000
       202    1       76.575000000000       7.073670203500      53.000000000000
       203    1       78.106500000000       4.421045203500      53.000000000000
       204    1       75.043500000000       9.726295203500      53.000000000000
       205    1       75.043500000000       4.421045203500      53.000000000000
       206    1       78.106500000000       9.726295203500      53.000000000000
       207    2       76.575000000000       3.536829796500      54.046750000000
       208    2       73.512000000000       8.842079796500      54.046750000000
       209    1       82.701000000000       1.768420203500      53.000000000000
       210    1       79.638000000000       7.073670203500      53.000000000000
       211    2       84.232500000000       0.884204796500      54.046750000000
       212    2       81.169500000000       6.189454796500      54.046750000000
       213    2       81.169500000000       0.884204796500      54.046750000000
       214    2       84.232500000000       6.189454796500      54.046750000000
       215    2       79.638000000000       3.536829796500      54.046750000000
       216    2       82.701000000000       8.842079796500      54.046750000000
       217    1       79.638000000000       1.768420203500      53.000000000000
       218    1       82.701000000000       7.073670203500      53.000000000000
       219    1       84.232500000000       4.421045203500      53.000000000000
       220    1       81.169500000000       9.726295203500      53.000000000000
       221    1       81.169500000000       4.421045203500      53.000000000000
       222    1       84.232500000000       9.726295203500      53.000000000000
       223    2       82.701000000000       3.536829796500      54.046750000000
       224    2       79.638000000000       8.842079796500      54.046750000000
       225    1       88.827000000000       1.768420203500      53.000000000000
       226    1       85.764000000000       7.073670203500      53.000000000000
       227    2       90.358500000000       0.884204796500      54.046750000000
       228    2       87.295500000000       6.189454796500      54.046750000000
       229    2       87.295500000000       0.884204796500      54.046750000000
       230    2       90.358500000000       6.189454796500      54.046750000000
       231    2       85.764000000000       3.536829796500      54.046750000000
       232    2       88.827000000000       8.842079796500      54.046750000000
       233    1       85.764000000000       1.768420203500      53.000000000000
       234    1       88.827000000000       7.073670203500      53.000000000000
       235    1       90.358500000000       4.421045203500      53.000000000000
       236    1       87.295500000000       9.726295203500      53.000000000000
       237    1       87.295500000000       4.421045203500      53.000000000000
       238    1       90.358500000000       9.726295203500      53.000000000000
       239    2       88.827000000000       3.536829796500      54.046750000000
       240    2       85.764000000000       8.842079796500      54.046750000000
       241    1       94.953000000000       1.768420203500      53.000000000000
       242    1       91.890000000000       7.073670203500      53.000000000000
       243    2       96.484500000000       0.884204796500      54.046750000000
       244    2       93.421500000000       6.189454796500      54.046750000000
       245    2       93.421500000000       0.884204796500      54.046750000000
       246    2       96.484500000000       6.189454796500      54.046750000000
       247    2       91.890000000000       3.536829796500      54.046750000000
       248    2       94.953000000000       8.842079796500      54.046750000000
       249    1       91.890000000000       1.768420203500      53.000000000000
       250    1       94.953000000000       7.073670203500      53.000000000000
       251    1       96.484500000000       4.421045203500      53.000000000000
       252    1       93.421500000000       9.726295203500      53.000000000000
       253    1       93.421500000000       4.421045203500      53.000000000000
       254    1       96.484500000000       9.726295203500      53.000000000000
       255    2       94.953000000000       3.536829796500      54.046750000000
       256    2       91.890000000000       8.842079796500      54.046750000000
       257    1        3.063000000000      12.378920203500      53.000000000000
       258    1        0.000000000000      17.684170203500      53.000000000000
       259    2        4.594500000000      11.494704796500      54.046750000000
       260    2        1.531500000000      16.799954796500      54.046750000000
       261    2        1.531500000000      11.494704796500      54.046750000000
       262    2        4.594500000000      16.799954796500      54.046750000000
       263    2        0.000000000000      14.147329796500      54.046750000000
       264    2        3.063000000000      19.452579796500      54.046750000000
       265    1        0.000000000000      12.378920203500      53.000000000000
       266    1        3.063000000000      17.684170203500      53.000000000000
       267    1        4.594500000000      15.031545203500      53.000000000000
       268    1        1.531500000000      20.336795203500      53.000000000000
       269    1        1.531500000000      15.031545203500      53.000000000000
       270    1        4.594500000000      20.336795203500      53.000000000000
       271    2        3.063000000000      14.147329796500      54.046750000000
       272    2        0.000000000000      19.452579796500      54.046750000000
       273    1        9.189000000000      12.378920203500      53.000000000000
       274    1        6.126000000000      17.684170203500      53.000000000000
       275    2       10.720500000000      11.494704796500      54.046750000000
       276    2        7.657500000000      16.799954796500      54.046750000000
       277    2        7.657500000000      11.494704796500      54.046750000000
       278    2       10.720500000000      16.799954796500      54.046750000000
       279    2        6.126000000000      14.147329796500      54.046750000000
       280    2        9.189000000000      19.452579796500      54.046750000000
       281    1        6.126000000000      12.378920203500      53.000000000000
       282    1        9.189000000000      17.684170203500      53.000000000000
       283    1       10.720500000000      15.031545203500      53.000000000000
       284    1        7.657500000000      20.336795203500      53.000000000000
       285    1        7.657500000000      15.031545203500      53.000000000000
       286    1       10.720500000000      20.336795203500      53.000000000000
       287    2        9.189000000000      14.147329796500      54.046750000000
       288    2        6.126000000000      19.452579796500      54.046750000000
       289    1       15.315000000000      12.378920203500      53.000000000000
       290    1       12.252000000000      17.684170203500      53.000000000000
       291    2       16.846500000000      11.494704796500      54.046750000000
       292    2       13.783500000000      16.799954796500      54.046750000000
       293    2       13.783500000000      11.494704796500      54.046750000000
       294    2       16.846500000000      16.799954796500      54.046750000000
       295    2       12.252000000000      14.147329796500      54.046750000000
       296    2       15.315000000000      19.452579796500      54.046750000000
       297    1       12.252000000000      12.378920203500      53.000000000000
       298    1       15.315000000000      17.684170203500      53.000000000000
       299    1       16.846500000000      15.031545203500      53.000000000000
       300    1       13.783500000000      20.336795203500      53.000000000000
       301    1       13.783500000000      15.031545203500      53.000000000000
       302    1       16.846500000000      20.336795203500      53.000000000000
       303    2       15.315000000000      14.147329796500      54.046750000000
       304    2       12.252000000000      19.452579796500      54.046750000000
       305    1       21.441000000000      12.378920203500      53.000000000000
       306    1       18.378000000000      17.684170203500      53.000000000000
       307    2       22.972500000000      11.494704796500      54.046750000000
       308    2       19.909500000000      16.799954796500      54.046750000000
       309    2       19.909500000000      11.494704796500      54.046750000000
       310    2       22.972500000000      16.799954796500      54.046750000000
       311    2       18.378000000000      14.147329796500      54.046750000000
       312    2       21.441000000000      19.452579796500      54.046750000000
       313    1       18.378000000000      12.378920203500      53.000000000000
       314    1       21.441000000000      17.684170203500      53.000000000000
       315    1       22.972500000000      15.031545203500      53.000000000000
       316    1       19.909500000000      20.336795203500      53.000000000000
       317    1       19.909500000000      15.031545203500      53.000000000000
       318    1       22.972500000000      20.336795203500      53.000000000000
       319    2       21.441000000000      14.147329796500      54.046750000000
       320    2       18.378000000000      19.452579796500      54.046750000000
       321    1       27.567000000000      12.378920203500      53.000000000000
       322    1       24.504000000000      17.684170203500      53.000000000000
       323    2       29.098500000000      11.494704796500      54.046750000000
       324    2       26.035500000000      16.799954796500      54.046750000000
       325    2       26.035500000000      11.494704796500      54.046750000000
       326    2       29.098500000000      16.799954796500      54.046750000000
       327    2       24.504000000000      14.147329796500      54.046750000000
       328    2       27.567000000000      19.452579796500      54.046750000000
       329    1       24.504000000000      12.378920203500      53.000000000000
       330    1       27.567000000000      17.684170203500      53.000000000000
       331    1       29.098500000000      15.031545203500      53.000000000000
       332    1       26.035500000000      20.336795203500      53.000000000000
       333    1       26.035500000000      15.031545203500      53.000000000000
       334    1       29.098500000000      20.336795203500      53.000000000000
       335    2       27.567000000000      14.147329796500      54.046750000000
       336    2       24.504000000000      19.452579796500      54.046750000000
       337    1       33.693000000000      12.378920203500      53.000000000000
       338    1       30.630000000000      17.684170203500      53.000000000000
       339    2       35.224500000000      11.494704796500      54.046750000000
       340    2       32.161500000000      16.799954796500      54.046750000000
       341    2       32.161500000000      11.494704796500      54.046750000000
       342    2       35.224500000000      16.799954796500      54.046750000000
       343    2       30.630000000000      14.147329796500      54.046750000000
       344    2       33.693000000000      19.452579796500      54.046750000000
       345    1       30.630000000000      12.378920203500      53.000000000000
       346    1       33.693000000000      17.684170203500      53.000000000000
       347    1       35.224500000000      15.031545203500      53.000000000000
       348    1       32.161500000000      20.336795203500      53.000000000000
       349    1       32.161500000000      15.031545203500      53.000000000000
       350    1       35.224500000000      20.336795203500      53.000000000000
       351    2       33.693000000000      14.147329796500      54.046750000000
       352    2       30.630000000000      19.452579796500      54.046750000000
       353    1       39.819000000000      12.378920203500      53.000000000000
       354    1       36.756000000000      17.684170203500      53.000000000000
       355    2       41.350500000000      11.494704796500      54.046750000000
       356    2       38.287500000000      16.799954796500      54.046750000000
       357    2       38.287500000000      11.494704796500      54.046750000000
       358    2       41.350500000000      16.799954796500      54.046750000000
       359    2       36.756000000000      14.147329796500      54.046750000000
       360    2       39.819000000000      19.452579796500      54.046750000000
       361    1       36.756000000000      12.378920203500      53.000000000000
       362    1       39.819000000000      17.684170203500      53.000000000000
       363    1       41.350500000000      15.031545203500      53.000000000000
       364    1       38.287500000000      20.336795203500      53.000000000000
       365    1       38.287500000000      15.031545203500      53.000000000000
       366    1       41.350500000000      20.336795203500      53.000000000000
       367    2       39.819000000000      14.147329796500      54.046750000000
       368    2       36.756000000000      19.452579796500      54.046750000000
       369    1       45.945000000000      12.378920203500      53.000000000000
       370    1       42.882000000000      17.684170203500      53.000000000000