 # C8 Te8
  
        2160  atoms
           2  atom types
 
      0.000000000000     100.440000000000  xlo xhi
      0.000000000000     104.380200000000  ylo yhi
      0.000000000000     106.000000000000  zlo zhi
 
Masses
 
            1   12.01100000             # C
            2   127.60000000            # Te
 
Atoms # atomic
 
         1    1        0.000000000000       1.932970532600      53.000000000000
         2    1        3.348000000000       7.731870532600      53.000000000000
         3    1        3.348000000000       1.932970532600      53.000000000000
         4    1        0.000000000000       7.731870532600      53.000000000000
         5    2        5.022000000000       0.966479467400      54.113954000000
         6    2        1.674000000000       6.765379467400      54.113954000000
         7    1        1.674000000000       4.832420532600      53.000000000000
         8    2        1.674000000000       0.966479467400      54.113954000000
         9    1        5.022000000000      10.631320532600      53.000000000000
        10    2        5.022000000000       6.765379467400      54.113954000000
        11    2        6.696000000000       3.865929467400      54.113954000000
        12    2        3.348000000000       3.865929467400      54.113954000000
        13    2        6.696000000000       9.664829467400      54.113954000000
        14    2        3.348000000000       9.664829467400      54.113954000000
        15    1        5.022000000000       4.832420532600      53.000000000000
        16    1        1.674000000000      10.631320532600      53.000000000000
        17    1        6.696000000000       1.932970532600      53.000000000000
        18    1       10.044000000000       7.731870532600      53.000000000000
        19    1       10.044000000000       1.932970532600      53.000000000000
        20    1        6.696000000000       7.731870532600      53.000000000000
        21    2       11.718000000000       0.966479467400      54.113954000000
        22    2        8.370000000000       6.765379467400      54.113954000000
        23    1        8.370000000000       4.832420532600      53.000000000000
        24    2        8.370000000000       0.966479467400      54.113954000000
        25    1       11.718000000000      10.631320532600      53.000000000000
        26    2       11.718000000000       6.765379467400      54.113954000000
        27    2       13.392000000000       3.865929467400      54.113954000000
        28    2       10.044000000000       3.865929467400      54.113954000000
        29    2       13.392000000000       9.664829467400      54.113954000000
        30    2       10.044000000000       9.664829467400      54.113954000000
        31    1       11.718000000000       4.832420532600      53.000000000000
        32    1        8.370000000000      10.631320532600      53.000000000000
        33    1       13.392000000000       1.932970532600      53.000000000000
        34    1       16.740000000000       7.731870532600      53.000000000000
        35    1       16.740000000000       1.932970532600      53.000000000000
        36    1       13.392000000000       7.731870532600      53.000000000000
        37    2       18.414000000000       0.966479467400      54.113954000000
        38    2       15.066000000000       6.765379467400      54.113954000000
        39    1       15.066000000000       4.832420532600      53.000000000000
        40    2       15.066000000000       0.966479467400      54.113954000000
        41    1       18.414000000000      10.631320532600      53.000000000000
        42    2       18.414000000000       6.765379467400      54.113954000000
        43    2       20.088000000000       3.865929467400      54.113954000000
        44    2       16.740000000000       3.865929467400      54.113954000000
        45    2       20.088000000000       9.664829467400      54.113954000000
        46    2       16.740000000000       9.664829467400      54.113954000000
        47    1       18.414000000000       4.832420532600      53.000000000000
        48    1       15.066000000000      10.631320532600      53.000000000000
        49    1       20.088000000000       1.932970532600      53.000000000000
        50    1       23.436000000000       7.731870532600      53.000000000000
        51    1       23.436000000000       1.932970532600      53.000000000000
        52    1       20.088000000000       7.731870532600      53.000000000000
        53    2       25.110000000000       0.966479467400      54.113954000000
        54    2       21.762000000000       6.765379467400      54.113954000000
        55    1       21.762000000000       4.832420532600      53.000000000000
        56    2       21.762000000000       0.966479467400      54.113954000000
        57    1       25.110000000000      10.631320532600      53.000000000000
        58    2       25.110000000000       6.765379467400      54.113954000000
        59    2       26.784000000000       3.865929467400      54.113954000000
        60    2       23.436000000000       3.865929467400      54.113954000000
        61    2       26.784000000000       9.664829467400      54.113954000000
        62    2       23.436000000000       9.664829467400      54.113954000000
        63    1       25.110000000000       4.832420532600      53.000000000000
        64    1       21.762000000000      10.631320532600      53.000000000000
        65    1       26.784000000000       1.932970532600      53.000000000000
        66    1       30.132000000000       7.731870532600      53.000000000000
        67    1       30.132000000000       1.932970532600      53.000000000000
        68    1       26.784000000000       7.731870532600      53.000000000000
        69    2       31.806000000000       0.966479467400      54.113954000000
        70    2       28.458000000000       6.765379467400      54.113954000000
        71    1       28.458000000000       4.832420532600      53.000000000000
        72    2       28.458000000000       0.966479467400      54.113954000000
        73    1       31.806000000000      10.631320532600      53.000000000000
        74    2       31.806000000000       6.765379467400      54.113954000000
        75    2       33.480000000000       3.865929467400      54.113954000000
        76    2       30.132000000000       3.865929467400      54.113954000000
        77    2       33.480000000000       9.664829467400      54.113954000000
        78    2       30.132000000000       9.664829467400      54.113954000000
        79    1       31.806000000000       4.832420532600      53.000000000000
        80    1       28.458000000000      10.631320532600      53.000000000000
        81    1       33.480000000000       1.932970532600      53.000000000000
        82    1       36.828000000000       7.731870532600      53.000000000000
        83    1       36.828000000000       1.932970532600      53.000000000000
        84    1       33.480000000000       7.731870532600      53.000000000000
        85    2       38.502000000000       0.966479467400      54.113954000000
        86    2       35.154000000000       6.765379467400      54.113954000000
        87    1       35.154000000000       4.832420532600      53.000000000000
        88    2       35.154000000000       0.966479467400      54.113954000000
        89    1       38.502000000000      10.631320532600      53.000000000000
        90    2       38.502000000000       6.765379467400      54.113954000000
        91    2       40.176000000000       3.865929467400      54.113954000000
        92    2       36.828000000000       3.865929467400      54.113954000000
        93    2       40.176000000000       9.664829467400      54.113954000000
        94    2       36.828000000000       9.664829467400      54.113954000000
        95    1       38.502000000000       4.832420532600      53.000000000000
        96    1       35.154000000000      10.631320532600      53.000000000000
        97    1       40.176000000000       1.932970532600      53.000000000000
        98    1       43.524000000000       7.731870532600      53.000000000000
        99    1       43.524000000000       1.932970532600      53.000000000000
       100    1       40.176000000000       7.731870532600      53.000000000000
       101    2       45.198000000000       0.966479467400      54.113954000000
       102    2       41.850000000000       6.765379467400      54.113954000000
       103    1       41.850000000000       4.832420532600      53.000000000000
       104    2       41.850000000000       0.966479467400      54.113954000000
       105    1       45.198000000000      10.631320532600      53.000000000000
       106    2       45.198000000000       6.765379467400      54.113954000000
       107    2       46.872000000000       3.865929467400      54.113954000000
       108    2       43.524000000000       3.865929467400      54.113954000000
       109    2       46.872000000000       9.664829467400      54.113954000000
       110    2       43.524000000000       9.664829467400      54.113954000000
       111    1       45.198000000000       4.832420532600      53.000000000000
       112    1       41.850000000000      10.631320532600      53.000000000000
       113    1       46.872000000000       1.932970532600      53.000000000000
       114    1       50.220000000000       7.731870532600      53.000000000000
       115    1       50.220000000000       1.932970532600      53.000000000000
       116    1       46.872000000000       7.731870532600      53.000000000000
       117    2       51.894000000000       0.966479467400      54.113954000000
       118    2       48.546000000000       6.765379467400      54.113954000000
       119    1       48.546000000000       4.832420532600      53.000000000000
       120    2       48.546000000000       0.966479467400      54.113954000000
       121    1       51.894000000000      10.631320532600      53.000000000000
       122    2       51.894000000000       6.765379467400      54.113954000000
       123    2       53.568000000000       3.865929467400      54.113954000000
       124    2       50.220000000000       3.865929467400      54.113954000000
       125    2       53.568000000000       9.664829467400      54.113954000000
       126    2       50.220000000000       9.664829467400      54.113954000000
       127    1       51.894000000000       4.832420532600      53.000000000000
       128    1       48.546000000000      10.631320532600      53.000000000000
       129    1       53.568000000000       1.932970532600      53.000000000000
       130    1       56.916000000000       7.731870532600      53.000000000000
       131    1       56.916000000000       1.932970532600      53.000000000000
       132    1       53.568000000000       7.731870532600      53.000000000000
       133    2       58.590000000000       0.966479467400      54.113954000000
       134    2       55.242000000000       6.765379467400      54.113954000000
       135    1       55.242000000000       4.832420532600      53.000000000000
       136    2       55.242000000000       0.966479467400      54.113954000000
       137    1       58.590000000000      10.631320532600      53.000000000000
       138    2       58.590000000000       6.765379467400      54.113954000000
       139    2       60.264000000000       3.865929467400      54.113954000000
       140    2       56.916000000000       3.865929467400      54.113954000000
       141    2       60.264000000000       9.664829467400      54.113954000000
       142    2       56.916000000000       9.664829467400      54.113954000000
       143    1       58.590000000000       4.832420532600      53.000000000000
       144    1       55.242000000000      10.631320532600      53.000000000000
       145    1       60.264000000000       1.932970532600      53.000000000000
       146    1       63.612000000000       7.731870532600      53.000000000000
       147    1       63.612000000000       1.932970532600      53.000000000000
       148    1       60.264000000000       7.731870532600      53.000000000000
       149    2       65.286000000000       0.966479467400      54.113954000000
       150    2       61.938000000000       6.765379467400      54.113954000000
       151    1       61.938000000000       4.832420532600      53.000000000000
       152    2       61.938000000000       0.966479467400      54.113954000000
       153    1       65.286000000000      10.631320532600      53.000000000000
       154    2       65.286000000000       6.765379467400      54.113954000000
       155    2       66.960000000000       3.865929467400      54.113954000000
       156    2       63.612000000000       3.865929467400      54.113954000000
       157    2       66.960000000000       9.664829467400      54.113954000000
       158    2       63.612000000000       9.664829467400      54.113954000000
       159    1       65.286000000000       4.832420532600      53.000000000000
       160    1       61.938000000000      10.631320532600      53.000000000000
       161    1       66.960000000000       1.932970532600      53.000000000000
       162    1       70.308000000000       7.731870532600      53.000000000000
       163    1       70.308000000000       1.932970532600      53.000000000000
       164    1       66.960000000000       7.731870532600      53.000000000000
       165    2       71.982000000000       0.966479467400      54.113954000000
       166    2       68.634000000000       6.765379467400      54.113954000000
       167    1       68.634000000000       4.832420532600      53.000000000000
       168    2       68.634000000000       0.966479467400      54.113954000000
       169    1       71.982000000000      10.631320532600      53.000000000000
       170    2       71.982000000000       6.765379467400      54.113954000000
       171    2       73.656000000000       3.865929467400      54.113954000000
       172    2       70.308000000000       3.865929467400      54.113954000000
       173    2       73.656000000000       9.664829467400      54.113954000000
       174    2       70.308000000000       9.664829467400      54.113954000000
       175    1       71.982000000000       4.832420532600      53.000000000000
       176    1       68.634000000000      10.631320532600      53.000000000000
       177    1       73.656000000000       1.932970532600      53.000000000000
       178    1       77.004000000000       7.731870532600      53.000000000000
       179    1       77.004000000000       1.932970532600      53.000000000000
       180    1       73.656000000000       7.731870532600      53.000000000000
       181    2       78.678000000000       0.966479467400      54.113954000000
       182    2       75.330000000000       6.765379467400      54.113954000000
       183    1       75.330000000000       4.832420532600      53.000000000000
       184    2       75.330000000000       0.966479467400      54.113954000000
       185    1       78.678000000000      10.631320532600      53.000000000000
       186    2       78.678000000000       6.765379467400      54.113954000000
       187    2       80.352000000000       3.865929467400      54.113954000000
       188    2       77.004000000000       3.865929467400      54.113954000000
       189    2       80.352000000000       9.664829467400      54.113954000000
       190    2       77.004000000000       9.664829467400      54.113954000000
       191    1       78.678000000000       4.832420532600      53.000000000000
       192    1       75.330000000000      10.631320532600      53.000000000000
       193    1       80.352000000000       1.932970532600      53.000000000000
       194    1       83.700000000000       7.731870532600      53.000000000000
       195    1       83.700000000000       1.932970532600      53.000000000000
       196    1       80.352000000000       7.731870532600      53.000000000000
       197    2       85.374000000000       0.966479467400      54.113954000000
       198    2       82.026000000000       6.765379467400      54.113954000000
       199    1       82.026000000000       4.832420532600      53.000000000000
       200    2       82.026000000000       0.966479467400      54.113954000000
       201    1       85.374000000000      10.631320532600      53.000000000000
       202    2       85.374000000000       6.765379467400      54.113954000000
       203    2       87.048000000000       3.865929467400      54.113954000000
       204    2       83.700000000000       3.865929467400      54.113954000000
       205    2       87.048000000000       9.664829467400      54.113954000000
       206    2       83.700000000000       9.664829467400      54.113954000000
       207    1       85.374000000000       4.832420532600      53.000000000000
       208    1       82.026000000000      10.631320532600      53.000000000000
       209    1       87.048000000000       1.932970532600      53.000000000000
       210    1       90.396000000000       7.731870532600      53.000000000000
       211    1       90.396000000000       1.932970532600      53.000000000000
       212    1       87.048000000000       7.731870532600      53.000000000000
       213    2       92.070000000000       0.966479467400      54.113954000000
       214    2       88.722000000000       6.765379467400      54.113954000000
       215    1       88.722000000000       4.832420532600      53.000000000000
       216    2       88.722000000000       0.966479467400      54.113954000000
       217    1       92.070000000000      10.631320532600      53.000000000000
       218    2       92.070000000000       6.765379467400      54.113954000000
       219    2       93.744000000000       3.865929467400      54.113954000000
       220    2       90.396000000000       3.865929467400      54.113954000000
       221    2       93.744000000000       9.664829467400      54.113954000000
       222    2       90.396000000000       9.664829467400      54.113954000000
       223    1       92.070000000000       4.832420532600      53.000000000000
       224    1       88.722000000000      10.631320532600      53.000000000000
       225    1       93.744000000000       1.932970532600      53.000000000000
       226    1       97.092000000000       7.731870532600      53.000000000000
       227    1       97.092000000000       1.932970532600      53.000000000000
       228    1       93.744000000000       7.731870532600      53.000000000000
       229    2       98.766000000000       0.966479467400      54.113954000000
       230    2       95.418000000000       6.765379467400      54.113954000000
       231    1       95.418000000000       4.832420532600      53.000000000000
       232    2       95.418000000000       0.966479467400      54.113954000000
       233    1       98.766000000000      10.631320532600      53.000000000000
       234    2       98.766000000000       6.765379467400      54.113954000000
       235    2      100.440000000000       3.865929467400      54.113954000000
       236    2       97.092000000000       3.865929467400      54.113954000000
       237    2      100.440000000000       9.664829467400      54.113954000000
       238    2       97.092000000000       9.664829467400      54.113954000000
       239    1       98.766000000000       4.832420532600      53.000000000000
       240    1       95.418000000000      10.631320532600      53.000000000000
       241    1        0.000000000000      13.530770532600      53.000000000000
       242    1        3.348000000000      19.329670532600      53.000000000000
       243    1        3.348000000000      13.530770532600      53.000000000000
       244    1        0.000000000000      19.329670532600      53.000000000000
       245    2        5.022000000000      12.564279467400      54.113954000000
       246    2        1.674000000000      18.363179467400      54.113954000000
       247    1        1.674000000000      16.430220532600      53.000000000000
       248    2        1.674000000000      12.564279467400      54.113954000000
       249    1        5.022000000000      22.229120532600      53.000000000000
       250    2        5.022000000000      18.363179467400      54.113954000000
       251    2        6.696000000000      15.463729467400      54.113954000000
       252    2        3.348000000000      15.463729467400      54.113954000000
       253    2        6.696000000000      21.262629467400      54.113954000000
       254    2        3.348000000000      21.262629467400      54.113954000000
       255    1        5.022000000000      16.430220532600      53.000000000000
       256    1        1.674000000000      22.229120532600      53.000000000000
       257    1        6.696000000000      13.530770532600      53.000000000000
       258    1       10.044000000000      19.329670532600      53.000000000000
       259    1       10.044000000000      13.530770532600      53.000000000000
       260    1        6.696000000000      19.329670532600      53.000000000000
       261    2       11.718000000000      12.564279467400      54.113954000000
       262    2        8.370000000000      18.363179467400      54.113954000000
       263    1        8.370000000000      16.430220532600      53.000000000000
       264    2        8.370000000000      12.564279467400      54.113954000000
       265    1       11.718000000000      22.229120532600      53.000000000000
       266    2       11.718000000000      18.363179467400      54.113954000000
       267    2       13.392000000000      15.463729467400      54.113954000000
       268    2       10.044000000000      15.463729467400      54.113954000000
       269    2       13.392000000000      21.262629467400      54.113954000000
       270    2       10.044000000000      21.262629467400      54.113954000000
       271    1       11.718000000000      16.430220532600      53.000000000000
       272    1        8.370000000000      22.229120532600      53.000000000000
       273    1       13.392000000000      13.530770532600      53.000000000000
       274    1       16.740000000000      19.329670532600      53.000000000000
       275    1       16.740000000000      13.530770532600      53.000000000000
       276    1       13.392000000000      19.329670532600      53.000000000000
       277    2       18.414000000000      12.564279467400      54.113954000000
       278    2       15.066000000000      18.363179467400      54.113954000000
       279    1       15.066000000000      16.430220532600      53.000000000000
       280    2       15.066000000000      12.564279467400      54.113954000000
       281    1       18.414000000000      22.229120532600      53.000000000000
       282    2       18.414000000000      18.363179467400      54.113954000000
       283    2       20.088000000000      15.463729467400      54.113954000000
       284    2       16.740000000000      15.463729467400      54.113954000000
       285    2       20.088000000000      21.262629467400      54.113954000000
       286    2       16.740000000000      21.262629467400      54.113954000000
       287    1       18.414000000000      16.430220532600      53.000000000000
       288    1       15.066000000000      22.229120532600      53.000000000000
       289    1       20.088000000000      13.530770532600      53.000000000000
       290    1       23.436000000000      19.329670532600      53.000000000000
       291    1       23.436000000000      13.530770532600      53.000000000000
       292    1       20.088000000000      19.329670532600      53.000000000000
       293    2       25.110000000000      12.564279467400      54.113954000000
       294    2       21.762000000000      18.363179467400      54.113954000000
       295    1       21.762000000000      16.430220532600      53.000000000000
       296    2       21.762000000000      12.564279467400      54.113954000000
       297    1       25.110000000000      22.229120532600      53.000000000000
       298    2       25.110000000000      18.363179467400      54.113954000000
       299    2       26.784000000000      15.463729467400      54.113954000000
       300    2       23.436000000000      15.463729467400      54.113954000000
       301    2       26.784000000000      21.262629467400      54.113954000000
       302    2       23.436000000000      21.262629467400      54.113954000000
       303    1       25.110000000000      16.430220532600      53.000000000000
       304    1       21.762000000000      22.229120532600      53.000000000000
       305    1       26.784000000000      13.530770532600      53.000000000000
       306    1       30.132000000000      19.329670532600      53.000000000000
       307    1       30.132000000000      13.530770532600      53.000000000000
       308    1       26.784000000000      19.329670532600      53.000000000000
       309    2       31.806000000000      12.564279467400      54.113954000000
       310    2       28.458000000000      18.363179467400      54.113954000000
       311    1       28.458000000000      16.430220532600      53.000000000000
       312    2       28.458000000000      12.564279467400      54.113954000000
       313    1       31.806000000000      22.229120532600      53.000000000000
       314    2       31.806000000000      18.363179467400      54.113954000000
       315    2       33.480000000000      15.463729467400      54.113954000000
       316    2       30.132000000000      15.463729467400      54.113954000000
       317    2       33.480000000000      21.262629467400      54.113954000000
       318    2       30.132000000000      21.262629467400      54.113954000000
       319    1       31.806000000000      16.430220532600      53.000000000000
       320    1       28.458000000000      22.229120532600      53.000000000000
       321    1       33.480000000000      13.530770532600      53.000000000000
       322    1       36.828000000000      19.329670532600      53.000000000000
       323    1       36.828000000000      13.530770532600      53.000000000000
       324    1       33.480000000000      19.329670532600      53.000000000000
       325    2       38.502000000000      12.564279467400      54.113954000000
       326    2       35.154000000000      18.363179467400      54.113954000000
       327    1       35.154000000000      16.430220532600      53.000000000000
       328    2       35.154000000000      12.564279467400      54.113954000000
       329    1       38.502000000000      22.229120532600      53.000000000000
       330    2       38.502000000000      18.363179467400      54.113954000000
       331    2       40.176000000000      15.463729467400      54.113954000000
       332    2       36.828000000000      15.463729467400      54.113954000000
       333    2       40.176000000000      21.262629467400      54.113954000000
       334    2       36.828000000000      21.262629467400      54.113954000000
       335    1       38.502000000000      16.430220532600      53.000000000000
       336    1       35.154000000000      22.229120532600      53.000000000000
       337    1       40.176000000000      13.530770532600      53.000000000000
       338    1       43.524000000000      19.329670532600      53.000000000000
       339    1       43.524000000000      13.530770532600      53.000000000000
       340    1       40.176000000000      19.329670532600      53.000000000000
       341    2       45.198000000000      12.564279467400      54.113954000000
       342    2       41.850000000000      18.363179467400      54.113954000000
       343    1       41.850000000000      16.430220532600      53.000000000000
       344    2       41.850000000000      12.564279467400      54.113954000000
       345    1       45.198000000000      22.229120532600      53.000000000000
       346    2       45.198000000000      18.363179467400      54.113954000000
       347    2       46.872000000000      15.463729467400      54.113954000000
       348    2       43.524000000000      15.463729467400      54.113954000000
       349    2       46.872000000000      21.262629467400      54.113954000000
       350    2       43.524000000000      21.262629467400      54.113954000000
       351    1       45.198000000000      16.430220532600      53.000000000000
       352    1       41.850000000000      22.229120532600      53.000000000000
       353    1       46.872000000000      13.530770532600      53.000000000000
       354    1       50.220000000000      19.329670532600      53.000000000000
       355    1       50.220000000000      13.530770532600      53.000000000000
       356    1       46.872000000000      19.329670532600      53.000000000000
       357    2       51.894000000000      12.564279467400      54.113954000000
       358    2       48.546000000000      18.363179467400      54.113954000000
       359    1       48.546000000000      16.430220532600      53.000000000000
       360    2       48.546000000000      12.564279467400      54.113954000000
       361    1       51.894000000000      22.229120532600      53.000000000000
       362    2       51.894000000000      18.363179467400      54.113954000000
       363    2       53.568000000000      15.463729467400      54.113954000000
       364    2       50.220000000000      15.463729467400      54.113954000000
       365    2       53.568000000000      21.262629467400      54.113954000000
       366    2       50.220000000000      21.262629467400      54.113954000000
       367    1       51.894000000000      16.430220532600      53.000000000000
       368    1       48.546000000000      22.229120532600      53.000000000000
       369    1       53.568000000000      13.530770532600      53.000000000000
       370    1       56.916000000000      19.329670532600      53.000000000000