 # P8 Ga8
  
        1456  atoms
           2  atom types
 
      0.000000000000     102.063000000000  xlo xhi
      0.000000000000      95.188800000000  ylo yhi
      0.000000000000      15.438800000000  zlo zhi
 
Masses
 
            1   30.97376200             # P
            2   69.72300000             # Ga
 
Atoms # charge
 
         1    1   0.000000        7.851000000000       4.532795467200       7.938816225600
         2    2   0.000000        1.962750000000       5.666004532800       7.499983774400
         3    1   0.000000        3.925500000000      11.331995467200       7.938816225600
         4    2   0.000000        5.888250000000      12.465204532800       7.499983774400
         5    1   0.000000        3.925500000000       4.532795467200       7.938816225600
         6    1   0.000000        7.851000000000      11.331995467200       7.938816225600
         7    2   0.000000        5.888250000000       5.666004532800       7.499983774400
         8    2   0.000000        1.962750000000      12.465204532800       7.499983774400
         9    1   0.000000        1.962750000000       1.133195467200       7.938816225600
        10    1   0.000000        5.888250000000       7.932395467200       7.938816225600
        11    2   0.000000        3.925500000000       2.266404532800       7.499983774400
        12    2   0.000000        7.851000000000       9.065604532800       7.499983774400
        13    2   0.000000        7.851000000000       2.266404532800       7.499983774400
        14    2   0.000000        3.925500000000       9.065604532800       7.499983774400
        15    1   0.000000        5.888250000000       1.133195467200       7.938816225600
        16    1   0.000000        1.962750000000       7.932395467200       7.938816225600
        17    1   0.000000       15.702000000000       4.532795467200       7.938816225600
        18    2   0.000000        9.813750000000       5.666004532800       7.499983774400
        19    1   0.000000       11.776500000000      11.331995467200       7.938816225600
        20    2   0.000000       13.739250000000      12.465204532800       7.499983774400
        21    1   0.000000       11.776500000000       4.532795467200       7.938816225600
        22    1   0.000000       15.702000000000      11.331995467200       7.938816225600
        23    2   0.000000       13.739250000000       5.666004532800       7.499983774400
        24    2   0.000000        9.813750000000      12.465204532800       7.499983774400
        25    1   0.000000        9.813750000000       1.133195467200       7.938816225600
        26    1   0.000000       13.739250000000       7.932395467200       7.938816225600
        27    2   0.000000       11.776500000000       2.266404532800       7.499983774400
        28    2   0.000000       15.702000000000       9.065604532800       7.499983774400
        29    2   0.000000       15.702000000000       2.266404532800       7.499983774400
        30    2   0.000000       11.776500000000       9.065604532800       7.499983774400
        31    1   0.000000       13.739250000000       1.133195467200       7.938816225600
        32    1   0.000000        9.813750000000       7.932395467200       7.938816225600
        33    1   0.000000       23.553000000000       4.532795467200       7.938816225600
        34    2   0.000000       17.664750000000       5.666004532800       7.499983774400
        35    1   0.000000       19.627500000000      11.331995467200       7.938816225600
        36    2   0.000000       21.590250000000      12.465204532800       7.499983774400
        37    1   0.000000       19.627500000000       4.532795467200       7.938816225600
        38    1   0.000000       23.553000000000      11.331995467200       7.938816225600
        39    2   0.000000       21.590250000000       5.666004532800       7.499983774400
        40    2   0.000000       17.664750000000      12.465204532800       7.499983774400
        41    1   0.000000       17.664750000000       1.133195467200       7.938816225600
        42    1   0.000000       21.590250000000       7.932395467200       7.938816225600
        43    2   0.000000       19.627500000000       2.266404532800       7.499983774400
        44    2   0.000000       23.553000000000       9.065604532800       7.499983774400
        45    2   0.000000       23.553000000000       2.266404532800       7.499983774400
        46    2   0.000000       19.627500000000       9.065604532800       7.499983774400
        47    1   0.000000       21.590250000000       1.133195467200       7.938816225600
        48    1   0.000000       17.664750000000       7.932395467200       7.938816225600
        49    1   0.000000       31.404000000000       4.532795467200       7.938816225600
        50    2   0.000000       25.515750000000       5.666004532800       7.499983774400
        51    1   0.000000       27.478500000000      11.331995467200       7.938816225600
        52    2   0.000000       29.441250000000      12.465204532800       7.499983774400
        53    1   0.000000       27.478500000000       4.532795467200       7.938816225600
        54    1   0.000000       31.404000000000      11.331995467200       7.938816225600
        55    2   0.000000       29.441250000000       5.666004532800       7.499983774400
        56    2   0.000000       25.515750000000      12.465204532800       7.499983774400
        57    1   0.000000       25.515750000000       1.133195467200       7.938816225600
        58    1   0.000000       29.441250000000       7.932395467200       7.938816225600
        59    2   0.000000       27.478500000000       2.266404532800       7.499983774400
        60    2   0.000000       31.404000000000       9.065604532800       7.499983774400
        61    2   0.000000       31.404000000000       2.266404532800       7.499983774400
        62    2   0.000000       27.478500000000       9.065604532800       7.499983774400
        63    1   0.000000       29.441250000000       1.133195467200       7.938816225600
        64    1   0.000000       25.515750000000       7.932395467200       7.938816225600
        65    1   0.000000       39.255000000000       4.532795467200       7.938816225600
        66    2   0.000000       33.366750000000       5.666004532800       7.499983774400
        67    1   0.000000       35.329500000000      11.331995467200       7.938816225600
        68    2   0.000000       37.292250000000      12.465204532800       7.499983774400
        69    1   0.000000       35.329500000000       4.532795467200       7.938816225600
        70    1   0.000000       39.255000000000      11.331995467200       7.938816225600
        71    2   0.000000       37.292250000000       5.666004532800       7.499983774400
        72    2   0.000000       33.366750000000      12.465204532800       7.499983774400
        73    1   0.000000       33.366750000000       1.133195467200       7.938816225600
        74    1   0.000000       37.292250000000       7.932395467200       7.938816225600
        75    2   0.000000       35.329500000000       2.266404532800       7.499983774400
        76    2   0.000000       39.255000000000       9.065604532800       7.499983774400
        77    2   0.000000       39.255000000000       2.266404532800       7.499983774400
        78    2   0.000000       35.329500000000       9.065604532800       7.499983774400
        79    1   0.000000       37.292250000000       1.133195467200       7.938816225600
        80    1   0.000000       33.366750000000       7.932395467200       7.938816225600
        81    1   0.000000       47.106000000000       4.532795467200       7.938816225600
        82    2   0.000000       41.217750000000       5.666004532800       7.499983774400
        83    1   0.000000       43.180500000000      11.331995467200       7.938816225600
        84    2   0.000000       45.143250000000      12.465204532800       7.499983774400
        85    1   0.000000       43.180500000000       4.532795467200       7.938816225600
        86    1   0.000000       47.106000000000      11.331995467200       7.938816225600
        87    2   0.000000       45.143250000000       5.666004532800       7.499983774400
        88    2   0.000000       41.217750000000      12.465204532800       7.499983774400
        89    1   0.000000       41.217750000000       1.133195467200       7.938816225600
        90    1   0.000000       45.143250000000       7.932395467200       7.938816225600
        91    2   0.000000       43.180500000000       2.266404532800       7.499983774400
        92    2   0.000000       47.106000000000       9.065604532800       7.499983774400
        93    2   0.000000       47.106000000000       2.266404532800       7.499983774400
        94    2   0.000000       43.180500000000       9.065604532800       7.499983774400
        95    1   0.000000       45.143250000000       1.133195467200       7.938816225600
        96    1   0.000000       41.217750000000       7.932395467200       7.938816225600
        97    1   0.000000       54.957000000000       4.532795467200       7.938816225600
        98    2   0.000000       49.068750000000       5.666004532800       7.499983774400
        99    1   0.000000       51.031500000000      11.331995467200       7.938816225600
       100    2   0.000000       52.994250000000      12.465204532800       7.499983774400
       101    1   0.000000       51.031500000000       4.532795467200       7.938816225600
       102    1   0.000000       54.957000000000      11.331995467200       7.938816225600
       103    2   0.000000       52.994250000000       5.666004532800       7.499983774400
       104    2   0.000000       49.068750000000      12.465204532800       7.499983774400
       105    1   0.000000       49.068750000000       1.133195467200       7.938816225600
       106    1   0.000000       52.994250000000       7.932395467200       7.938816225600
       107    2   0.000000       51.031500000000       2.266404532800       7.499983774400
       108    2   0.000000       54.957000000000       9.065604532800       7.499983774400
       109    2   0.000000       54.957000000000       2.266404532800       7.499983774400
       110    2   0.000000       51.031500000000       9.065604532800       7.499983774400
       111    1   0.000000       52.994250000000       1.133195467200       7.938816225600
       112    1   0.000000       49.068750000000       7.932395467200       7.938816225600
       113    1   0.000000       62.808000000000       4.532795467200       7.938816225600
       114    2   0.000000       56.919750000000       5.666004532800       7.499983774400
       115    1   0.000000       58.882500000000      11.331995467200       7.938816225600
       116    2   0.000000       60.845250000000      12.465204532800       7.499983774400
       117    1   0.000000       58.882500000000       4.532795467200       7.938816225600
       118    1   0.000000       62.808000000000      11.331995467200       7.938816225600
       119    2   0.000000       60.845250000000       5.666004532800       7.499983774400
       120    2   0.000000       56.919750000000      12.465204532800       7.499983774400
       121    1   0.000000       56.919750000000       1.133195467200       7.938816225600
       122    1   0.000000       60.845250000000       7.932395467200       7.938816225600
       123    2   0.000000       58.882500000000       2.266404532800       7.499983774400
       124    2   0.000000       62.808000000000       9.065604532800       7.499983774400
       125    2   0.000000       62.808000000000       2.266404532800       7.499983774400
       126    2   0.000000       58.882500000000       9.065604532800       7.499983774400
       127    1   0.000000       60.845250000000       1.133195467200       7.938816225600
       128    1   0.000000       56.919750000000       7.932395467200       7.938816225600
       129    1   0.000000       70.659000000000       4.532795467200       7.938816225600
       130    2   0.000000       64.770750000000       5.666004532800       7.499983774400
       131    1   0.000000       66.733500000000      11.331995467200       7.938816225600
       132    2   0.000000       68.696250000000      12.465204532800       7.499983774400
       133    1   0.000000       66.733500000000       4.532795467200       7.938816225600
       134    1   0.000000       70.659000000000      11.331995467200       7.938816225600
       135    2   0.000000       68.696250000000       5.666004532800       7.499983774400
       136    2   0.000000       64.770750000000      12.465204532800       7.499983774400
       137    1   0.000000       64.770750000000       1.133195467200       7.938816225600
       138    1   0.000000       68.696250000000       7.932395467200       7.938816225600
       139    2   0.000000       66.733500000000       2.266404532800       7.499983774400
       140    2   0.000000       70.659000000000       9.065604532800       7.499983774400
       141    2   0.000000       70.659000000000       2.266404532800       7.499983774400
       142    2   0.000000       66.733500000000       9.065604532800       7.499983774400
       143    1   0.000000       68.696250000000       1.133195467200       7.938816225600
       144    1   0.000000       64.770750000000       7.932395467200       7.938816225600
       145    1   0.000000       78.510000000000       4.532795467200       7.938816225600
       146    2   0.000000       72.621750000000       5.666004532800       7.499983774400
       147    1   0.000000       74.584500000000      11.331995467200       7.938816225600
       148    2   0.000000       76.547250000000      12.465204532800       7.499983774400
       149    1   0.000000       74.584500000000       4.532795467200       7.938816225600
       150    1   0.000000       78.510000000000      11.331995467200       7.938816225600
       151    2   0.000000       76.547250000000       5.666004532800       7.499983774400
       152    2   0.000000       72.621750000000      12.465204532800       7.499983774400
       153    1   0.000000       72.621750000000       1.133195467200       7.938816225600
       154    1   0.000000       76.547250000000       7.932395467200       7.938816225600
       155    2   0.000000       74.584500000000       2.266404532800       7.499983774400
       156    2   0.000000       78.510000000000       9.065604532800       7.499983774400
       157    2   0.000000       78.510000000000       2.266404532800       7.499983774400
       158    2   0.000000       74.584500000000       9.065604532800       7.499983774400
       159    1   0.000000       76.547250000000       1.133195467200       7.938816225600
       160    1   0.000000       72.621750000000       7.932395467200       7.938816225600
       161    1   0.000000       86.361000000000       4.532795467200       7.938816225600
       162    2   0.000000       80.472750000000       5.666004532800       7.499983774400
       163    1   0.000000       82.435500000000      11.331995467200       7.938816225600
       164    2   0.000000       84.398250000000      12.465204532800       7.499983774400
       165    1   0.000000       82.435500000000       4.532795467200       7.938816225600
       166    1   0.000000       86.361000000000      11.331995467200       7.938816225600
       167    2   0.000000       84.398250000000       5.666004532800       7.499983774400
       168    2   0.000000       80.472750000000      12.465204532800       7.499983774400
       169    1   0.000000       80.472750000000       1.133195467200       7.938816225600
       170    1   0.000000       84.398250000000       7.932395467200       7.938816225600
       171    2   0.000000       82.435500000000       2.266404532800       7.499983774400
       172    2   0.000000       86.361000000000       9.065604532800       7.499983774400
       173    2   0.000000       86.361000000000       2.266404532800       7.499983774400
       174    2   0.000000       82.435500000000       9.065604532800       7.499983774400
       175    1   0.000000       84.398250000000       1.133195467200       7.938816225600
       176    1   0.000000       80.472750000000       7.932395467200       7.938816225600
       177    1   0.000000       94.212000000000       4.532795467200       7.938816225600
       178    2   0.000000       88.323750000000       5.666004532800       7.499983774400
       179    1   0.000000       90.286500000000      11.331995467200       7.938816225600
       180    2   0.000000       92.249250000000      12.465204532800       7.499983774400
       181    1   0.000000       90.286500000000       4.532795467200       7.938816225600
       182    1   0.000000       94.212000000000      11.331995467200       7.938816225600
       183    2   0.000000       92.249250000000       5.666004532800       7.499983774400
       184    2   0.000000       88.323750000000      12.465204532800       7.499983774400
       185    1   0.000000       88.323750000000       1.133195467200       7.938816225600
       186    1   0.000000       92.249250000000       7.932395467200       7.938816225600
       187    2   0.000000       90.286500000000       2.266404532800       7.499983774400
       188    2   0.000000       94.212000000000       9.065604532800       7.499983774400
       189    2   0.000000       94.212000000000       2.266404532800       7.499983774400
       190    2   0.000000       90.286500000000       9.065604532800       7.499983774400
       191    1   0.000000       92.249250000000       1.133195467200       7.938816225600
       192    1   0.000000       88.323750000000       7.932395467200       7.938816225600
       193    1   0.000000      102.063000000000       4.532795467200       7.938816225600
       194    2   0.000000       96.174750000000       5.666004532800       7.499983774400
       195    1   0.000000       98.137500000000      11.331995467200       7.938816225600
       196    2   0.000000      100.100250000000      12.465204532800       7.499983774400
       197    1   0.000000       98.137500000000       4.532795467200       7.938816225600
       198    1   0.000000      102.063000000000      11.331995467200       7.938816225600
       199    2   0.000000      100.100250000000       5.666004532800       7.499983774400
       200    2   0.000000       96.174750000000      12.465204532800       7.499983774400
       201    1   0.000000       96.174750000000       1.133195467200       7.938816225600
       202    1   0.000000      100.100250000000       7.932395467200       7.938816225600
       203    2   0.000000       98.137500000000       2.266404532800       7.499983774400
       204    2   0.000000      102.063000000000       9.065604532800       7.499983774400
       205    2   0.000000      102.063000000000       2.266404532800       7.499983774400
       206    2   0.000000       98.137500000000       9.065604532800       7.499983774400
       207    1   0.000000      100.100250000000       1.133195467200       7.938816225600
       208    1   0.000000       96.174750000000       7.932395467200       7.938816225600
       209    1   0.000000        7.851000000000      18.131195467200       7.938816225600
       210    2   0.000000        1.962750000000      19.264404532800       7.499983774400
       211    1   0.000000        3.925500000000      24.930395467200       7.938816225600
       212    2   0.000000        5.888250000000      26.063604532800       7.499983774400
       213    1   0.000000        3.925500000000      18.131195467200       7.938816225600
       214    1   0.000000        7.851000000000      24.930395467200       7.938816225600
       215    2   0.000000        5.888250000000      19.264404532800       7.499983774400
       216    2   0.000000        1.962750000000      26.063604532800       7.499983774400
       217    1   0.000000        1.962750000000      14.731595467200       7.938816225600
       218    1   0.000000        5.888250000000      21.530795467200       7.938816225600
       219    2   0.000000        3.925500000000      15.864804532800       7.499983774400
       220    2   0.000000        7.851000000000      22.664004532800       7.499983774400
       221    2   0.000000        7.851000000000      15.864804532800       7.499983774400
       222    2   0.000000        3.925500000000      22.664004532800       7.499983774400
       223    1   0.000000        5.888250000000      14.731595467200       7.938816225600
       224    1   0.000000        1.962750000000      21.530795467200       7.938816225600
       225    1   0.000000       15.702000000000      18.131195467200       7.938816225600
       226    2   0.000000        9.813750000000      19.264404532800       7.499983774400
       227    1   0.000000       11.776500000000      24.930395467200       7.938816225600
       228    2   0.000000       13.739250000000      26.063604532800       7.499983774400
       229    1   0.000000       11.776500000000      18.131195467200       7.938816225600
       230    1   0.000000       15.702000000000      24.930395467200       7.938816225600
       231    2   0.000000       13.739250000000      19.264404532800       7.499983774400
       232    2   0.000000        9.813750000000      26.063604532800       7.499983774400
       233    1   0.000000        9.813750000000      14.731595467200       7.938816225600
       234    1   0.000000       13.739250000000      21.530795467200       7.938816225600
       235    2   0.000000       11.776500000000      15.864804532800       7.499983774400
       236    2   0.000000       15.702000000000      22.664004532800       7.499983774400
       237    2   0.000000       15.702000000000      15.864804532800       7.499983774400
       238    2   0.000000       11.776500000000      22.664004532800       7.499983774400
       239    1   0.000000       13.739250000000      14.731595467200       7.938816225600
       240    1   0.000000        9.813750000000      21.530795467200       7.938816225600
       241    1   0.000000       23.553000000000      18.131195467200       7.938816225600
       242    2   0.000000       17.664750000000      19.264404532800       7.499983774400
       243    1   0.000000       19.627500000000      24.930395467200       7.938816225600
       244    2   0.000000       21.590250000000      26.063604532800       7.499983774400
       245    1   0.000000       19.627500000000      18.131195467200       7.938816225600
       246    1   0.000000       23.553000000000      24.930395467200       7.938816225600
       247    2   0.000000       21.590250000000      19.264404532800       7.499983774400
       248    2   0.000000       17.664750000000      26.063604532800       7.499983774400
       249    1   0.000000       17.664750000000      14.731595467200       7.938816225600
       250    1   0.000000       21.590250000000      21.530795467200       7.938816225600
       251    2   0.000000       19.627500000000      15.864804532800       7.499983774400
       252    2   0.000000       23.553000000000      22.664004532800       7.499983774400
       253    2   0.000000       23.553000000000      15.864804532800       7.499983774400
       254    2   0.000000       19.627500000000      22.664004532800       7.499983774400
       255    1   0.000000       21.590250000000      14.731595467200       7.938816225600
       256    1   0.000000       17.664750000000      21.530795467200       7.938816225600
       257    1   0.000000       31.404000000000      18.131195467200       7.938816225600
       258    2   0.000000       25.515750000000      19.264404532800       7.499983774400
       259    1   0.000000       27.478500000000      24.930395467200       7.938816225600
       260    2   0.000000       29.441250000000      26.063604532800       7.499983774400
       261    1   0.000000       27.478500000000      18.131195467200       7.938816225600
       262    1   0.000000       31.404000000000      24.930395467200       7.938816225600
       263    2   0.000000       29.441250000000      19.264404532800       7.499983774400
       264    2   0.000000       25.515750000000      26.063604532800       7.499983774400
       265    1   0.000000       25.515750000000      14.731595467200       7.938816225600
       266    1   0.000000       29.441250000000      21.530795467200       7.938816225600
       267    2   0.000000       27.478500000000      15.864804532800       7.499983774400
       268    2   0.000000       31.404000000000      22.664004532800       7.499983774400
       269    2   0.000000       31.404000000000      15.864804532800       7.499983774400
       270    2   0.000000       27.478500000000      22.664004532800       7.499983774400
       271    1   0.000000       29.441250000000      14.731595467200       7.938816225600
       272    1   0.000000       25.515750000000      21.530795467200       7.938816225600
       273    1   0.000000       39.255000000000      18.131195467200       7.938816225600
       274    2   0.000000       33.366750000000      19.264404532800       7.499983774400
       275    1   0.000000       35.329500000000      24.930395467200       7.938816225600
       276    2   0.000000       37.292250000000      26.063604532800       7.499983774400
       277    1   0.000000       35.329500000000      18.131195467200       7.938816225600
       278    1   0.000000       39.255000000000      24.930395467200       7.938816225600
       279    2   0.000000       37.292250000000      19.264404532800       7.499983774400
       280    2   0.000000       33.366750000000      26.063604532800       7.499983774400
       281    1   0.000000       33.366750000000      14.731595467200       7.938816225600
       282    1   0.000000       37.292250000000      21.530795467200       7.938816225600
       283    2   0.000000       35.329500000000      15.864804532800       7.499983774400
       284    2   0.000000       39.255000000000      22.664004532800       7.499983774400
       285    2   0.000000       39.255000000000      15.864804532800       7.499983774400
       286    2   0.000000       35.329500000000      22.664004532800       7.499983774400
       287    1   0.000000       37.292250000000      14.731595467200       7.938816225600
       288    1   0.000000       33.366750000000      21.530795467200       7.938816225600
       289    1   0.000000       47.106000000000      18.131195467200       7.938816225600
       290    2   0.000000       41.217750000000      19.264404532800       7.499983774400
       291    1   0.000000       43.180500000000      24.930395467200       7.938816225600
       292    2   0.000000       45.143250000000      26.063604532800       7.499983774400
       293    1   0.000000       43.180500000000      18.131195467200       7.938816225600
       294    1   0.000000       47.106000000000      24.930395467200       7.938816225600
       295    2   0.000000       45.143250000000      19.264404532800       7.499983774400
       296    2   0.000000       41.217750000000      26.063604532800       7.499983774400
       297    1   0.000000       41.217750000000      14.731595467200       7.938816225600
       298    1   0.000000       45.143250000000      21.530795467200       7.938816225600
       299    2   0.000000       43.180500000000      15.864804532800       7.499983774400
       300    2   0.000000       47.106000000000      22.664004532800       7.499983774400
       301    2   0.000000       47.106000000000      15.864804532800       7.499983774400
       302    2   0.000000       43.180500000000      22.664004532800       7.499983774400
       303    1   0.000000       45.143250000000      14.731595467200       7.938816225600
       304    1   0.000000       41.217750000000      21.530795467200       7.938816225600
       305    1   0.000000       54.957000000000      18.131195467200       7.938816225600
       306    2   0.000000       49.068750000000      19.264404532800       7.499983774400
       307    1   0.000000       51.031500000000      24.930395467200       7.938816225600
       308    2   0.000000       52.994250000000      26.063604532800       7.499983774400
       309    1   0.000000       51.031500000000      18.131195467200       7.938816225600
       310    1   0.000000       54.957000000000      24.930395467200       7.938816225600
       311    2   0.000000       52.994250000000      19.264404532800       7.499983774400
       312    2   0.000000       49.068750000000      26.063604532800       7.499983774400
       313    1   0.000000       49.068750000000      14.731595467200       7.938816225600
       314    1   0.000000       52.994250000000      21.530795467200       7.938816225600
       315    2   0.000000       51.031500000000      15.864804532800       7.499983774400
       316    2   0.000000       54.957000000000      22.664004532800       7.499983774400
       317    2   0.000000       54.957000000000      15.864804532800       7.499983774400
       318    2   0.000000       51.031500000000      22.664004532800       7.499983774400
       319    1   0.000000       52.994250000000      14.731595467200       7.938816225600
       320    1   0.000000       49.068750000000      21.530795467200       7.938816225600
       321    1   0.000000       62.808000000000      18.131195467200       7.938816225600
       322    2   0.000000       56.919750000000      19.264404532800       7.499983774400
       323    1   0.000000       58.882500000000      24.930395467200       7.938816225600
       324    2   0.000000       60.845250000000      26.063604532800       7.499983774400
       325    1   0.000000       58.882500000000      18.131195467200       7.938816225600
       326    1   0.000000       62.808000000000      24.930395467200       7.938816225600