 # Ga8 As8
  
        1344  atoms
           2  atom types
 
      0.000000000000      97.472400000000  xlo xhi
      0.000000000000      98.483000000000  ylo yhi
      0.000000000000      15.601900000000  zlo zhi
 
Masses
 
            1   69.72300000             # Ga
            2   74.92160000             # As
 
Atoms # atomic
 
         1    1        6.092025000000       5.862088023000       7.500020552800
         2    1        2.030675000000      12.896588023000       7.500020552800
         3    2        6.092025000000       1.172411977000       8.101879447200
         4    2        2.030675000000       8.206911977000       8.101879447200
         5    2        0.000000000000       4.689661977000       8.101879447200
         6    2        4.061350000000      11.724161977000       8.101879447200
         7    1        2.030675000000       5.862088023000       7.500020552800
         8    2        4.061350000000       4.689661977000       8.101879447200
         9    1        6.092025000000      12.896588023000       7.500020552800
        10    2        0.000000000000      11.724161977000       8.101879447200
        11    1        0.000000000000       2.344838023000       7.500020552800
        12    1        4.061350000000       9.379338023000       7.500020552800
        13    1        4.061350000000       2.344838023000       7.500020552800
        14    1        0.000000000000       9.379338023000       7.500020552800
        15    2        2.030675000000       1.172411977000       8.101879447200
        16    2        6.092025000000       8.206911977000       8.101879447200
        17    1       14.214725000000       5.862088023000       7.500020552800
        18    1       10.153375000000      12.896588023000       7.500020552800
        19    2       14.214725000000       1.172411977000       8.101879447200
        20    2       10.153375000000       8.206911977000       8.101879447200
        21    2        8.122700000000       4.689661977000       8.101879447200
        22    2       12.184050000000      11.724161977000       8.101879447200
        23    1       10.153375000000       5.862088023000       7.500020552800
        24    2       12.184050000000       4.689661977000       8.101879447200
        25    1       14.214725000000      12.896588023000       7.500020552800
        26    2        8.122700000000      11.724161977000       8.101879447200
        27    1        8.122700000000       2.344838023000       7.500020552800
        28    1       12.184050000000       9.379338023000       7.500020552800
        29    1       12.184050000000       2.344838023000       7.500020552800
        30    1        8.122700000000       9.379338023000       7.500020552800
        31    2       10.153375000000       1.172411977000       8.101879447200
        32    2       14.214725000000       8.206911977000       8.101879447200
        33    1       22.337425000000       5.862088023000       7.500020552800
        34    1       18.276075000000      12.896588023000       7.500020552800
        35    2       22.337425000000       1.172411977000       8.101879447200
        36    2       18.276075000000       8.206911977000       8.101879447200
        37    2       16.245400000000       4.689661977000       8.101879447200
        38    2       20.306750000000      11.724161977000       8.101879447200
        39    1       18.276075000000       5.862088023000       7.500020552800
        40    2       20.306750000000       4.689661977000       8.101879447200
        41    1       22.337425000000      12.896588023000       7.500020552800
        42    2       16.245400000000      11.724161977000       8.101879447200
        43    1       16.245400000000       2.344838023000       7.500020552800
        44    1       20.306750000000       9.379338023000       7.500020552800
        45    1       20.306750000000       2.344838023000       7.500020552800
        46    1       16.245400000000       9.379338023000       7.500020552800
        47    2       18.276075000000       1.172411977000       8.101879447200
        48    2       22.337425000000       8.206911977000       8.101879447200
        49    1       30.460125000000       5.862088023000       7.500020552800
        50    1       26.398775000000      12.896588023000       7.500020552800
        51    2       30.460125000000       1.172411977000       8.101879447200
        52    2       26.398775000000       8.206911977000       8.101879447200
        53    2       24.368100000000       4.689661977000       8.101879447200
        54    2       28.429450000000      11.724161977000       8.101879447200
        55    1       26.398775000000       5.862088023000       7.500020552800
        56    2       28.429450000000       4.689661977000       8.101879447200
        57    1       30.460125000000      12.896588023000       7.500020552800
        58    2       24.368100000000      11.724161977000       8.101879447200
        59    1       24.368100000000       2.344838023000       7.500020552800
        60    1       28.429450000000       9.379338023000       7.500020552800
        61    1       28.429450000000       2.344838023000       7.500020552800
        62    1       24.368100000000       9.379338023000       7.500020552800
        63    2       26.398775000000       1.172411977000       8.101879447200
        64    2       30.460125000000       8.206911977000       8.101879447200
        65    1       38.582825000000       5.862088023000       7.500020552800
        66    1       34.521475000000      12.896588023000       7.500020552800
        67    2       38.582825000000       1.172411977000       8.101879447200
        68    2       34.521475000000       8.206911977000       8.101879447200
        69    2       32.490800000000       4.689661977000       8.101879447200
        70    2       36.552150000000      11.724161977000       8.101879447200
        71    1       34.521475000000       5.862088023000       7.500020552800
        72    2       36.552150000000       4.689661977000       8.101879447200
        73    1       38.582825000000      12.896588023000       7.500020552800
        74    2       32.490800000000      11.724161977000       8.101879447200
        75    1       32.490800000000       2.344838023000       7.500020552800
        76    1       36.552150000000       9.379338023000       7.500020552800
        77    1       36.552150000000       2.344838023000       7.500020552800
        78    1       32.490800000000       9.379338023000       7.500020552800
        79    2       34.521475000000       1.172411977000       8.101879447200
        80    2       38.582825000000       8.206911977000       8.101879447200
        81    1       46.705525000000       5.862088023000       7.500020552800
        82    1       42.644175000000      12.896588023000       7.500020552800
        83    2       46.705525000000       1.172411977000       8.101879447200
        84    2       42.644175000000       8.206911977000       8.101879447200
        85    2       40.613500000000       4.689661977000       8.101879447200
        86    2       44.674850000000      11.724161977000       8.101879447200
        87    1       42.644175000000       5.862088023000       7.500020552800
        88    2       44.674850000000       4.689661977000       8.101879447200
        89    1       46.705525000000      12.896588023000       7.500020552800
        90    2       40.613500000000      11.724161977000       8.101879447200
        91    1       40.613500000000       2.344838023000       7.500020552800
        92    1       44.674850000000       9.379338023000       7.500020552800
        93    1       44.674850000000       2.344838023000       7.500020552800
        94    1       40.613500000000       9.379338023000       7.500020552800
        95    2       42.644175000000       1.172411977000       8.101879447200
        96    2       46.705525000000       8.206911977000       8.101879447200
        97    1       54.828225000000       5.862088023000       7.500020552800
        98    1       50.766875000000      12.896588023000       7.500020552800
        99    2       54.828225000000       1.172411977000       8.101879447200
       100    2       50.766875000000       8.206911977000       8.101879447200
       101    2       48.736200000000       4.689661977000       8.101879447200
       102    2       52.797550000000      11.724161977000       8.101879447200
       103    1       50.766875000000       5.862088023000       7.500020552800
       104    2       52.797550000000       4.689661977000       8.101879447200
       105    1       54.828225000000      12.896588023000       7.500020552800
       106    2       48.736200000000      11.724161977000       8.101879447200
       107    1       48.736200000000       2.344838023000       7.500020552800
       108    1       52.797550000000       9.379338023000       7.500020552800
       109    1       52.797550000000       2.344838023000       7.500020552800
       110    1       48.736200000000       9.379338023000       7.500020552800
       111    2       50.766875000000       1.172411977000       8.101879447200
       112    2       54.828225000000       8.206911977000       8.101879447200
       113    1       62.950925000000       5.862088023000       7.500020552800
       114    1       58.889575000000      12.896588023000       7.500020552800
       115    2       62.950925000000       1.172411977000       8.101879447200
       116    2       58.889575000000       8.206911977000       8.101879447200
       117    2       56.858900000000       4.689661977000       8.101879447200
       118    2       60.920250000000      11.724161977000       8.101879447200
       119    1       58.889575000000       5.862088023000       7.500020552800
       120    2       60.920250000000       4.689661977000       8.101879447200
       121    1       62.950925000000      12.896588023000       7.500020552800
       122    2       56.858900000000      11.724161977000       8.101879447200
       123    1       56.858900000000       2.344838023000       7.500020552800
       124    1       60.920250000000       9.379338023000       7.500020552800
       125    1       60.920250000000       2.344838023000       7.500020552800
       126    1       56.858900000000       9.379338023000       7.500020552800
       127    2       58.889575000000       1.172411977000       8.101879447200
       128    2       62.950925000000       8.206911977000       8.101879447200
       129    1       71.073625000000       5.862088023000       7.500020552800
       130    1       67.012275000000      12.896588023000       7.500020552800
       131    2       71.073625000000       1.172411977000       8.101879447200
       132    2       67.012275000000       8.206911977000       8.101879447200
       133    2       64.981600000000       4.689661977000       8.101879447200
       134    2       69.042950000000      11.724161977000       8.101879447200
       135    1       67.012275000000       5.862088023000       7.500020552800
       136    2       69.042950000000       4.689661977000       8.101879447200
       137    1       71.073625000000      12.896588023000       7.500020552800
       138    2       64.981600000000      11.724161977000       8.101879447200
       139    1       64.981600000000       2.344838023000       7.500020552800
       140    1       69.042950000000       9.379338023000       7.500020552800
       141    1       69.042950000000       2.344838023000       7.500020552800
       142    1       64.981600000000       9.379338023000       7.500020552800
       143    2       67.012275000000       1.172411977000       8.101879447200
       144    2       71.073625000000       8.206911977000       8.101879447200
       145    1       79.196325000000       5.862088023000       7.500020552800
       146    1       75.134975000000      12.896588023000       7.500020552800
       147    2       79.196325000000       1.172411977000       8.101879447200
       148    2       75.134975000000       8.206911977000       8.101879447200
       149    2       73.104300000000       4.689661977000       8.101879447200
       150    2       77.165650000000      11.724161977000       8.101879447200
       151    1       75.134975000000       5.862088023000       7.500020552800
       152    2       77.165650000000       4.689661977000       8.101879447200
       153    1       79.196325000000      12.896588023000       7.500020552800
       154    2       73.104300000000      11.724161977000       8.101879447200
       155    1       73.104300000000       2.344838023000       7.500020552800
       156    1       77.165650000000       9.379338023000       7.500020552800
       157    1       77.165650000000       2.344838023000       7.500020552800
       158    1       73.104300000000       9.379338023000       7.500020552800
       159    2       75.134975000000       1.172411977000       8.101879447200
       160    2       79.196325000000       8.206911977000       8.101879447200
       161    1       87.319025000000       5.862088023000       7.500020552800
       162    1       83.257675000000      12.896588023000       7.500020552800
       163    2       87.319025000000       1.172411977000       8.101879447200
       164    2       83.257675000000       8.206911977000       8.101879447200
       165    2       81.227000000000       4.689661977000       8.101879447200
       166    2       85.288350000000      11.724161977000       8.101879447200
       167    1       83.257675000000       5.862088023000       7.500020552800
       168    2       85.288350000000       4.689661977000       8.101879447200
       169    1       87.319025000000      12.896588023000       7.500020552800
       170    2       81.227000000000      11.724161977000       8.101879447200
       171    1       81.227000000000       2.344838023000       7.500020552800
       172    1       85.288350000000       9.379338023000       7.500020552800
       173    1       85.288350000000       2.344838023000       7.500020552800
       174    1       81.227000000000       9.379338023000       7.500020552800
       175    2       83.257675000000       1.172411977000       8.101879447200
       176    2       87.319025000000       8.206911977000       8.101879447200
       177    1       95.441725000000       5.862088023000       7.500020552800
       178    1       91.380375000000      12.896588023000       7.500020552800
       179    2       95.441725000000       1.172411977000       8.101879447200
       180    2       91.380375000000       8.206911977000       8.101879447200
       181    2       89.349700000000       4.689661977000       8.101879447200
       182    2       93.411050000000      11.724161977000       8.101879447200
       183    1       91.380375000000       5.862088023000       7.500020552800
       184    2       93.411050000000       4.689661977000       8.101879447200
       185    1       95.441725000000      12.896588023000       7.500020552800
       186    2       89.349700000000      11.724161977000       8.101879447200
       187    1       89.349700000000       2.344838023000       7.500020552800
       188    1       93.411050000000       9.379338023000       7.500020552800
       189    1       93.411050000000       2.344838023000       7.500020552800
       190    1       89.349700000000       9.379338023000       7.500020552800
       191    2       91.380375000000       1.172411977000       8.101879447200
       192    2       95.441725000000       8.206911977000       8.101879447200
       193    1        6.092025000000      19.931088023000       7.500020552800
       194    1        2.030675000000      26.965588023000       7.500020552800
       195    2        6.092025000000      15.241411977000       8.101879447200
       196    2        2.030675000000      22.275911977000       8.101879447200
       197    2        0.000000000000      18.758661977000       8.101879447200
       198    2        4.061350000000      25.793161977000       8.101879447200
       199    1        2.030675000000      19.931088023000       7.500020552800
       200    2        4.061350000000      18.758661977000       8.101879447200
       201    1        6.092025000000      26.965588023000       7.500020552800
       202    2        0.000000000000      25.793161977000       8.101879447200
       203    1        0.000000000000      16.413838023000       7.500020552800
       204    1        4.061350000000      23.448338023000       7.500020552800
       205    1        4.061350000000      16.413838023000       7.500020552800
       206    1        0.000000000000      23.448338023000       7.500020552800
       207    2        2.030675000000      15.241411977000       8.101879447200
       208    2        6.092025000000      22.275911977000       8.101879447200
       209    1       14.214725000000      19.931088023000       7.500020552800
       210    1       10.153375000000      26.965588023000       7.500020552800
       211    2       14.214725000000      15.241411977000       8.101879447200
       212    2       10.153375000000      22.275911977000       8.101879447200
       213    2        8.122700000000      18.758661977000       8.101879447200
       214    2       12.184050000000      25.793161977000       8.101879447200
       215    1       10.153375000000      19.931088023000       7.500020552800
       216    2       12.184050000000      18.758661977000       8.101879447200
       217    1       14.214725000000      26.965588023000       7.500020552800
       218    2        8.122700000000      25.793161977000       8.101879447200
       219    1        8.122700000000      16.413838023000       7.500020552800
       220    1       12.184050000000      23.448338023000       7.500020552800
       221    1       12.184050000000      16.413838023000       7.500020552800
       222    1        8.122700000000      23.448338023000       7.500020552800
       223    2       10.153375000000      15.241411977000       8.101879447200
       224    2       14.214725000000      22.275911977000       8.101879447200
       225    1       22.337425000000      19.931088023000       7.500020552800
       226    1       18.276075000000      26.965588023000       7.500020552800
       227    2       22.337425000000      15.241411977000       8.101879447200
       228    2       18.276075000000      22.275911977000       8.101879447200
       229    2       16.245400000000      18.758661977000       8.101879447200
       230    2       20.306750000000      25.793161977000       8.101879447200
       231    1       18.276075000000      19.931088023000       7.500020552800
       232    2       20.306750000000      18.758661977000       8.101879447200
       233    1       22.337425000000      26.965588023000       7.500020552800
       234    2       16.245400000000      25.793161977000       8.101879447200
       235    1       16.245400000000      16.413838023000       7.500020552800
       236    1       20.306750000000      23.448338023000       7.500020552800
       237    1       20.306750000000      16.413838023000       7.500020552800
       238    1       16.245400000000      23.448338023000       7.500020552800
       239    2       18.276075000000      15.241411977000       8.101879447200
       240    2       22.337425000000      22.275911977000       8.101879447200
       241    1       30.460125000000      19.931088023000       7.500020552800
       242    1       26.398775000000      26.965588023000       7.500020552800
       243    2       30.460125000000      15.241411977000       8.101879447200
       244    2       26.398775000000      22.275911977000       8.101879447200
       245    2       24.368100000000      18.758661977000       8.101879447200
       246    2       28.429450000000      25.793161977000       8.101879447200
       247    1       26.398775000000      19.931088023000       7.500020552800
       248    2       28.429450000000      18.758661977000       8.101879447200
       249    1       30.460125000000      26.965588023000       7.500020552800
       250    2       24.368100000000      25.793161977000       8.101879447200
       251    1       24.368100000000      16.413838023000       7.500020552800
       252    1       28.429450000000      23.448338023000       7.500020552800
       253    1       28.429450000000      16.413838023000       7.500020552800
       254    1       24.368100000000      23.448338023000       7.500020552800
       255    2       26.398775000000      15.241411977000       8.101879447200
       256    2       30.460125000000      22.275911977000       8.101879447200
       257    1       38.582825000000      19.931088023000       7.500020552800
       258    1       34.521475000000      26.965588023000       7.500020552800
       259    2       38.582825000000      15.241411977000       8.101879447200
       260    2       34.521475000000      22.275911977000       8.101879447200
       261    2       32.490800000000      18.758661977000       8.101879447200
       262    2       36.552150000000      25.793161977000       8.101879447200
       263    1       34.521475000000      19.931088023000       7.500020552800
       264    2       36.552150000000      18.758661977000       8.101879447200
       265    1       38.582825000000      26.965588023000       7.500020552800
       266    2       32.490800000000      25.793161977000       8.101879447200
       267    1       32.490800000000      16.413838023000       7.500020552800
       268    1       36.552150000000      23.448338023000       7.500020552800
       269    1       36.552150000000      16.413838023000       7.500020552800
       270    1       32.490800000000      23.448338023000       7.500020552800
       271    2       34.521475000000      15.241411977000       8.101879447200
       272    2       38.582825000000      22.275911977000       8.101879447200
       273    1       46.705525000000      19.931088023000       7.500020552800
       274    1       42.644175000000      26.965588023000       7.500020552800
       275    2       46.705525000000      15.241411977000       8.101879447200
       276    2       42.644175000000      22.275911977000       8.101879447200
       277    2       40.613500000000      18.758661977000       8.101879447200
       278    2       44.674850000000      25.793161977000       8.101879447200
       279    1       42.644175000000      19.931088023000       7.500020552800
       280    2       44.674850000000      18.758661977000       8.101879447200
       281    1       46.705525000000      26.965588023000       7.500020552800
       282    2       40.613500000000      25.793161977000       8.101879447200
       283    1       40.613500000000      16.413838023000       7.500020552800
       284    1       44.674850000000      23.448338023000       7.500020552800
       285    1       44.674850000000      16.413838023000       7.500020552800
       286    1       40.613500000000      23.448338023000       7.500020552800
       287    2       42.644175000000      15.241411977000       8.101879447200
       288    2       46.705525000000      22.275911977000       8.101879447200
       289    1       54.828225000000      19.931088023000       7.500020552800
       290    1       50.766875000000      26.965588023000       7.500020552800
       291    2       54.828225000000      15.241411977000       8.101879447200
       292    2       50.766875000000      22.275911977000       8.101879447200
       293    2       48.736200000000      18.758661977000       8.101879447200
       294    2       52.797550000000      25.793161977000       8.101879447200
       295    1       50.766875000000      19.931088023000       7.500020552800
       296    2       52.797550000000      18.758661977000       8.101879447200
       297    1       54.828225000000      26.965588023000       7.500020552800
       298    2       48.736200000000      25.793161977000       8.101879447200
       299    1       48.736200000000      16.413838023000       7.500020552800
       300    1       52.797550000000      23.448338023000       7.500020552800
       301    1       52.797550000000      16.413838023000       7.500020552800
       302    1       48.736200000000      23.448338023000       7.500020552800
       303    2       50.766875000000      15.241411977000       8.101879447200
       304    2       54.828225000000      22.275911977000       8.101879447200
       305    1       62.950925000000      19.931088023000       7.500020552800
       306    1       58.889575000000      26.965588023000       7.500020552800
       307    2       62.950925000000      15.241411977000       8.101879447200
       308    2       58.889575000000      22.275911977000       8.101879447200
       309    2       56.858900000000      18.758661977000       8.101879447200
       310    2       60.920250000000      25.793161977000       8.101879447200
       311    1       58.889575000000      19.931088023000       7.500020552800
       312    2       60.920250000000      18.758661977000       8.101879447200
       313    1       62.950925000000      26.965588023000       7.500020552800
       314    2       56.858900000000      25.793161977000       8.101879447200
       315    1       56.858900000000      16.413838023000       7.500020552800
       316    1       60.920250000000      23.448338023000       7.500020552800
       317    1       60.920250000000      16.413838023000       7.500020552800
       318    1       56.858900000000      23.448338023000       7.500020552800
       319    2       58.889575000000      15.241411977000       8.101879447200
       320    2       62.950925000000      22.275911977000       8.101879447200
       321    1       71.073625000000      19.931088023000       7.500020552800
       322    1       67.012275000000      26.965588023000       7.500020552800
       323    2       71.073625000000      15.241411977000       8.101879447200
       324    2       67.012275000000      22.275911977000       8.101879447200
       325    2       64.981600000000      18.758661977000       8.101879447200
       326    2       69.042950000000      25.793161977000       8.101879447200
       327    1       67.012275000000      19.931088023000       7.500020552800
       328    2       69.042950000000      18.758661977000       8.101879447200
       329    1       71.073625000000      26.965588023000       7.500020552800
       330    2       64.981600000000      25.793161977000       8.101879447200
       331    1       64.981600000000      16.413838023000       7.500020552800
       332    1       69.042950000000      23.448338023000       7.500020552800
       333    1       69.042950000000      16.413838023000       7.500020552800
       334    1       64.981600000000      23.448338023000       7.500020552800
       335    2       67.012275000000      15.241411977000       8.101879447200
       336    2       71.073625000000      22.275911977000       8.101879447200
       337    1       79.196325000000      19.931088023000       7.500020552800
       338    1       75.134975000000      26.965588023000       7.500020552800
       339    2       79.196325000000      15.241411977000       8.101879447200
       340    2       75.134975000000      22.275911977000       8.101879447200
       341    2       73.104300000000      18.758661977000       8.101879447200
       342    2       77.165650000000      25.793161977000       8.101879447200
       343    1       75.134975000000      19.931088023000       7.500020552800
       344    2       77.165650000000      18.758661977000       8.101879447200
       345    1       79.196325000000      26.965588023000       7.500020552800
       346    2       73.104300000000      25.793161977000       8.101879447200
       347    1       73.104300000000      16.413838023000       7.500020552800
       348    1       77.165650000000      23.448338023000       7.500020552800
       349    1       77.165650000000      16.413838023000       7.500020552800
       350    1       73.104300000000      23.448338023000       7.500020552800
       351    2       75.134975000000      15.241411977000       8.101879447200
       352    2       79.196325000000      22.275911977000       8.101879447200
       353    1       87.319025000000      19.931088023000       7.500020552800
       354    1       83.257675000000      26.965588023000       7.500020552800
       355    2       87.319025000000      15.241411977000       8.101879447200
       356    2       83.257675000000      22.275911977000       8.101879447200
       357    2       81.227000000000      18.758661977000       8.101879447200
       358    2       85.288350000000      25.793161977000       8.101879447200
       359    1       83.257675000000      19.931088023000       7.500020552800
       360    2       85.288350000000      18.758661977000       8.101879447200
       361    1       87.319025000000      26.965588023000       7.500020552800
       362    2       81.227000000000      25.793161977000       8.101879447200
       363    1       81.227000000000      16.413838023000       7.500020552800
       364    1       85.288350000000      23.448338023000       7.500020552800
       365    1       85.288350000000      16.413838023000       7.500020552800
       366    1       81.227000000000      23.448338023000       7.500020552800
       367    2       83.257675000000      15.241411977000       8.101879447200
       368    2       87.319025000000      22.275911977000       8.101879447200
       369    1       95.441725000000      19.931088023000       7.500020552800
       370    1       91.380375000000      26.965588023000       7.500020552800