 # Te8 Ge8
  
        1456  atoms
           2  atom types
 
      0.000000000000     102.529700000000  xlo xhi
      0.000000000000      95.623500000000  ylo yhi
      0.000000000000      16.553900000000  zlo zhi
 
Masses
 
            1   127.60000000            # Te
            2   72.63000000             # Ge
 
Atoms # atomic
 
         1    1        5.915175000000       5.691879553500       7.497128878800
         2    1        1.971725000000      12.522129553500       7.497128878800
         3    2        1.971725000000       1.138370446500       9.056953214100
         4    2        5.915175000000       7.968620446500       9.056953214100
         5    1        0.000000000000       2.276754553500       7.497128878800
         6    1        3.943450000000       9.107004553500       7.497128878800
         7    1        3.943450000000       2.276754553500       7.497128878800
         8    1        0.000000000000       9.107004553500       7.497128878800
         9    2        3.943450000000       4.553495446500       9.056953214100
        10    2        0.000000000000      11.383745446500       9.056953214100
        11    2        5.915175000000       1.138370446500       9.056953214100
        12    2        1.971725000000       7.968620446500       9.056953214100
        13    1        1.971725000000       5.691879553500       7.497128878800
        14    1        5.915175000000      12.522129553500       7.497128878800
        15    2        7.886900000000       4.553495446500       9.056953214100
        16    2        3.943450000000      11.383745446500       9.056953214100
        17    1       13.802075000000       5.691879553500       7.497128878800
        18    1        9.858625000000      12.522129553500       7.497128878800
        19    2        9.858625000000       1.138370446500       9.056953214100
        20    2       13.802075000000       7.968620446500       9.056953214100
        21    1        7.886900000000       2.276754553500       7.497128878800
        22    1       11.830350000000       9.107004553500       7.497128878800
        23    1       11.830350000000       2.276754553500       7.497128878800
        24    1        7.886900000000       9.107004553500       7.497128878800
        25    2       11.830350000000       4.553495446500       9.056953214100
        26    2        7.886900000000      11.383745446500       9.056953214100
        27    2       13.802075000000       1.138370446500       9.056953214100
        28    2        9.858625000000       7.968620446500       9.056953214100
        29    1        9.858625000000       5.691879553500       7.497128878800
        30    1       13.802075000000      12.522129553500       7.497128878800
        31    2       15.773800000000       4.553495446500       9.056953214100
        32    2       11.830350000000      11.383745446500       9.056953214100
        33    1       21.688975000000       5.691879553500       7.497128878800
        34    1       17.745525000000      12.522129553500       7.497128878800
        35    2       17.745525000000       1.138370446500       9.056953214100
        36    2       21.688975000000       7.968620446500       9.056953214100
        37    1       15.773800000000       2.276754553500       7.497128878800
        38    1       19.717250000000       9.107004553500       7.497128878800
        39    1       19.717250000000       2.276754553500       7.497128878800
        40    1       15.773800000000       9.107004553500       7.497128878800
        41    2       19.717250000000       4.553495446500       9.056953214100
        42    2       15.773800000000      11.383745446500       9.056953214100
        43    2       21.688975000000       1.138370446500       9.056953214100
        44    2       17.745525000000       7.968620446500       9.056953214100
        45    1       17.745525000000       5.691879553500       7.497128878800
        46    1       21.688975000000      12.522129553500       7.497128878800
        47    2       23.660700000000       4.553495446500       9.056953214100
        48    2       19.717250000000      11.383745446500       9.056953214100
        49    1       29.575875000000       5.691879553500       7.497128878800
        50    1       25.632425000000      12.522129553500       7.497128878800
        51    2       25.632425000000       1.138370446500       9.056953214100
        52    2       29.575875000000       7.968620446500       9.056953214100
        53    1       23.660700000000       2.276754553500       7.497128878800
        54    1       27.604150000000       9.107004553500       7.497128878800
        55    1       27.604150000000       2.276754553500       7.497128878800
        56    1       23.660700000000       9.107004553500       7.497128878800
        57    2       27.604150000000       4.553495446500       9.056953214100
        58    2       23.660700000000      11.383745446500       9.056953214100
        59    2       29.575875000000       1.138370446500       9.056953214100
        60    2       25.632425000000       7.968620446500       9.056953214100
        61    1       25.632425000000       5.691879553500       7.497128878800
        62    1       29.575875000000      12.522129553500       7.497128878800
        63    2       31.547600000000       4.553495446500       9.056953214100
        64    2       27.604150000000      11.383745446500       9.056953214100
        65    1       37.462775000000       5.691879553500       7.497128878800
        66    1       33.519325000000      12.522129553500       7.497128878800
        67    2       33.519325000000       1.138370446500       9.056953214100
        68    2       37.462775000000       7.968620446500       9.056953214100
        69    1       31.547600000000       2.276754553500       7.497128878800
        70    1       35.491050000000       9.107004553500       7.497128878800
        71    1       35.491050000000       2.276754553500       7.497128878800
        72    1       31.547600000000       9.107004553500       7.497128878800
        73    2       35.491050000000       4.553495446500       9.056953214100
        74    2       31.547600000000      11.383745446500       9.056953214100
        75    2       37.462775000000       1.138370446500       9.056953214100
        76    2       33.519325000000       7.968620446500       9.056953214100
        77    1       33.519325000000       5.691879553500       7.497128878800
        78    1       37.462775000000      12.522129553500       7.497128878800
        79    2       39.434500000000       4.553495446500       9.056953214100
        80    2       35.491050000000      11.383745446500       9.056953214100
        81    1       45.349675000000       5.691879553500       7.497128878800
        82    1       41.406225000000      12.522129553500       7.497128878800
        83    2       41.406225000000       1.138370446500       9.056953214100
        84    2       45.349675000000       7.968620446500       9.056953214100
        85    1       39.434500000000       2.276754553500       7.497128878800
        86    1       43.377950000000       9.107004553500       7.497128878800
        87    1       43.377950000000       2.276754553500       7.497128878800
        88    1       39.434500000000       9.107004553500       7.497128878800
        89    2       43.377950000000       4.553495446500       9.056953214100
        90    2       39.434500000000      11.383745446500       9.056953214100
        91    2       45.349675000000       1.138370446500       9.056953214100
        92    2       41.406225000000       7.968620446500       9.056953214100
        93    1       41.406225000000       5.691879553500       7.497128878800
        94    1       45.349675000000      12.522129553500       7.497128878800
        95    2       47.321400000000       4.553495446500       9.056953214100
        96    2       43.377950000000      11.383745446500       9.056953214100
        97    1       53.236575000000       5.691879553500       7.497128878800
        98    1       49.293125000000      12.522129553500       7.497128878800
        99    2       49.293125000000       1.138370446500       9.056953214100
       100    2       53.236575000000       7.968620446500       9.056953214100
       101    1       47.321400000000       2.276754553500       7.497128878800
       102    1       51.264850000000       9.107004553500       7.497128878800
       103    1       51.264850000000       2.276754553500       7.497128878800
       104    1       47.321400000000       9.107004553500       7.497128878800
       105    2       51.264850000000       4.553495446500       9.056953214100
       106    2       47.321400000000      11.383745446500       9.056953214100
       107    2       53.236575000000       1.138370446500       9.056953214100
       108    2       49.293125000000       7.968620446500       9.056953214100
       109    1       49.293125000000       5.691879553500       7.497128878800
       110    1       53.236575000000      12.522129553500       7.497128878800
       111    2       55.208300000000       4.553495446500       9.056953214100
       112    2       51.264850000000      11.383745446500       9.056953214100
       113    1       61.123475000000       5.691879553500       7.497128878800
       114    1       57.180025000000      12.522129553500       7.497128878800
       115    2       57.180025000000       1.138370446500       9.056953214100
       116    2       61.123475000000       7.968620446500       9.056953214100
       117    1       55.208300000000       2.276754553500       7.497128878800
       118    1       59.151750000000       9.107004553500       7.497128878800
       119    1       59.151750000000       2.276754553500       7.497128878800
       120    1       55.208300000000       9.107004553500       7.497128878800
       121    2       59.151750000000       4.553495446500       9.056953214100
       122    2       55.208300000000      11.383745446500       9.056953214100
       123    2       61.123475000000       1.138370446500       9.056953214100
       124    2       57.180025000000       7.968620446500       9.056953214100
       125    1       57.180025000000       5.691879553500       7.497128878800
       126    1       61.123475000000      12.522129553500       7.497128878800
       127    2       63.095200000000       4.553495446500       9.056953214100
       128    2       59.151750000000      11.383745446500       9.056953214100
       129    1       69.010375000000       5.691879553500       7.497128878800
       130    1       65.066925000000      12.522129553500       7.497128878800
       131    2       65.066925000000       1.138370446500       9.056953214100
       132    2       69.010375000000       7.968620446500       9.056953214100
       133    1       63.095200000000       2.276754553500       7.497128878800
       134    1       67.038650000000       9.107004553500       7.497128878800
       135    1       67.038650000000       2.276754553500       7.497128878800
       136    1       63.095200000000       9.107004553500       7.497128878800
       137    2       67.038650000000       4.553495446500       9.056953214100
       138    2       63.095200000000      11.383745446500       9.056953214100
       139    2       69.010375000000       1.138370446500       9.056953214100
       140    2       65.066925000000       7.968620446500       9.056953214100
       141    1       65.066925000000       5.691879553500       7.497128878800
       142    1       69.010375000000      12.522129553500       7.497128878800
       143    2       70.982100000000       4.553495446500       9.056953214100
       144    2       67.038650000000      11.383745446500       9.056953214100
       145    1       76.897275000000       5.691879553500       7.497128878800
       146    1       72.953825000000      12.522129553500       7.497128878800
       147    2       72.953825000000       1.138370446500       9.056953214100
       148    2       76.897275000000       7.968620446500       9.056953214100
       149    1       70.982100000000       2.276754553500       7.497128878800
       150    1       74.925550000000       9.107004553500       7.497128878800
       151    1       74.925550000000       2.276754553500       7.497128878800
       152    1       70.982100000000       9.107004553500       7.497128878800
       153    2       74.925550000000       4.553495446500       9.056953214100
       154    2       70.982100000000      11.383745446500       9.056953214100
       155    2       76.897275000000       1.138370446500       9.056953214100
       156    2       72.953825000000       7.968620446500       9.056953214100
       157    1       72.953825000000       5.691879553500       7.497128878800
       158    1       76.897275000000      12.522129553500       7.497128878800
       159    2       78.869000000000       4.553495446500       9.056953214100
       160    2       74.925550000000      11.383745446500       9.056953214100
       161    1       84.784175000000       5.691879553500       7.497128878800
       162    1       80.840725000000      12.522129553500       7.497128878800
       163    2       80.840725000000       1.138370446500       9.056953214100
       164    2       84.784175000000       7.968620446500       9.056953214100
       165    1       78.869000000000       2.276754553500       7.497128878800
       166    1       82.812450000000       9.107004553500       7.497128878800
       167    1       82.812450000000       2.276754553500       7.497128878800
       168    1       78.869000000000       9.107004553500       7.497128878800
       169    2       82.812450000000       4.553495446500       9.056953214100
       170    2       78.869000000000      11.383745446500       9.056953214100
       171    2       84.784175000000       1.138370446500       9.056953214100
       172    2       80.840725000000       7.968620446500       9.056953214100
       173    1       80.840725000000       5.691879553500       7.497128878800
       174    1       84.784175000000      12.522129553500       7.497128878800
       175    2       86.755900000000       4.553495446500       9.056953214100
       176    2       82.812450000000      11.383745446500       9.056953214100
       177    1       92.671075000000       5.691879553500       7.497128878800
       178    1       88.727625000000      12.522129553500       7.497128878800
       179    2       88.727625000000       1.138370446500       9.056953214100
       180    2       92.671075000000       7.968620446500       9.056953214100
       181    1       86.755900000000       2.276754553500       7.497128878800
       182    1       90.699350000000       9.107004553500       7.497128878800
       183    1       90.699350000000       2.276754553500       7.497128878800
       184    1       86.755900000000       9.107004553500       7.497128878800
       185    2       90.699350000000       4.553495446500       9.056953214100
       186    2       86.755900000000      11.383745446500       9.056953214100
       187    2       92.671075000000       1.138370446500       9.056953214100
       188    2       88.727625000000       7.968620446500       9.056953214100
       189    1       88.727625000000       5.691879553500       7.497128878800
       190    1       92.671075000000      12.522129553500       7.497128878800
       191    2       94.642800000000       4.553495446500       9.056953214100
       192    2       90.699350000000      11.383745446500       9.056953214100
       193    1      100.557975000000       5.691879553500       7.497128878800
       194    1       96.614525000000      12.522129553500       7.497128878800
       195    2       96.614525000000       1.138370446500       9.056953214100
       196    2      100.557975000000       7.968620446500       9.056953214100
       197    1       94.642800000000       2.276754553500       7.497128878800
       198    1       98.586250000000       9.107004553500       7.497128878800
       199    1       98.586250000000       2.276754553500       7.497128878800
       200    1       94.642800000000       9.107004553500       7.497128878800
       201    2       98.586250000000       4.553495446500       9.056953214100
       202    2       94.642800000000      11.383745446500       9.056953214100
       203    2      100.557975000000       1.138370446500       9.056953214100
       204    2       96.614525000000       7.968620446500       9.056953214100
       205    1       96.614525000000       5.691879553500       7.497128878800
       206    1      100.557975000000      12.522129553500       7.497128878800
       207    2      102.529700000000       4.553495446500       9.056953214100
       208    2       98.586250000000      11.383745446500       9.056953214100
       209    1        5.915175000000      19.352379553500       7.497128878800
       210    1        1.971725000000      26.182629553500       7.497128878800
       211    2        1.971725000000      14.798870446500       9.056953214100
       212    2        5.915175000000      21.629120446500       9.056953214100
       213    1        0.000000000000      15.937254553500       7.497128878800
       214    1        3.943450000000      22.767504553500       7.497128878800
       215    1        3.943450000000      15.937254553500       7.497128878800
       216    1        0.000000000000      22.767504553500       7.497128878800
       217    2        3.943450000000      18.213995446500       9.056953214100
       218    2        0.000000000000      25.044245446500       9.056953214100
       219    2        5.915175000000      14.798870446500       9.056953214100
       220    2        1.971725000000      21.629120446500       9.056953214100
       221    1        1.971725000000      19.352379553500       7.497128878800
       222    1        5.915175000000      26.182629553500       7.497128878800
       223    2        7.886900000000      18.213995446500       9.056953214100
       224    2        3.943450000000      25.044245446500       9.056953214100
       225    1       13.802075000000      19.352379553500       7.497128878800
       226    1        9.858625000000      26.182629553500       7.497128878800
       227    2        9.858625000000      14.798870446500       9.056953214100
       228    2       13.802075000000      21.629120446500       9.056953214100
       229    1        7.886900000000      15.937254553500       7.497128878800
       230    1       11.830350000000      22.767504553500       7.497128878800
       231    1       11.830350000000      15.937254553500       7.497128878800
       232    1        7.886900000000      22.767504553500       7.497128878800
       233    2       11.830350000000      18.213995446500       9.056953214100
       234    2        7.886900000000      25.044245446500       9.056953214100
       235    2       13.802075000000      14.798870446500       9.056953214100
       236    2        9.858625000000      21.629120446500       9.056953214100
       237    1        9.858625000000      19.352379553500       7.497128878800
       238    1       13.802075000000      26.182629553500       7.497128878800
       239    2       15.773800000000      18.213995446500       9.056953214100
       240    2       11.830350000000      25.044245446500       9.056953214100
       241    1       21.688975000000      19.352379553500       7.497128878800
       242    1       17.745525000000      26.182629553500       7.497128878800
       243    2       17.745525000000      14.798870446500       9.056953214100
       244    2       21.688975000000      21.629120446500       9.056953214100
       245    1       15.773800000000      15.937254553500       7.497128878800
       246    1       19.717250000000      22.767504553500       7.497128878800
       247    1       19.717250000000      15.937254553500       7.497128878800
       248    1       15.773800000000      22.767504553500       7.497128878800
       249    2       19.717250000000      18.213995446500       9.056953214100
       250    2       15.773800000000      25.044245446500       9.056953214100
       251    2       21.688975000000      14.798870446500       9.056953214100
       252    2       17.745525000000      21.629120446500       9.056953214100
       253    1       17.745525000000      19.352379553500       7.497128878800
       254    1       21.688975000000      26.182629553500       7.497128878800
       255    2       23.660700000000      18.213995446500       9.056953214100
       256    2       19.717250000000      25.044245446500       9.056953214100
       257    1       29.575875000000      19.352379553500       7.497128878800
       258    1       25.632425000000      26.182629553500       7.497128878800
       259    2       25.632425000000      14.798870446500       9.056953214100
       260    2       29.575875000000      21.629120446500       9.056953214100
       261    1       23.660700000000      15.937254553500       7.497128878800
       262    1       27.604150000000      22.767504553500       7.497128878800
       263    1       27.604150000000      15.937254553500       7.497128878800
       264    1       23.660700000000      22.767504553500       7.497128878800
       265    2       27.604150000000      18.213995446500       9.056953214100
       266    2       23.660700000000      25.044245446500       9.056953214100
       267    2       29.575875000000      14.798870446500       9.056953214100
       268    2       25.632425000000      21.629120446500       9.056953214100
       269    1       25.632425000000      19.352379553500       7.497128878800
       270    1       29.575875000000      26.182629553500       7.497128878800
       271    2       31.547600000000      18.213995446500       9.056953214100
       272    2       27.604150000000      25.044245446500       9.056953214100
       273    1       37.462775000000      19.352379553500       7.497128878800
       274    1       33.519325000000      26.182629553500       7.497128878800
       275    2       33.519325000000      14.798870446500       9.056953214100
       276    2       37.462775000000      21.629120446500       9.056953214100
       277    1       31.547600000000      15.937254553500       7.497128878800
       278    1       35.491050000000      22.767504553500       7.497128878800
       279    1       35.491050000000      15.937254553500       7.497128878800
       280    1       31.547600000000      22.767504553500       7.497128878800
       281    2       35.491050000000      18.213995446500       9.056953214100
       282    2       31.547600000000      25.044245446500       9.056953214100
       283    2       37.462775000000      14.798870446500       9.056953214100
       284    2       33.519325000000      21.629120446500       9.056953214100
       285    1       33.519325000000      19.352379553500       7.497128878800
       286    1       37.462775000000      26.182629553500       7.497128878800
       287    2       39.434500000000      18.213995446500       9.056953214100
       288    2       35.491050000000      25.044245446500       9.056953214100
       289    1       45.349675000000      19.352379553500       7.497128878800
       290    1       41.406225000000      26.182629553500       7.497128878800
       291    2       41.406225000000      14.798870446500       9.056953214100
       292    2       45.349675000000      21.629120446500       9.056953214100
       293    1       39.434500000000      15.937254553500       7.497128878800
       294    1       43.377950000000      22.767504553500       7.497128878800
       295    1       43.377950000000      15.937254553500       7.497128878800
       296    1       39.434500000000      22.767504553500       7.497128878800
       297    2       43.377950000000      18.213995446500       9.056953214100
       298    2       39.434500000000      25.044245446500       9.056953214100
       299    2       45.349675000000      14.798870446500       9.056953214100
       300    2       41.406225000000      21.629120446500       9.056953214100
       301    1       41.406225000000      19.352379553500       7.497128878800
       302    1       45.349675000000      26.182629553500       7.497128878800
       303    2       47.321400000000      18.213995446500       9.056953214100
       304    2       43.377950000000      25.044245446500       9.056953214100
       305    1       53.236575000000      19.352379553500       7.497128878800
       306    1       49.293125000000      26.182629553500       7.497128878800
       307    2       49.293125000000      14.798870446500       9.056953214100
       308    2       53.236575000000      21.629120446500       9.056953214100
       309    1       47.321400000000      15.937254553500       7.497128878800
       310    1       51.264850000000      22.767504553500       7.497128878800
       311    1       51.264850000000      15.937254553500       7.497128878800
       312    1       47.321400000000      22.767504553500       7.497128878800
       313    2       51.264850000000      18.213995446500       9.056953214100
       314    2       47.321400000000      25.044245446500       9.056953214100
       315    2       53.236575000000      14.798870446500       9.056953214100
       316    2       49.293125000000      21.629120446500       9.056953214100
       317    1       49.293125000000      19.352379553500       7.497128878800
       318    1       53.236575000000      26.182629553500       7.497128878800
       319    2       55.208300000000      18.213995446500       9.056953214100
       320    2       51.264850000000      25.044245446500       9.056953214100
       321    1       61.123475000000      19.352379553500       7.497128878800
       322    1       57.180025000000      26.182629553500       7.497128878800
       323    2       57.180025000000      14.798870446500       9.056953214100
       324    2       61.123475000000      21.629120446500       9.056953214100
       325    1       55.208300000000      15.937254553500       7.497128878800
       326    1       59.151750000000      22.767504553500       7.497128878800
       327    1       59.151750000000      15.937254553500       7.497128878800
       328    1       55.208300000000      22.767504553500       7.497128878800
       329    2       59.151750000000      18.213995446500       9.056953214100
       330    2       55.208300000000      25.044245446500       9.056953214100
       331    2       61.123475000000      14.798870446500       9.056953214100
       332    2       57.180025000000      21.629120446500       9.056953214100
       333    1       57.180025000000      19.352379553500       7.497128878800
       334    1       61.123475000000      26.182629553500       7.497128878800
       335    2       63.095200000000      18.213995446500       9.056953214100
       336    2       59.151750000000      25.044245446500       9.056953214100
       337    1       69.010375000000      19.352379553500       7.497128878800
       338    1       65.066925000000      26.182629553500       7.497128878800
       339    2       65.066925000000      14.798870446500       9.056953214100
       340    2       69.010375000000      21.629120446500       9.056953214100
       341    1       63.095200000000      15.937254553500       7.497128878800
       342    1       67.038650000000      22.767504553500       7.497128878800
       343    1       67.038650000000      15.937254553500       7.497128878800
       344    1       63.095200000000      22.767504553500       7.497128878800
       345    2       67.038650000000      18.213995446500       9.056953214100
       346    2       63.095200000000      25.044245446500       9.056953214100
       347    2       69.010375000000      14.798870446500       9.056953214100
       348    2       65.066925000000      21.629120446500       9.056953214100
       349    1       65.066925000000      19.352379553500       7.497128878800
       350    1       69.010375000000      26.182629553500       7.497128878800
       351    2       70.982100000000      18.213995446500       9.056953214100
       352    2       67.038650000000      25.044245446500       9.056953214100
       353    1       76.897275000000      19.352379553500       7.497128878800
       354    1       72.953825000000      26.182629553500       7.497128878800
       355    2       72.953825000000      14.798870446500       9.056953214100
       356    2       76.897275000000      21.629120446500       9.056953214100
       357    1       70.982100000000      15.937254553500       7.497128878800
       358    1       74.925550000000      22.767504553500       7.497128878800
       359    1       74.925550000000      15.937254553500       7.497128878800
       360    1       70.982100000000      22.767504553500       7.497128878800
       361    2       74.925550000000      18.213995446500       9.056953214100
       362    2       70.982100000000      25.044245446500       9.056953214100
       363    2       76.897275000000      14.798870446500       9.056953214100
       364    2       72.953825000000      21.629120446500       9.056953214100
       365    1       72.953825000000      19.352379553500       7.497128878800
       366    1       76.897275000000      26.182629553500       7.497128878800
       367    2       78.869000000000      18.213995446500       9.056953214100
       368    2       74.925550000000      25.044245446500       9.056953214100
       369    1       84.784175000000      19.352379553500       7.497128878800
       370    1       80.840725000000      26.182629553500       7.497128878800