 # In8 As8
  
        1232  atoms
           2  atom types
 
      0.000000000000      95.747300000000  xlo xhi
      0.000000000000     105.534100000000  ylo yhi
      0.000000000000      15.668700000000  zlo zhi
 
Masses
 
            1   114.81800000            # In
            2   74.92160000             # As
 
Atoms # atomic
 
         1    1        6.528225000000       6.281796692100       7.505589336600
         2    1        2.176075000000      13.819946692100       7.505589336600
         3    2        6.528225000000       1.256353307900       8.162656271100
         4    2        2.176075000000       8.794503307900       8.162656271100
         5    1        8.704300000000       2.512721692100       7.505589336600
         6    1        4.352150000000      10.050871692100       7.505589336600
         7    2        2.176075000000       1.256353307900       8.162656271100
         8    2        6.528225000000       8.794503307900       8.162656271100
         9    2        0.000000000000       5.025428307900       8.162656271100
        10    2        4.352150000000      12.563578307900       8.162656271100
        11    2        4.352150000000       5.025428307900       8.162656271100
        12    2        8.704300000000      12.563578307900       8.162656271100
        13    1        2.176075000000       6.281796692100       7.505589336600
        14    1        6.528225000000      13.819946692100       7.505589336600
        15    1        4.352150000000       2.512721692100       7.505589336600
        16    1        0.000000000000      10.050871692100       7.505589336600
        17    1       15.232525000000       6.281796692100       7.505589336600
        18    1       10.880375000000      13.819946692100       7.505589336600
        19    2       15.232525000000       1.256353307900       8.162656271100
        20    2       10.880375000000       8.794503307900       8.162656271100
        21    1       17.408600000000       2.512721692100       7.505589336600
        22    1       13.056450000000      10.050871692100       7.505589336600
        23    2       10.880375000000       1.256353307900       8.162656271100
        24    2       15.232525000000       8.794503307900       8.162656271100
        25    2        8.704300000000       5.025428307900       8.162656271100
        26    2       13.056450000000      12.563578307900       8.162656271100
        27    2       13.056450000000       5.025428307900       8.162656271100
        28    2       17.408600000000      12.563578307900       8.162656271100
        29    1       10.880375000000       6.281796692100       7.505589336600
        30    1       15.232525000000      13.819946692100       7.505589336600
        31    1       13.056450000000       2.512721692100       7.505589336600
        32    1        8.704300000000      10.050871692100       7.505589336600
        33    1       23.936825000000       6.281796692100       7.505589336600
        34    1       19.584675000000      13.819946692100       7.505589336600
        35    2       23.936825000000       1.256353307900       8.162656271100
        36    2       19.584675000000       8.794503307900       8.162656271100
        37    1       26.112900000000       2.512721692100       7.505589336600
        38    1       21.760750000000      10.050871692100       7.505589336600
        39    2       19.584675000000       1.256353307900       8.162656271100
        40    2       23.936825000000       8.794503307900       8.162656271100
        41    2       17.408600000000       5.025428307900       8.162656271100
        42    2       21.760750000000      12.563578307900       8.162656271100
        43    2       21.760750000000       5.025428307900       8.162656271100
        44    2       26.112900000000      12.563578307900       8.162656271100
        45    1       19.584675000000       6.281796692100       7.505589336600
        46    1       23.936825000000      13.819946692100       7.505589336600
        47    1       21.760750000000       2.512721692100       7.505589336600
        48    1       17.408600000000      10.050871692100       7.505589336600
        49    1       32.641125000000       6.281796692100       7.505589336600
        50    1       28.288975000000      13.819946692100       7.505589336600
        51    2       32.641125000000       1.256353307900       8.162656271100
        52    2       28.288975000000       8.794503307900       8.162656271100
        53    1       34.817200000000       2.512721692100       7.505589336600
        54    1       30.465050000000      10.050871692100       7.505589336600
        55    2       28.288975000000       1.256353307900       8.162656271100
        56    2       32.641125000000       8.794503307900       8.162656271100
        57    2       26.112900000000       5.025428307900       8.162656271100
        58    2       30.465050000000      12.563578307900       8.162656271100
        59    2       30.465050000000       5.025428307900       8.162656271100
        60    2       34.817200000000      12.563578307900       8.162656271100
        61    1       28.288975000000       6.281796692100       7.505589336600
        62    1       32.641125000000      13.819946692100       7.505589336600
        63    1       30.465050000000       2.512721692100       7.505589336600
        64    1       26.112900000000      10.050871692100       7.505589336600
        65    1       41.345425000000       6.281796692100       7.505589336600
        66    1       36.993275000000      13.819946692100       7.505589336600
        67    2       41.345425000000       1.256353307900       8.162656271100
        68    2       36.993275000000       8.794503307900       8.162656271100
        69    1       43.521500000000       2.512721692100       7.505589336600
        70    1       39.169350000000      10.050871692100       7.505589336600
        71    2       36.993275000000       1.256353307900       8.162656271100
        72    2       41.345425000000       8.794503307900       8.162656271100
        73    2       34.817200000000       5.025428307900       8.162656271100
        74    2       39.169350000000      12.563578307900       8.162656271100
        75    2       39.169350000000       5.025428307900       8.162656271100
        76    2       43.521500000000      12.563578307900       8.162656271100
        77    1       36.993275000000       6.281796692100       7.505589336600
        78    1       41.345425000000      13.819946692100       7.505589336600
        79    1       39.169350000000       2.512721692100       7.505589336600
        80    1       34.817200000000      10.050871692100       7.505589336600
        81    1       50.049725000000       6.281796692100       7.505589336600
        82    1       45.697575000000      13.819946692100       7.505589336600
        83    2       50.049725000000       1.256353307900       8.162656271100
        84    2       45.697575000000       8.794503307900       8.162656271100
        85    1       52.225800000000       2.512721692100       7.505589336600
        86    1       47.873650000000      10.050871692100       7.505589336600
        87    2       45.697575000000       1.256353307900       8.162656271100
        88    2       50.049725000000       8.794503307900       8.162656271100
        89    2       43.521500000000       5.025428307900       8.162656271100
        90    2       47.873650000000      12.563578307900       8.162656271100
        91    2       47.873650000000       5.025428307900       8.162656271100
        92    2       52.225800000000      12.563578307900       8.162656271100
        93    1       45.697575000000       6.281796692100       7.505589336600
        94    1       50.049725000000      13.819946692100       7.505589336600
        95    1       47.873650000000       2.512721692100       7.505589336600
        96    1       43.521500000000      10.050871692100       7.505589336600
        97    1       58.754025000000       6.281796692100       7.505589336600
        98    1       54.401875000000      13.819946692100       7.505589336600
        99    2       58.754025000000       1.256353307900       8.162656271100
       100    2       54.401875000000       8.794503307900       8.162656271100
       101    1       60.930100000000       2.512721692100       7.505589336600
       102    1       56.577950000000      10.050871692100       7.505589336600
       103    2       54.401875000000       1.256353307900       8.162656271100
       104    2       58.754025000000       8.794503307900       8.162656271100
       105    2       52.225800000000       5.025428307900       8.162656271100
       106    2       56.577950000000      12.563578307900       8.162656271100
       107    2       56.577950000000       5.025428307900       8.162656271100
       108    2       60.930100000000      12.563578307900       8.162656271100
       109    1       54.401875000000       6.281796692100       7.505589336600
       110    1       58.754025000000      13.819946692100       7.505589336600
       111    1       56.577950000000       2.512721692100       7.505589336600
       112    1       52.225800000000      10.050871692100       7.505589336600
       113    1       67.458325000000       6.281796692100       7.505589336600
       114    1       63.106175000000      13.819946692100       7.505589336600
       115    2       67.458325000000       1.256353307900       8.162656271100
       116    2       63.106175000000       8.794503307900       8.162656271100
       117    1       69.634400000000       2.512721692100       7.505589336600
       118    1       65.282250000000      10.050871692100       7.505589336600
       119    2       63.106175000000       1.256353307900       8.162656271100
       120    2       67.458325000000       8.794503307900       8.162656271100
       121    2       60.930100000000       5.025428307900       8.162656271100
       122    2       65.282250000000      12.563578307900       8.162656271100
       123    2       65.282250000000       5.025428307900       8.162656271100
       124    2       69.634400000000      12.563578307900       8.162656271100
       125    1       63.106175000000       6.281796692100       7.505589336600
       126    1       67.458325000000      13.819946692100       7.505589336600
       127    1       65.282250000000       2.512721692100       7.505589336600
       128    1       60.930100000000      10.050871692100       7.505589336600
       129    1       76.162625000000       6.281796692100       7.505589336600
       130    1       71.810475000000      13.819946692100       7.505589336600
       131    2       76.162625000000       1.256353307900       8.162656271100
       132    2       71.810475000000       8.794503307900       8.162656271100
       133    1       78.338700000000       2.512721692100       7.505589336600
       134    1       73.986550000000      10.050871692100       7.505589336600
       135    2       71.810475000000       1.256353307900       8.162656271100
       136    2       76.162625000000       8.794503307900       8.162656271100
       137    2       69.634400000000       5.025428307900       8.162656271100
       138    2       73.986550000000      12.563578307900       8.162656271100
       139    2       73.986550000000       5.025428307900       8.162656271100
       140    2       78.338700000000      12.563578307900       8.162656271100
       141    1       71.810475000000       6.281796692100       7.505589336600
       142    1       76.162625000000      13.819946692100       7.505589336600
       143    1       73.986550000000       2.512721692100       7.505589336600
       144    1       69.634400000000      10.050871692100       7.505589336600
       145    1       84.866925000000       6.281796692100       7.505589336600
       146    1       80.514775000000      13.819946692100       7.505589336600
       147    2       84.866925000000       1.256353307900       8.162656271100
       148    2       80.514775000000       8.794503307900       8.162656271100
       149    1       87.043000000000       2.512721692100       7.505589336600
       150    1       82.690850000000      10.050871692100       7.505589336600
       151    2       80.514775000000       1.256353307900       8.162656271100
       152    2       84.866925000000       8.794503307900       8.162656271100
       153    2       78.338700000000       5.025428307900       8.162656271100
       154    2       82.690850000000      12.563578307900       8.162656271100
       155    2       82.690850000000       5.025428307900       8.162656271100
       156    2       87.043000000000      12.563578307900       8.162656271100
       157    1       80.514775000000       6.281796692100       7.505589336600
       158    1       84.866925000000      13.819946692100       7.505589336600
       159    1       82.690850000000       2.512721692100       7.505589336600
       160    1       78.338700000000      10.050871692100       7.505589336600
       161    1       93.571225000000       6.281796692100       7.505589336600
       162    1       89.219075000000      13.819946692100       7.505589336600
       163    2       93.571225000000       1.256353307900       8.162656271100
       164    2       89.219075000000       8.794503307900       8.162656271100
       165    1       95.747300000000       2.512721692100       7.505589336600
       166    1       91.395150000000      10.050871692100       7.505589336600
       167    2       89.219075000000       1.256353307900       8.162656271100
       168    2       93.571225000000       8.794503307900       8.162656271100
       169    2       87.043000000000       5.025428307900       8.162656271100
       170    2       91.395150000000      12.563578307900       8.162656271100
       171    2       91.395150000000       5.025428307900       8.162656271100
       172    2       95.747300000000      12.563578307900       8.162656271100
       173    1       89.219075000000       6.281796692100       7.505589336600
       174    1       93.571225000000      13.819946692100       7.505589336600
       175    1       91.395150000000       2.512721692100       7.505589336600
       176    1       87.043000000000      10.050871692100       7.505589336600
       177    1        6.528225000000      21.358096692100       7.505589336600
       178    1        2.176075000000      28.896246692100       7.505589336600
       179    2        6.528225000000      16.332653307900       8.162656271100
       180    2        2.176075000000      23.870803307900       8.162656271100
       181    1        8.704300000000      17.589021692100       7.505589336600
       182    1        4.352150000000      25.127171692100       7.505589336600
       183    2        2.176075000000      16.332653307900       8.162656271100
       184    2        6.528225000000      23.870803307900       8.162656271100
       185    2        0.000000000000      20.101728307900       8.162656271100
       186    2        4.352150000000      27.639878307900       8.162656271100
       187    2        4.352150000000      20.101728307900       8.162656271100
       188    2        8.704300000000      27.639878307900       8.162656271100
       189    1        2.176075000000      21.358096692100       7.505589336600
       190    1        6.528225000000      28.896246692100       7.505589336600
       191    1        4.352150000000      17.589021692100       7.505589336600
       192    1        0.000000000000      25.127171692100       7.505589336600
       193    1       15.232525000000      21.358096692100       7.505589336600
       194    1       10.880375000000      28.896246692100       7.505589336600
       195    2       15.232525000000      16.332653307900       8.162656271100
       196    2       10.880375000000      23.870803307900       8.162656271100
       197    1       17.408600000000      17.589021692100       7.505589336600
       198    1       13.056450000000      25.127171692100       7.505589336600
       199    2       10.880375000000      16.332653307900       8.162656271100
       200    2       15.232525000000      23.870803307900       8.162656271100
       201    2        8.704300000000      20.101728307900       8.162656271100
       202    2       13.056450000000      27.639878307900       8.162656271100
       203    2       13.056450000000      20.101728307900       8.162656271100
       204    2       17.408600000000      27.639878307900       8.162656271100
       205    1       10.880375000000      21.358096692100       7.505589336600
       206    1       15.232525000000      28.896246692100       7.505589336600
       207    1       13.056450000000      17.589021692100       7.505589336600
       208    1        8.704300000000      25.127171692100       7.505589336600
       209    1       23.936825000000      21.358096692100       7.505589336600
       210    1       19.584675000000      28.896246692100       7.505589336600
       211    2       23.936825000000      16.332653307900       8.162656271100
       212    2       19.584675000000      23.870803307900       8.162656271100
       213    1       26.112900000000      17.589021692100       7.505589336600
       214    1       21.760750000000      25.127171692100       7.505589336600
       215    2       19.584675000000      16.332653307900       8.162656271100
       216    2       23.936825000000      23.870803307900       8.162656271100
       217    2       17.408600000000      20.101728307900       8.162656271100
       218    2       21.760750000000      27.639878307900       8.162656271100
       219    2       21.760750000000      20.101728307900       8.162656271100
       220    2       26.112900000000      27.639878307900       8.162656271100
       221    1       19.584675000000      21.358096692100       7.505589336600
       222    1       23.936825000000      28.896246692100       7.505589336600
       223    1       21.760750000000      17.589021692100       7.505589336600
       224    1       17.408600000000      25.127171692100       7.505589336600
       225    1       32.641125000000      21.358096692100       7.505589336600
       226    1       28.288975000000      28.896246692100       7.505589336600
       227    2       32.641125000000      16.332653307900       8.162656271100
       228    2       28.288975000000      23.870803307900       8.162656271100
       229    1       34.817200000000      17.589021692100       7.505589336600
       230    1       30.465050000000      25.127171692100       7.505589336600
       231    2       28.288975000000      16.332653307900       8.162656271100
       232    2       32.641125000000      23.870803307900       8.162656271100
       233    2       26.112900000000      20.101728307900       8.162656271100
       234    2       30.465050000000      27.639878307900       8.162656271100
       235    2       30.465050000000      20.101728307900       8.162656271100
       236    2       34.817200000000      27.639878307900       8.162656271100
       237    1       28.288975000000      21.358096692100       7.505589336600
       238    1       32.641125000000      28.896246692100       7.505589336600
       239    1       30.465050000000      17.589021692100       7.505589336600
       240    1       26.112900000000      25.127171692100       7.505589336600
       241    1       41.345425000000      21.358096692100       7.505589336600
       242    1       36.993275000000      28.896246692100       7.505589336600
       243    2       41.345425000000      16.332653307900       8.162656271100
       244    2       36.993275000000      23.870803307900       8.162656271100
       245    1       43.521500000000      17.589021692100       7.505589336600
       246    1       39.169350000000      25.127171692100       7.505589336600
       247    2       36.993275000000      16.332653307900       8.162656271100
       248    2       41.345425000000      23.870803307900       8.162656271100
       249    2       34.817200000000      20.101728307900       8.162656271100
       250    2       39.169350000000      27.639878307900       8.162656271100
       251    2       39.169350000000      20.101728307900       8.162656271100
       252    2       43.521500000000      27.639878307900       8.162656271100
       253    1       36.993275000000      21.358096692100       7.505589336600
       254    1       41.345425000000      28.896246692100       7.505589336600
       255    1       39.169350000000      17.589021692100       7.505589336600
       256    1       34.817200000000      25.127171692100       7.505589336600
       257    1       50.049725000000      21.358096692100       7.505589336600
       258    1       45.697575000000      28.896246692100       7.505589336600
       259    2       50.049725000000      16.332653307900       8.162656271100
       260    2       45.697575000000      23.870803307900       8.162656271100
       261    1       52.225800000000      17.589021692100       7.505589336600
       262    1       47.873650000000      25.127171692100       7.505589336600
       263    2       45.697575000000      16.332653307900       8.162656271100
       264    2       50.049725000000      23.870803307900       8.162656271100
       265    2       43.521500000000      20.101728307900       8.162656271100
       266    2       47.873650000000      27.639878307900       8.162656271100
       267    2       47.873650000000      20.101728307900       8.162656271100
       268    2       52.225800000000      27.639878307900       8.162656271100
       269    1       45.697575000000      21.358096692100       7.505589336600
       270    1       50.049725000000      28.896246692100       7.505589336600
       271    1       47.873650000000      17.589021692100       7.505589336600
       272    1       43.521500000000      25.127171692100       7.505589336600
       273    1       58.754025000000      21.358096692100       7.505589336600
       274    1       54.401875000000      28.896246692100       7.505589336600
       275    2       58.754025000000      16.332653307900       8.162656271100
       276    2       54.401875000000      23.870803307900       8.162656271100
       277    1       60.930100000000      17.589021692100       7.505589336600
       278    1       56.577950000000      25.127171692100       7.505589336600
       279    2       54.401875000000      16.332653307900       8.162656271100
       280    2       58.754025000000      23.870803307900       8.162656271100
       281    2       52.225800000000      20.101728307900       8.162656271100
       282    2       56.577950000000      27.639878307900       8.162656271100
       283    2       56.577950000000      20.101728307900       8.162656271100
       284    2       60.930100000000      27.639878307900       8.162656271100
       285    1       54.401875000000      21.358096692100       7.505589336600
       286    1       58.754025000000      28.896246692100       7.505589336600
       287    1       56.577950000000      17.589021692100       7.505589336600
       288    1       52.225800000000      25.127171692100       7.505589336600
       289    1       67.458325000000      21.358096692100       7.505589336600
       290    1       63.106175000000      28.896246692100       7.505589336600
       291    2       67.458325000000      16.332653307900       8.162656271100
       292    2       63.106175000000      23.870803307900       8.162656271100
       293    1       69.634400000000      17.589021692100       7.505589336600
       294    1       65.282250000000      25.127171692100       7.505589336600
       295    2       63.106175000000      16.332653307900       8.162656271100
       296    2       67.458325000000      23.870803307900       8.162656271100
       297    2       60.930100000000      20.101728307900       8.162656271100
       298    2       65.282250000000      27.639878307900       8.162656271100
       299    2       65.282250000000      20.101728307900       8.162656271100
       300    2       69.634400000000      27.639878307900       8.162656271100
       301    1       63.106175000000      21.358096692100       7.505589336600
       302    1       67.458325000000      28.896246692100       7.505589336600
       303    1       65.282250000000      17.589021692100       7.505589336600
       304    1       60.930100000000      25.127171692100       7.505589336600
       305    1       76.162625000000      21.358096692100       7.505589336600
       306    1       71.810475000000      28.896246692100       7.505589336600
       307    2       76.162625000000      16.332653307900       8.162656271100
       308    2       71.810475000000      23.870803307900       8.162656271100
       309    1       78.338700000000      17.589021692100       7.505589336600
       310    1       73.986550000000      25.127171692100       7.505589336600
       311    2       71.810475000000      16.332653307900       8.162656271100
       312    2       76.162625000000      23.870803307900       8.162656271100
       313    2       69.634400000000      20.101728307900       8.162656271100
       314    2       73.986550000000      27.639878307900       8.162656271100
       315    2       73.986550000000      20.101728307900       8.162656271100
       316    2       78.338700000000      27.639878307900       8.162656271100
       317    1       71.810475000000      21.358096692100       7.505589336600
       318    1       76.162625000000      28.896246692100       7.505589336600
       319    1       73.986550000000      17.589021692100       7.505589336600
       320    1       69.634400000000      25.127171692100       7.505589336600
       321    1       84.866925000000      21.358096692100       7.505589336600
       322    1       80.514775000000      28.896246692100       7.505589336600
       323    2       84.866925000000      16.332653307900       8.162656271100
       324    2       80.514775000000      23.870803307900       8.162656271100
       325    1       87.043000000000      17.589021692100       7.505589336600
       326    1       82.690850000000      25.127171692100       7.505589336600
       327    2       80.514775000000      16.332653307900       8.162656271100
       328    2       84.866925000000      23.870803307900       8.162656271100
       329    2       78.338700000000      20.101728307900       8.162656271100
       330    2       82.690850000000      27.639878307900       8.162656271100
       331    2       82.690850000000      20.101728307900       8.162656271100
       332    2       87.043000000000      27.639878307900       8.162656271100
       333    1       80.514775000000      21.358096692100       7.505589336600
       334    1       84.866925000000      28.896246692100       7.505589336600
       335    1       82.690850000000      17.589021692100       7.505589336600
       336    1       78.338700000000      25.127171692100       7.505589336600
       337    1       93.571225000000      21.358096692100       7.505589336600
       338    1       89.219075000000      28.896246692100       7.505589336600
       339    2       93.571225000000      16.332653307900       8.162656271100
       340    2       89.219075000000      23.870803307900       8.162656271100
       341    1       95.747300000000      17.589021692100       7.505589336600
       342    1       91.395150000000      25.127171692100       7.505589336600
       343    2       89.219075000000      16.332653307900       8.162656271100
       344    2       93.571225000000      23.870803307900       8.162656271100
       345    2       87.043000000000      20.101728307900       8.162656271100
       346    2       91.395150000000      27.639878307900       8.162656271100
       347    2       91.395150000000      20.101728307900       8.162656271100
       348    2       95.747300000000      27.639878307900       8.162656271100
       349    1       89.219075000000      21.358096692100       7.505589336600
       350    1       93.571225000000      28.896246692100       7.505589336600
       351    1       91.395150000000      17.589021692100       7.505589336600
       352    1       87.043000000000      25.127171692100       7.505589336600
       353    1        6.528225000000      36.434396692100       7.505589336600
       354    1        2.176075000000      43.972546692100       7.505589336600
       355    2        6.528225000000      31.408953307900       8.162656271100
       356    2        2.176075000000      38.947103307900       8.162656271100
       357    1        8.704300000000      32.665321692100       7.505589336600
       358    1        4.352150000000      40.203471692100       7.505589336600
       359    2        2.176075000000      31.408953307900       8.162656271100
       360    2        6.528225000000      38.947103307900       8.162656271100
       361    2        0.000000000000      35.178028307900       8.162656271100
       362    2        4.352150000000      42.716178307900       8.162656271100
       363    2        4.352150000000      35.178028307900       8.162656271100
       364    2        8.704300000000      42.716178307900       8.162656271100
       365    1        2.176075000000      36.434396692100       7.505589336600
       366    1        6.528225000000      43.972546692100       7.505589336600
       367    1        4.352150000000      32.665321692100       7.505589336600
       368    1        0.000000000000      40.203471692100       7.505589336600
       369    1       15.232525000000      36.434396692100       7.505589336600
       370    1       10.880375000000      43.972546692100       7.505589336600