 # Si8 Te8
  
        1664  atoms
           2  atom types
 
      0.000000000000      99.538400000000  xlo xhi
      0.000000000000     106.096000000000  ylo yhi
      0.000000000000      16.359800000000  zlo zhi
 
Masses
 
            1   28.08500000             # Si
            2   127.60000000            # Te
 
Atoms # atomic
 
         1    1        1.914200000000       1.105162246000       8.944573411800
         2    1        5.742600000000       7.736162246000       8.944573411800
         3    2        0.000000000000       2.210337754000       7.414915752000
         4    2        5.742600000000       5.525837754000       7.414915752000
         5    2        1.914200000000      12.156837754000       7.414915752000
         6    1        3.828400000000       4.420662246000       8.944573411800
         7    2        3.828400000000       8.841337754000       7.414915752000
         8    1        0.000000000000      11.051662246000       8.944573411800
         9    2        3.828400000000       2.210337754000       7.414915752000
        10    2        0.000000000000       8.841337754000       7.414915752000
        11    1        0.000000000000       4.420662246000       8.944573411800
        12    1        3.828400000000      11.051662246000       8.944573411800
        13    1        5.742600000000       1.105162246000       8.944573411800
        14    1        1.914200000000       7.736162246000       8.944573411800
        15    2        1.914200000000       5.525837754000       7.414915752000
        16    2        5.742600000000      12.156837754000       7.414915752000
        17    1        9.571000000000       1.105162246000       8.944573411800
        18    1       13.399400000000       7.736162246000       8.944573411800
        19    2        7.656800000000       2.210337754000       7.414915752000
        20    2       13.399400000000       5.525837754000       7.414915752000
        21    2        9.571000000000      12.156837754000       7.414915752000
        22    1       11.485200000000       4.420662246000       8.944573411800
        23    2       11.485200000000       8.841337754000       7.414915752000
        24    1        7.656800000000      11.051662246000       8.944573411800
        25    2       11.485200000000       2.210337754000       7.414915752000
        26    2        7.656800000000       8.841337754000       7.414915752000
        27    1        7.656800000000       4.420662246000       8.944573411800
        28    1       11.485200000000      11.051662246000       8.944573411800
        29    1       13.399400000000       1.105162246000       8.944573411800
        30    1        9.571000000000       7.736162246000       8.944573411800
        31    2        9.571000000000       5.525837754000       7.414915752000
        32    2       13.399400000000      12.156837754000       7.414915752000
        33    1       17.227800000000       1.105162246000       8.944573411800
        34    1       21.056200000000       7.736162246000       8.944573411800
        35    2       15.313600000000       2.210337754000       7.414915752000
        36    2       21.056200000000       5.525837754000       7.414915752000
        37    2       17.227800000000      12.156837754000       7.414915752000
        38    1       19.142000000000       4.420662246000       8.944573411800
        39    2       19.142000000000       8.841337754000       7.414915752000
        40    1       15.313600000000      11.051662246000       8.944573411800
        41    2       19.142000000000       2.210337754000       7.414915752000
        42    2       15.313600000000       8.841337754000       7.414915752000
        43    1       15.313600000000       4.420662246000       8.944573411800
        44    1       19.142000000000      11.051662246000       8.944573411800
        45    1       21.056200000000       1.105162246000       8.944573411800
        46    1       17.227800000000       7.736162246000       8.944573411800
        47    2       17.227800000000       5.525837754000       7.414915752000
        48    2       21.056200000000      12.156837754000       7.414915752000
        49    1       24.884600000000       1.105162246000       8.944573411800
        50    1       28.713000000000       7.736162246000       8.944573411800
        51    2       22.970400000000       2.210337754000       7.414915752000
        52    2       28.713000000000       5.525837754000       7.414915752000
        53    2       24.884600000000      12.156837754000       7.414915752000
        54    1       26.798800000000       4.420662246000       8.944573411800
        55    2       26.798800000000       8.841337754000       7.414915752000
        56    1       22.970400000000      11.051662246000       8.944573411800
        57    2       26.798800000000       2.210337754000       7.414915752000
        58    2       22.970400000000       8.841337754000       7.414915752000
        59    1       22.970400000000       4.420662246000       8.944573411800
        60    1       26.798800000000      11.051662246000       8.944573411800
        61    1       28.713000000000       1.105162246000       8.944573411800
        62    1       24.884600000000       7.736162246000       8.944573411800
        63    2       24.884600000000       5.525837754000       7.414915752000
        64    2       28.713000000000      12.156837754000       7.414915752000
        65    1       32.541400000000       1.105162246000       8.944573411800
        66    1       36.369800000000       7.736162246000       8.944573411800
        67    2       30.627200000000       2.210337754000       7.414915752000
        68    2       36.369800000000       5.525837754000       7.414915752000
        69    2       32.541400000000      12.156837754000       7.414915752000
        70    1       34.455600000000       4.420662246000       8.944573411800
        71    2       34.455600000000       8.841337754000       7.414915752000
        72    1       30.627200000000      11.051662246000       8.944573411800
        73    2       34.455600000000       2.210337754000       7.414915752000
        74    2       30.627200000000       8.841337754000       7.414915752000
        75    1       30.627200000000       4.420662246000       8.944573411800
        76    1       34.455600000000      11.051662246000       8.944573411800
        77    1       36.369800000000       1.105162246000       8.944573411800
        78    1       32.541400000000       7.736162246000       8.944573411800
        79    2       32.541400000000       5.525837754000       7.414915752000
        80    2       36.369800000000      12.156837754000       7.414915752000
        81    1       40.198200000000       1.105162246000       8.944573411800
        82    1       44.026600000000       7.736162246000       8.944573411800
        83    2       38.284000000000       2.210337754000       7.414915752000
        84    2       44.026600000000       5.525837754000       7.414915752000
        85    2       40.198200000000      12.156837754000       7.414915752000
        86    1       42.112400000000       4.420662246000       8.944573411800
        87    2       42.112400000000       8.841337754000       7.414915752000
        88    1       38.284000000000      11.051662246000       8.944573411800
        89    2       42.112400000000       2.210337754000       7.414915752000
        90    2       38.284000000000       8.841337754000       7.414915752000
        91    1       38.284000000000       4.420662246000       8.944573411800
        92    1       42.112400000000      11.051662246000       8.944573411800
        93    1       44.026600000000       1.105162246000       8.944573411800
        94    1       40.198200000000       7.736162246000       8.944573411800
        95    2       40.198200000000       5.525837754000       7.414915752000
        96    2       44.026600000000      12.156837754000       7.414915752000
        97    1       47.855000000000       1.105162246000       8.944573411800
        98    1       51.683400000000       7.736162246000       8.944573411800
        99    2       45.940800000000       2.210337754000       7.414915752000
       100    2       51.683400000000       5.525837754000       7.414915752000
       101    2       47.855000000000      12.156837754000       7.414915752000
       102    1       49.769200000000       4.420662246000       8.944573411800
       103    2       49.769200000000       8.841337754000       7.414915752000
       104    1       45.940800000000      11.051662246000       8.944573411800
       105    2       49.769200000000       2.210337754000       7.414915752000
       106    2       45.940800000000       8.841337754000       7.414915752000
       107    1       45.940800000000       4.420662246000       8.944573411800
       108    1       49.769200000000      11.051662246000       8.944573411800
       109    1       51.683400000000       1.105162246000       8.944573411800
       110    1       47.855000000000       7.736162246000       8.944573411800
       111    2       47.855000000000       5.525837754000       7.414915752000
       112    2       51.683400000000      12.156837754000       7.414915752000
       113    1       55.511800000000       1.105162246000       8.944573411800
       114    1       59.340200000000       7.736162246000       8.944573411800
       115    2       53.597600000000       2.210337754000       7.414915752000
       116    2       59.340200000000       5.525837754000       7.414915752000
       117    2       55.511800000000      12.156837754000       7.414915752000
       118    1       57.426000000000       4.420662246000       8.944573411800
       119    2       57.426000000000       8.841337754000       7.414915752000
       120    1       53.597600000000      11.051662246000       8.944573411800
       121    2       57.426000000000       2.210337754000       7.414915752000
       122    2       53.597600000000       8.841337754000       7.414915752000
       123    1       53.597600000000       4.420662246000       8.944573411800
       124    1       57.426000000000      11.051662246000       8.944573411800
       125    1       59.340200000000       1.105162246000       8.944573411800
       126    1       55.511800000000       7.736162246000       8.944573411800
       127    2       55.511800000000       5.525837754000       7.414915752000
       128    2       59.340200000000      12.156837754000       7.414915752000
       129    1       63.168600000000       1.105162246000       8.944573411800
       130    1       66.997000000000       7.736162246000       8.944573411800
       131    2       61.254400000000       2.210337754000       7.414915752000
       132    2       66.997000000000       5.525837754000       7.414915752000
       133    2       63.168600000000      12.156837754000       7.414915752000
       134    1       65.082800000000       4.420662246000       8.944573411800
       135    2       65.082800000000       8.841337754000       7.414915752000
       136    1       61.254400000000      11.051662246000       8.944573411800
       137    2       65.082800000000       2.210337754000       7.414915752000
       138    2       61.254400000000       8.841337754000       7.414915752000
       139    1       61.254400000000       4.420662246000       8.944573411800
       140    1       65.082800000000      11.051662246000       8.944573411800
       141    1       66.997000000000       1.105162246000       8.944573411800
       142    1       63.168600000000       7.736162246000       8.944573411800
       143    2       63.168600000000       5.525837754000       7.414915752000
       144    2       66.997000000000      12.156837754000       7.414915752000
       145    1       70.825400000000       1.105162246000       8.944573411800
       146    1       74.653800000000       7.736162246000       8.944573411800
       147    2       68.911200000000       2.210337754000       7.414915752000
       148    2       74.653800000000       5.525837754000       7.414915752000
       149    2       70.825400000000      12.156837754000       7.414915752000
       150    1       72.739600000000       4.420662246000       8.944573411800
       151    2       72.739600000000       8.841337754000       7.414915752000
       152    1       68.911200000000      11.051662246000       8.944573411800
       153    2       72.739600000000       2.210337754000       7.414915752000
       154    2       68.911200000000       8.841337754000       7.414915752000
       155    1       68.911200000000       4.420662246000       8.944573411800
       156    1       72.739600000000      11.051662246000       8.944573411800
       157    1       74.653800000000       1.105162246000       8.944573411800
       158    1       70.825400000000       7.736162246000       8.944573411800
       159    2       70.825400000000       5.525837754000       7.414915752000
       160    2       74.653800000000      12.156837754000       7.414915752000
       161    1       78.482200000000       1.105162246000       8.944573411800
       162    1       82.310600000000       7.736162246000       8.944573411800
       163    2       76.568000000000       2.210337754000       7.414915752000
       164    2       82.310600000000       5.525837754000       7.414915752000
       165    2       78.482200000000      12.156837754000       7.414915752000
       166    1       80.396400000000       4.420662246000       8.944573411800
       167    2       80.396400000000       8.841337754000       7.414915752000
       168    1       76.568000000000      11.051662246000       8.944573411800
       169    2       80.396400000000       2.210337754000       7.414915752000
       170    2       76.568000000000       8.841337754000       7.414915752000
       171    1       76.568000000000       4.420662246000       8.944573411800
       172    1       80.396400000000      11.051662246000       8.944573411800
       173    1       82.310600000000       1.105162246000       8.944573411800
       174    1       78.482200000000       7.736162246000       8.944573411800
       175    2       78.482200000000       5.525837754000       7.414915752000
       176    2       82.310600000000      12.156837754000       7.414915752000
       177    1       86.139000000000       1.105162246000       8.944573411800
       178    1       89.967400000000       7.736162246000       8.944573411800
       179    2       84.224800000000       2.210337754000       7.414915752000
       180    2       89.967400000000       5.525837754000       7.414915752000
       181    2       86.139000000000      12.156837754000       7.414915752000
       182    1       88.053200000000       4.420662246000       8.944573411800
       183    2       88.053200000000       8.841337754000       7.414915752000
       184    1       84.224800000000      11.051662246000       8.944573411800
       185    2       88.053200000000       2.210337754000       7.414915752000
       186    2       84.224800000000       8.841337754000       7.414915752000
       187    1       84.224800000000       4.420662246000       8.944573411800
       188    1       88.053200000000      11.051662246000       8.944573411800
       189    1       89.967400000000       1.105162246000       8.944573411800
       190    1       86.139000000000       7.736162246000       8.944573411800
       191    2       86.139000000000       5.525837754000       7.414915752000
       192    2       89.967400000000      12.156837754000       7.414915752000
       193    1       93.795800000000       1.105162246000       8.944573411800
       194    1       97.624200000000       7.736162246000       8.944573411800
       195    2       91.881600000000       2.210337754000       7.414915752000
       196    2       97.624200000000       5.525837754000       7.414915752000
       197    2       93.795800000000      12.156837754000       7.414915752000
       198    1       95.710000000000       4.420662246000       8.944573411800
       199    2       95.710000000000       8.841337754000       7.414915752000
       200    1       91.881600000000      11.051662246000       8.944573411800
       201    2       95.710000000000       2.210337754000       7.414915752000
       202    2       91.881600000000       8.841337754000       7.414915752000
       203    1       91.881600000000       4.420662246000       8.944573411800
       204    1       95.710000000000      11.051662246000       8.944573411800
       205    1       97.624200000000       1.105162246000       8.944573411800
       206    1       93.795800000000       7.736162246000       8.944573411800
       207    2       93.795800000000       5.525837754000       7.414915752000
       208    2       97.624200000000      12.156837754000       7.414915752000
       209    1        1.914200000000      14.367162246000       8.944573411800
       210    1        5.742600000000      20.998162246000       8.944573411800
       211    2        0.000000000000      15.472337754000       7.414915752000
       212    2        5.742600000000      18.787837754000       7.414915752000
       213    2        1.914200000000      25.418837754000       7.414915752000
       214    1        3.828400000000      17.682662246000       8.944573411800
       215    2        3.828400000000      22.103337754000       7.414915752000
       216    1        0.000000000000      24.313662246000       8.944573411800
       217    2        3.828400000000      15.472337754000       7.414915752000
       218    2        0.000000000000      22.103337754000       7.414915752000
       219    1        0.000000000000      17.682662246000       8.944573411800
       220    1        3.828400000000      24.313662246000       8.944573411800
       221    1        5.742600000000      14.367162246000       8.944573411800
       222    1        1.914200000000      20.998162246000       8.944573411800
       223    2        1.914200000000      18.787837754000       7.414915752000
       224    2        5.742600000000      25.418837754000       7.414915752000
       225    1        9.571000000000      14.367162246000       8.944573411800
       226    1       13.399400000000      20.998162246000       8.944573411800
       227    2        7.656800000000      15.472337754000       7.414915752000
       228    2       13.399400000000      18.787837754000       7.414915752000
       229    2        9.571000000000      25.418837754000       7.414915752000
       230    1       11.485200000000      17.682662246000       8.944573411800
       231    2       11.485200000000      22.103337754000       7.414915752000
       232    1        7.656800000000      24.313662246000       8.944573411800
       233    2       11.485200000000      15.472337754000       7.414915752000
       234    2        7.656800000000      22.103337754000       7.414915752000
       235    1        7.656800000000      17.682662246000       8.944573411800
       236    1       11.485200000000      24.313662246000       8.944573411800
       237    1       13.399400000000      14.367162246000       8.944573411800
       238    1        9.571000000000      20.998162246000       8.944573411800
       239    2        9.571000000000      18.787837754000       7.414915752000
       240    2       13.399400000000      25.418837754000       7.414915752000
       241    1       17.227800000000      14.367162246000       8.944573411800
       242    1       21.056200000000      20.998162246000       8.944573411800
       243    2       15.313600000000      15.472337754000       7.414915752000
       244    2       21.056200000000      18.787837754000       7.414915752000
       245    2       17.227800000000      25.418837754000       7.414915752000
       246    1       19.142000000000      17.682662246000       8.944573411800
       247    2       19.142000000000      22.103337754000       7.414915752000
       248    1       15.313600000000      24.313662246000       8.944573411800
       249    2       19.142000000000      15.472337754000       7.414915752000
       250    2       15.313600000000      22.103337754000       7.414915752000
       251    1       15.313600000000      17.682662246000       8.944573411800
       252    1       19.142000000000      24.313662246000       8.944573411800
       253    1       21.056200000000      14.367162246000       8.944573411800
       254    1       17.227800000000      20.998162246000       8.944573411800
       255    2       17.227800000000      18.787837754000       7.414915752000
       256    2       21.056200000000      25.418837754000       7.414915752000
       257    1       24.884600000000      14.367162246000       8.944573411800
       258    1       28.713000000000      20.998162246000       8.944573411800
       259    2       22.970400000000      15.472337754000       7.414915752000
       260    2       28.713000000000      18.787837754000       7.414915752000
       261    2       24.884600000000      25.418837754000       7.414915752000
       262    1       26.798800000000      17.682662246000       8.944573411800
       263    2       26.798800000000      22.103337754000       7.414915752000
       264    1       22.970400000000      24.313662246000       8.944573411800
       265    2       26.798800000000      15.472337754000       7.414915752000
       266    2       22.970400000000      22.103337754000       7.414915752000
       267    1       22.970400000000      17.682662246000       8.944573411800
       268    1       26.798800000000      24.313662246000       8.944573411800
       269    1       28.713000000000      14.367162246000       8.944573411800
       270    1       24.884600000000      20.998162246000       8.944573411800
       271    2       24.884600000000      18.787837754000       7.414915752000
       272    2       28.713000000000      25.418837754000       7.414915752000
       273    1       32.541400000000      14.367162246000       8.944573411800
       274    1       36.369800000000      20.998162246000       8.944573411800
       275    2       30.627200000000      15.472337754000       7.414915752000
       276    2       36.369800000000      18.787837754000       7.414915752000
       277    2       32.541400000000      25.418837754000       7.414915752000
       278    1       34.455600000000      17.682662246000       8.944573411800
       279    2       34.455600000000      22.103337754000       7.414915752000
       280    1       30.627200000000      24.313662246000       8.944573411800
       281    2       34.455600000000      15.472337754000       7.414915752000
       282    2       30.627200000000      22.103337754000       7.414915752000
       283    1       30.627200000000      17.682662246000       8.944573411800
       284    1       34.455600000000      24.313662246000       8.944573411800
       285    1       36.369800000000      14.367162246000       8.944573411800
       286    1       32.541400000000      20.998162246000       8.944573411800
       287    2       32.541400000000      18.787837754000       7.414915752000
       288    2       36.369800000000      25.418837754000       7.414915752000
       289    1       40.198200000000      14.367162246000       8.944573411800
       290    1       44.026600000000      20.998162246000       8.944573411800
       291    2       38.284000000000      15.472337754000       7.414915752000
       292    2       44.026600000000      18.787837754000       7.414915752000
       293    2       40.198200000000      25.418837754000       7.414915752000
       294    1       42.112400000000      17.682662246000       8.944573411800
       295    2       42.112400000000      22.103337754000       7.414915752000
       296    1       38.284000000000      24.313662246000       8.944573411800
       297    2       42.112400000000      15.472337754000       7.414915752000
       298    2       38.284000000000      22.103337754000       7.414915752000
       299    1       38.284000000000      17.682662246000       8.944573411800
       300    1       42.112400000000      24.313662246000       8.944573411800
       301    1       44.026600000000      14.367162246000       8.944573411800
       302    1       40.198200000000      20.998162246000       8.944573411800
       303    2       40.198200000000      18.787837754000       7.414915752000
       304    2       44.026600000000      25.418837754000       7.414915752000
       305    1       47.855000000000      14.367162246000       8.944573411800
       306    1       51.683400000000      20.998162246000       8.944573411800
       307    2       45.940800000000      15.472337754000       7.414915752000
       308    2       51.683400000000      18.787837754000       7.414915752000
       309    2       47.855000000000      25.418837754000       7.414915752000
       310    1       49.769200000000      17.682662246000       8.944573411800
       311    2       49.769200000000      22.103337754000       7.414915752000
       312    1       45.940800000000      24.313662246000       8.944573411800
       313    2       49.769200000000      15.472337754000       7.414915752000
       314    2       45.940800000000      22.103337754000       7.414915752000
       315    1       45.940800000000      17.682662246000       8.944573411800
       316    1       49.769200000000      24.313662246000       8.944573411800
       317    1       51.683400000000      14.367162246000       8.944573411800
       318    1       47.855000000000      20.998162246000       8.944573411800
       319    2       47.855000000000      18.787837754000       7.414915752000
       320    2       51.683400000000      25.418837754000       7.414915752000
       321    1       55.511800000000      14.367162246000       8.944573411800
       322    1       59.340200000000      20.998162246000       8.944573411800
       323    2       53.597600000000      15.472337754000       7.414915752000
       324    2       59.340200000000      18.787837754000       7.414915752000
       325    2       55.511800000000      25.418837754000       7.414915752000
       326    1       57.426000000000      17.682662246000       8.944573411800
       327    2       57.426000000000      22.103337754000       7.414915752000
       328    1       53.597600000000      24.313662246000       8.944573411800
       329    2       57.426000000000      15.472337754000       7.414915752000
       330    2       53.597600000000      22.103337754000       7.414915752000
       331    1       53.597600000000      17.682662246000       8.944573411800
       332    1       57.426000000000      24.313662246000       8.944573411800
       333    1       59.340200000000      14.367162246000       8.944573411800
       334    1       55.511800000000      20.998162246000       8.944573411800
       335    2       55.511800000000      18.787837754000       7.414915752000
       336    2       59.340200000000      25.418837754000       7.414915752000
       337    1       63.168600000000      14.367162246000       8.944573411800
       338    1       66.997000000000      20.998162246000       8.944573411800
       339    2       61.254400000000      15.472337754000       7.414915752000
       340    2       66.997000000000      18.787837754000       7.414915752000
       341    2       63.168600000000      25.418837754000       7.414915752000
       342    1       65.082800000000      17.682662246000       8.944573411800
       343    2       65.082800000000      22.103337754000       7.414915752000
       344    1       61.254400000000      24.313662246000       8.944573411800
       345    2       65.082800000000      15.472337754000       7.414915752000
       346    2       61.254400000000      22.103337754000       7.414915752000
       347    1       61.254400000000      17.682662246000       8.944573411800
       348    1       65.082800000000      24.313662246000       8.944573411800
       349    1       66.997000000000      14.367162246000       8.944573411800
       350    1       63.168600000000      20.998162246000       8.944573411800
       351    2       63.168600000000      18.787837754000       7.414915752000
       352    2       66.997000000000      25.418837754000       7.414915752000
       353    1       70.825400000000      14.367162246000       8.944573411800
       354    1       74.653800000000      20.998162246000       8.944573411800
       355    2       68.911200000000      15.472337754000       7.414915752000
       356    2       74.653800000000      18.787837754000       7.414915752000
       357    2       70.825400000000      25.418837754000       7.414915752000
       358    1       72.739600000000      17.682662246000       8.944573411800
       359    2       72.739600000000      22.103337754000       7.414915752000
       360    1       68.911200000000      24.313662246000       8.944573411800
       361    2       72.739600000000      15.472337754000       7.414915752000
       362    2       68.911200000000      22.103337754000       7.414915752000
       363    1       68.911200000000      17.682662246000       8.944573411800
       364    1       72.739600000000      24.313662246000       8.944573411800
       365    1       74.653800000000      14.367162246000       8.944573411800
       366    1       70.825400000000      20.998162246000       8.944573411800
       367    2       70.825400000000      18.787837754000       7.414915752000
       368    2       74.653800000000      25.418837754000       7.414915752000
       369    1       78.482200000000      14.367162246000       8.944573411800
       370    1       82.310600000000      20.998162246000       8.944573411800