 # Si8 Sn8
  
        1344  atoms
           2  atom types
 
      0.000000000000     101.040000000000  xlo xhi
      0.000000000000     102.087300000000  ylo yhi
      0.000000000000     106.000000000000  zlo zhi
 
Masses
 
            1   28.08500000             # Si
            2   118.71000000            # Sn
 
Atoms # atomic
 
         1    1        6.315000000000       1.215320138700      53.665150000000
         2    1        8.420000000000       4.861295138700      53.665150000000
         3    1        2.105000000000       8.507270138700      53.665150000000
         4    1        4.210000000000      12.153245138700      53.665150000000
         5    2        6.315000000000       6.076629861300      53.000000000000
         6    2        2.105000000000      13.368579861300      53.000000000000
         7    1        2.105000000000       1.215320138700      53.665150000000
         8    1        6.315000000000       8.507270138700      53.665150000000
         9    2        4.210000000000       2.430654861300      53.000000000000
        10    2        8.420000000000       9.722604861300      53.000000000000
        11    2        8.420000000000       2.430654861300      53.000000000000
        12    2        4.210000000000       9.722604861300      53.000000000000
        13    2        2.105000000000       6.076629861300      53.000000000000
        14    2        6.315000000000      13.368579861300      53.000000000000
        15    1        4.210000000000       4.861295138700      53.665150000000
        16    1        8.420000000000      12.153245138700      53.665150000000
        17    1       14.735000000000       1.215320138700      53.665150000000
        18    1       16.840000000000       4.861295138700      53.665150000000
        19    1       10.525000000000       8.507270138700      53.665150000000
        20    1       12.630000000000      12.153245138700      53.665150000000
        21    2       14.735000000000       6.076629861300      53.000000000000
        22    2       10.525000000000      13.368579861300      53.000000000000
        23    1       10.525000000000       1.215320138700      53.665150000000
        24    1       14.735000000000       8.507270138700      53.665150000000
        25    2       12.630000000000       2.430654861300      53.000000000000
        26    2       16.840000000000       9.722604861300      53.000000000000
        27    2       16.840000000000       2.430654861300      53.000000000000
        28    2       12.630000000000       9.722604861300      53.000000000000
        29    2       10.525000000000       6.076629861300      53.000000000000
        30    2       14.735000000000      13.368579861300      53.000000000000
        31    1       12.630000000000       4.861295138700      53.665150000000
        32    1       16.840000000000      12.153245138700      53.665150000000
        33    1       23.155000000000       1.215320138700      53.665150000000
        34    1       25.260000000000       4.861295138700      53.665150000000
        35    1       18.945000000000       8.507270138700      53.665150000000
        36    1       21.050000000000      12.153245138700      53.665150000000
        37    2       23.155000000000       6.076629861300      53.000000000000
        38    2       18.945000000000      13.368579861300      53.000000000000
        39    1       18.945000000000       1.215320138700      53.665150000000
        40    1       23.155000000000       8.507270138700      53.665150000000
        41    2       21.050000000000       2.430654861300      53.000000000000
        42    2       25.260000000000       9.722604861300      53.000000000000
        43    2       25.260000000000       2.430654861300      53.000000000000
        44    2       21.050000000000       9.722604861300      53.000000000000
        45    2       18.945000000000       6.076629861300      53.000000000000
        46    2       23.155000000000      13.368579861300      53.000000000000
        47    1       21.050000000000       4.861295138700      53.665150000000
        48    1       25.260000000000      12.153245138700      53.665150000000
        49    1       31.575000000000       1.215320138700      53.665150000000
        50    1       33.680000000000       4.861295138700      53.665150000000
        51    1       27.365000000000       8.507270138700      53.665150000000
        52    1       29.470000000000      12.153245138700      53.665150000000
        53    2       31.575000000000       6.076629861300      53.000000000000
        54    2       27.365000000000      13.368579861300      53.000000000000
        55    1       27.365000000000       1.215320138700      53.665150000000
        56    1       31.575000000000       8.507270138700      53.665150000000
        57    2       29.470000000000       2.430654861300      53.000000000000
        58    2       33.680000000000       9.722604861300      53.000000000000
        59    2       33.680000000000       2.430654861300      53.000000000000
        60    2       29.470000000000       9.722604861300      53.000000000000
        61    2       27.365000000000       6.076629861300      53.000000000000
        62    2       31.575000000000      13.368579861300      53.000000000000
        63    1       29.470000000000       4.861295138700      53.665150000000
        64    1       33.680000000000      12.153245138700      53.665150000000
        65    1       39.995000000000       1.215320138700      53.665150000000
        66    1       42.100000000000       4.861295138700      53.665150000000
        67    1       35.785000000000       8.507270138700      53.665150000000
        68    1       37.890000000000      12.153245138700      53.665150000000
        69    2       39.995000000000       6.076629861300      53.000000000000
        70    2       35.785000000000      13.368579861300      53.000000000000
        71    1       35.785000000000       1.215320138700      53.665150000000
        72    1       39.995000000000       8.507270138700      53.665150000000
        73    2       37.890000000000       2.430654861300      53.000000000000
        74    2       42.100000000000       9.722604861300      53.000000000000
        75    2       42.100000000000       2.430654861300      53.000000000000
        76    2       37.890000000000       9.722604861300      53.000000000000
        77    2       35.785000000000       6.076629861300      53.000000000000
        78    2       39.995000000000      13.368579861300      53.000000000000
        79    1       37.890000000000       4.861295138700      53.665150000000
        80    1       42.100000000000      12.153245138700      53.665150000000
        81    1       48.415000000000       1.215320138700      53.665150000000
        82    1       50.520000000000       4.861295138700      53.665150000000
        83    1       44.205000000000       8.507270138700      53.665150000000
        84    1       46.310000000000      12.153245138700      53.665150000000
        85    2       48.415000000000       6.076629861300      53.000000000000
        86    2       44.205000000000      13.368579861300      53.000000000000
        87    1       44.205000000000       1.215320138700      53.665150000000
        88    1       48.415000000000       8.507270138700      53.665150000000
        89    2       46.310000000000       2.430654861300      53.000000000000
        90    2       50.520000000000       9.722604861300      53.000000000000
        91    2       50.520000000000       2.430654861300      53.000000000000
        92    2       46.310000000000       9.722604861300      53.000000000000
        93    2       44.205000000000       6.076629861300      53.000000000000
        94    2       48.415000000000      13.368579861300      53.000000000000
        95    1       46.310000000000       4.861295138700      53.665150000000
        96    1       50.520000000000      12.153245138700      53.665150000000
        97    1       56.835000000000       1.215320138700      53.665150000000
        98    1       58.940000000000       4.861295138700      53.665150000000
        99    1       52.625000000000       8.507270138700      53.665150000000
       100    1       54.730000000000      12.153245138700      53.665150000000
       101    2       56.835000000000       6.076629861300      53.000000000000
       102    2       52.625000000000      13.368579861300      53.000000000000
       103    1       52.625000000000       1.215320138700      53.665150000000
       104    1       56.835000000000       8.507270138700      53.665150000000
       105    2       54.730000000000       2.430654861300      53.000000000000
       106    2       58.940000000000       9.722604861300      53.000000000000
       107    2       58.940000000000       2.430654861300      53.000000000000
       108    2       54.730000000000       9.722604861300      53.000000000000
       109    2       52.625000000000       6.076629861300      53.000000000000
       110    2       56.835000000000      13.368579861300      53.000000000000
       111    1       54.730000000000       4.861295138700      53.665150000000
       112    1       58.940000000000      12.153245138700      53.665150000000
       113    1       65.255000000000       1.215320138700      53.665150000000
       114    1       67.360000000000       4.861295138700      53.665150000000
       115    1       61.045000000000       8.507270138700      53.665150000000
       116    1       63.150000000000      12.153245138700      53.665150000000
       117    2       65.255000000000       6.076629861300      53.000000000000
       118    2       61.045000000000      13.368579861300      53.000000000000
       119    1       61.045000000000       1.215320138700      53.665150000000
       120    1       65.255000000000       8.507270138700      53.665150000000
       121    2       63.150000000000       2.430654861300      53.000000000000
       122    2       67.360000000000       9.722604861300      53.000000000000
       123    2       67.360000000000       2.430654861300      53.000000000000
       124    2       63.150000000000       9.722604861300      53.000000000000
       125    2       61.045000000000       6.076629861300      53.000000000000
       126    2       65.255000000000      13.368579861300      53.000000000000
       127    1       63.150000000000       4.861295138700      53.665150000000
       128    1       67.360000000000      12.153245138700      53.665150000000
       129    1       73.675000000000       1.215320138700      53.665150000000
       130    1       75.780000000000       4.861295138700      53.665150000000
       131    1       69.465000000000       8.507270138700      53.665150000000
       132    1       71.570000000000      12.153245138700      53.665150000000
       133    2       73.675000000000       6.076629861300      53.000000000000
       134    2       69.465000000000      13.368579861300      53.000000000000
       135    1       69.465000000000       1.215320138700      53.665150000000
       136    1       73.675000000000       8.507270138700      53.665150000000
       137    2       71.570000000000       2.430654861300      53.000000000000
       138    2       75.780000000000       9.722604861300      53.000000000000
       139    2       75.780000000000       2.430654861300      53.000000000000
       140    2       71.570000000000       9.722604861300      53.000000000000
       141    2       69.465000000000       6.076629861300      53.000000000000
       142    2       73.675000000000      13.368579861300      53.000000000000
       143    1       71.570000000000       4.861295138700      53.665150000000
       144    1       75.780000000000      12.153245138700      53.665150000000
       145    1       82.095000000000       1.215320138700      53.665150000000
       146    1       84.200000000000       4.861295138700      53.665150000000
       147    1       77.885000000000       8.507270138700      53.665150000000
       148    1       79.990000000000      12.153245138700      53.665150000000
       149    2       82.095000000000       6.076629861300      53.000000000000
       150    2       77.885000000000      13.368579861300      53.000000000000
       151    1       77.885000000000       1.215320138700      53.665150000000
       152    1       82.095000000000       8.507270138700      53.665150000000
       153    2       79.990000000000       2.430654861300      53.000000000000
       154    2       84.200000000000       9.722604861300      53.000000000000
       155    2       84.200000000000       2.430654861300      53.000000000000
       156    2       79.990000000000       9.722604861300      53.000000000000
       157    2       77.885000000000       6.076629861300      53.000000000000
       158    2       82.095000000000      13.368579861300      53.000000000000
       159    1       79.990000000000       4.861295138700      53.665150000000
       160    1       84.200000000000      12.153245138700      53.665150000000
       161    1       90.515000000000       1.215320138700      53.665150000000
       162    1       92.620000000000       4.861295138700      53.665150000000
       163    1       86.305000000000       8.507270138700      53.665150000000
       164    1       88.410000000000      12.153245138700      53.665150000000
       165    2       90.515000000000       6.076629861300      53.000000000000
       166    2       86.305000000000      13.368579861300      53.000000000000
       167    1       86.305000000000       1.215320138700      53.665150000000
       168    1       90.515000000000       8.507270138700      53.665150000000
       169    2       88.410000000000       2.430654861300      53.000000000000
       170    2       92.620000000000       9.722604861300      53.000000000000
       171    2       92.620000000000       2.430654861300      53.000000000000
       172    2       88.410000000000       9.722604861300      53.000000000000
       173    2       86.305000000000       6.076629861300      53.000000000000
       174    2       90.515000000000      13.368579861300      53.000000000000
       175    1       88.410000000000       4.861295138700      53.665150000000
       176    1       92.620000000000      12.153245138700      53.665150000000
       177    1       98.935000000000       1.215320138700      53.665150000000
       178    1      101.040000000000       4.861295138700      53.665150000000
       179    1       94.725000000000       8.507270138700      53.665150000000
       180    1       96.830000000000      12.153245138700      53.665150000000
       181    2       98.935000000000       6.076629861300      53.000000000000
       182    2       94.725000000000      13.368579861300      53.000000000000
       183    1       94.725000000000       1.215320138700      53.665150000000
       184    1       98.935000000000       8.507270138700      53.665150000000
       185    2       96.830000000000       2.430654861300      53.000000000000
       186    2      101.040000000000       9.722604861300      53.000000000000
       187    2      101.040000000000       2.430654861300      53.000000000000
       188    2       96.830000000000       9.722604861300      53.000000000000
       189    2       94.725000000000       6.076629861300      53.000000000000
       190    2       98.935000000000      13.368579861300      53.000000000000
       191    1       96.830000000000       4.861295138700      53.665150000000
       192    1      101.040000000000      12.153245138700      53.665150000000
       193    1        6.315000000000      15.799220138700      53.665150000000
       194    1        8.420000000000      19.445195138700      53.665150000000
       195    1        2.105000000000      23.091170138700      53.665150000000
       196    1        4.210000000000      26.737145138700      53.665150000000
       197    2        6.315000000000      20.660529861300      53.000000000000
       198    2        2.105000000000      27.952479861300      53.000000000000
       199    1        2.105000000000      15.799220138700      53.665150000000
       200    1        6.315000000000      23.091170138700      53.665150000000
       201    2        4.210000000000      17.014554861300      53.000000000000
       202    2        8.420000000000      24.306504861300      53.000000000000
       203    2        8.420000000000      17.014554861300      53.000000000000
       204    2        4.210000000000      24.306504861300      53.000000000000
       205    2        2.105000000000      20.660529861300      53.000000000000
       206    2        6.315000000000      27.952479861300      53.000000000000
       207    1        4.210000000000      19.445195138700      53.665150000000
       208    1        8.420000000000      26.737145138700      53.665150000000
       209    1       14.735000000000      15.799220138700      53.665150000000
       210    1       16.840000000000      19.445195138700      53.665150000000
       211    1       10.525000000000      23.091170138700      53.665150000000
       212    1       12.630000000000      26.737145138700      53.665150000000
       213    2       14.735000000000      20.660529861300      53.000000000000
       214    2       10.525000000000      27.952479861300      53.000000000000
       215    1       10.525000000000      15.799220138700      53.665150000000
       216    1       14.735000000000      23.091170138700      53.665150000000
       217    2       12.630000000000      17.014554861300      53.000000000000
       218    2       16.840000000000      24.306504861300      53.000000000000
       219    2       16.840000000000      17.014554861300      53.000000000000
       220    2       12.630000000000      24.306504861300      53.000000000000
       221    2       10.525000000000      20.660529861300      53.000000000000
       222    2       14.735000000000      27.952479861300      53.000000000000
       223    1       12.630000000000      19.445195138700      53.665150000000
       224    1       16.840000000000      26.737145138700      53.665150000000
       225    1       23.155000000000      15.799220138700      53.665150000000
       226    1       25.260000000000      19.445195138700      53.665150000000
       227    1       18.945000000000      23.091170138700      53.665150000000
       228    1       21.050000000000      26.737145138700      53.665150000000
       229    2       23.155000000000      20.660529861300      53.000000000000
       230    2       18.945000000000      27.952479861300      53.000000000000
       231    1       18.945000000000      15.799220138700      53.665150000000
       232    1       23.155000000000      23.091170138700      53.665150000000
       233    2       21.050000000000      17.014554861300      53.000000000000
       234    2       25.260000000000      24.306504861300      53.000000000000
       235    2       25.260000000000      17.014554861300      53.000000000000
       236    2       21.050000000000      24.306504861300      53.000000000000
       237    2       18.945000000000      20.660529861300      53.000000000000
       238    2       23.155000000000      27.952479861300      53.000000000000
       239    1       21.050000000000      19.445195138700      53.665150000000
       240    1       25.260000000000      26.737145138700      53.665150000000
       241    1       31.575000000000      15.799220138700      53.665150000000
       242    1       33.680000000000      19.445195138700      53.665150000000
       243    1       27.365000000000      23.091170138700      53.665150000000
       244    1       29.470000000000      26.737145138700      53.665150000000
       245    2       31.575000000000      20.660529861300      53.000000000000
       246    2       27.365000000000      27.952479861300      53.000000000000
       247    1       27.365000000000      15.799220138700      53.665150000000
       248    1       31.575000000000      23.091170138700      53.665150000000
       249    2       29.470000000000      17.014554861300      53.000000000000
       250    2       33.680000000000      24.306504861300      53.000000000000
       251    2       33.680000000000      17.014554861300      53.000000000000
       252    2       29.470000000000      24.306504861300      53.000000000000
       253    2       27.365000000000      20.660529861300      53.000000000000
       254    2       31.575000000000      27.952479861300      53.000000000000
       255    1       29.470000000000      19.445195138700      53.665150000000
       256    1       33.680000000000      26.737145138700      53.665150000000
       257    1       39.995000000000      15.799220138700      53.665150000000
       258    1       42.100000000000      19.445195138700      53.665150000000
       259    1       35.785000000000      23.091170138700      53.665150000000
       260    1       37.890000000000      26.737145138700      53.665150000000
       261    2       39.995000000000      20.660529861300      53.000000000000
       262    2       35.785000000000      27.952479861300      53.000000000000
       263    1       35.785000000000      15.799220138700      53.665150000000
       264    1       39.995000000000      23.091170138700      53.665150000000
       265    2       37.890000000000      17.014554861300      53.000000000000
       266    2       42.100000000000      24.306504861300      53.000000000000
       267    2       42.100000000000      17.014554861300      53.000000000000
       268    2       37.890000000000      24.306504861300      53.000000000000
       269    2       35.785000000000      20.660529861300      53.000000000000
       270    2       39.995000000000      27.952479861300      53.000000000000
       271    1       37.890000000000      19.445195138700      53.665150000000
       272    1       42.100000000000      26.737145138700      53.665150000000
       273    1       48.415000000000      15.799220138700      53.665150000000
       274    1       50.520000000000      19.445195138700      53.665150000000
       275    1       44.205000000000      23.091170138700      53.665150000000
       276    1       46.310000000000      26.737145138700      53.665150000000
       277    2       48.415000000000      20.660529861300      53.000000000000
       278    2       44.205000000000      27.952479861300      53.000000000000
       279    1       44.205000000000      15.799220138700      53.665150000000
       280    1       48.415000000000      23.091170138700      53.665150000000
       281    2       46.310000000000      17.014554861300      53.000000000000
       282    2       50.520000000000      24.306504861300      53.000000000000
       283    2       50.520000000000      17.014554861300      53.000000000000
       284    2       46.310000000000      24.306504861300      53.000000000000
       285    2       44.205000000000      20.660529861300      53.000000000000
       286    2       48.415000000000      27.952479861300      53.000000000000
       287    1       46.310000000000      19.445195138700      53.665150000000
       288    1       50.520000000000      26.737145138700      53.665150000000
       289    1       56.835000000000      15.799220138700      53.665150000000
       290    1       58.940000000000      19.445195138700      53.665150000000
       291    1       52.625000000000      23.091170138700      53.665150000000
       292    1       54.730000000000      26.737145138700      53.665150000000
       293    2       56.835000000000      20.660529861300      53.000000000000
       294    2       52.625000000000      27.952479861300      53.000000000000
       295    1       52.625000000000      15.799220138700      53.665150000000
       296    1       56.835000000000      23.091170138700      53.665150000000
       297    2       54.730000000000      17.014554861300      53.000000000000
       298    2       58.940000000000      24.306504861300      53.000000000000
       299    2       58.940000000000      17.014554861300      53.000000000000
       300    2       54.730000000000      24.306504861300      53.000000000000
       301    2       52.625000000000      20.660529861300      53.000000000000
       302    2       56.835000000000      27.952479861300      53.000000000000
       303    1       54.730000000000      19.445195138700      53.665150000000
       304    1       58.940000000000      26.737145138700      53.665150000000
       305    1       65.255000000000      15.799220138700      53.665150000000
       306    1       67.360000000000      19.445195138700      53.665150000000
       307    1       61.045000000000      23.091170138700      53.665150000000
       308    1       63.150000000000      26.737145138700      53.665150000000
       309    2       65.255000000000      20.660529861300      53.000000000000
       310    2       61.045000000000      27.952479861300      53.000000000000
       311    1       61.045000000000      15.799220138700      53.665150000000
       312    1       65.255000000000      23.091170138700      53.665150000000
       313    2       63.150000000000      17.014554861300      53.000000000000
       314    2       67.360000000000      24.306504861300      53.000000000000
       315    2       67.360000000000      17.014554861300      53.000000000000
       316    2       63.150000000000      24.306504861300      53.000000000000
       317    2       61.045000000000      20.660529861300      53.000000000000
       318    2       65.255000000000      27.952479861300      53.000000000000
       319    1       63.150000000000      19.445195138700      53.665150000000
       320    1       67.360000000000      26.737145138700      53.665150000000
       321    1       73.675000000000      15.799220138700      53.665150000000
       322    1       75.780000000000      19.445195138700      53.665150000000
       323    1       69.465000000000      23.091170138700      53.665150000000
       324    1       71.570000000000      26.737145138700      53.665150000000
       325    2       73.675000000000      20.660529861300      53.000000000000
       326    2       69.465000000000      27.952479861300      53.000000000000
       327    1       69.465000000000      15.799220138700      53.665150000000
       328    1       73.675000000000      23.091170138700      53.665150000000
       329    2       71.570000000000      17.014554861300      53.000000000000
       330    2       75.780000000000      24.306504861300      53.000000000000
       331    2       75.780000000000      17.014554861300      53.000000000000
       332    2       71.570000000000      24.306504861300      53.000000000000
       333    2       69.465000000000      20.660529861300      53.000000000000
       334    2       73.675000000000      27.952479861300      53.000000000000
       335    1       71.570000000000      19.445195138700      53.665150000000
       336    1       75.780000000000      26.737145138700      53.665150000000
       337    1       82.095000000000      15.799220138700      53.665150000000
       338    1       84.200000000000      19.445195138700      53.665150000000
       339    1       77.885000000000      23.091170138700      53.665150000000
       340    1       79.990000000000      26.737145138700      53.665150000000
       341    2       82.095000000000      20.660529861300      53.000000000000
       342    2       77.885000000000      27.952479861300      53.000000000000
       343    1       77.885000000000      15.799220138700      53.665150000000
       344    1       82.095000000000      23.091170138700      53.665150000000
       345    2       79.990000000000      17.014554861300      53.000000000000
       346    2       84.200000000000      24.306504861300      53.000000000000
       347    2       84.200000000000      17.014554861300      53.000000000000
       348    2       79.990000000000      24.306504861300      53.000000000000
       349    2       77.885000000000      20.660529861300      53.000000000000
       350    2       82.095000000000      27.952479861300      53.000000000000
       351    1       79.990000000000      19.445195138700      53.665150000000
       352    1       84.200000000000      26.737145138700      53.665150000000
       353    1       90.515000000000      15.799220138700      53.665150000000
       354    1       92.620000000000      19.445195138700      53.665150000000
       355    1       86.305000000000      23.091170138700      53.665150000000
       356    1       88.410000000000      26.737145138700      53.665150000000
       357    2       90.515000000000      20.660529861300      53.000000000000
       358    2       86.305000000000      27.952479861300      53.000000000000
       359    1       86.305000000000      15.799220138700      53.665150000000
       360    1       90.515000000000      23.091170138700      53.665150000000
       361    2       88.410000000000      17.014554861300      53.000000000000
       362    2       92.620000000000      24.306504861300      53.000000000000
       363    2       92.620000000000      17.014554861300      53.000000000000
       364    2       88.410000000000      24.306504861300      53.000000000000
       365    2       86.305000000000      20.660529861300      53.000000000000
       366    2       90.515000000000      27.952479861300      53.000000000000
       367    1       88.410000000000      19.445195138700      53.665150000000
       368    1       92.620000000000      26.737145138700      53.665150000000
       369    1       98.935000000000      15.799220138700      53.665150000000
       370    1      101.040000000000      19.445195138700      53.665150000000