 # O8 Sn8
  
        2160  atoms
           2  atom types
 
      0.000000000000     100.278000000000  xlo xhi
      0.000000000000     104.212800000000  ylo yhi
      0.000000000000      16.005000000000  zlo zhi
 
Masses
 
            1   15.99900000             # O
            2   118.71000000            # Sn
 
Atoms # atomic
 
         1    1        0.000000000000       1.929870526400       7.497254160000
         2    2        3.342600000000       3.859729473600       8.508658125000
         3    2        0.000000000000       9.649329473600       8.508658125000
         4    1        3.342600000000       7.719470526400       7.497254160000
         5    2        5.013900000000       0.964929473600       8.508658125000
         6    2        1.671300000000       6.754529473600       8.508658125000
         7    1        3.342600000000       1.929870526400       7.497254160000
         8    1        0.000000000000       7.719470526400       7.497254160000
         9    1        1.671300000000       4.824670526400       7.497254160000
        10    1        5.013900000000      10.614270526400       7.497254160000
        11    1        5.013900000000       4.824670526400       7.497254160000
        12    1        1.671300000000      10.614270526400       7.497254160000
        13    2        0.000000000000       3.859729473600       8.508658125000
        14    2        3.342600000000       9.649329473600       8.508658125000
        15    2        1.671300000000       0.964929473600       8.508658125000
        16    2        5.013900000000       6.754529473600       8.508658125000
        17    1        6.685200000000       1.929870526400       7.497254160000
        18    2       10.027800000000       3.859729473600       8.508658125000
        19    2        6.685200000000       9.649329473600       8.508658125000
        20    1       10.027800000000       7.719470526400       7.497254160000
        21    2       11.699100000000       0.964929473600       8.508658125000
        22    2        8.356500000000       6.754529473600       8.508658125000
        23    1       10.027800000000       1.929870526400       7.497254160000
        24    1        6.685200000000       7.719470526400       7.497254160000
        25    1        8.356500000000       4.824670526400       7.497254160000
        26    1       11.699100000000      10.614270526400       7.497254160000
        27    1       11.699100000000       4.824670526400       7.497254160000
        28    1        8.356500000000      10.614270526400       7.497254160000
        29    2        6.685200000000       3.859729473600       8.508658125000
        30    2       10.027800000000       9.649329473600       8.508658125000
        31    2        8.356500000000       0.964929473600       8.508658125000
        32    2       11.699100000000       6.754529473600       8.508658125000
        33    1       13.370400000000       1.929870526400       7.497254160000
        34    2       16.713000000000       3.859729473600       8.508658125000
        35    2       13.370400000000       9.649329473600       8.508658125000
        36    1       16.713000000000       7.719470526400       7.497254160000
        37    2       18.384300000000       0.964929473600       8.508658125000
        38    2       15.041700000000       6.754529473600       8.508658125000
        39    1       16.713000000000       1.929870526400       7.497254160000
        40    1       13.370400000000       7.719470526400       7.497254160000
        41    1       15.041700000000       4.824670526400       7.497254160000
        42    1       18.384300000000      10.614270526400       7.497254160000
        43    1       18.384300000000       4.824670526400       7.497254160000
        44    1       15.041700000000      10.614270526400       7.497254160000
        45    2       13.370400000000       3.859729473600       8.508658125000
        46    2       16.713000000000       9.649329473600       8.508658125000
        47    2       15.041700000000       0.964929473600       8.508658125000
        48    2       18.384300000000       6.754529473600       8.508658125000
        49    1       20.055600000000       1.929870526400       7.497254160000
        50    2       23.398200000000       3.859729473600       8.508658125000
        51    2       20.055600000000       9.649329473600       8.508658125000
        52    1       23.398200000000       7.719470526400       7.497254160000
        53    2       25.069500000000       0.964929473600       8.508658125000
        54    2       21.726900000000       6.754529473600       8.508658125000
        55    1       23.398200000000       1.929870526400       7.497254160000
        56    1       20.055600000000       7.719470526400       7.497254160000
        57    1       21.726900000000       4.824670526400       7.497254160000
        58    1       25.069500000000      10.614270526400       7.497254160000
        59    1       25.069500000000       4.824670526400       7.497254160000
        60    1       21.726900000000      10.614270526400       7.497254160000
        61    2       20.055600000000       3.859729473600       8.508658125000
        62    2       23.398200000000       9.649329473600       8.508658125000
        63    2       21.726900000000       0.964929473600       8.508658125000
        64    2       25.069500000000       6.754529473600       8.508658125000
        65    1       26.740800000000       1.929870526400       7.497254160000
        66    2       30.083400000000       3.859729473600       8.508658125000
        67    2       26.740800000000       9.649329473600       8.508658125000
        68    1       30.083400000000       7.719470526400       7.497254160000
        69    2       31.754700000000       0.964929473600       8.508658125000
        70    2       28.412100000000       6.754529473600       8.508658125000
        71    1       30.083400000000       1.929870526400       7.497254160000
        72    1       26.740800000000       7.719470526400       7.497254160000
        73    1       28.412100000000       4.824670526400       7.497254160000
        74    1       31.754700000000      10.614270526400       7.497254160000
        75    1       31.754700000000       4.824670526400       7.497254160000
        76    1       28.412100000000      10.614270526400       7.497254160000
        77    2       26.740800000000       3.859729473600       8.508658125000
        78    2       30.083400000000       9.649329473600       8.508658125000
        79    2       28.412100000000       0.964929473600       8.508658125000
        80    2       31.754700000000       6.754529473600       8.508658125000
        81    1       33.426000000000       1.929870526400       7.497254160000
        82    2       36.768600000000       3.859729473600       8.508658125000
        83    2       33.426000000000       9.649329473600       8.508658125000
        84    1       36.768600000000       7.719470526400       7.497254160000
        85    2       38.439900000000       0.964929473600       8.508658125000
        86    2       35.097300000000       6.754529473600       8.508658125000
        87    1       36.768600000000       1.929870526400       7.497254160000
        88    1       33.426000000000       7.719470526400       7.497254160000
        89    1       35.097300000000       4.824670526400       7.497254160000
        90    1       38.439900000000      10.614270526400       7.497254160000
        91    1       38.439900000000       4.824670526400       7.497254160000
        92    1       35.097300000000      10.614270526400       7.497254160000
        93    2       33.426000000000       3.859729473600       8.508658125000
        94    2       36.768600000000       9.649329473600       8.508658125000
        95    2       35.097300000000       0.964929473600       8.508658125000
        96    2       38.439900000000       6.754529473600       8.508658125000
        97    1       40.111200000000       1.929870526400       7.497254160000
        98    2       43.453800000000       3.859729473600       8.508658125000
        99    2       40.111200000000       9.649329473600       8.508658125000
       100    1       43.453800000000       7.719470526400       7.497254160000
       101    2       45.125100000000       0.964929473600       8.508658125000
       102    2       41.782500000000       6.754529473600       8.508658125000
       103    1       43.453800000000       1.929870526400       7.497254160000
       104    1       40.111200000000       7.719470526400       7.497254160000
       105    1       41.782500000000       4.824670526400       7.497254160000
       106    1       45.125100000000      10.614270526400       7.497254160000
       107    1       45.125100000000       4.824670526400       7.497254160000
       108    1       41.782500000000      10.614270526400       7.497254160000
       109    2       40.111200000000       3.859729473600       8.508658125000
       110    2       43.453800000000       9.649329473600       8.508658125000
       111    2       41.782500000000       0.964929473600       8.508658125000
       112    2       45.125100000000       6.754529473600       8.508658125000
       113    1       46.796400000000       1.929870526400       7.497254160000
       114    2       50.139000000000       3.859729473600       8.508658125000
       115    2       46.796400000000       9.649329473600       8.508658125000
       116    1       50.139000000000       7.719470526400       7.497254160000
       117    2       51.810300000000       0.964929473600       8.508658125000
       118    2       48.467700000000       6.754529473600       8.508658125000
       119    1       50.139000000000       1.929870526400       7.497254160000
       120    1       46.796400000000       7.719470526400       7.497254160000
       121    1       48.467700000000       4.824670526400       7.497254160000
       122    1       51.810300000000      10.614270526400       7.497254160000
       123    1       51.810300000000       4.824670526400       7.497254160000
       124    1       48.467700000000      10.614270526400       7.497254160000
       125    2       46.796400000000       3.859729473600       8.508658125000
       126    2       50.139000000000       9.649329473600       8.508658125000
       127    2       48.467700000000       0.964929473600       8.508658125000
       128    2       51.810300000000       6.754529473600       8.508658125000
       129    1       53.481600000000       1.929870526400       7.497254160000
       130    2       56.824200000000       3.859729473600       8.508658125000
       131    2       53.481600000000       9.649329473600       8.508658125000
       132    1       56.824200000000       7.719470526400       7.497254160000
       133    2       58.495500000000       0.964929473600       8.508658125000
       134    2       55.152900000000       6.754529473600       8.508658125000
       135    1       56.824200000000       1.929870526400       7.497254160000
       136    1       53.481600000000       7.719470526400       7.497254160000
       137    1       55.152900000000       4.824670526400       7.497254160000
       138    1       58.495500000000      10.614270526400       7.497254160000
       139    1       58.495500000000       4.824670526400       7.497254160000
       140    1       55.152900000000      10.614270526400       7.497254160000
       141    2       53.481600000000       3.859729473600       8.508658125000
       142    2       56.824200000000       9.649329473600       8.508658125000
       143    2       55.152900000000       0.964929473600       8.508658125000
       144    2       58.495500000000       6.754529473600       8.508658125000
       145    1       60.166800000000       1.929870526400       7.497254160000
       146    2       63.509400000000       3.859729473600       8.508658125000
       147    2       60.166800000000       9.649329473600       8.508658125000
       148    1       63.509400000000       7.719470526400       7.497254160000
       149    2       65.180700000000       0.964929473600       8.508658125000
       150    2       61.838100000000       6.754529473600       8.508658125000
       151    1       63.509400000000       1.929870526400       7.497254160000
       152    1       60.166800000000       7.719470526400       7.497254160000
       153    1       61.838100000000       4.824670526400       7.497254160000
       154    1       65.180700000000      10.614270526400       7.497254160000
       155    1       65.180700000000       4.824670526400       7.497254160000
       156    1       61.838100000000      10.614270526400       7.497254160000
       157    2       60.166800000000       3.859729473600       8.508658125000
       158    2       63.509400000000       9.649329473600       8.508658125000
       159    2       61.838100000000       0.964929473600       8.508658125000
       160    2       65.180700000000       6.754529473600       8.508658125000
       161    1       66.852000000000       1.929870526400       7.497254160000
       162    2       70.194600000000       3.859729473600       8.508658125000
       163    2       66.852000000000       9.649329473600       8.508658125000
       164    1       70.194600000000       7.719470526400       7.497254160000
       165    2       71.865900000000       0.964929473600       8.508658125000
       166    2       68.523300000000       6.754529473600       8.508658125000
       167    1       70.194600000000       1.929870526400       7.497254160000
       168    1       66.852000000000       7.719470526400       7.497254160000
       169    1       68.523300000000       4.824670526400       7.497254160000
       170    1       71.865900000000      10.614270526400       7.497254160000
       171    1       71.865900000000       4.824670526400       7.497254160000
       172    1       68.523300000000      10.614270526400       7.497254160000
       173    2       66.852000000000       3.859729473600       8.508658125000
       174    2       70.194600000000       9.649329473600       8.508658125000
       175    2       68.523300000000       0.964929473600       8.508658125000
       176    2       71.865900000000       6.754529473600       8.508658125000
       177    1       73.537200000000       1.929870526400       7.497254160000
       178    2       76.879800000000       3.859729473600       8.508658125000
       179    2       73.537200000000       9.649329473600       8.508658125000
       180    1       76.879800000000       7.719470526400       7.497254160000
       181    2       78.551100000000       0.964929473600       8.508658125000
       182    2       75.208500000000       6.754529473600       8.508658125000
       183    1       76.879800000000       1.929870526400       7.497254160000
       184    1       73.537200000000       7.719470526400       7.497254160000
       185    1       75.208500000000       4.824670526400       7.497254160000
       186    1       78.551100000000      10.614270526400       7.497254160000
       187    1       78.551100000000       4.824670526400       7.497254160000
       188    1       75.208500000000      10.614270526400       7.497254160000
       189    2       73.537200000000       3.859729473600       8.508658125000
       190    2       76.879800000000       9.649329473600       8.508658125000
       191    2       75.208500000000       0.964929473600       8.508658125000
       192    2       78.551100000000       6.754529473600       8.508658125000
       193    1       80.222400000000       1.929870526400       7.497254160000
       194    2       83.565000000000       3.859729473600       8.508658125000
       195    2       80.222400000000       9.649329473600       8.508658125000
       196    1       83.565000000000       7.719470526400       7.497254160000
       197    2       85.236300000000       0.964929473600       8.508658125000
       198    2       81.893700000000       6.754529473600       8.508658125000
       199    1       83.565000000000       1.929870526400       7.497254160000
       200    1       80.222400000000       7.719470526400       7.497254160000
       201    1       81.893700000000       4.824670526400       7.497254160000
       202    1       85.236300000000      10.614270526400       7.497254160000
       203    1       85.236300000000       4.824670526400       7.497254160000
       204    1       81.893700000000      10.614270526400       7.497254160000
       205    2       80.222400000000       3.859729473600       8.508658125000
       206    2       83.565000000000       9.649329473600       8.508658125000
       207    2       81.893700000000       0.964929473600       8.508658125000
       208    2       85.236300000000       6.754529473600       8.508658125000
       209    1       86.907600000000       1.929870526400       7.497254160000
       210    2       90.250200000000       3.859729473600       8.508658125000
       211    2       86.907600000000       9.649329473600       8.508658125000
       212    1       90.250200000000       7.719470526400       7.497254160000
       213    2       91.921500000000       0.964929473600       8.508658125000
       214    2       88.578900000000       6.754529473600       8.508658125000
       215    1       90.250200000000       1.929870526400       7.497254160000
       216    1       86.907600000000       7.719470526400       7.497254160000
       217    1       88.578900000000       4.824670526400       7.497254160000
       218    1       91.921500000000      10.614270526400       7.497254160000
       219    1       91.921500000000       4.824670526400       7.497254160000
       220    1       88.578900000000      10.614270526400       7.497254160000
       221    2       86.907600000000       3.859729473600       8.508658125000
       222    2       90.250200000000       9.649329473600       8.508658125000
       223    2       88.578900000000       0.964929473600       8.508658125000
       224    2       91.921500000000       6.754529473600       8.508658125000
       225    1       93.592800000000       1.929870526400       7.497254160000
       226    2       96.935400000000       3.859729473600       8.508658125000
       227    2       93.592800000000       9.649329473600       8.508658125000
       228    1       96.935400000000       7.719470526400       7.497254160000
       229    2       98.606700000000       0.964929473600       8.508658125000
       230    2       95.264100000000       6.754529473600       8.508658125000
       231    1       96.935400000000       1.929870526400       7.497254160000
       232    1       93.592800000000       7.719470526400       7.497254160000
       233    1       95.264100000000       4.824670526400       7.497254160000
       234    1       98.606700000000      10.614270526400       7.497254160000
       235    1       98.606700000000       4.824670526400       7.497254160000
       236    1       95.264100000000      10.614270526400       7.497254160000
       237    2       93.592800000000       3.859729473600       8.508658125000
       238    2       96.935400000000       9.649329473600       8.508658125000
       239    2       95.264100000000       0.964929473600       8.508658125000
       240    2       98.606700000000       6.754529473600       8.508658125000
       241    1        0.000000000000      13.509070526400       7.497254160000
       242    2        3.342600000000      15.438929473600       8.508658125000
       243    2        0.000000000000      21.228529473600       8.508658125000
       244    1        3.342600000000      19.298670526400       7.497254160000
       245    2        5.013900000000      12.544129473600       8.508658125000
       246    2        1.671300000000      18.333729473600       8.508658125000
       247    1        3.342600000000      13.509070526400       7.497254160000
       248    1        0.000000000000      19.298670526400       7.497254160000
       249    1        1.671300000000      16.403870526400       7.497254160000
       250    1        5.013900000000      22.193470526400       7.497254160000
       251    1        5.013900000000      16.403870526400       7.497254160000
       252    1        1.671300000000      22.193470526400       7.497254160000
       253    2        0.000000000000      15.438929473600       8.508658125000
       254    2        3.342600000000      21.228529473600       8.508658125000
       255    2        1.671300000000      12.544129473600       8.508658125000
       256    2        5.013900000000      18.333729473600       8.508658125000
       257    1        6.685200000000      13.509070526400       7.497254160000
       258    2       10.027800000000      15.438929473600       8.508658125000
       259    2        6.685200000000      21.228529473600       8.508658125000
       260    1       10.027800000000      19.298670526400       7.497254160000
       261    2       11.699100000000      12.544129473600       8.508658125000
       262    2        8.356500000000      18.333729473600       8.508658125000
       263    1       10.027800000000      13.509070526400       7.497254160000
       264    1        6.685200000000      19.298670526400       7.497254160000
       265    1        8.356500000000      16.403870526400       7.497254160000
       266    1       11.699100000000      22.193470526400       7.497254160000
       267    1       11.699100000000      16.403870526400       7.497254160000
       268    1        8.356500000000      22.193470526400       7.497254160000
       269    2        6.685200000000      15.438929473600       8.508658125000
       270    2       10.027800000000      21.228529473600       8.508658125000
       271    2        8.356500000000      12.544129473600       8.508658125000
       272    2       11.699100000000      18.333729473600       8.508658125000
       273    1       13.370400000000      13.509070526400       7.497254160000
       274    2       16.713000000000      15.438929473600       8.508658125000
       275    2       13.370400000000      21.228529473600       8.508658125000
       276    1       16.713000000000      19.298670526400       7.497254160000
       277    2       18.384300000000      12.544129473600       8.508658125000
       278    2       15.041700000000      18.333729473600       8.508658125000
       279    1       16.713000000000      13.509070526400       7.497254160000
       280    1       13.370400000000      19.298670526400       7.497254160000
       281    1       15.041700000000      16.403870526400       7.497254160000
       282    1       18.384300000000      22.193470526400       7.497254160000
       283    1       18.384300000000      16.403870526400       7.497254160000
       284    1       15.041700000000      22.193470526400       7.497254160000
       285    2       13.370400000000      15.438929473600       8.508658125000
       286    2       16.713000000000      21.228529473600       8.508658125000
       287    2       15.041700000000      12.544129473600       8.508658125000
       288    2       18.384300000000      18.333729473600       8.508658125000
       289    1       20.055600000000      13.509070526400       7.497254160000
       290    2       23.398200000000      15.438929473600       8.508658125000
       291    2       20.055600000000      21.228529473600       8.508658125000
       292    1       23.398200000000      19.298670526400       7.497254160000
       293    2       25.069500000000      12.544129473600       8.508658125000
       294    2       21.726900000000      18.333729473600       8.508658125000
       295    1       23.398200000000      13.509070526400       7.497254160000
       296    1       20.055600000000      19.298670526400       7.497254160000
       297    1       21.726900000000      16.403870526400       7.497254160000
       298    1       25.069500000000      22.193470526400       7.497254160000
       299    1       25.069500000000      16.403870526400       7.497254160000
       300    1       21.726900000000      22.193470526400       7.497254160000
       301    2       20.055600000000      15.438929473600       8.508658125000
       302    2       23.398200000000      21.228529473600       8.508658125000
       303    2       21.726900000000      12.544129473600       8.508658125000
       304    2       25.069500000000      18.333729473600       8.508658125000
       305    1       26.740800000000      13.509070526400       7.497254160000
       306    2       30.083400000000      15.438929473600       8.508658125000
       307    2       26.740800000000      21.228529473600       8.508658125000
       308    1       30.083400000000      19.298670526400       7.497254160000
       309    2       31.754700000000      12.544129473600       8.508658125000
       310    2       28.412100000000      18.333729473600       8.508658125000
       311    1       30.083400000000      13.509070526400       7.497254160000
       312    1       26.740800000000      19.298670526400       7.497254160000
       313    1       28.412100000000      16.403870526400       7.497254160000
       314    1       31.754700000000      22.193470526400       7.497254160000
       315    1       31.754700000000      16.403870526400       7.497254160000
       316    1       28.412100000000      22.193470526400       7.497254160000
       317    2       26.740800000000      15.438929473600       8.508658125000
       318    2       30.083400000000      21.228529473600       8.508658125000
       319    2       28.412100000000      12.544129473600       8.508658125000
       320    2       31.754700000000      18.333729473600       8.508658125000
       321    1       33.426000000000      13.509070526400       7.497254160000
       322    2       36.768600000000      15.438929473600       8.508658125000
       323    2       33.426000000000      21.228529473600       8.508658125000
       324    1       36.768600000000      19.298670526400       7.497254160000
       325    2       38.439900000000      12.544129473600       8.508658125000
       326    2       35.097300000000      18.333729473600       8.508658125000
       327    1       36.768600000000      13.509070526400       7.497254160000
       328    1       33.426000000000      19.298670526400       7.497254160000
       329    1       35.097300000000      16.403870526400       7.497254160000
       330    1       38.439900000000      22.193470526400       7.497254160000
       331    1       38.439900000000      16.403870526400       7.497254160000
       332    1       35.097300000000      22.193470526400       7.497254160000
       333    2       33.426000000000      15.438929473600       8.508658125000
       334    2       36.768600000000      21.228529473600       8.508658125000
       335    2       35.097300000000      12.544129473600       8.508658125000
       336    2       38.439900000000      18.333729473600       8.508658125000
       337    1       40.111200000000      13.509070526400       7.497254160000
       338    2       43.453800000000      15.438929473600       8.508658125000
       339    2       40.111200000000      21.228529473600       8.508658125000
       340    1       43.453800000000      19.298670526400       7.497254160000
       341    2       45.125100000000      12.544129473600       8.508658125000
       342    2       41.782500000000      18.333729473600       8.508658125000
       343    1       43.453800000000      13.509070526400       7.497254160000
       344    1       40.111200000000      19.298670526400       7.497254160000
       345    1       41.782500000000      16.403870526400       7.497254160000
       346    1       45.125100000000      22.193470526400       7.497254160000
       347    1       45.125100000000      16.403870526400       7.497254160000
       348    1       41.782500000000      22.193470526400       7.497254160000
       349    2       40.111200000000      15.438929473600       8.508658125000
       350    2       43.453800000000      21.228529473600       8.508658125000
       351    2       41.782500000000      12.544129473600       8.508658125000
       352    2       45.125100000000      18.333729473600       8.508658125000
       353    1       46.796400000000      13.509070526400       7.497254160000
       354    2       50.139000000000      15.438929473600       8.508658125000
       355    2       46.796400000000      21.228529473600       8.508658125000
       356    1       50.139000000000      19.298670526400       7.497254160000
       357    2       51.810300000000      12.544129473600       8.508658125000
       358    2       48.467700000000      18.333729473600       8.508658125000
       359    1       50.139000000000      13.509070526400       7.497254160000
       360    1       46.796400000000      19.298670526400       7.497254160000
       361    1       48.467700000000      16.403870526400       7.497254160000
       362    1       51.810300000000      22.193470526400       7.497254160000
       363    1       51.810300000000      16.403870526400       7.497254160000
       364    1       48.467700000000      22.193470526400       7.497254160000
       365    2       46.796400000000      15.438929473600       8.508658125000
       366    2       50.139000000000      21.228529473600       8.508658125000
       367    2       48.467700000000      12.544129473600       8.508658125000
       368    2       51.810300000000      18.333729473600       8.508658125000
       369    1       53.481600000000      13.509070526400       7.497254160000
       370    2       56.824200000000      15.438929473600       8.508658125000