 # Se8 Sn8
  
        1456  atoms
           2  atom types
 
      0.000000000000     101.576800000000  xlo xhi
      0.000000000000      94.735200000000  ylo yhi
      0.000000000000      16.555000000000  zlo zhi
 
Masses
 
            1   78.96000000             # Se
            2   118.71000000            # Sn
 
Atoms # atomic
 
         1    1        1.953400000000       5.639004511200       7.498454810000
         2    2        5.860200000000       1.127795488800       9.057074950000
         3    1        5.860200000000       5.639004511200       7.498454810000
         4    2        1.953400000000       7.894595488800       9.057074950000
         5    1        1.953400000000      12.405804511200       7.498454810000
         6    1        3.906800000000       2.255604511200       7.498454810000
         7    1        5.860200000000      12.405804511200       7.498454810000
         8    1        7.813600000000       9.022404511200       7.498454810000
         9    2        0.000000000000       4.511195488800       9.057074950000
        10    2        3.906800000000      11.277995488800       9.057074950000
        11    1        7.813600000000       2.255604511200       7.498454810000
        12    1        3.906800000000       9.022404511200       7.498454810000
        13    2        1.953400000000       1.127795488800       9.057074950000
        14    2        5.860200000000       7.894595488800       9.057074950000
        15    2        3.906800000000       4.511195488800       9.057074950000
        16    2        7.813600000000      11.277995488800       9.057074950000
        17    1        9.767000000000       5.639004511200       7.498454810000
        18    2       13.673800000000       1.127795488800       9.057074950000
        19    1       13.673800000000       5.639004511200       7.498454810000
        20    2        9.767000000000       7.894595488800       9.057074950000
        21    1        9.767000000000      12.405804511200       7.498454810000
        22    1       11.720400000000       2.255604511200       7.498454810000
        23    1       13.673800000000      12.405804511200       7.498454810000
        24    1       15.627200000000       9.022404511200       7.498454810000
        25    2        7.813600000000       4.511195488800       9.057074950000
        26    2       11.720400000000      11.277995488800       9.057074950000
        27    1       15.627200000000       2.255604511200       7.498454810000
        28    1       11.720400000000       9.022404511200       7.498454810000
        29    2        9.767000000000       1.127795488800       9.057074950000
        30    2       13.673800000000       7.894595488800       9.057074950000
        31    2       11.720400000000       4.511195488800       9.057074950000
        32    2       15.627200000000      11.277995488800       9.057074950000
        33    1       17.580600000000       5.639004511200       7.498454810000
        34    2       21.487400000000       1.127795488800       9.057074950000
        35    1       21.487400000000       5.639004511200       7.498454810000
        36    2       17.580600000000       7.894595488800       9.057074950000
        37    1       17.580600000000      12.405804511200       7.498454810000
        38    1       19.534000000000       2.255604511200       7.498454810000
        39    1       21.487400000000      12.405804511200       7.498454810000
        40    1       23.440800000000       9.022404511200       7.498454810000
        41    2       15.627200000000       4.511195488800       9.057074950000
        42    2       19.534000000000      11.277995488800       9.057074950000
        43    1       23.440800000000       2.255604511200       7.498454810000
        44    1       19.534000000000       9.022404511200       7.498454810000
        45    2       17.580600000000       1.127795488800       9.057074950000
        46    2       21.487400000000       7.894595488800       9.057074950000
        47    2       19.534000000000       4.511195488800       9.057074950000
        48    2       23.440800000000      11.277995488800       9.057074950000
        49    1       25.394200000000       5.639004511200       7.498454810000
        50    2       29.301000000000       1.127795488800       9.057074950000
        51    1       29.301000000000       5.639004511200       7.498454810000
        52    2       25.394200000000       7.894595488800       9.057074950000
        53    1       25.394200000000      12.405804511200       7.498454810000
        54    1       27.347600000000       2.255604511200       7.498454810000
        55    1       29.301000000000      12.405804511200       7.498454810000
        56    1       31.254400000000       9.022404511200       7.498454810000
        57    2       23.440800000000       4.511195488800       9.057074950000
        58    2       27.347600000000      11.277995488800       9.057074950000
        59    1       31.254400000000       2.255604511200       7.498454810000
        60    1       27.347600000000       9.022404511200       7.498454810000
        61    2       25.394200000000       1.127795488800       9.057074950000
        62    2       29.301000000000       7.894595488800       9.057074950000
        63    2       27.347600000000       4.511195488800       9.057074950000
        64    2       31.254400000000      11.277995488800       9.057074950000
        65    1       33.207800000000       5.639004511200       7.498454810000
        66    2       37.114600000000       1.127795488800       9.057074950000
        67    1       37.114600000000       5.639004511200       7.498454810000
        68    2       33.207800000000       7.894595488800       9.057074950000
        69    1       33.207800000000      12.405804511200       7.498454810000
        70    1       35.161200000000       2.255604511200       7.498454810000
        71    1       37.114600000000      12.405804511200       7.498454810000
        72    1       39.068000000000       9.022404511200       7.498454810000
        73    2       31.254400000000       4.511195488800       9.057074950000
        74    2       35.161200000000      11.277995488800       9.057074950000
        75    1       39.068000000000       2.255604511200       7.498454810000
        76    1       35.161200000000       9.022404511200       7.498454810000
        77    2       33.207800000000       1.127795488800       9.057074950000
        78    2       37.114600000000       7.894595488800       9.057074950000
        79    2       35.161200000000       4.511195488800       9.057074950000
        80    2       39.068000000000      11.277995488800       9.057074950000
        81    1       41.021400000000       5.639004511200       7.498454810000
        82    2       44.928200000000       1.127795488800       9.057074950000
        83    1       44.928200000000       5.639004511200       7.498454810000
        84    2       41.021400000000       7.894595488800       9.057074950000
        85    1       41.021400000000      12.405804511200       7.498454810000
        86    1       42.974800000000       2.255604511200       7.498454810000
        87    1       44.928200000000      12.405804511200       7.498454810000
        88    1       46.881600000000       9.022404511200       7.498454810000
        89    2       39.068000000000       4.511195488800       9.057074950000
        90    2       42.974800000000      11.277995488800       9.057074950000
        91    1       46.881600000000       2.255604511200       7.498454810000
        92    1       42.974800000000       9.022404511200       7.498454810000
        93    2       41.021400000000       1.127795488800       9.057074950000
        94    2       44.928200000000       7.894595488800       9.057074950000
        95    2       42.974800000000       4.511195488800       9.057074950000
        96    2       46.881600000000      11.277995488800       9.057074950000
        97    1       48.835000000000       5.639004511200       7.498454810000
        98    2       52.741800000000       1.127795488800       9.057074950000
        99    1       52.741800000000       5.639004511200       7.498454810000
       100    2       48.835000000000       7.894595488800       9.057074950000
       101    1       48.835000000000      12.405804511200       7.498454810000
       102    1       50.788400000000       2.255604511200       7.498454810000
       103    1       52.741800000000      12.405804511200       7.498454810000
       104    1       54.695200000000       9.022404511200       7.498454810000
       105    2       46.881600000000       4.511195488800       9.057074950000
       106    2       50.788400000000      11.277995488800       9.057074950000
       107    1       54.695200000000       2.255604511200       7.498454810000
       108    1       50.788400000000       9.022404511200       7.498454810000
       109    2       48.835000000000       1.127795488800       9.057074950000
       110    2       52.741800000000       7.894595488800       9.057074950000
       111    2       50.788400000000       4.511195488800       9.057074950000
       112    2       54.695200000000      11.277995488800       9.057074950000
       113    1       56.648600000000       5.639004511200       7.498454810000
       114    2       60.555400000000       1.127795488800       9.057074950000
       115    1       60.555400000000       5.639004511200       7.498454810000
       116    2       56.648600000000       7.894595488800       9.057074950000
       117    1       56.648600000000      12.405804511200       7.498454810000
       118    1       58.602000000000       2.255604511200       7.498454810000
       119    1       60.555400000000      12.405804511200       7.498454810000
       120    1       62.508800000000       9.022404511200       7.498454810000
       121    2       54.695200000000       4.511195488800       9.057074950000
       122    2       58.602000000000      11.277995488800       9.057074950000
       123    1       62.508800000000       2.255604511200       7.498454810000
       124    1       58.602000000000       9.022404511200       7.498454810000
       125    2       56.648600000000       1.127795488800       9.057074950000
       126    2       60.555400000000       7.894595488800       9.057074950000
       127    2       58.602000000000       4.511195488800       9.057074950000
       128    2       62.508800000000      11.277995488800       9.057074950000
       129    1       64.462200000000       5.639004511200       7.498454810000
       130    2       68.369000000000       1.127795488800       9.057074950000
       131    1       68.369000000000       5.639004511200       7.498454810000
       132    2       64.462200000000       7.894595488800       9.057074950000
       133    1       64.462200000000      12.405804511200       7.498454810000
       134    1       66.415600000000       2.255604511200       7.498454810000
       135    1       68.369000000000      12.405804511200       7.498454810000
       136    1       70.322400000000       9.022404511200       7.498454810000
       137    2       62.508800000000       4.511195488800       9.057074950000
       138    2       66.415600000000      11.277995488800       9.057074950000
       139    1       70.322400000000       2.255604511200       7.498454810000
       140    1       66.415600000000       9.022404511200       7.498454810000
       141    2       64.462200000000       1.127795488800       9.057074950000
       142    2       68.369000000000       7.894595488800       9.057074950000
       143    2       66.415600000000       4.511195488800       9.057074950000
       144    2       70.322400000000      11.277995488800       9.057074950000
       145    1       72.275800000000       5.639004511200       7.498454810000
       146    2       76.182600000000       1.127795488800       9.057074950000
       147    1       76.182600000000       5.639004511200       7.498454810000
       148    2       72.275800000000       7.894595488800       9.057074950000
       149    1       72.275800000000      12.405804511200       7.498454810000
       150    1       74.229200000000       2.255604511200       7.498454810000
       151    1       76.182600000000      12.405804511200       7.498454810000
       152    1       78.136000000000       9.022404511200       7.498454810000
       153    2       70.322400000000       4.511195488800       9.057074950000
       154    2       74.229200000000      11.277995488800       9.057074950000
       155    1       78.136000000000       2.255604511200       7.498454810000
       156    1       74.229200000000       9.022404511200       7.498454810000
       157    2       72.275800000000       1.127795488800       9.057074950000
       158    2       76.182600000000       7.894595488800       9.057074950000
       159    2       74.229200000000       4.511195488800       9.057074950000
       160    2       78.136000000000      11.277995488800       9.057074950000
       161    1       80.089400000000       5.639004511200       7.498454810000
       162    2       83.996200000000       1.127795488800       9.057074950000
       163    1       83.996200000000       5.639004511200       7.498454810000
       164    2       80.089400000000       7.894595488800       9.057074950000
       165    1       80.089400000000      12.405804511200       7.498454810000
       166    1       82.042800000000       2.255604511200       7.498454810000
       167    1       83.996200000000      12.405804511200       7.498454810000
       168    1       85.949600000000       9.022404511200       7.498454810000
       169    2       78.136000000000       4.511195488800       9.057074950000
       170    2       82.042800000000      11.277995488800       9.057074950000
       171    1       85.949600000000       2.255604511200       7.498454810000
       172    1       82.042800000000       9.022404511200       7.498454810000
       173    2       80.089400000000       1.127795488800       9.057074950000
       174    2       83.996200000000       7.894595488800       9.057074950000
       175    2       82.042800000000       4.511195488800       9.057074950000
       176    2       85.949600000000      11.277995488800       9.057074950000
       177    1       87.903000000000       5.639004511200       7.498454810000
       178    2       91.809800000000       1.127795488800       9.057074950000
       179    1       91.809800000000       5.639004511200       7.498454810000
       180    2       87.903000000000       7.894595488800       9.057074950000
       181    1       87.903000000000      12.405804511200       7.498454810000
       182    1       89.856400000000       2.255604511200       7.498454810000
       183    1       91.809800000000      12.405804511200       7.498454810000
       184    1       93.763200000000       9.022404511200       7.498454810000
       185    2       85.949600000000       4.511195488800       9.057074950000
       186    2       89.856400000000      11.277995488800       9.057074950000
       187    1       93.763200000000       2.255604511200       7.498454810000
       188    1       89.856400000000       9.022404511200       7.498454810000
       189    2       87.903000000000       1.127795488800       9.057074950000
       190    2       91.809800000000       7.894595488800       9.057074950000
       191    2       89.856400000000       4.511195488800       9.057074950000
       192    2       93.763200000000      11.277995488800       9.057074950000
       193    1       95.716600000000       5.639004511200       7.498454810000
       194    2       99.623400000000       1.127795488800       9.057074950000
       195    1       99.623400000000       5.639004511200       7.498454810000
       196    2       95.716600000000       7.894595488800       9.057074950000
       197    1       95.716600000000      12.405804511200       7.498454810000
       198    1       97.670000000000       2.255604511200       7.498454810000
       199    1       99.623400000000      12.405804511200       7.498454810000
       200    1      101.576800000000       9.022404511200       7.498454810000
       201    2       93.763200000000       4.511195488800       9.057074950000
       202    2       97.670000000000      11.277995488800       9.057074950000
       203    1      101.576800000000       2.255604511200       7.498454810000
       204    1       97.670000000000       9.022404511200       7.498454810000
       205    2       95.716600000000       1.127795488800       9.057074950000
       206    2       99.623400000000       7.894595488800       9.057074950000
       207    2       97.670000000000       4.511195488800       9.057074950000
       208    2      101.576800000000      11.277995488800       9.057074950000
       209    1        1.953400000000      19.172604511200       7.498454810000
       210    2        5.860200000000      14.661395488800       9.057074950000
       211    1        5.860200000000      19.172604511200       7.498454810000
       212    2        1.953400000000      21.428195488800       9.057074950000
       213    1        1.953400000000      25.939404511200       7.498454810000
       214    1        3.906800000000      15.789204511200       7.498454810000
       215    1        5.860200000000      25.939404511200       7.498454810000
       216    1        7.813600000000      22.556004511200       7.498454810000
       217    2        0.000000000000      18.044795488800       9.057074950000
       218    2        3.906800000000      24.811595488800       9.057074950000
       219    1        7.813600000000      15.789204511200       7.498454810000
       220    1        3.906800000000      22.556004511200       7.498454810000
       221    2        1.953400000000      14.661395488800       9.057074950000
       222    2        5.860200000000      21.428195488800       9.057074950000
       223    2        3.906800000000      18.044795488800       9.057074950000
       224    2        7.813600000000      24.811595488800       9.057074950000
       225    1        9.767000000000      19.172604511200       7.498454810000
       226    2       13.673800000000      14.661395488800       9.057074950000
       227    1       13.673800000000      19.172604511200       7.498454810000
       228    2        9.767000000000      21.428195488800       9.057074950000
       229    1        9.767000000000      25.939404511200       7.498454810000
       230    1       11.720400000000      15.789204511200       7.498454810000
       231    1       13.673800000000      25.939404511200       7.498454810000
       232    1       15.627200000000      22.556004511200       7.498454810000
       233    2        7.813600000000      18.044795488800       9.057074950000
       234    2       11.720400000000      24.811595488800       9.057074950000
       235    1       15.627200000000      15.789204511200       7.498454810000
       236    1       11.720400000000      22.556004511200       7.498454810000
       237    2        9.767000000000      14.661395488800       9.057074950000
       238    2       13.673800000000      21.428195488800       9.057074950000
       239    2       11.720400000000      18.044795488800       9.057074950000
       240    2       15.627200000000      24.811595488800       9.057074950000
       241    1       17.580600000000      19.172604511200       7.498454810000
       242    2       21.487400000000      14.661395488800       9.057074950000
       243    1       21.487400000000      19.172604511200       7.498454810000
       244    2       17.580600000000      21.428195488800       9.057074950000
       245    1       17.580600000000      25.939404511200       7.498454810000
       246    1       19.534000000000      15.789204511200       7.498454810000
       247    1       21.487400000000      25.939404511200       7.498454810000
       248    1       23.440800000000      22.556004511200       7.498454810000
       249    2       15.627200000000      18.044795488800       9.057074950000
       250    2       19.534000000000      24.811595488800       9.057074950000
       251    1       23.440800000000      15.789204511200       7.498454810000
       252    1       19.534000000000      22.556004511200       7.498454810000
       253    2       17.580600000000      14.661395488800       9.057074950000
       254    2       21.487400000000      21.428195488800       9.057074950000
       255    2       19.534000000000      18.044795488800       9.057074950000
       256    2       23.440800000000      24.811595488800       9.057074950000
       257    1       25.394200000000      19.172604511200       7.498454810000
       258    2       29.301000000000      14.661395488800       9.057074950000
       259    1       29.301000000000      19.172604511200       7.498454810000
       260    2       25.394200000000      21.428195488800       9.057074950000
       261    1       25.394200000000      25.939404511200       7.498454810000
       262    1       27.347600000000      15.789204511200       7.498454810000
       263    1       29.301000000000      25.939404511200       7.498454810000
       264    1       31.254400000000      22.556004511200       7.498454810000
       265    2       23.440800000000      18.044795488800       9.057074950000
       266    2       27.347600000000      24.811595488800       9.057074950000
       267    1       31.254400000000      15.789204511200       7.498454810000
       268    1       27.347600000000      22.556004511200       7.498454810000
       269    2       25.394200000000      14.661395488800       9.057074950000
       270    2       29.301000000000      21.428195488800       9.057074950000
       271    2       27.347600000000      18.044795488800       9.057074950000
       272    2       31.254400000000      24.811595488800       9.057074950000
       273    1       33.207800000000      19.172604511200       7.498454810000
       274    2       37.114600000000      14.661395488800       9.057074950000
       275    1       37.114600000000      19.172604511200       7.498454810000
       276    2       33.207800000000      21.428195488800       9.057074950000
       277    1       33.207800000000      25.939404511200       7.498454810000
       278    1       35.161200000000      15.789204511200       7.498454810000
       279    1       37.114600000000      25.939404511200       7.498454810000
       280    1       39.068000000000      22.556004511200       7.498454810000
       281    2       31.254400000000      18.044795488800       9.057074950000
       282    2       35.161200000000      24.811595488800       9.057074950000
       283    1       39.068000000000      15.789204511200       7.498454810000
       284    1       35.161200000000      22.556004511200       7.498454810000
       285    2       33.207800000000      14.661395488800       9.057074950000
       286    2       37.114600000000      21.428195488800       9.057074950000
       287    2       35.161200000000      18.044795488800       9.057074950000
       288    2       39.068000000000      24.811595488800       9.057074950000
       289    1       41.021400000000      19.172604511200       7.498454810000
       290    2       44.928200000000      14.661395488800       9.057074950000
       291    1       44.928200000000      19.172604511200       7.498454810000
       292    2       41.021400000000      21.428195488800       9.057074950000
       293    1       41.021400000000      25.939404511200       7.498454810000
       294    1       42.974800000000      15.789204511200       7.498454810000
       295    1       44.928200000000      25.939404511200       7.498454810000
       296    1       46.881600000000      22.556004511200       7.498454810000
       297    2       39.068000000000      18.044795488800       9.057074950000
       298    2       42.974800000000      24.811595488800       9.057074950000
       299    1       46.881600000000      15.789204511200       7.498454810000
       300    1       42.974800000000      22.556004511200       7.498454810000
       301    2       41.021400000000      14.661395488800       9.057074950000
       302    2       44.928200000000      21.428195488800       9.057074950000
       303    2       42.974800000000      18.044795488800       9.057074950000
       304    2       46.881600000000      24.811595488800       9.057074950000
       305    1       48.835000000000      19.172604511200       7.498454810000
       306    2       52.741800000000      14.661395488800       9.057074950000
       307    1       52.741800000000      19.172604511200       7.498454810000
       308    2       48.835000000000      21.428195488800       9.057074950000
       309    1       48.835000000000      25.939404511200       7.498454810000
       310    1       50.788400000000      15.789204511200       7.498454810000
       311    1       52.741800000000      25.939404511200       7.498454810000
       312    1       54.695200000000      22.556004511200       7.498454810000
       313    2       46.881600000000      18.044795488800       9.057074950000
       314    2       50.788400000000      24.811595488800       9.057074950000
       315    1       54.695200000000      15.789204511200       7.498454810000
       316    1       50.788400000000      22.556004511200       7.498454810000
       317    2       48.835000000000      14.661395488800       9.057074950000
       318    2       52.741800000000      21.428195488800       9.057074950000
       319    2       50.788400000000      18.044795488800       9.057074950000
       320    2       54.695200000000      24.811595488800       9.057074950000
       321    1       56.648600000000      19.172604511200       7.498454810000
       322    2       60.555400000000      14.661395488800       9.057074950000
       323    1       60.555400000000      19.172604511200       7.498454810000
       324    2       56.648600000000      21.428195488800       9.057074950000
       325    1       56.648600000000      25.939404511200       7.498454810000
       326    1       58.602000000000      15.789204511200       7.498454810000
       327    1       60.555400000000      25.939404511200       7.498454810000
       328    1       62.508800000000      22.556004511200       7.498454810000
       329    2       54.695200000000      18.044795488800       9.057074950000
       330    2       58.602000000000      24.811595488800       9.057074950000
       331    1       62.508800000000      15.789204511200       7.498454810000
       332    1       58.602000000000      22.556004511200       7.498454810000
       333    2       56.648600000000      14.661395488800       9.057074950000
       334    2       60.555400000000      21.428195488800       9.057074950000
       335    2       58.602000000000      18.044795488800       9.057074950000
       336    2       62.508800000000      24.811595488800       9.057074950000
       337    1       64.462200000000      19.172604511200       7.498454810000
       338    2       68.369000000000      14.661395488800       9.057074950000
       339    1       68.369000000000      19.172604511200       7.498454810000
       340    2       64.462200000000      21.428195488800       9.057074950000
       341    1       64.462200000000      25.939404511200       7.498454810000
       342    1       66.415600000000      15.789204511200       7.498454810000
       343    1       68.369000000000      25.939404511200       7.498454810000
       344    1       70.322400000000      22.556004511200       7.498454810000
       345    2       62.508800000000      18.044795488800       9.057074950000
       346    2       66.415600000000      24.811595488800       9.057074950000
       347    1       70.322400000000      15.789204511200       7.498454810000
       348    1       66.415600000000      22.556004511200       7.498454810000
       349    2       64.462200000000      14.661395488800       9.057074950000
       350    2       68.369000000000      21.428195488800       9.057074950000
       351    2       66.415600000000      18.044795488800       9.057074950000
       352    2       70.322400000000      24.811595488800       9.057074950000
       353    1       72.275800000000      19.172604511200       7.498454810000
       354    2       76.182600000000      14.661395488800       9.057074950000
       355    1       76.182600000000      19.172604511200       7.498454810000
       356    2       72.275800000000      21.428195488800       9.057074950000
       357    1       72.275800000000      25.939404511200       7.498454810000
       358    1       74.229200000000      15.789204511200       7.498454810000
       359    1       76.182600000000      25.939404511200       7.498454810000
       360    1       78.136000000000      22.556004511200       7.498454810000
       361    2       70.322400000000      18.044795488800       9.057074950000
       362    2       74.229200000000      24.811595488800       9.057074950000
       363    1       78.136000000000      15.789204511200       7.498454810000
       364    1       74.229200000000      22.556004511200       7.498454810000
       365    2       72.275800000000      14.661395488800       9.057074950000
       366    2       76.182600000000      21.428195488800       9.057074950000
       367    2       74.229200000000      18.044795488800       9.057074950000
       368    2       78.136000000000      24.811595488800       9.057074950000
       369    1       80.089400000000      19.172604511200       7.498454810000
       370    2       83.996200000000      14.661395488800       9.057074950000