 # P16
  
        2160  atoms
           1  atom types
 
      0.000000000000      98.547000000000  xlo xhi
      0.000000000000     102.412800000000  ylo yhi
      0.000000000000      31.149600000000  zlo zhi
 
Masses
 
            1   30.97376200             # P
 
Atoms # atomic
 
         1    1        6.569800000000       0.000000000000      14.953147432800
         2    1        3.284900000000       5.689600000000      14.953147432800
         3    1        1.642450000000       4.741337126400      16.196452567200
         4    1        3.284900000000       0.000000000000      14.953147432800
         5    1        4.927350000000      10.430937126400      16.196452567200
         6    1        6.569800000000       5.689600000000      14.953147432800
         7    1        4.927350000000       4.741337126400      16.196452567200
         8    1        1.642450000000      10.430937126400      16.196452567200
         9    1        1.642450000000       2.844800000000      14.953147432800
        10    1        4.927350000000       8.534400000000      14.953147432800
        11    1        6.569800000000       1.896537126400      16.196452567200
        12    1        3.284900000000       1.896537126400      16.196452567200
        13    1        3.284900000000       7.586137126400      16.196452567200
        14    1        6.569800000000       7.586137126400      16.196452567200
        15    1        4.927350000000       2.844800000000      14.953147432800
        16    1        1.642450000000       8.534400000000      14.953147432800
        17    1       13.139600000000       0.000000000000      14.953147432800
        18    1        9.854700000000       5.689600000000      14.953147432800
        19    1        8.212250000000       4.741337126400      16.196452567200
        20    1        9.854700000000       0.000000000000      14.953147432800
        21    1       11.497150000000      10.430937126400      16.196452567200
        22    1       13.139600000000       5.689600000000      14.953147432800
        23    1       11.497150000000       4.741337126400      16.196452567200
        24    1        8.212250000000      10.430937126400      16.196452567200
        25    1        8.212250000000       2.844800000000      14.953147432800
        26    1       11.497150000000       8.534400000000      14.953147432800
        27    1       13.139600000000       1.896537126400      16.196452567200
        28    1        9.854700000000       1.896537126400      16.196452567200
        29    1        9.854700000000       7.586137126400      16.196452567200
        30    1       13.139600000000       7.586137126400      16.196452567200
        31    1       11.497150000000       2.844800000000      14.953147432800
        32    1        8.212250000000       8.534400000000      14.953147432800
        33    1       19.709400000000       0.000000000000      14.953147432800
        34    1       16.424500000000       5.689600000000      14.953147432800
        35    1       14.782050000000       4.741337126400      16.196452567200
        36    1       16.424500000000       0.000000000000      14.953147432800
        37    1       18.066950000000      10.430937126400      16.196452567200
        38    1       19.709400000000       5.689600000000      14.953147432800
        39    1       18.066950000000       4.741337126400      16.196452567200
        40    1       14.782050000000      10.430937126400      16.196452567200
        41    1       14.782050000000       2.844800000000      14.953147432800
        42    1       18.066950000000       8.534400000000      14.953147432800
        43    1       19.709400000000       1.896537126400      16.196452567200
        44    1       16.424500000000       1.896537126400      16.196452567200
        45    1       16.424500000000       7.586137126400      16.196452567200
        46    1       19.709400000000       7.586137126400      16.196452567200
        47    1       18.066950000000       2.844800000000      14.953147432800
        48    1       14.782050000000       8.534400000000      14.953147432800
        49    1       26.279200000000       0.000000000000      14.953147432800
        50    1       22.994300000000       5.689600000000      14.953147432800
        51    1       21.351850000000       4.741337126400      16.196452567200
        52    1       22.994300000000       0.000000000000      14.953147432800
        53    1       24.636750000000      10.430937126400      16.196452567200
        54    1       26.279200000000       5.689600000000      14.953147432800
        55    1       24.636750000000       4.741337126400      16.196452567200
        56    1       21.351850000000      10.430937126400      16.196452567200
        57    1       21.351850000000       2.844800000000      14.953147432800
        58    1       24.636750000000       8.534400000000      14.953147432800
        59    1       26.279200000000       1.896537126400      16.196452567200
        60    1       22.994300000000       1.896537126400      16.196452567200
        61    1       22.994300000000       7.586137126400      16.196452567200
        62    1       26.279200000000       7.586137126400      16.196452567200
        63    1       24.636750000000       2.844800000000      14.953147432800
        64    1       21.351850000000       8.534400000000      14.953147432800
        65    1       32.849000000000       0.000000000000      14.953147432800
        66    1       29.564100000000       5.689600000000      14.953147432800
        67    1       27.921650000000       4.741337126400      16.196452567200
        68    1       29.564100000000       0.000000000000      14.953147432800
        69    1       31.206550000000      10.430937126400      16.196452567200
        70    1       32.849000000000       5.689600000000      14.953147432800
        71    1       31.206550000000       4.741337126400      16.196452567200
        72    1       27.921650000000      10.430937126400      16.196452567200
        73    1       27.921650000000       2.844800000000      14.953147432800
        74    1       31.206550000000       8.534400000000      14.953147432800
        75    1       32.849000000000       1.896537126400      16.196452567200
        76    1       29.564100000000       1.896537126400      16.196452567200
        77    1       29.564100000000       7.586137126400      16.196452567200
        78    1       32.849000000000       7.586137126400      16.196452567200
        79    1       31.206550000000       2.844800000000      14.953147432800
        80    1       27.921650000000       8.534400000000      14.953147432800
        81    1       39.418800000000       0.000000000000      14.953147432800
        82    1       36.133900000000       5.689600000000      14.953147432800
        83    1       34.491450000000       4.741337126400      16.196452567200
        84    1       36.133900000000       0.000000000000      14.953147432800
        85    1       37.776350000000      10.430937126400      16.196452567200
        86    1       39.418800000000       5.689600000000      14.953147432800
        87    1       37.776350000000       4.741337126400      16.196452567200
        88    1       34.491450000000      10.430937126400      16.196452567200
        89    1       34.491450000000       2.844800000000      14.953147432800
        90    1       37.776350000000       8.534400000000      14.953147432800
        91    1       39.418800000000       1.896537126400      16.196452567200
        92    1       36.133900000000       1.896537126400      16.196452567200
        93    1       36.133900000000       7.586137126400      16.196452567200
        94    1       39.418800000000       7.586137126400      16.196452567200
        95    1       37.776350000000       2.844800000000      14.953147432800
        96    1       34.491450000000       8.534400000000      14.953147432800
        97    1       45.988600000000       0.000000000000      14.953147432800
        98    1       42.703700000000       5.689600000000      14.953147432800
        99    1       41.061250000000       4.741337126400      16.196452567200
       100    1       42.703700000000       0.000000000000      14.953147432800
       101    1       44.346150000000      10.430937126400      16.196452567200
       102    1       45.988600000000       5.689600000000      14.953147432800
       103    1       44.346150000000       4.741337126400      16.196452567200
       104    1       41.061250000000      10.430937126400      16.196452567200
       105    1       41.061250000000       2.844800000000      14.953147432800
       106    1       44.346150000000       8.534400000000      14.953147432800
       107    1       45.988600000000       1.896537126400      16.196452567200
       108    1       42.703700000000       1.896537126400      16.196452567200
       109    1       42.703700000000       7.586137126400      16.196452567200
       110    1       45.988600000000       7.586137126400      16.196452567200
       111    1       44.346150000000       2.844800000000      14.953147432800
       112    1       41.061250000000       8.534400000000      14.953147432800
       113    1       52.558400000000       0.000000000000      14.953147432800
       114    1       49.273500000000       5.689600000000      14.953147432800
       115    1       47.631050000000       4.741337126400      16.196452567200
       116    1       49.273500000000       0.000000000000      14.953147432800
       117    1       50.915950000000      10.430937126400      16.196452567200
       118    1       52.558400000000       5.689600000000      14.953147432800
       119    1       50.915950000000       4.741337126400      16.196452567200
       120    1       47.631050000000      10.430937126400      16.196452567200
       121    1       47.631050000000       2.844800000000      14.953147432800
       122    1       50.915950000000       8.534400000000      14.953147432800
       123    1       52.558400000000       1.896537126400      16.196452567200
       124    1       49.273500000000       1.896537126400      16.196452567200
       125    1       49.273500000000       7.586137126400      16.196452567200
       126    1       52.558400000000       7.586137126400      16.196452567200
       127    1       50.915950000000       2.844800000000      14.953147432800
       128    1       47.631050000000       8.534400000000      14.953147432800
       129    1       59.128200000000       0.000000000000      14.953147432800
       130    1       55.843300000000       5.689600000000      14.953147432800
       131    1       54.200850000000       4.741337126400      16.196452567200
       132    1       55.843300000000       0.000000000000      14.953147432800
       133    1       57.485750000000      10.430937126400      16.196452567200
       134    1       59.128200000000       5.689600000000      14.953147432800
       135    1       57.485750000000       4.741337126400      16.196452567200
       136    1       54.200850000000      10.430937126400      16.196452567200
       137    1       54.200850000000       2.844800000000      14.953147432800
       138    1       57.485750000000       8.534400000000      14.953147432800
       139    1       59.128200000000       1.896537126400      16.196452567200
       140    1       55.843300000000       1.896537126400      16.196452567200
       141    1       55.843300000000       7.586137126400      16.196452567200
       142    1       59.128200000000       7.586137126400      16.196452567200
       143    1       57.485750000000       2.844800000000      14.953147432800
       144    1       54.200850000000       8.534400000000      14.953147432800
       145    1       65.698000000000       0.000000000000      14.953147432800
       146    1       62.413100000000       5.689600000000      14.953147432800
       147    1       60.770650000000       4.741337126400      16.196452567200
       148    1       62.413100000000       0.000000000000      14.953147432800
       149    1       64.055550000000      10.430937126400      16.196452567200
       150    1       65.698000000000       5.689600000000      14.953147432800
       151    1       64.055550000000       4.741337126400      16.196452567200
       152    1       60.770650000000      10.430937126400      16.196452567200
       153    1       60.770650000000       2.844800000000      14.953147432800
       154    1       64.055550000000       8.534400000000      14.953147432800
       155    1       65.698000000000       1.896537126400      16.196452567200
       156    1       62.413100000000       1.896537126400      16.196452567200
       157    1       62.413100000000       7.586137126400      16.196452567200
       158    1       65.698000000000       7.586137126400      16.196452567200
       159    1       64.055550000000       2.844800000000      14.953147432800
       160    1       60.770650000000       8.534400000000      14.953147432800
       161    1       72.267800000000       0.000000000000      14.953147432800
       162    1       68.982900000000       5.689600000000      14.953147432800
       163    1       67.340450000000       4.741337126400      16.196452567200
       164    1       68.982900000000       0.000000000000      14.953147432800
       165    1       70.625350000000      10.430937126400      16.196452567200
       166    1       72.267800000000       5.689600000000      14.953147432800
       167    1       70.625350000000       4.741337126400      16.196452567200
       168    1       67.340450000000      10.430937126400      16.196452567200
       169    1       67.340450000000       2.844800000000      14.953147432800
       170    1       70.625350000000       8.534400000000      14.953147432800
       171    1       72.267800000000       1.896537126400      16.196452567200
       172    1       68.982900000000       1.896537126400      16.196452567200
       173    1       68.982900000000       7.586137126400      16.196452567200
       174    1       72.267800000000       7.586137126400      16.196452567200
       175    1       70.625350000000       2.844800000000      14.953147432800
       176    1       67.340450000000       8.534400000000      14.953147432800
       177    1       78.837600000000       0.000000000000      14.953147432800
       178    1       75.552700000000       5.689600000000      14.953147432800
       179    1       73.910250000000       4.741337126400      16.196452567200
       180    1       75.552700000000       0.000000000000      14.953147432800
       181    1       77.195150000000      10.430937126400      16.196452567200
       182    1       78.837600000000       5.689600000000      14.953147432800
       183    1       77.195150000000       4.741337126400      16.196452567200
       184    1       73.910250000000      10.430937126400      16.196452567200
       185    1       73.910250000000       2.844800000000      14.953147432800
       186    1       77.195150000000       8.534400000000      14.953147432800
       187    1       78.837600000000       1.896537126400      16.196452567200
       188    1       75.552700000000       1.896537126400      16.196452567200
       189    1       75.552700000000       7.586137126400      16.196452567200
       190    1       78.837600000000       7.586137126400      16.196452567200
       191    1       77.195150000000       2.844800000000      14.953147432800
       192    1       73.910250000000       8.534400000000      14.953147432800
       193    1       85.407400000000       0.000000000000      14.953147432800
       194    1       82.122500000000       5.689600000000      14.953147432800
       195    1       80.480050000000       4.741337126400      16.196452567200
       196    1       82.122500000000       0.000000000000      14.953147432800
       197    1       83.764950000000      10.430937126400      16.196452567200
       198    1       85.407400000000       5.689600000000      14.953147432800
       199    1       83.764950000000       4.741337126400      16.196452567200
       200    1       80.480050000000      10.430937126400      16.196452567200
       201    1       80.480050000000       2.844800000000      14.953147432800
       202    1       83.764950000000       8.534400000000      14.953147432800
       203    1       85.407400000000       1.896537126400      16.196452567200
       204    1       82.122500000000       1.896537126400      16.196452567200
       205    1       82.122500000000       7.586137126400      16.196452567200
       206    1       85.407400000000       7.586137126400      16.196452567200
       207    1       83.764950000000       2.844800000000      14.953147432800
       208    1       80.480050000000       8.534400000000      14.953147432800
       209    1       91.977200000000       0.000000000000      14.953147432800
       210    1       88.692300000000       5.689600000000      14.953147432800
       211    1       87.049850000000       4.741337126400      16.196452567200
       212    1       88.692300000000       0.000000000000      14.953147432800
       213    1       90.334750000000      10.430937126400      16.196452567200
       214    1       91.977200000000       5.689600000000      14.953147432800
       215    1       90.334750000000       4.741337126400      16.196452567200
       216    1       87.049850000000      10.430937126400      16.196452567200
       217    1       87.049850000000       2.844800000000      14.953147432800
       218    1       90.334750000000       8.534400000000      14.953147432800
       219    1       91.977200000000       1.896537126400      16.196452567200
       220    1       88.692300000000       1.896537126400      16.196452567200
       221    1       88.692300000000       7.586137126400      16.196452567200
       222    1       91.977200000000       7.586137126400      16.196452567200
       223    1       90.334750000000       2.844800000000      14.953147432800
       224    1       87.049850000000       8.534400000000      14.953147432800
       225    1       98.547000000000       0.000000000000      14.953147432800
       226    1       95.262100000000       5.689600000000      14.953147432800
       227    1       93.619650000000       4.741337126400      16.196452567200
       228    1       95.262100000000       0.000000000000      14.953147432800
       229    1       96.904550000000      10.430937126400      16.196452567200
       230    1       98.547000000000       5.689600000000      14.953147432800
       231    1       96.904550000000       4.741337126400      16.196452567200
       232    1       93.619650000000      10.430937126400      16.196452567200
       233    1       93.619650000000       2.844800000000      14.953147432800
       234    1       96.904550000000       8.534400000000      14.953147432800
       235    1       98.547000000000       1.896537126400      16.196452567200
       236    1       95.262100000000       1.896537126400      16.196452567200
       237    1       95.262100000000       7.586137126400      16.196452567200
       238    1       98.547000000000       7.586137126400      16.196452567200
       239    1       96.904550000000       2.844800000000      14.953147432800
       240    1       93.619650000000       8.534400000000      14.953147432800
       241    1        6.569800000000      11.379200000000      14.953147432800
       242    1        3.284900000000      17.068800000000      14.953147432800
       243    1        1.642450000000      16.120537126400      16.196452567200
       244    1        3.284900000000      11.379200000000      14.953147432800
       245    1        4.927350000000      21.810137126400      16.196452567200
       246    1        6.569800000000      17.068800000000      14.953147432800
       247    1        4.927350000000      16.120537126400      16.196452567200
       248    1        1.642450000000      21.810137126400      16.196452567200
       249    1        1.642450000000      14.224000000000      14.953147432800
       250    1        4.927350000000      19.913600000000      14.953147432800
       251    1        6.569800000000      13.275737126400      16.196452567200
       252    1        3.284900000000      13.275737126400      16.196452567200
       253    1        3.284900000000      18.965337126400      16.196452567200
       254    1        6.569800000000      18.965337126400      16.196452567200
       255    1        4.927350000000      14.224000000000      14.953147432800
       256    1        1.642450000000      19.913600000000      14.953147432800
       257    1       13.139600000000      11.379200000000      14.953147432800
       258    1        9.854700000000      17.068800000000      14.953147432800
       259    1        8.212250000000      16.120537126400      16.196452567200
       260    1        9.854700000000      11.379200000000      14.953147432800
       261    1       11.497150000000      21.810137126400      16.196452567200
       262    1       13.139600000000      17.068800000000      14.953147432800
       263    1       11.497150000000      16.120537126400      16.196452567200
       264    1        8.212250000000      21.810137126400      16.196452567200
       265    1        8.212250000000      14.224000000000      14.953147432800
       266    1       11.497150000000      19.913600000000      14.953147432800
       267    1       13.139600000000      13.275737126400      16.196452567200
       268    1        9.854700000000      13.275737126400      16.196452567200
       269    1        9.854700000000      18.965337126400      16.196452567200
       270    1       13.139600000000      18.965337126400      16.196452567200
       271    1       11.497150000000      14.224000000000      14.953147432800
       272    1        8.212250000000      19.913600000000      14.953147432800
       273    1       19.709400000000      11.379200000000      14.953147432800
       274    1       16.424500000000      17.068800000000      14.953147432800
       275    1       14.782050000000      16.120537126400      16.196452567200
       276    1       16.424500000000      11.379200000000      14.953147432800
       277    1       18.066950000000      21.810137126400      16.196452567200
       278    1       19.709400000000      17.068800000000      14.953147432800
       279    1       18.066950000000      16.120537126400      16.196452567200
       280    1       14.782050000000      21.810137126400      16.196452567200
       281    1       14.782050000000      14.224000000000      14.953147432800
       282    1       18.066950000000      19.913600000000      14.953147432800
       283    1       19.709400000000      13.275737126400      16.196452567200
       284    1       16.424500000000      13.275737126400      16.196452567200
       285    1       16.424500000000      18.965337126400      16.196452567200
       286    1       19.709400000000      18.965337126400      16.196452567200
       287    1       18.066950000000      14.224000000000      14.953147432800
       288    1       14.782050000000      19.913600000000      14.953147432800
       289    1       26.279200000000      11.379200000000      14.953147432800
       290    1       22.994300000000      17.068800000000      14.953147432800
       291    1       21.351850000000      16.120537126400      16.196452567200
       292    1       22.994300000000      11.379200000000      14.953147432800
       293    1       24.636750000000      21.810137126400      16.196452567200
       294    1       26.279200000000      17.068800000000      14.953147432800
       295    1       24.636750000000      16.120537126400      16.196452567200
       296    1       21.351850000000      21.810137126400      16.196452567200
       297    1       21.351850000000      14.224000000000      14.953147432800
       298    1       24.636750000000      19.913600000000      14.953147432800
       299    1       26.279200000000      13.275737126400      16.196452567200
       300    1       22.994300000000      13.275737126400      16.196452567200
       301    1       22.994300000000      18.965337126400      16.196452567200
       302    1       26.279200000000      18.965337126400      16.196452567200
       303    1       24.636750000000      14.224000000000      14.953147432800
       304    1       21.351850000000      19.913600000000      14.953147432800
       305    1       32.849000000000      11.379200000000      14.953147432800
       306    1       29.564100000000      17.068800000000      14.953147432800
       307    1       27.921650000000      16.120537126400      16.196452567200
       308    1       29.564100000000      11.379200000000      14.953147432800
       309    1       31.206550000000      21.810137126400      16.196452567200
       310    1       32.849000000000      17.068800000000      14.953147432800
       311    1       31.206550000000      16.120537126400      16.196452567200
       312    1       27.921650000000      21.810137126400      16.196452567200
       313    1       27.921650000000      14.224000000000      14.953147432800
       314    1       31.206550000000      19.913600000000      14.953147432800
       315    1       32.849000000000      13.275737126400      16.196452567200
       316    1       29.564100000000      13.275737126400      16.196452567200
       317    1       29.564100000000      18.965337126400      16.196452567200
       318    1       32.849000000000      18.965337126400      16.196452567200
       319    1       31.206550000000      14.224000000000      14.953147432800
       320    1       27.921650000000      19.913600000000      14.953147432800
       321    1       39.418800000000      11.379200000000      14.953147432800
       322    1       36.133900000000      17.068800000000      14.953147432800
       323    1       34.491450000000      16.120537126400      16.196452567200
       324    1       36.133900000000      11.379200000000      14.953147432800
       325    1       37.776350000000      21.810137126400      16.196452567200
       326    1       39.418800000000      17.068800000000      14.953147432800
       327    1       37.776350000000      16.120537126400      16.196452567200
       328    1       34.491450000000      21.810137126400      16.196452567200
       329    1       34.491450000000      14.224000000000      14.953147432800
       330    1       37.776350000000      19.913600000000      14.953147432800
       331    1       39.418800000000      13.275737126400      16.196452567200
       332    1       36.133900000000      13.275737126400      16.196452567200
       333    1       36.133900000000      18.965337126400      16.196452567200
       334    1       39.418800000000      18.965337126400      16.196452567200
       335    1       37.776350000000      14.224000000000      14.953147432800
       336    1       34.491450000000      19.913600000000      14.953147432800
       337    1       45.988600000000      11.379200000000      14.953147432800
       338    1       42.703700000000      17.068800000000      14.953147432800
       339    1       41.061250000000      16.120537126400      16.196452567200
       340    1       42.703700000000      11.379200000000      14.953147432800
       341    1       44.346150000000      21.810137126400      16.196452567200
       342    1       45.988600000000      17.068800000000      14.953147432800
       343    1       44.346150000000      16.120537126400      16.196452567200
       344    1       41.061250000000      21.810137126400      16.196452567200
       345    1       41.061250000000      14.224000000000      14.953147432800
       346    1       44.346150000000      19.913600000000      14.953147432800
       347    1       45.988600000000      13.275737126400      16.196452567200
       348    1       42.703700000000      13.275737126400      16.196452567200
       349    1       42.703700000000      18.965337126400      16.196452567200
       350    1       45.988600000000      18.965337126400      16.196452567200
       351    1       44.346150000000      14.224000000000      14.953147432800
       352    1       41.061250000000      19.913600000000      14.953147432800
       353    1       52.558400000000      11.379200000000      14.953147432800
       354    1       49.273500000000      17.068800000000      14.953147432800
       355    1       47.631050000000      16.120537126400      16.196452567200
       356    1       49.273500000000      11.379200000000      14.953147432800
       357    1       50.915950000000      21.810137126400      16.196452567200
       358    1       52.558400000000      17.068800000000      14.953147432800
       359    1       50.915950000000      16.120537126400      16.196452567200
       360    1       47.631050000000      21.810137126400      16.196452567200
       361    1       47.631050000000      14.224000000000      14.953147432800
       362    1       50.915950000000      19.913600000000      14.953147432800
       363    1       52.558400000000      13.275737126400      16.196452567200
       364    1       49.273500000000      13.275737126400      16.196452567200
       365    1       49.273500000000      18.965337126400      16.196452567200
       366    1       52.558400000000      18.965337126400      16.196452567200
       367    1       50.915950000000      14.224000000000      14.953147432800
       368    1       47.631050000000      19.913600000000      14.953147432800
       369    1       59.128200000000      11.379200000000      14.953147432800
       370    1       55.843300000000      17.068800000000      14.953147432800
       371    1       54.200850000000      16.120537126400      16.196452567200