 # B8 O8
  
        6400  atoms
           2  atom types
 
      0.000000000000      97.600000000000  xlo xhi
      0.000000000000      97.600000000000  ylo yhi
      0.000000000000     106.000000000000  zlo zhi
 
Masses
 
            1   10.81000000             # B
            2   15.99900000             # O
 
Atoms # atomic
 
         1    1        1.626665040000       0.813334960000      50.659202000000
         2    1        1.626665040000       0.813334960000      52.429190000000
         3    2        0.813334960000       1.626665040000      50.088286000000
         4    2        0.813334960000       1.626665040000      53.000000000000
         5    1        4.066665040000       0.813334960000      50.659202000000
         6    1        4.066665040000       0.813334960000      52.429190000000
         7    2        3.253334960000       1.626665040000      50.088286000000
         8    2        3.253334960000       1.626665040000      53.000000000000
         9    1        1.626665040000       3.253334960000      50.659202000000
        10    1        1.626665040000       3.253334960000      52.429190000000
        11    2        0.813334960000       4.066665040000      50.088286000000
        12    2        0.813334960000       4.066665040000      53.000000000000
        13    1        4.066665040000       3.253334960000      50.659202000000
        14    1        4.066665040000       3.253334960000      52.429190000000
        15    2        3.253334960000       4.066665040000      50.088286000000
        16    2        3.253334960000       4.066665040000      53.000000000000
        17    1        6.506665040000       0.813334960000      50.659202000000
        18    1        6.506665040000       0.813334960000      52.429190000000
        19    2        5.693334960000       1.626665040000      50.088286000000
        20    2        5.693334960000       1.626665040000      53.000000000000
        21    1        8.946665040000       0.813334960000      50.659202000000
        22    1        8.946665040000       0.813334960000      52.429190000000
        23    2        8.133334960000       1.626665040000      50.088286000000
        24    2        8.133334960000       1.626665040000      53.000000000000
        25    1        6.506665040000       3.253334960000      50.659202000000
        26    1        6.506665040000       3.253334960000      52.429190000000
        27    2        5.693334960000       4.066665040000      50.088286000000
        28    2        5.693334960000       4.066665040000      53.000000000000
        29    1        8.946665040000       3.253334960000      50.659202000000
        30    1        8.946665040000       3.253334960000      52.429190000000
        31    2        8.133334960000       4.066665040000      50.088286000000
        32    2        8.133334960000       4.066665040000      53.000000000000
        33    1       11.386665040000       0.813334960000      50.659202000000
        34    1       11.386665040000       0.813334960000      52.429190000000
        35    2       10.573334960000       1.626665040000      50.088286000000
        36    2       10.573334960000       1.626665040000      53.000000000000
        37    1       13.826665040000       0.813334960000      50.659202000000
        38    1       13.826665040000       0.813334960000      52.429190000000
        39    2       13.013334960000       1.626665040000      50.088286000000
        40    2       13.013334960000       1.626665040000      53.000000000000
        41    1       11.386665040000       3.253334960000      50.659202000000
        42    1       11.386665040000       3.253334960000      52.429190000000
        43    2       10.573334960000       4.066665040000      50.088286000000
        44    2       10.573334960000       4.066665040000      53.000000000000
        45    1       13.826665040000       3.253334960000      50.659202000000
        46    1       13.826665040000       3.253334960000      52.429190000000
        47    2       13.013334960000       4.066665040000      50.088286000000
        48    2       13.013334960000       4.066665040000      53.000000000000
        49    1       16.266665040000       0.813334960000      50.659202000000
        50    1       16.266665040000       0.813334960000      52.429190000000
        51    2       15.453334960000       1.626665040000      50.088286000000
        52    2       15.453334960000       1.626665040000      53.000000000000
        53    1       18.706665040000       0.813334960000      50.659202000000
        54    1       18.706665040000       0.813334960000      52.429190000000
        55    2       17.893334960000       1.626665040000      50.088286000000
        56    2       17.893334960000       1.626665040000      53.000000000000
        57    1       16.266665040000       3.253334960000      50.659202000000
        58    1       16.266665040000       3.253334960000      52.429190000000
        59    2       15.453334960000       4.066665040000      50.088286000000
        60    2       15.453334960000       4.066665040000      53.000000000000
        61    1       18.706665040000       3.253334960000      50.659202000000
        62    1       18.706665040000       3.253334960000      52.429190000000
        63    2       17.893334960000       4.066665040000      50.088286000000
        64    2       17.893334960000       4.066665040000      53.000000000000
        65    1       21.146665040000       0.813334960000      50.659202000000
        66    1       21.146665040000       0.813334960000      52.429190000000
        67    2       20.333334960000       1.626665040000      50.088286000000
        68    2       20.333334960000       1.626665040000      53.000000000000
        69    1       23.586665040000       0.813334960000      50.659202000000
        70    1       23.586665040000       0.813334960000      52.429190000000
        71    2       22.773334960000       1.626665040000      50.088286000000
        72    2       22.773334960000       1.626665040000      53.000000000000
        73    1       21.146665040000       3.253334960000      50.659202000000
        74    1       21.146665040000       3.253334960000      52.429190000000
        75    2       20.333334960000       4.066665040000      50.088286000000
        76    2       20.333334960000       4.066665040000      53.000000000000
        77    1       23.586665040000       3.253334960000      50.659202000000
        78    1       23.586665040000       3.253334960000      52.429190000000
        79    2       22.773334960000       4.066665040000      50.088286000000
        80    2       22.773334960000       4.066665040000      53.000000000000
        81    1       26.026665040000       0.813334960000      50.659202000000
        82    1       26.026665040000       0.813334960000      52.429190000000
        83    2       25.213334960000       1.626665040000      50.088286000000
        84    2       25.213334960000       1.626665040000      53.000000000000
        85    1       28.466665040000       0.813334960000      50.659202000000
        86    1       28.466665040000       0.813334960000      52.429190000000
        87    2       27.653334960000       1.626665040000      50.088286000000
        88    2       27.653334960000       1.626665040000      53.000000000000
        89    1       26.026665040000       3.253334960000      50.659202000000
        90    1       26.026665040000       3.253334960000      52.429190000000
        91    2       25.213334960000       4.066665040000      50.088286000000
        92    2       25.213334960000       4.066665040000      53.000000000000
        93    1       28.466665040000       3.253334960000      50.659202000000
        94    1       28.466665040000       3.253334960000      52.429190000000
        95    2       27.653334960000       4.066665040000      50.088286000000
        96    2       27.653334960000       4.066665040000      53.000000000000
        97    1       30.906665040000       0.813334960000      50.659202000000
        98    1       30.906665040000       0.813334960000      52.429190000000
        99    2       30.093334960000       1.626665040000      50.088286000000
       100    2       30.093334960000       1.626665040000      53.000000000000
       101    1       33.346665040000       0.813334960000      50.659202000000
       102    1       33.346665040000       0.813334960000      52.429190000000
       103    2       32.533334960000       1.626665040000      50.088286000000
       104    2       32.533334960000       1.626665040000      53.000000000000
       105    1       30.906665040000       3.253334960000      50.659202000000
       106    1       30.906665040000       3.253334960000      52.429190000000
       107    2       30.093334960000       4.066665040000      50.088286000000
       108    2       30.093334960000       4.066665040000      53.000000000000
       109    1       33.346665040000       3.253334960000      50.659202000000
       110    1       33.346665040000       3.253334960000      52.429190000000
       111    2       32.533334960000       4.066665040000      50.088286000000
       112    2       32.533334960000       4.066665040000      53.000000000000
       113    1       35.786665040000       0.813334960000      50.659202000000
       114    1       35.786665040000       0.813334960000      52.429190000000
       115    2       34.973334960000       1.626665040000      50.088286000000
       116    2       34.973334960000       1.626665040000      53.000000000000
       117    1       38.226665040000       0.813334960000      50.659202000000
       118    1       38.226665040000       0.813334960000      52.429190000000
       119    2       37.413334960000       1.626665040000      50.088286000000
       120    2       37.413334960000       1.626665040000      53.000000000000
       121    1       35.786665040000       3.253334960000      50.659202000000
       122    1       35.786665040000       3.253334960000      52.429190000000
       123    2       34.973334960000       4.066665040000      50.088286000000
       124    2       34.973334960000       4.066665040000      53.000000000000
       125    1       38.226665040000       3.253334960000      50.659202000000
       126    1       38.226665040000       3.253334960000      52.429190000000
       127    2       37.413334960000       4.066665040000      50.088286000000
       128    2       37.413334960000       4.066665040000      53.000000000000
       129    1       40.666665040000       0.813334960000      50.659202000000
       130    1       40.666665040000       0.813334960000      52.429190000000
       131    2       39.853334960000       1.626665040000      50.088286000000
       132    2       39.853334960000       1.626665040000      53.000000000000
       133    1       43.106665040000       0.813334960000      50.659202000000
       134    1       43.106665040000       0.813334960000      52.429190000000
       135    2       42.293334960000       1.626665040000      50.088286000000
       136    2       42.293334960000       1.626665040000      53.000000000000
       137    1       40.666665040000       3.253334960000      50.659202000000
       138    1       40.666665040000       3.253334960000      52.429190000000
       139    2       39.853334960000       4.066665040000      50.088286000000
       140    2       39.853334960000       4.066665040000      53.000000000000
       141    1       43.106665040000       3.253334960000      50.659202000000
       142    1       43.106665040000       3.253334960000      52.429190000000
       143    2       42.293334960000       4.066665040000      50.088286000000
       144    2       42.293334960000       4.066665040000      53.000000000000
       145    1       45.546665040000       0.813334960000      50.659202000000
       146    1       45.546665040000       0.813334960000      52.429190000000
       147    2       44.733334960000       1.626665040000      50.088286000000
       148    2       44.733334960000       1.626665040000      53.000000000000
       149    1       47.986665040000       0.813334960000      50.659202000000
       150    1       47.986665040000       0.813334960000      52.429190000000
       151    2       47.173334960000       1.626665040000      50.088286000000
       152    2       47.173334960000       1.626665040000      53.000000000000
       153    1       45.546665040000       3.253334960000      50.659202000000
       154    1       45.546665040000       3.253334960000      52.429190000000
       155    2       44.733334960000       4.066665040000      50.088286000000
       156    2       44.733334960000       4.066665040000      53.000000000000
       157    1       47.986665040000       3.253334960000      50.659202000000
       158    1       47.986665040000       3.253334960000      52.429190000000
       159    2       47.173334960000       4.066665040000      50.088286000000
       160    2       47.173334960000       4.066665040000      53.000000000000
       161    1       50.426665040000       0.813334960000      50.659202000000
       162    1       50.426665040000       0.813334960000      52.429190000000
       163    2       49.613334960000       1.626665040000      50.088286000000
       164    2       49.613334960000       1.626665040000      53.000000000000
       165    1       52.866665040000       0.813334960000      50.659202000000
       166    1       52.866665040000       0.813334960000      52.429190000000
       167    2       52.053334960000       1.626665040000      50.088286000000
       168    2       52.053334960000       1.626665040000      53.000000000000
       169    1       50.426665040000       3.253334960000      50.659202000000
       170    1       50.426665040000       3.253334960000      52.429190000000
       171    2       49.613334960000       4.066665040000      50.088286000000
       172    2       49.613334960000       4.066665040000      53.000000000000
       173    1       52.866665040000       3.253334960000      50.659202000000
       174    1       52.866665040000       3.253334960000      52.429190000000
       175    2       52.053334960000       4.066665040000      50.088286000000
       176    2       52.053334960000       4.066665040000      53.000000000000
       177    1       55.306665040000       0.813334960000      50.659202000000
       178    1       55.306665040000       0.813334960000      52.429190000000
       179    2       54.493334960000       1.626665040000      50.088286000000
       180    2       54.493334960000       1.626665040000      53.000000000000
       181    1       57.746665040000       0.813334960000      50.659202000000
       182    1       57.746665040000       0.813334960000      52.429190000000
       183    2       56.933334960000       1.626665040000      50.088286000000
       184    2       56.933334960000       1.626665040000      53.000000000000
       185    1       55.306665040000       3.253334960000      50.659202000000
       186    1       55.306665040000       3.253334960000      52.429190000000
       187    2       54.493334960000       4.066665040000      50.088286000000
       188    2       54.493334960000       4.066665040000      53.000000000000
       189    1       57.746665040000       3.253334960000      50.659202000000
       190    1       57.746665040000       3.253334960000      52.429190000000
       191    2       56.933334960000       4.066665040000      50.088286000000
       192    2       56.933334960000       4.066665040000      53.000000000000
       193    1       60.186665040000       0.813334960000      50.659202000000
       194    1       60.186665040000       0.813334960000      52.429190000000
       195    2       59.373334960000       1.626665040000      50.088286000000
       196    2       59.373334960000       1.626665040000      53.000000000000
       197    1       62.626665040000       0.813334960000      50.659202000000
       198    1       62.626665040000       0.813334960000      52.429190000000
       199    2       61.813334960000       1.626665040000      50.088286000000
       200    2       61.813334960000       1.626665040000      53.000000000000
       201    1       60.186665040000       3.253334960000      50.659202000000
       202    1       60.186665040000       3.253334960000      52.429190000000
       203    2       59.373334960000       4.066665040000      50.088286000000
       204    2       59.373334960000       4.066665040000      53.000000000000
       205    1       62.626665040000       3.253334960000      50.659202000000
       206    1       62.626665040000       3.253334960000      52.429190000000
       207    2       61.813334960000       4.066665040000      50.088286000000
       208    2       61.813334960000       4.066665040000      53.000000000000
       209    1       65.066665040000       0.813334960000      50.659202000000
       210    1       65.066665040000       0.813334960000      52.429190000000
       211    2       64.253334960000       1.626665040000      50.088286000000
       212    2       64.253334960000       1.626665040000      53.000000000000
       213    1       67.506665040000       0.813334960000      50.659202000000
       214    1       67.506665040000       0.813334960000      52.429190000000
       215    2       66.693334960000       1.626665040000      50.088286000000
       216    2       66.693334960000       1.626665040000      53.000000000000
       217    1       65.066665040000       3.253334960000      50.659202000000
       218    1       65.066665040000       3.253334960000      52.429190000000
       219    2       64.253334960000       4.066665040000      50.088286000000
       220    2       64.253334960000       4.066665040000      53.000000000000
       221    1       67.506665040000       3.253334960000      50.659202000000
       222    1       67.506665040000       3.253334960000      52.429190000000
       223    2       66.693334960000       4.066665040000      50.088286000000
       224    2       66.693334960000       4.066665040000      53.000000000000
       225    1       69.946665040000       0.813334960000      50.659202000000
       226    1       69.946665040000       0.813334960000      52.429190000000
       227    2       69.133334960000       1.626665040000      50.088286000000
       228    2       69.133334960000       1.626665040000      53.000000000000
       229    1       72.386665040000       0.813334960000      50.659202000000
       230    1       72.386665040000       0.813334960000      52.429190000000
       231    2       71.573334960000       1.626665040000      50.088286000000
       232    2       71.573334960000       1.626665040000      53.000000000000
       233    1       69.946665040000       3.253334960000      50.659202000000
       234    1       69.946665040000       3.253334960000      52.429190000000
       235    2       69.133334960000       4.066665040000      50.088286000000
       236    2       69.133334960000       4.066665040000      53.000000000000
       237    1       72.386665040000       3.253334960000      50.659202000000
       238    1       72.386665040000       3.253334960000      52.429190000000
       239    2       71.573334960000       4.066665040000      50.088286000000
       240    2       71.573334960000       4.066665040000      53.000000000000
       241    1       74.826665040000       0.813334960000      50.659202000000
       242    1       74.826665040000       0.813334960000      52.429190000000
       243    2       74.013334960000       1.626665040000      50.088286000000
       244    2       74.013334960000       1.626665040000      53.000000000000
       245    1       77.266665040000       0.813334960000      50.659202000000
       246    1       77.266665040000       0.813334960000      52.429190000000
       247    2       76.453334960000       1.626665040000      50.088286000000
       248    2       76.453334960000       1.626665040000      53.000000000000
       249    1       74.826665040000       3.253334960000      50.659202000000
       250    1       74.826665040000       3.253334960000      52.429190000000
       251    2       74.013334960000       4.066665040000      50.088286000000
       252    2       74.013334960000       4.066665040000      53.000000000000
       253    1       77.266665040000       3.253334960000      50.659202000000
       254    1       77.266665040000       3.253334960000      52.429190000000
       255    2       76.453334960000       4.066665040000      50.088286000000
       256    2       76.453334960000       4.066665040000      53.000000000000
       257    1       79.706665040000       0.813334960000      50.659202000000
       258    1       79.706665040000       0.813334960000      52.429190000000
       259    2       78.893334960000       1.626665040000      50.088286000000
       260    2       78.893334960000       1.626665040000      53.000000000000
       261    1       82.146665040000       0.813334960000      50.659202000000
       262    1       82.146665040000       0.813334960000      52.429190000000
       263    2       81.333334960000       1.626665040000      50.088286000000
       264    2       81.333334960000       1.626665040000      53.000000000000
       265    1       79.706665040000       3.253334960000      50.659202000000
       266    1       79.706665040000       3.253334960000      52.429190000000
       267    2       78.893334960000       4.066665040000      50.088286000000
       268    2       78.893334960000       4.066665040000      53.000000000000
       269    1       82.146665040000       3.253334960000      50.659202000000
       270    1       82.146665040000       3.253334960000      52.429190000000
       271    2       81.333334960000       4.066665040000      50.088286000000
       272    2       81.333334960000       4.066665040000      53.000000000000
       273    1       84.586665040000       0.813334960000      50.659202000000
       274    1       84.586665040000       0.813334960000      52.429190000000
       275    2       83.773334960000       1.626665040000      50.088286000000
       276    2       83.773334960000       1.626665040000      53.000000000000
       277    1       87.026665040000       0.813334960000      50.659202000000
       278    1       87.026665040000       0.813334960000      52.429190000000
       279    2       86.213334960000       1.626665040000      50.088286000000
       280    2       86.213334960000       1.626665040000      53.000000000000
       281    1       84.586665040000       3.253334960000      50.659202000000
       282    1       84.586665040000       3.253334960000      52.429190000000
       283    2       83.773334960000       4.066665040000      50.088286000000
       284    2       83.773334960000       4.066665040000      53.000000000000
       285    1       87.026665040000       3.253334960000      50.659202000000
       286    1       87.026665040000       3.253334960000      52.429190000000
       287    2       86.213334960000       4.066665040000      50.088286000000
       288    2       86.213334960000       4.066665040000      53.000000000000
       289    1       89.466665040000       0.813334960000      50.659202000000
       290    1       89.466665040000       0.813334960000      52.429190000000
       291    2       88.653334960000       1.626665040000      50.088286000000
       292    2       88.653334960000       1.626665040000      53.000000000000
       293    1       91.906665040000       0.813334960000      50.659202000000
       294    1       91.906665040000       0.813334960000      52.429190000000
       295    2       91.093334960000       1.626665040000      50.088286000000
       296    2       91.093334960000       1.626665040000      53.000000000000
       297    1       89.466665040000       3.253334960000      50.659202000000
       298    1       89.466665040000       3.253334960000      52.429190000000
       299    2       88.653334960000       4.066665040000      50.088286000000
       300    2       88.653334960000       4.066665040000      53.000000000000
       301    1       91.906665040000       3.253334960000      50.659202000000
       302    1       91.906665040000       3.253334960000      52.429190000000
       303    2       91.093334960000       4.066665040000      50.088286000000
       304    2       91.093334960000       4.066665040000      53.000000000000
       305    1       94.346665040000       0.813334960000      50.659202000000
       306    1       94.346665040000       0.813334960000      52.429190000000
       307    2       93.533334960000       1.626665040000      50.088286000000
       308    2       93.533334960000       1.626665040000      53.000000000000
       309    1       96.786665040000       0.813334960000      50.659202000000
       310    1       96.786665040000       0.813334960000      52.429190000000
       311    2       95.973334960000       1.626665040000      50.088286000000
       312    2       95.973334960000       1.626665040000      53.000000000000
       313    1       94.346665040000       3.253334960000      50.659202000000
       314    1       94.346665040000       3.253334960000      52.429190000000
       315    2       93.533334960000       4.066665040000      50.088286000000
       316    2       93.533334960000       4.066665040000      53.000000000000
       317    1       96.786665040000       3.253334960000      50.659202000000
       318    1       96.786665040000       3.253334960000      52.429190000000
       319    2       95.973334960000       4.066665040000      50.088286000000
       320    2       95.973334960000       4.066665040000      53.000000000000
       321    1        1.626665040000       5.693334960000      50.659202000000
       322    1        1.626665040000       5.693334960000      52.429190000000
       323    2        0.813334960000       6.506665040000      50.088286000000
       324    2        0.813334960000       6.506665040000      53.000000000000
       325    1        4.066665040000       5.693334960000      50.659202000000
       326    1        4.066665040000       5.693334960000      52.429190000000
       327    2        3.253334960000       6.506665040000      50.088286000000
       328    2        3.253334960000       6.506665040000      53.000000000000
       329    1        1.626665040000       8.133334960000      50.659202000000
       330    1        1.626665040000       8.133334960000      52.429190000000
       331    2        0.813334960000       8.946665040000      50.088286000000
       332    2        0.813334960000       8.946665040000      53.000000000000
       333    1        4.066665040000       8.133334960000      50.659202000000
       334    1        4.066665040000       8.133334960000      52.429190000000
       335    2        3.253334960000       8.946665040000      50.088286000000
       336    2        3.253334960000       8.946665040000      53.000000000000
       337    1        6.506665040000       5.693334960000      50.659202000000
       338    1        6.506665040000       5.693334960000      52.429190000000
       339    2        5.693334960000       6.506665040000      50.088286000000
       340    2        5.693334960000       6.506665040000      53.000000000000
       341    1        8.946665040000       5.693334960000      50.659202000000
       342    1        8.946665040000       5.693334960000      52.429190000000
       343    2        8.133334960000       6.506665040000      50.088286000000
       344    2        8.133334960000       6.506665040000      53.000000000000
       345    1        6.506665040000       8.133334960000      50.659202000000
       346    1        6.506665040000       8.133334960000      52.429190000000
       347    2        5.693334960000       8.946665040000      50.088286000000
       348    2        5.693334960000       8.946665040000      53.000000000000
       349    1        8.946665040000       8.133334960000      50.659202000000
       350    1        8.946665040000       8.133334960000      52.429190000000
       351    2        8.133334960000       8.946665040000      50.088286000000
       352    2        8.133334960000       8.946665040000      53.000000000000
       353    1       11.386665040000       5.693334960000      50.659202000000
       354    1       11.386665040000       5.693334960000      52.429190000000
       355    2       10.573334960000       6.506665040000      50.088286000000
       356    2       10.573334960000       6.506665040000      53.000000000000
       357    1       13.826665040000       5.693334960000      50.659202000000
       358    1       13.826665040000       5.693334960000      52.429190000000
       359    2       13.013334960000       6.506665040000      50.088286000000
       360    2       13.013334960000       6.506665040000      53.000000000000
       361    1       11.386665040000       8.133334960000      50.659202000000
       362    1       11.386665040000       8.133334960000      52.429190000000
       363    2       10.573334960000       8.946665040000      50.088286000000
       364    2       10.573334960000       8.946665040000      53.000000000000
       365    1       13.826665040000       8.133334960000      50.659202000000
       366    1       13.826665040000       8.133334960000      52.429190000000
       367    2       13.013334960000       8.946665040000      50.088286000000
       368    2       13.013334960000       8.946665040000      53.000000000000
       369    1       16.266665040000       5.693334960000      50.659202000000
       370    1       16.266665040000       5.693334960000      52.429190000000