 # B8 Se8
  
        3600  atoms
           2  atom types
 
      0.000000000000      97.500000000000  xlo xhi
      0.000000000000      97.500000000000  ylo yhi
      0.000000000000     106.000000000000  zlo zhi
 
Masses
 
            1   10.81000000             # B
            2   78.96000000             # Se
 
Atoms # atomic
 
         1    1        2.166664500000       1.083335500000      50.347032000000
         2    1        2.166664500000       1.083335500000      52.057024000000
         3    2        1.083335500000       2.166664500000      49.404056000000
         4    2        1.083335500000       2.166664500000      53.000000000000
         5    1        5.416664500000       1.083335500000      50.347032000000
         6    1        5.416664500000       1.083335500000      52.057024000000
         7    2        4.333335500000       2.166664500000      49.404056000000
         8    2        4.333335500000       2.166664500000      53.000000000000
         9    1        2.166664500000       4.333335500000      50.347032000000
        10    1        2.166664500000       4.333335500000      52.057024000000
        11    2        1.083335500000       5.416664500000      49.404056000000
        12    2        1.083335500000       5.416664500000      53.000000000000
        13    1        5.416664500000       4.333335500000      50.347032000000
        14    1        5.416664500000       4.333335500000      52.057024000000
        15    2        4.333335500000       5.416664500000      49.404056000000
        16    2        4.333335500000       5.416664500000      53.000000000000
        17    1        8.666664500000       1.083335500000      50.347032000000
        18    1        8.666664500000       1.083335500000      52.057024000000
        19    2        7.583335500000       2.166664500000      49.404056000000
        20    2        7.583335500000       2.166664500000      53.000000000000
        21    1       11.916664500000       1.083335500000      50.347032000000
        22    1       11.916664500000       1.083335500000      52.057024000000
        23    2       10.833335500000       2.166664500000      49.404056000000
        24    2       10.833335500000       2.166664500000      53.000000000000
        25    1        8.666664500000       4.333335500000      50.347032000000
        26    1        8.666664500000       4.333335500000      52.057024000000
        27    2        7.583335500000       5.416664500000      49.404056000000
        28    2        7.583335500000       5.416664500000      53.000000000000
        29    1       11.916664500000       4.333335500000      50.347032000000
        30    1       11.916664500000       4.333335500000      52.057024000000
        31    2       10.833335500000       5.416664500000      49.404056000000
        32    2       10.833335500000       5.416664500000      53.000000000000
        33    1       15.166664500000       1.083335500000      50.347032000000
        34    1       15.166664500000       1.083335500000      52.057024000000
        35    2       14.083335500000       2.166664500000      49.404056000000
        36    2       14.083335500000       2.166664500000      53.000000000000
        37    1       18.416664500000       1.083335500000      50.347032000000
        38    1       18.416664500000       1.083335500000      52.057024000000
        39    2       17.333335500000       2.166664500000      49.404056000000
        40    2       17.333335500000       2.166664500000      53.000000000000
        41    1       15.166664500000       4.333335500000      50.347032000000
        42    1       15.166664500000       4.333335500000      52.057024000000
        43    2       14.083335500000       5.416664500000      49.404056000000
        44    2       14.083335500000       5.416664500000      53.000000000000
        45    1       18.416664500000       4.333335500000      50.347032000000
        46    1       18.416664500000       4.333335500000      52.057024000000
        47    2       17.333335500000       5.416664500000      49.404056000000
        48    2       17.333335500000       5.416664500000      53.000000000000
        49    1       21.666664500000       1.083335500000      50.347032000000
        50    1       21.666664500000       1.083335500000      52.057024000000
        51    2       20.583335500000       2.166664500000      49.404056000000
        52    2       20.583335500000       2.166664500000      53.000000000000
        53    1       24.916664500000       1.083335500000      50.347032000000
        54    1       24.916664500000       1.083335500000      52.057024000000
        55    2       23.833335500000       2.166664500000      49.404056000000
        56    2       23.833335500000       2.166664500000      53.000000000000
        57    1       21.666664500000       4.333335500000      50.347032000000
        58    1       21.666664500000       4.333335500000      52.057024000000
        59    2       20.583335500000       5.416664500000      49.404056000000
        60    2       20.583335500000       5.416664500000      53.000000000000
        61    1       24.916664500000       4.333335500000      50.347032000000
        62    1       24.916664500000       4.333335500000      52.057024000000
        63    2       23.833335500000       5.416664500000      49.404056000000
        64    2       23.833335500000       5.416664500000      53.000000000000
        65    1       28.166664500000       1.083335500000      50.347032000000
        66    1       28.166664500000       1.083335500000      52.057024000000
        67    2       27.083335500000       2.166664500000      49.404056000000
        68    2       27.083335500000       2.166664500000      53.000000000000
        69    1       31.416664500000       1.083335500000      50.347032000000
        70    1       31.416664500000       1.083335500000      52.057024000000
        71    2       30.333335500000       2.166664500000      49.404056000000
        72    2       30.333335500000       2.166664500000      53.000000000000
        73    1       28.166664500000       4.333335500000      50.347032000000
        74    1       28.166664500000       4.333335500000      52.057024000000
        75    2       27.083335500000       5.416664500000      49.404056000000
        76    2       27.083335500000       5.416664500000      53.000000000000
        77    1       31.416664500000       4.333335500000      50.347032000000
        78    1       31.416664500000       4.333335500000      52.057024000000
        79    2       30.333335500000       5.416664500000      49.404056000000
        80    2       30.333335500000       5.416664500000      53.000000000000
        81    1       34.666664500000       1.083335500000      50.347032000000
        82    1       34.666664500000       1.083335500000      52.057024000000
        83    2       33.583335500000       2.166664500000      49.404056000000
        84    2       33.583335500000       2.166664500000      53.000000000000
        85    1       37.916664500000       1.083335500000      50.347032000000
        86    1       37.916664500000       1.083335500000      52.057024000000
        87    2       36.833335500000       2.166664500000      49.404056000000
        88    2       36.833335500000       2.166664500000      53.000000000000
        89    1       34.666664500000       4.333335500000      50.347032000000
        90    1       34.666664500000       4.333335500000      52.057024000000
        91    2       33.583335500000       5.416664500000      49.404056000000
        92    2       33.583335500000       5.416664500000      53.000000000000
        93    1       37.916664500000       4.333335500000      50.347032000000
        94    1       37.916664500000       4.333335500000      52.057024000000
        95    2       36.833335500000       5.416664500000      49.404056000000
        96    2       36.833335500000       5.416664500000      53.000000000000
        97    1       41.166664500000       1.083335500000      50.347032000000
        98    1       41.166664500000       1.083335500000      52.057024000000
        99    2       40.083335500000       2.166664500000      49.404056000000
       100    2       40.083335500000       2.166664500000      53.000000000000
       101    1       44.416664500000       1.083335500000      50.347032000000
       102    1       44.416664500000       1.083335500000      52.057024000000
       103    2       43.333335500000       2.166664500000      49.404056000000
       104    2       43.333335500000       2.166664500000      53.000000000000
       105    1       41.166664500000       4.333335500000      50.347032000000
       106    1       41.166664500000       4.333335500000      52.057024000000
       107    2       40.083335500000       5.416664500000      49.404056000000
       108    2       40.083335500000       5.416664500000      53.000000000000
       109    1       44.416664500000       4.333335500000      50.347032000000
       110    1       44.416664500000       4.333335500000      52.057024000000
       111    2       43.333335500000       5.416664500000      49.404056000000
       112    2       43.333335500000       5.416664500000      53.000000000000
       113    1       47.666664500000       1.083335500000      50.347032000000
       114    1       47.666664500000       1.083335500000      52.057024000000
       115    2       46.583335500000       2.166664500000      49.404056000000
       116    2       46.583335500000       2.166664500000      53.000000000000
       117    1       50.916664500000       1.083335500000      50.347032000000
       118    1       50.916664500000       1.083335500000      52.057024000000
       119    2       49.833335500000       2.166664500000      49.404056000000
       120    2       49.833335500000       2.166664500000      53.000000000000
       121    1       47.666664500000       4.333335500000      50.347032000000
       122    1       47.666664500000       4.333335500000      52.057024000000
       123    2       46.583335500000       5.416664500000      49.404056000000
       124    2       46.583335500000       5.416664500000      53.000000000000
       125    1       50.916664500000       4.333335500000      50.347032000000
       126    1       50.916664500000       4.333335500000      52.057024000000
       127    2       49.833335500000       5.416664500000      49.404056000000
       128    2       49.833335500000       5.416664500000      53.000000000000
       129    1       54.166664500000       1.083335500000      50.347032000000
       130    1       54.166664500000       1.083335500000      52.057024000000
       131    2       53.083335500000       2.166664500000      49.404056000000
       132    2       53.083335500000       2.166664500000      53.000000000000
       133    1       57.416664500000       1.083335500000      50.347032000000
       134    1       57.416664500000       1.083335500000      52.057024000000
       135    2       56.333335500000       2.166664500000      49.404056000000
       136    2       56.333335500000       2.166664500000      53.000000000000
       137    1       54.166664500000       4.333335500000      50.347032000000
       138    1       54.166664500000       4.333335500000      52.057024000000
       139    2       53.083335500000       5.416664500000      49.404056000000
       140    2       53.083335500000       5.416664500000      53.000000000000
       141    1       57.416664500000       4.333335500000      50.347032000000
       142    1       57.416664500000       4.333335500000      52.057024000000
       143    2       56.333335500000       5.416664500000      49.404056000000
       144    2       56.333335500000       5.416664500000      53.000000000000
       145    1       60.666664500000       1.083335500000      50.347032000000
       146    1       60.666664500000       1.083335500000      52.057024000000
       147    2       59.583335500000       2.166664500000      49.404056000000
       148    2       59.583335500000       2.166664500000      53.000000000000
       149    1       63.916664500000       1.083335500000      50.347032000000
       150    1       63.916664500000       1.083335500000      52.057024000000
       151    2       62.833335500000       2.166664500000      49.404056000000
       152    2       62.833335500000       2.166664500000      53.000000000000
       153    1       60.666664500000       4.333335500000      50.347032000000
       154    1       60.666664500000       4.333335500000      52.057024000000
       155    2       59.583335500000       5.416664500000      49.404056000000
       156    2       59.583335500000       5.416664500000      53.000000000000
       157    1       63.916664500000       4.333335500000      50.347032000000
       158    1       63.916664500000       4.333335500000      52.057024000000
       159    2       62.833335500000       5.416664500000      49.404056000000
       160    2       62.833335500000       5.416664500000      53.000000000000
       161    1       67.166664500000       1.083335500000      50.347032000000
       162    1       67.166664500000       1.083335500000      52.057024000000
       163    2       66.083335500000       2.166664500000      49.404056000000
       164    2       66.083335500000       2.166664500000      53.000000000000
       165    1       70.416664500000       1.083335500000      50.347032000000
       166    1       70.416664500000       1.083335500000      52.057024000000
       167    2       69.333335500000       2.166664500000      49.404056000000
       168    2       69.333335500000       2.166664500000      53.000000000000
       169    1       67.166664500000       4.333335500000      50.347032000000
       170    1       67.166664500000       4.333335500000      52.057024000000
       171    2       66.083335500000       5.416664500000      49.404056000000
       172    2       66.083335500000       5.416664500000      53.000000000000
       173    1       70.416664500000       4.333335500000      50.347032000000
       174    1       70.416664500000       4.333335500000      52.057024000000
       175    2       69.333335500000       5.416664500000      49.404056000000
       176    2       69.333335500000       5.416664500000      53.000000000000
       177    1       73.666664500000       1.083335500000      50.347032000000
       178    1       73.666664500000       1.083335500000      52.057024000000
       179    2       72.583335500000       2.166664500000      49.404056000000
       180    2       72.583335500000       2.166664500000      53.000000000000
       181    1       76.916664500000       1.083335500000      50.347032000000
       182    1       76.916664500000       1.083335500000      52.057024000000
       183    2       75.833335500000       2.166664500000      49.404056000000
       184    2       75.833335500000       2.166664500000      53.000000000000
       185    1       73.666664500000       4.333335500000      50.347032000000
       186    1       73.666664500000       4.333335500000      52.057024000000
       187    2       72.583335500000       5.416664500000      49.404056000000
       188    2       72.583335500000       5.416664500000      53.000000000000
       189    1       76.916664500000       4.333335500000      50.347032000000
       190    1       76.916664500000       4.333335500000      52.057024000000
       191    2       75.833335500000       5.416664500000      49.404056000000
       192    2       75.833335500000       5.416664500000      53.000000000000
       193    1       80.166664500000       1.083335500000      50.347032000000
       194    1       80.166664500000       1.083335500000      52.057024000000
       195    2       79.083335500000       2.166664500000      49.404056000000
       196    2       79.083335500000       2.166664500000      53.000000000000
       197    1       83.416664500000       1.083335500000      50.347032000000
       198    1       83.416664500000       1.083335500000      52.057024000000
       199    2       82.333335500000       2.166664500000      49.404056000000
       200    2       82.333335500000       2.166664500000      53.000000000000
       201    1       80.166664500000       4.333335500000      50.347032000000
       202    1       80.166664500000       4.333335500000      52.057024000000
       203    2       79.083335500000       5.416664500000      49.404056000000
       204    2       79.083335500000       5.416664500000      53.000000000000
       205    1       83.416664500000       4.333335500000      50.347032000000
       206    1       83.416664500000       4.333335500000      52.057024000000
       207    2       82.333335500000       5.416664500000      49.404056000000
       208    2       82.333335500000       5.416664500000      53.000000000000
       209    1       86.666664500000       1.083335500000      50.347032000000
       210    1       86.666664500000       1.083335500000      52.057024000000
       211    2       85.583335500000       2.166664500000      49.404056000000
       212    2       85.583335500000       2.166664500000      53.000000000000
       213    1       89.916664500000       1.083335500000      50.347032000000
       214    1       89.916664500000       1.083335500000      52.057024000000
       215    2       88.833335500000       2.166664500000      49.404056000000
       216    2       88.833335500000       2.166664500000      53.000000000000
       217    1       86.666664500000       4.333335500000      50.347032000000
       218    1       86.666664500000       4.333335500000      52.057024000000
       219    2       85.583335500000       5.416664500000      49.404056000000
       220    2       85.583335500000       5.416664500000      53.000000000000
       221    1       89.916664500000       4.333335500000      50.347032000000
       222    1       89.916664500000       4.333335500000      52.057024000000
       223    2       88.833335500000       5.416664500000      49.404056000000
       224    2       88.833335500000       5.416664500000      53.000000000000
       225    1       93.166664500000       1.083335500000      50.347032000000
       226    1       93.166664500000       1.083335500000      52.057024000000
       227    2       92.083335500000       2.166664500000      49.404056000000
       228    2       92.083335500000       2.166664500000      53.000000000000
       229    1       96.416664500000       1.083335500000      50.347032000000
       230    1       96.416664500000       1.083335500000      52.057024000000
       231    2       95.333335500000       2.166664500000      49.404056000000
       232    2       95.333335500000       2.166664500000      53.000000000000
       233    1       93.166664500000       4.333335500000      50.347032000000
       234    1       93.166664500000       4.333335500000      52.057024000000
       235    2       92.083335500000       5.416664500000      49.404056000000
       236    2       92.083335500000       5.416664500000      53.000000000000
       237    1       96.416664500000       4.333335500000      50.347032000000
       238    1       96.416664500000       4.333335500000      52.057024000000
       239    2       95.333335500000       5.416664500000      49.404056000000
       240    2       95.333335500000       5.416664500000      53.000000000000
       241    1        2.166664500000       7.583335500000      50.347032000000
       242    1        2.166664500000       7.583335500000      52.057024000000
       243    2        1.083335500000       8.666664500000      49.404056000000
       244    2        1.083335500000       8.666664500000      53.000000000000
       245    1        5.416664500000       7.583335500000      50.347032000000
       246    1        5.416664500000       7.583335500000      52.057024000000
       247    2        4.333335500000       8.666664500000      49.404056000000
       248    2        4.333335500000       8.666664500000      53.000000000000
       249    1        2.166664500000      10.833335500000      50.347032000000
       250    1        2.166664500000      10.833335500000      52.057024000000
       251    2        1.083335500000      11.916664500000      49.404056000000
       252    2        1.083335500000      11.916664500000      53.000000000000
       253    1        5.416664500000      10.833335500000      50.347032000000
       254    1        5.416664500000      10.833335500000      52.057024000000
       255    2        4.333335500000      11.916664500000      49.404056000000
       256    2        4.333335500000      11.916664500000      53.000000000000
       257    1        8.666664500000       7.583335500000      50.347032000000
       258    1        8.666664500000       7.583335500000      52.057024000000
       259    2        7.583335500000       8.666664500000      49.404056000000
       260    2        7.583335500000       8.666664500000      53.000000000000
       261    1       11.916664500000       7.583335500000      50.347032000000
       262    1       11.916664500000       7.583335500000      52.057024000000
       263    2       10.833335500000       8.666664500000      49.404056000000
       264    2       10.833335500000       8.666664500000      53.000000000000
       265    1        8.666664500000      10.833335500000      50.347032000000
       266    1        8.666664500000      10.833335500000      52.057024000000
       267    2        7.583335500000      11.916664500000      49.404056000000
       268    2        7.583335500000      11.916664500000      53.000000000000
       269    1       11.916664500000      10.833335500000      50.347032000000
       270    1       11.916664500000      10.833335500000      52.057024000000
       271    2       10.833335500000      11.916664500000      49.404056000000
       272    2       10.833335500000      11.916664500000      53.000000000000
       273    1       15.166664500000       7.583335500000      50.347032000000
       274    1       15.166664500000       7.583335500000      52.057024000000
       275    2       14.083335500000       8.666664500000      49.404056000000
       276    2       14.083335500000       8.666664500000      53.000000000000
       277    1       18.416664500000       7.583335500000      50.347032000000
       278    1       18.416664500000       7.583335500000      52.057024000000
       279    2       17.333335500000       8.666664500000      49.404056000000
       280    2       17.333335500000       8.666664500000      53.000000000000
       281    1       15.166664500000      10.833335500000      50.347032000000
       282    1       15.166664500000      10.833335500000      52.057024000000
       283    2       14.083335500000      11.916664500000      49.404056000000
       284    2       14.083335500000      11.916664500000      53.000000000000
       285    1       18.416664500000      10.833335500000      50.347032000000
       286    1       18.416664500000      10.833335500000      52.057024000000
       287    2       17.333335500000      11.916664500000      49.404056000000
       288    2       17.333335500000      11.916664500000      53.000000000000
       289    1       21.666664500000       7.583335500000      50.347032000000
       290    1       21.666664500000       7.583335500000      52.057024000000
       291    2       20.583335500000       8.666664500000      49.404056000000
       292    2       20.583335500000       8.666664500000      53.000000000000
       293    1       24.916664500000       7.583335500000      50.347032000000
       294    1       24.916664500000       7.583335500000      52.057024000000
       295    2       23.833335500000       8.666664500000      49.404056000000
       296    2       23.833335500000       8.666664500000      53.000000000000
       297    1       21.666664500000      10.833335500000      50.347032000000
       298    1       21.666664500000      10.833335500000      52.057024000000
       299    2       20.583335500000      11.916664500000      49.404056000000
       300    2       20.583335500000      11.916664500000      53.000000000000
       301    1       24.916664500000      10.833335500000      50.347032000000
       302    1       24.916664500000      10.833335500000      52.057024000000
       303    2       23.833335500000      11.916664500000      49.404056000000
       304    2       23.833335500000      11.916664500000      53.000000000000
       305    1       28.166664500000       7.583335500000      50.347032000000
       306    1       28.166664500000       7.583335500000      52.057024000000
       307    2       27.083335500000       8.666664500000      49.404056000000
       308    2       27.083335500000       8.666664500000      53.000000000000
       309    1       31.416664500000       7.583335500000      50.347032000000
       310    1       31.416664500000       7.583335500000      52.057024000000
       311    2       30.333335500000       8.666664500000      49.404056000000
       312    2       30.333335500000       8.666664500000      53.000000000000
       313    1       28.166664500000      10.833335500000      50.347032000000
       314    1       28.166664500000      10.833335500000      52.057024000000
       315    2       27.083335500000      11.916664500000      49.404056000000
       316    2       27.083335500000      11.916664500000      53.000000000000
       317    1       31.416664500000      10.833335500000      50.347032000000
       318    1       31.416664500000      10.833335500000      52.057024000000
       319    2       30.333335500000      11.916664500000      49.404056000000
       320    2       30.333335500000      11.916664500000      53.000000000000
       321    1       34.666664500000       7.583335500000      50.347032000000
       322    1       34.666664500000       7.583335500000      52.057024000000
       323    2       33.583335500000       8.666664500000      49.404056000000
       324    2       33.583335500000       8.666664500000      53.000000000000
       325    1       37.916664500000       7.583335500000      50.347032000000
       326    1       37.916664500000       7.583335500000      52.057024000000
       327    2       36.833335500000       8.666664500000      49.404056000000
       328    2       36.833335500000       8.666664500000      53.000000000000
       329    1       34.666664500000      10.833335500000      50.347032000000
       330    1       34.666664500000      10.833335500000      52.057024000000
       331    2       33.583335500000      11.916664500000      49.404056000000
       332    2       33.583335500000      11.916664500000      53.000000000000
       333    1       37.916664500000      10.833335500000      50.347032000000
       334    1       37.916664500000      10.833335500000      52.057024000000
       335    2       36.833335500000      11.916664500000      49.404056000000
       336    2       36.833335500000      11.916664500000      53.000000000000
       337    1       41.166664500000       7.583335500000      50.347032000000
       338    1       41.166664500000       7.583335500000      52.057024000000
       339    2       40.083335500000       8.666664500000      49.404056000000
       340    2       40.083335500000       8.666664500000      53.000000000000
       341    1       44.416664500000       7.583335500000      50.347032000000
       342    1       44.416664500000       7.583335500000      52.057024000000
       343    2       43.333335500000       8.666664500000      49.404056000000
       344    2       43.333335500000       8.666664500000      53.000000000000
       345    1       41.166664500000      10.833335500000      50.347032000000
       346    1       41.166664500000      10.833335500000      52.057024000000
       347    2       40.083335500000      11.916664500000      49.404056000000
       348    2       40.083335500000      11.916664500000      53.000000000000
       349    1       44.416664500000      10.833335500000      50.347032000000
       350    1       44.416664500000      10.833335500000      52.057024000000
       351    2       43.333335500000      11.916664500000      49.404056000000
       352    2       43.333335500000      11.916664500000      53.000000000000
       353    1       47.666664500000       7.583335500000      50.347032000000
       354    1       47.666664500000       7.583335500000      52.057024000000
       355    2       46.583335500000       8.666664500000      49.404056000000
       356    2       46.583335500000       8.666664500000      53.000000000000
       357    1       50.916664500000       7.583335500000      50.347032000000
       358    1       50.916664500000       7.583335500000      52.057024000000
       359    2       49.833335500000       8.666664500000      49.404056000000
       360    2       49.833335500000       8.666664500000      53.000000000000
       361    1       47.666664500000      10.833335500000      50.347032000000
       362    1       47.666664500000      10.833335500000      52.057024000000
       363    2       46.583335500000      11.916664500000      49.404056000000
       364    2       46.583335500000      11.916664500000      53.000000000000
       365    1       50.916664500000      10.833335500000      50.347032000000
       366    1       50.916664500000      10.833335500000      52.057024000000
       367    2       49.833335500000      11.916664500000      49.404056000000
       368    2       49.833335500000      11.916664500000      53.000000000000
       369    1       54.166664500000       7.583335500000      50.347032000000
       370    1       54.166664500000       7.583335500000      52.057024000000