 # B8 Te8
  
        3136  atoms
           2  atom types
 
      0.000000000000      99.680000000000  xlo xhi
      0.000000000000      99.680000000000  ylo yhi
      0.000000000000     106.000000000000  zlo zhi
 
Masses
 
            1   10.81000000             # B
            2   127.60000000            # Te
 
Atoms # atomic
 
         1    1        2.373330960000       1.186669040000      50.235732000000
         2    1        2.373330960000       1.186669040000      51.945724000000
         3    2        1.186669040000       2.373330960000      49.181350000000
         4    2        1.186669040000       2.373330960000      53.000000000000
         5    1        5.933330960000       1.186669040000      50.235732000000
         6    1        5.933330960000       1.186669040000      51.945724000000
         7    2        4.746669040000       2.373330960000      49.181350000000
         8    2        4.746669040000       2.373330960000      53.000000000000
         9    1        2.373330960000       4.746669040000      50.235732000000
        10    1        2.373330960000       4.746669040000      51.945724000000
        11    2        1.186669040000       5.933330960000      49.181350000000
        12    2        1.186669040000       5.933330960000      53.000000000000
        13    1        5.933330960000       4.746669040000      50.235732000000
        14    1        5.933330960000       4.746669040000      51.945724000000
        15    2        4.746669040000       5.933330960000      49.181350000000
        16    2        4.746669040000       5.933330960000      53.000000000000
        17    1        9.493330960000       1.186669040000      50.235732000000
        18    1        9.493330960000       1.186669040000      51.945724000000
        19    2        8.306669040000       2.373330960000      49.181350000000
        20    2        8.306669040000       2.373330960000      53.000000000000
        21    1       13.053330960000       1.186669040000      50.235732000000
        22    1       13.053330960000       1.186669040000      51.945724000000
        23    2       11.866669040000       2.373330960000      49.181350000000
        24    2       11.866669040000       2.373330960000      53.000000000000
        25    1        9.493330960000       4.746669040000      50.235732000000
        26    1        9.493330960000       4.746669040000      51.945724000000
        27    2        8.306669040000       5.933330960000      49.181350000000
        28    2        8.306669040000       5.933330960000      53.000000000000
        29    1       13.053330960000       4.746669040000      50.235732000000
        30    1       13.053330960000       4.746669040000      51.945724000000
        31    2       11.866669040000       5.933330960000      49.181350000000
        32    2       11.866669040000       5.933330960000      53.000000000000
        33    1       16.613330960000       1.186669040000      50.235732000000
        34    1       16.613330960000       1.186669040000      51.945724000000
        35    2       15.426669040000       2.373330960000      49.181350000000
        36    2       15.426669040000       2.373330960000      53.000000000000
        37    1       20.173330960000       1.186669040000      50.235732000000
        38    1       20.173330960000       1.186669040000      51.945724000000
        39    2       18.986669040000       2.373330960000      49.181350000000
        40    2       18.986669040000       2.373330960000      53.000000000000
        41    1       16.613330960000       4.746669040000      50.235732000000
        42    1       16.613330960000       4.746669040000      51.945724000000
        43    2       15.426669040000       5.933330960000      49.181350000000
        44    2       15.426669040000       5.933330960000      53.000000000000
        45    1       20.173330960000       4.746669040000      50.235732000000
        46    1       20.173330960000       4.746669040000      51.945724000000
        47    2       18.986669040000       5.933330960000      49.181350000000
        48    2       18.986669040000       5.933330960000      53.000000000000
        49    1       23.733330960000       1.186669040000      50.235732000000
        50    1       23.733330960000       1.186669040000      51.945724000000
        51    2       22.546669040000       2.373330960000      49.181350000000
        52    2       22.546669040000       2.373330960000      53.000000000000
        53    1       27.293330960000       1.186669040000      50.235732000000
        54    1       27.293330960000       1.186669040000      51.945724000000
        55    2       26.106669040000       2.373330960000      49.181350000000
        56    2       26.106669040000       2.373330960000      53.000000000000
        57    1       23.733330960000       4.746669040000      50.235732000000
        58    1       23.733330960000       4.746669040000      51.945724000000
        59    2       22.546669040000       5.933330960000      49.181350000000
        60    2       22.546669040000       5.933330960000      53.000000000000
        61    1       27.293330960000       4.746669040000      50.235732000000
        62    1       27.293330960000       4.746669040000      51.945724000000
        63    2       26.106669040000       5.933330960000      49.181350000000
        64    2       26.106669040000       5.933330960000      53.000000000000
        65    1       30.853330960000       1.186669040000      50.235732000000
        66    1       30.853330960000       1.186669040000      51.945724000000
        67    2       29.666669040000       2.373330960000      49.181350000000
        68    2       29.666669040000       2.373330960000      53.000000000000
        69    1       34.413330960000       1.186669040000      50.235732000000
        70    1       34.413330960000       1.186669040000      51.945724000000
        71    2       33.226669040000       2.373330960000      49.181350000000
        72    2       33.226669040000       2.373330960000      53.000000000000
        73    1       30.853330960000       4.746669040000      50.235732000000
        74    1       30.853330960000       4.746669040000      51.945724000000
        75    2       29.666669040000       5.933330960000      49.181350000000
        76    2       29.666669040000       5.933330960000      53.000000000000
        77    1       34.413330960000       4.746669040000      50.235732000000
        78    1       34.413330960000       4.746669040000      51.945724000000
        79    2       33.226669040000       5.933330960000      49.181350000000
        80    2       33.226669040000       5.933330960000      53.000000000000
        81    1       37.973330960000       1.186669040000      50.235732000000
        82    1       37.973330960000       1.186669040000      51.945724000000
        83    2       36.786669040000       2.373330960000      49.181350000000
        84    2       36.786669040000       2.373330960000      53.000000000000
        85    1       41.533330960000       1.186669040000      50.235732000000
        86    1       41.533330960000       1.186669040000      51.945724000000
        87    2       40.346669040000       2.373330960000      49.181350000000
        88    2       40.346669040000       2.373330960000      53.000000000000
        89    1       37.973330960000       4.746669040000      50.235732000000
        90    1       37.973330960000       4.746669040000      51.945724000000
        91    2       36.786669040000       5.933330960000      49.181350000000
        92    2       36.786669040000       5.933330960000      53.000000000000
        93    1       41.533330960000       4.746669040000      50.235732000000
        94    1       41.533330960000       4.746669040000      51.945724000000
        95    2       40.346669040000       5.933330960000      49.181350000000
        96    2       40.346669040000       5.933330960000      53.000000000000
        97    1       45.093330960000       1.186669040000      50.235732000000
        98    1       45.093330960000       1.186669040000      51.945724000000
        99    2       43.906669040000       2.373330960000      49.181350000000
       100    2       43.906669040000       2.373330960000      53.000000000000
       101    1       48.653330960000       1.186669040000      50.235732000000
       102    1       48.653330960000       1.186669040000      51.945724000000
       103    2       47.466669040000       2.373330960000      49.181350000000
       104    2       47.466669040000       2.373330960000      53.000000000000
       105    1       45.093330960000       4.746669040000      50.235732000000
       106    1       45.093330960000       4.746669040000      51.945724000000
       107    2       43.906669040000       5.933330960000      49.181350000000
       108    2       43.906669040000       5.933330960000      53.000000000000
       109    1       48.653330960000       4.746669040000      50.235732000000
       110    1       48.653330960000       4.746669040000      51.945724000000
       111    2       47.466669040000       5.933330960000      49.181350000000
       112    2       47.466669040000       5.933330960000      53.000000000000
       113    1       52.213330960000       1.186669040000      50.235732000000
       114    1       52.213330960000       1.186669040000      51.945724000000
       115    2       51.026669040000       2.373330960000      49.181350000000
       116    2       51.026669040000       2.373330960000      53.000000000000
       117    1       55.773330960000       1.186669040000      50.235732000000
       118    1       55.773330960000       1.186669040000      51.945724000000
       119    2       54.586669040000       2.373330960000      49.181350000000
       120    2       54.586669040000       2.373330960000      53.000000000000
       121    1       52.213330960000       4.746669040000      50.235732000000
       122    1       52.213330960000       4.746669040000      51.945724000000
       123    2       51.026669040000       5.933330960000      49.181350000000
       124    2       51.026669040000       5.933330960000      53.000000000000
       125    1       55.773330960000       4.746669040000      50.235732000000
       126    1       55.773330960000       4.746669040000      51.945724000000
       127    2       54.586669040000       5.933330960000      49.181350000000
       128    2       54.586669040000       5.933330960000      53.000000000000
       129    1       59.333330960000       1.186669040000      50.235732000000
       130    1       59.333330960000       1.186669040000      51.945724000000
       131    2       58.146669040000       2.373330960000      49.181350000000
       132    2       58.146669040000       2.373330960000      53.000000000000
       133    1       62.893330960000       1.186669040000      50.235732000000
       134    1       62.893330960000       1.186669040000      51.945724000000
       135    2       61.706669040000       2.373330960000      49.181350000000
       136    2       61.706669040000       2.373330960000      53.000000000000
       137    1       59.333330960000       4.746669040000      50.235732000000
       138    1       59.333330960000       4.746669040000      51.945724000000
       139    2       58.146669040000       5.933330960000      49.181350000000
       140    2       58.146669040000       5.933330960000      53.000000000000
       141    1       62.893330960000       4.746669040000      50.235732000000
       142    1       62.893330960000       4.746669040000      51.945724000000
       143    2       61.706669040000       5.933330960000      49.181350000000
       144    2       61.706669040000       5.933330960000      53.000000000000
       145    1       66.453330960000       1.186669040000      50.235732000000
       146    1       66.453330960000       1.186669040000      51.945724000000
       147    2       65.266669040000       2.373330960000      49.181350000000
       148    2       65.266669040000       2.373330960000      53.000000000000
       149    1       70.013330960000       1.186669040000      50.235732000000
       150    1       70.013330960000       1.186669040000      51.945724000000
       151    2       68.826669040000       2.373330960000      49.181350000000
       152    2       68.826669040000       2.373330960000      53.000000000000
       153    1       66.453330960000       4.746669040000      50.235732000000
       154    1       66.453330960000       4.746669040000      51.945724000000
       155    2       65.266669040000       5.933330960000      49.181350000000
       156    2       65.266669040000       5.933330960000      53.000000000000
       157    1       70.013330960000       4.746669040000      50.235732000000
       158    1       70.013330960000       4.746669040000      51.945724000000
       159    2       68.826669040000       5.933330960000      49.181350000000
       160    2       68.826669040000       5.933330960000      53.000000000000
       161    1       73.573330960000       1.186669040000      50.235732000000
       162    1       73.573330960000       1.186669040000      51.945724000000
       163    2       72.386669040000       2.373330960000      49.181350000000
       164    2       72.386669040000       2.373330960000      53.000000000000
       165    1       77.133330960000       1.186669040000      50.235732000000
       166    1       77.133330960000       1.186669040000      51.945724000000
       167    2       75.946669040000       2.373330960000      49.181350000000
       168    2       75.946669040000       2.373330960000      53.000000000000
       169    1       73.573330960000       4.746669040000      50.235732000000
       170    1       73.573330960000       4.746669040000      51.945724000000
       171    2       72.386669040000       5.933330960000      49.181350000000
       172    2       72.386669040000       5.933330960000      53.000000000000
       173    1       77.133330960000       4.746669040000      50.235732000000
       174    1       77.133330960000       4.746669040000      51.945724000000
       175    2       75.946669040000       5.933330960000      49.181350000000
       176    2       75.946669040000       5.933330960000      53.000000000000
       177    1       80.693330960000       1.186669040000      50.235732000000
       178    1       80.693330960000       1.186669040000      51.945724000000
       179    2       79.506669040000       2.373330960000      49.181350000000
       180    2       79.506669040000       2.373330960000      53.000000000000
       181    1       84.253330960000       1.186669040000      50.235732000000
       182    1       84.253330960000       1.186669040000      51.945724000000
       183    2       83.066669040000       2.373330960000      49.181350000000
       184    2       83.066669040000       2.373330960000      53.000000000000
       185    1       80.693330960000       4.746669040000      50.235732000000
       186    1       80.693330960000       4.746669040000      51.945724000000
       187    2       79.506669040000       5.933330960000      49.181350000000
       188    2       79.506669040000       5.933330960000      53.000000000000
       189    1       84.253330960000       4.746669040000      50.235732000000
       190    1       84.253330960000       4.746669040000      51.945724000000
       191    2       83.066669040000       5.933330960000      49.181350000000
       192    2       83.066669040000       5.933330960000      53.000000000000
       193    1       87.813330960000       1.186669040000      50.235732000000
       194    1       87.813330960000       1.186669040000      51.945724000000
       195    2       86.626669040000       2.373330960000      49.181350000000
       196    2       86.626669040000       2.373330960000      53.000000000000
       197    1       91.373330960000       1.186669040000      50.235732000000
       198    1       91.373330960000       1.186669040000      51.945724000000
       199    2       90.186669040000       2.373330960000      49.181350000000
       200    2       90.186669040000       2.373330960000      53.000000000000
       201    1       87.813330960000       4.746669040000      50.235732000000
       202    1       87.813330960000       4.746669040000      51.945724000000
       203    2       86.626669040000       5.933330960000      49.181350000000
       204    2       86.626669040000       5.933330960000      53.000000000000
       205    1       91.373330960000       4.746669040000      50.235732000000
       206    1       91.373330960000       4.746669040000      51.945724000000
       207    2       90.186669040000       5.933330960000      49.181350000000
       208    2       90.186669040000       5.933330960000      53.000000000000
       209    1       94.933330960000       1.186669040000      50.235732000000
       210    1       94.933330960000       1.186669040000      51.945724000000
       211    2       93.746669040000       2.373330960000      49.181350000000
       212    2       93.746669040000       2.373330960000      53.000000000000
       213    1       98.493330960000       1.186669040000      50.235732000000
       214    1       98.493330960000       1.186669040000      51.945724000000
       215    2       97.306669040000       2.373330960000      49.181350000000
       216    2       97.306669040000       2.373330960000      53.000000000000
       217    1       94.933330960000       4.746669040000      50.235732000000
       218    1       94.933330960000       4.746669040000      51.945724000000
       219    2       93.746669040000       5.933330960000      49.181350000000
       220    2       93.746669040000       5.933330960000      53.000000000000
       221    1       98.493330960000       4.746669040000      50.235732000000
       222    1       98.493330960000       4.746669040000      51.945724000000
       223    2       97.306669040000       5.933330960000      49.181350000000
       224    2       97.306669040000       5.933330960000      53.000000000000
       225    1        2.373330960000       8.306669040000      50.235732000000
       226    1        2.373330960000       8.306669040000      51.945724000000
       227    2        1.186669040000       9.493330960000      49.181350000000
       228    2        1.186669040000       9.493330960000      53.000000000000
       229    1        5.933330960000       8.306669040000      50.235732000000
       230    1        5.933330960000       8.306669040000      51.945724000000
       231    2        4.746669040000       9.493330960000      49.181350000000
       232    2        4.746669040000       9.493330960000      53.000000000000
       233    1        2.373330960000      11.866669040000      50.235732000000
       234    1        2.373330960000      11.866669040000      51.945724000000
       235    2        1.186669040000      13.053330960000      49.181350000000
       236    2        1.186669040000      13.053330960000      53.000000000000
       237    1        5.933330960000      11.866669040000      50.235732000000
       238    1        5.933330960000      11.866669040000      51.945724000000
       239    2        4.746669040000      13.053330960000      49.181350000000
       240    2        4.746669040000      13.053330960000      53.000000000000
       241    1        9.493330960000       8.306669040000      50.235732000000
       242    1        9.493330960000       8.306669040000      51.945724000000
       243    2        8.306669040000       9.493330960000      49.181350000000
       244    2        8.306669040000       9.493330960000      53.000000000000
       245    1       13.053330960000       8.306669040000      50.235732000000
       246    1       13.053330960000       8.306669040000      51.945724000000
       247    2       11.866669040000       9.493330960000      49.181350000000
       248    2       11.866669040000       9.493330960000      53.000000000000
       249    1        9.493330960000      11.866669040000      50.235732000000
       250    1        9.493330960000      11.866669040000      51.945724000000
       251    2        8.306669040000      13.053330960000      49.181350000000
       252    2        8.306669040000      13.053330960000      53.000000000000
       253    1       13.053330960000      11.866669040000      50.235732000000
       254    1       13.053330960000      11.866669040000      51.945724000000
       255    2       11.866669040000      13.053330960000      49.181350000000
       256    2       11.866669040000      13.053330960000      53.000000000000
       257    1       16.613330960000       8.306669040000      50.235732000000
       258    1       16.613330960000       8.306669040000      51.945724000000
       259    2       15.426669040000       9.493330960000      49.181350000000
       260    2       15.426669040000       9.493330960000      53.000000000000
       261    1       20.173330960000       8.306669040000      50.235732000000
       262    1       20.173330960000       8.306669040000      51.945724000000
       263    2       18.986669040000       9.493330960000      49.181350000000
       264    2       18.986669040000       9.493330960000      53.000000000000
       265    1       16.613330960000      11.866669040000      50.235732000000
       266    1       16.613330960000      11.866669040000      51.945724000000
       267    2       15.426669040000      13.053330960000      49.181350000000
       268    2       15.426669040000      13.053330960000      53.000000000000
       269    1       20.173330960000      11.866669040000      50.235732000000
       270    1       20.173330960000      11.866669040000      51.945724000000
       271    2       18.986669040000      13.053330960000      49.181350000000
       272    2       18.986669040000      13.053330960000      53.000000000000
       273    1       23.733330960000       8.306669040000      50.235732000000
       274    1       23.733330960000       8.306669040000      51.945724000000
       275    2       22.546669040000       9.493330960000      49.181350000000
       276    2       22.546669040000       9.493330960000      53.000000000000
       277    1       27.293330960000       8.306669040000      50.235732000000
       278    1       27.293330960000       8.306669040000      51.945724000000
       279    2       26.106669040000       9.493330960000      49.181350000000
       280    2       26.106669040000       9.493330960000      53.000000000000
       281    1       23.733330960000      11.866669040000      50.235732000000
       282    1       23.733330960000      11.866669040000      51.945724000000
       283    2       22.546669040000      13.053330960000      49.181350000000
       284    2       22.546669040000      13.053330960000      53.000000000000
       285    1       27.293330960000      11.866669040000      50.235732000000
       286    1       27.293330960000      11.866669040000      51.945724000000
       287    2       26.106669040000      13.053330960000      49.181350000000
       288    2       26.106669040000      13.053330960000      53.000000000000
       289    1       30.853330960000       8.306669040000      50.235732000000
       290    1       30.853330960000       8.306669040000      51.945724000000
       291    2       29.666669040000       9.493330960000      49.181350000000
       292    2       29.666669040000       9.493330960000      53.000000000000
       293    1       34.413330960000       8.306669040000      50.235732000000
       294    1       34.413330960000       8.306669040000      51.945724000000
       295    2       33.226669040000       9.493330960000      49.181350000000
       296    2       33.226669040000       9.493330960000      53.000000000000
       297    1       30.853330960000      11.866669040000      50.235732000000
       298    1       30.853330960000      11.866669040000      51.945724000000
       299    2       29.666669040000      13.053330960000      49.181350000000
       300    2       29.666669040000      13.053330960000      53.000000000000
       301    1       34.413330960000      11.866669040000      50.235732000000
       302    1       34.413330960000      11.866669040000      51.945724000000
       303    2       33.226669040000      13.053330960000      49.181350000000
       304    2       33.226669040000      13.053330960000      53.000000000000
       305    1       37.973330960000       8.306669040000      50.235732000000
       306    1       37.973330960000       8.306669040000      51.945724000000
       307    2       36.786669040000       9.493330960000      49.181350000000
       308    2       36.786669040000       9.493330960000      53.000000000000
       309    1       41.533330960000       8.306669040000      50.235732000000
       310    1       41.533330960000       8.306669040000      51.945724000000
       311    2       40.346669040000       9.493330960000      49.181350000000
       312    2       40.346669040000       9.493330960000      53.000000000000
       313    1       37.973330960000      11.866669040000      50.235732000000
       314    1       37.973330960000      11.866669040000      51.945724000000
       315    2       36.786669040000      13.053330960000      49.181350000000
       316    2       36.786669040000      13.053330960000      53.000000000000
       317    1       41.533330960000      11.866669040000      50.235732000000
       318    1       41.533330960000      11.866669040000      51.945724000000
       319    2       40.346669040000      13.053330960000      49.181350000000
       320    2       40.346669040000      13.053330960000      53.000000000000
       321    1       45.093330960000       8.306669040000      50.235732000000
       322    1       45.093330960000       8.306669040000      51.945724000000
       323    2       43.906669040000       9.493330960000      49.181350000000
       324    2       43.906669040000       9.493330960000      53.000000000000
       325    1       48.653330960000       8.306669040000      50.235732000000
       326    1       48.653330960000       8.306669040000      51.945724000000
       327    2       47.466669040000       9.493330960000      49.181350000000
       328    2       47.466669040000       9.493330960000      53.000000000000
       329    1       45.093330960000      11.866669040000      50.235732000000
       330    1       45.093330960000      11.866669040000      51.945724000000
       331    2       43.906669040000      13.053330960000      49.181350000000
       332    2       43.906669040000      13.053330960000      53.000000000000
       333    1       48.653330960000      11.866669040000      50.235732000000
       334    1       48.653330960000      11.866669040000      51.945724000000
       335    2       47.466669040000      13.053330960000      49.181350000000
       336    2       47.466669040000      13.053330960000      53.000000000000
       337    1       52.213330960000       8.306669040000      50.235732000000
       338    1       52.213330960000       8.306669040000      51.945724000000
       339    2       51.026669040000       9.493330960000      49.181350000000
       340    2       51.026669040000       9.493330960000      53.000000000000
       341    1       55.773330960000       8.306669040000      50.235732000000
       342    1       55.773330960000       8.306669040000      51.945724000000
       343    2       54.586669040000       9.493330960000      49.181350000000
       344    2       54.586669040000       9.493330960000      53.000000000000
       345    1       52.213330960000      11.866669040000      50.235732000000
       346    1       52.213330960000      11.866669040000      51.945724000000
       347    2       51.026669040000      13.053330960000      49.181350000000
       348    2       51.026669040000      13.053330960000      53.000000000000
       349    1       55.773330960000      11.866669040000      50.235732000000
       350    1       55.773330960000      11.866669040000      51.945724000000
       351    2       54.586669040000      13.053330960000      49.181350000000
       352    2       54.586669040000      13.053330960000      53.000000000000
       353    1       59.333330960000       8.306669040000      50.235732000000
       354    1       59.333330960000       8.306669040000      51.945724000000
       355    2       58.146669040000       9.493330960000      49.181350000000
       356    2       58.146669040000       9.493330960000      53.000000000000
       357    1       62.893330960000       8.306669040000      50.235732000000
       358    1       62.893330960000       8.306669040000      51.945724000000
       359    2       61.706669040000       9.493330960000      49.181350000000
       360    2       61.706669040000       9.493330960000      53.000000000000
       361    1       59.333330960000      11.866669040000      50.235732000000
       362    1       59.333330960000      11.866669040000      51.945724000000
       363    2       58.146669040000      13.053330960000      49.181350000000
       364    2       58.146669040000      13.053330960000      53.000000000000
       365    1       62.893330960000      11.866669040000      50.235732000000
       366    1       62.893330960000      11.866669040000      51.945724000000
       367    2       61.706669040000      13.053330960000      49.181350000000
       368    2       61.706669040000      13.053330960000      53.000000000000
       369    1       66.453330960000       8.306669040000      50.235732000000
       370    1       66.453330960000       8.306669040000      51.945724000000