 # Ge16
  
        1344  atoms
           1  atom types
 
      0.000000000000      97.209600000000  xlo xhi
      0.000000000000      98.217000000000  ylo yhi
      0.000000000000      10.993400000000  zlo zhi
 
Masses
 
            1   72.63000000             # Ge
 
Atoms # atomic
 
         1    1        6.075600000000       3.507750000000       5.248820816800
         2    1        2.025200000000      10.523250000000       5.248820816800
         3    1        0.000000000000       0.000000000000       5.248820816800
         4    1        4.050400000000       7.015500000000       5.248820816800
         5    1        2.025200000000       1.169245323000       4.560590003200
         6    1        6.075600000000       8.184745323000       4.560590003200
         7    1        4.050400000000       4.676995323000       4.560590003200
         8    1        0.000000000000      11.692495323000       4.560590003200
         9    1        0.000000000000       4.676995323000       4.560590003200
        10    1        4.050400000000       0.000000000000       5.248820816800
        11    1        6.075600000000       1.169245323000       4.560590003200
        12    1        0.000000000000       7.015500000000       5.248820816800
        13    1        2.025200000000       8.184745323000       4.560590003200
        14    1        4.050400000000      11.692495323000       4.560590003200
        15    1        2.025200000000       3.507750000000       5.248820816800
        16    1        6.075600000000      10.523250000000       5.248820816800
        17    1       14.176400000000       3.507750000000       5.248820816800
        18    1       10.126000000000      10.523250000000       5.248820816800
        19    1        8.100800000000       0.000000000000       5.248820816800
        20    1       12.151200000000       7.015500000000       5.248820816800
        21    1       10.126000000000       1.169245323000       4.560590003200
        22    1       14.176400000000       8.184745323000       4.560590003200
        23    1       12.151200000000       4.676995323000       4.560590003200
        24    1        8.100800000000      11.692495323000       4.560590003200
        25    1        8.100800000000       4.676995323000       4.560590003200
        26    1       12.151200000000       0.000000000000       5.248820816800
        27    1       14.176400000000       1.169245323000       4.560590003200
        28    1        8.100800000000       7.015500000000       5.248820816800
        29    1       10.126000000000       8.184745323000       4.560590003200
        30    1       12.151200000000      11.692495323000       4.560590003200
        31    1       10.126000000000       3.507750000000       5.248820816800
        32    1       14.176400000000      10.523250000000       5.248820816800
        33    1       22.277200000000       3.507750000000       5.248820816800
        34    1       18.226800000000      10.523250000000       5.248820816800
        35    1       16.201600000000       0.000000000000       5.248820816800
        36    1       20.252000000000       7.015500000000       5.248820816800
        37    1       18.226800000000       1.169245323000       4.560590003200
        38    1       22.277200000000       8.184745323000       4.560590003200
        39    1       20.252000000000       4.676995323000       4.560590003200
        40    1       16.201600000000      11.692495323000       4.560590003200
        41    1       16.201600000000       4.676995323000       4.560590003200
        42    1       20.252000000000       0.000000000000       5.248820816800
        43    1       22.277200000000       1.169245323000       4.560590003200
        44    1       16.201600000000       7.015500000000       5.248820816800
        45    1       18.226800000000       8.184745323000       4.560590003200
        46    1       20.252000000000      11.692495323000       4.560590003200
        47    1       18.226800000000       3.507750000000       5.248820816800
        48    1       22.277200000000      10.523250000000       5.248820816800
        49    1       30.378000000000       3.507750000000       5.248820816800
        50    1       26.327600000000      10.523250000000       5.248820816800
        51    1       24.302400000000       0.000000000000       5.248820816800
        52    1       28.352800000000       7.015500000000       5.248820816800
        53    1       26.327600000000       1.169245323000       4.560590003200
        54    1       30.378000000000       8.184745323000       4.560590003200
        55    1       28.352800000000       4.676995323000       4.560590003200
        56    1       24.302400000000      11.692495323000       4.560590003200
        57    1       24.302400000000       4.676995323000       4.560590003200
        58    1       28.352800000000       0.000000000000       5.248820816800
        59    1       30.378000000000       1.169245323000       4.560590003200
        60    1       24.302400000000       7.015500000000       5.248820816800
        61    1       26.327600000000       8.184745323000       4.560590003200
        62    1       28.352800000000      11.692495323000       4.560590003200
        63    1       26.327600000000       3.507750000000       5.248820816800
        64    1       30.378000000000      10.523250000000       5.248820816800
        65    1       38.478800000000       3.507750000000       5.248820816800
        66    1       34.428400000000      10.523250000000       5.248820816800
        67    1       32.403200000000       0.000000000000       5.248820816800
        68    1       36.453600000000       7.015500000000       5.248820816800
        69    1       34.428400000000       1.169245323000       4.560590003200
        70    1       38.478800000000       8.184745323000       4.560590003200
        71    1       36.453600000000       4.676995323000       4.560590003200
        72    1       32.403200000000      11.692495323000       4.560590003200
        73    1       32.403200000000       4.676995323000       4.560590003200
        74    1       36.453600000000       0.000000000000       5.248820816800
        75    1       38.478800000000       1.169245323000       4.560590003200
        76    1       32.403200000000       7.015500000000       5.248820816800
        77    1       34.428400000000       8.184745323000       4.560590003200
        78    1       36.453600000000      11.692495323000       4.560590003200
        79    1       34.428400000000       3.507750000000       5.248820816800
        80    1       38.478800000000      10.523250000000       5.248820816800
        81    1       46.579600000000       3.507750000000       5.248820816800
        82    1       42.529200000000      10.523250000000       5.248820816800
        83    1       40.504000000000       0.000000000000       5.248820816800
        84    1       44.554400000000       7.015500000000       5.248820816800
        85    1       42.529200000000       1.169245323000       4.560590003200
        86    1       46.579600000000       8.184745323000       4.560590003200
        87    1       44.554400000000       4.676995323000       4.560590003200
        88    1       40.504000000000      11.692495323000       4.560590003200
        89    1       40.504000000000       4.676995323000       4.560590003200
        90    1       44.554400000000       0.000000000000       5.248820816800
        91    1       46.579600000000       1.169245323000       4.560590003200
        92    1       40.504000000000       7.015500000000       5.248820816800
        93    1       42.529200000000       8.184745323000       4.560590003200
        94    1       44.554400000000      11.692495323000       4.560590003200
        95    1       42.529200000000       3.507750000000       5.248820816800
        96    1       46.579600000000      10.523250000000       5.248820816800
        97    1       54.680400000000       3.507750000000       5.248820816800
        98    1       50.630000000000      10.523250000000       5.248820816800
        99    1       48.604800000000       0.000000000000       5.248820816800
       100    1       52.655200000000       7.015500000000       5.248820816800
       101    1       50.630000000000       1.169245323000       4.560590003200
       102    1       54.680400000000       8.184745323000       4.560590003200
       103    1       52.655200000000       4.676995323000       4.560590003200
       104    1       48.604800000000      11.692495323000       4.560590003200
       105    1       48.604800000000       4.676995323000       4.560590003200
       106    1       52.655200000000       0.000000000000       5.248820816800
       107    1       54.680400000000       1.169245323000       4.560590003200
       108    1       48.604800000000       7.015500000000       5.248820816800
       109    1       50.630000000000       8.184745323000       4.560590003200
       110    1       52.655200000000      11.692495323000       4.560590003200
       111    1       50.630000000000       3.507750000000       5.248820816800
       112    1       54.680400000000      10.523250000000       5.248820816800
       113    1       62.781200000000       3.507750000000       5.248820816800
       114    1       58.730800000000      10.523250000000       5.248820816800
       115    1       56.705600000000       0.000000000000       5.248820816800
       116    1       60.756000000000       7.015500000000       5.248820816800
       117    1       58.730800000000       1.169245323000       4.560590003200
       118    1       62.781200000000       8.184745323000       4.560590003200
       119    1       60.756000000000       4.676995323000       4.560590003200
       120    1       56.705600000000      11.692495323000       4.560590003200
       121    1       56.705600000000       4.676995323000       4.560590003200
       122    1       60.756000000000       0.000000000000       5.248820816800
       123    1       62.781200000000       1.169245323000       4.560590003200
       124    1       56.705600000000       7.015500000000       5.248820816800
       125    1       58.730800000000       8.184745323000       4.560590003200
       126    1       60.756000000000      11.692495323000       4.560590003200
       127    1       58.730800000000       3.507750000000       5.248820816800
       128    1       62.781200000000      10.523250000000       5.248820816800
       129    1       70.882000000000       3.507750000000       5.248820816800
       130    1       66.831600000000      10.523250000000       5.248820816800
       131    1       64.806400000000       0.000000000000       5.248820816800
       132    1       68.856800000000       7.015500000000       5.248820816800
       133    1       66.831600000000       1.169245323000       4.560590003200
       134    1       70.882000000000       8.184745323000       4.560590003200
       135    1       68.856800000000       4.676995323000       4.560590003200
       136    1       64.806400000000      11.692495323000       4.560590003200
       137    1       64.806400000000       4.676995323000       4.560590003200
       138    1       68.856800000000       0.000000000000       5.248820816800
       139    1       70.882000000000       1.169245323000       4.560590003200
       140    1       64.806400000000       7.015500000000       5.248820816800
       141    1       66.831600000000       8.184745323000       4.560590003200
       142    1       68.856800000000      11.692495323000       4.560590003200
       143    1       66.831600000000       3.507750000000       5.248820816800
       144    1       70.882000000000      10.523250000000       5.248820816800
       145    1       78.982800000000       3.507750000000       5.248820816800
       146    1       74.932400000000      10.523250000000       5.248820816800
       147    1       72.907200000000       0.000000000000       5.248820816800
       148    1       76.957600000000       7.015500000000       5.248820816800
       149    1       74.932400000000       1.169245323000       4.560590003200
       150    1       78.982800000000       8.184745323000       4.560590003200
       151    1       76.957600000000       4.676995323000       4.560590003200
       152    1       72.907200000000      11.692495323000       4.560590003200
       153    1       72.907200000000       4.676995323000       4.560590003200
       154    1       76.957600000000       0.000000000000       5.248820816800
       155    1       78.982800000000       1.169245323000       4.560590003200
       156    1       72.907200000000       7.015500000000       5.248820816800
       157    1       74.932400000000       8.184745323000       4.560590003200
       158    1       76.957600000000      11.692495323000       4.560590003200
       159    1       74.932400000000       3.507750000000       5.248820816800
       160    1       78.982800000000      10.523250000000       5.248820816800
       161    1       87.083600000000       3.507750000000       5.248820816800
       162    1       83.033200000000      10.523250000000       5.248820816800
       163    1       81.008000000000       0.000000000000       5.248820816800
       164    1       85.058400000000       7.015500000000       5.248820816800
       165    1       83.033200000000       1.169245323000       4.560590003200
       166    1       87.083600000000       8.184745323000       4.560590003200
       167    1       85.058400000000       4.676995323000       4.560590003200
       168    1       81.008000000000      11.692495323000       4.560590003200
       169    1       81.008000000000       4.676995323000       4.560590003200
       170    1       85.058400000000       0.000000000000       5.248820816800
       171    1       87.083600000000       1.169245323000       4.560590003200
       172    1       81.008000000000       7.015500000000       5.248820816800
       173    1       83.033200000000       8.184745323000       4.560590003200
       174    1       85.058400000000      11.692495323000       4.560590003200
       175    1       83.033200000000       3.507750000000       5.248820816800
       176    1       87.083600000000      10.523250000000       5.248820816800
       177    1       95.184400000000       3.507750000000       5.248820816800
       178    1       91.134000000000      10.523250000000       5.248820816800
       179    1       89.108800000000       0.000000000000       5.248820816800
       180    1       93.159200000000       7.015500000000       5.248820816800
       181    1       91.134000000000       1.169245323000       4.560590003200
       182    1       95.184400000000       8.184745323000       4.560590003200
       183    1       93.159200000000       4.676995323000       4.560590003200
       184    1       89.108800000000      11.692495323000       4.560590003200
       185    1       89.108800000000       4.676995323000       4.560590003200
       186    1       93.159200000000       0.000000000000       5.248820816800
       187    1       95.184400000000       1.169245323000       4.560590003200
       188    1       89.108800000000       7.015500000000       5.248820816800
       189    1       91.134000000000       8.184745323000       4.560590003200
       190    1       93.159200000000      11.692495323000       4.560590003200
       191    1       91.134000000000       3.507750000000       5.248820816800
       192    1       95.184400000000      10.523250000000       5.248820816800
       193    1        6.075600000000      17.538750000000       5.248820816800
       194    1        2.025200000000      24.554250000000       5.248820816800
       195    1        0.000000000000      14.031000000000       5.248820816800
       196    1        4.050400000000      21.046500000000       5.248820816800
       197    1        2.025200000000      15.200245323000       4.560590003200
       198    1        6.075600000000      22.215745323000       4.560590003200
       199    1        4.050400000000      18.707995323000       4.560590003200
       200    1        0.000000000000      25.723495323000       4.560590003200
       201    1        0.000000000000      18.707995323000       4.560590003200
       202    1        4.050400000000      14.031000000000       5.248820816800
       203    1        6.075600000000      15.200245323000       4.560590003200
       204    1        0.000000000000      21.046500000000       5.248820816800
       205    1        2.025200000000      22.215745323000       4.560590003200
       206    1        4.050400000000      25.723495323000       4.560590003200
       207    1        2.025200000000      17.538750000000       5.248820816800
       208    1        6.075600000000      24.554250000000       5.248820816800
       209    1       14.176400000000      17.538750000000       5.248820816800
       210    1       10.126000000000      24.554250000000       5.248820816800
       211    1        8.100800000000      14.031000000000       5.248820816800
       212    1       12.151200000000      21.046500000000       5.248820816800
       213    1       10.126000000000      15.200245323000       4.560590003200
       214    1       14.176400000000      22.215745323000       4.560590003200
       215    1       12.151200000000      18.707995323000       4.560590003200
       216    1        8.100800000000      25.723495323000       4.560590003200
       217    1        8.100800000000      18.707995323000       4.560590003200
       218    1       12.151200000000      14.031000000000       5.248820816800
       219    1       14.176400000000      15.200245323000       4.560590003200
       220    1        8.100800000000      21.046500000000       5.248820816800
       221    1       10.126000000000      22.215745323000       4.560590003200
       222    1       12.151200000000      25.723495323000       4.560590003200
       223    1       10.126000000000      17.538750000000       5.248820816800
       224    1       14.176400000000      24.554250000000       5.248820816800
       225    1       22.277200000000      17.538750000000       5.248820816800
       226    1       18.226800000000      24.554250000000       5.248820816800
       227    1       16.201600000000      14.031000000000       5.248820816800
       228    1       20.252000000000      21.046500000000       5.248820816800
       229    1       18.226800000000      15.200245323000       4.560590003200
       230    1       22.277200000000      22.215745323000       4.560590003200
       231    1       20.252000000000      18.707995323000       4.560590003200
       232    1       16.201600000000      25.723495323000       4.560590003200
       233    1       16.201600000000      18.707995323000       4.560590003200
       234    1       20.252000000000      14.031000000000       5.248820816800
       235    1       22.277200000000      15.200245323000       4.560590003200
       236    1       16.201600000000      21.046500000000       5.248820816800
       237    1       18.226800000000      22.215745323000       4.560590003200
       238    1       20.252000000000      25.723495323000       4.560590003200
       239    1       18.226800000000      17.538750000000       5.248820816800
       240    1       22.277200000000      24.554250000000       5.248820816800
       241    1       30.378000000000      17.538750000000       5.248820816800
       242    1       26.327600000000      24.554250000000       5.248820816800
       243    1       24.302400000000      14.031000000000       5.248820816800
       244    1       28.352800000000      21.046500000000       5.248820816800
       245    1       26.327600000000      15.200245323000       4.560590003200
       246    1       30.378000000000      22.215745323000       4.560590003200
       247    1       28.352800000000      18.707995323000       4.560590003200
       248    1       24.302400000000      25.723495323000       4.560590003200
       249    1       24.302400000000      18.707995323000       4.560590003200
       250    1       28.352800000000      14.031000000000       5.248820816800
       251    1       30.378000000000      15.200245323000       4.560590003200
       252    1       24.302400000000      21.046500000000       5.248820816800
       253    1       26.327600000000      22.215745323000       4.560590003200
       254    1       28.352800000000      25.723495323000       4.560590003200
       255    1       26.327600000000      17.538750000000       5.248820816800
       256    1       30.378000000000      24.554250000000       5.248820816800
       257    1       38.478800000000      17.538750000000       5.248820816800
       258    1       34.428400000000      24.554250000000       5.248820816800
       259    1       32.403200000000      14.031000000000       5.248820816800
       260    1       36.453600000000      21.046500000000       5.248820816800
       261    1       34.428400000000      15.200245323000       4.560590003200
       262    1       38.478800000000      22.215745323000       4.560590003200
       263    1       36.453600000000      18.707995323000       4.560590003200
       264    1       32.403200000000      25.723495323000       4.560590003200
       265    1       32.403200000000      18.707995323000       4.560590003200
       266    1       36.453600000000      14.031000000000       5.248820816800
       267    1       38.478800000000      15.200245323000       4.560590003200
       268    1       32.403200000000      21.046500000000       5.248820816800
       269    1       34.428400000000      22.215745323000       4.560590003200
       270    1       36.453600000000      25.723495323000       4.560590003200
       271    1       34.428400000000      17.538750000000       5.248820816800
       272    1       38.478800000000      24.554250000000       5.248820816800
       273    1       46.579600000000      17.538750000000       5.248820816800
       274    1       42.529200000000      24.554250000000       5.248820816800
       275    1       40.504000000000      14.031000000000       5.248820816800
       276    1       44.554400000000      21.046500000000       5.248820816800
       277    1       42.529200000000      15.200245323000       4.560590003200
       278    1       46.579600000000      22.215745323000       4.560590003200
       279    1       44.554400000000      18.707995323000       4.560590003200
       280    1       40.504000000000      25.723495323000       4.560590003200
       281    1       40.504000000000      18.707995323000       4.560590003200
       282    1       44.554400000000      14.031000000000       5.248820816800
       283    1       46.579600000000      15.200245323000       4.560590003200
       284    1       40.504000000000      21.046500000000       5.248820816800
       285    1       42.529200000000      22.215745323000       4.560590003200
       286    1       44.554400000000      25.723495323000       4.560590003200
       287    1       42.529200000000      17.538750000000       5.248820816800
       288    1       46.579600000000      24.554250000000       5.248820816800
       289    1       54.680400000000      17.538750000000       5.248820816800
       290    1       50.630000000000      24.554250000000       5.248820816800
       291    1       48.604800000000      14.031000000000       5.248820816800
       292    1       52.655200000000      21.046500000000       5.248820816800
       293    1       50.630000000000      15.200245323000       4.560590003200
       294    1       54.680400000000      22.215745323000       4.560590003200
       295    1       52.655200000000      18.707995323000       4.560590003200
       296    1       48.604800000000      25.723495323000       4.560590003200
       297    1       48.604800000000      18.707995323000       4.560590003200
       298    1       52.655200000000      14.031000000000       5.248820816800
       299    1       54.680400000000      15.200245323000       4.560590003200
       300    1       48.604800000000      21.046500000000       5.248820816800
       301    1       50.630000000000      22.215745323000       4.560590003200
       302    1       52.655200000000      25.723495323000       4.560590003200
       303    1       50.630000000000      17.538750000000       5.248820816800
       304    1       54.680400000000      24.554250000000       5.248820816800
       305    1       62.781200000000      17.538750000000       5.248820816800
       306    1       58.730800000000      24.554250000000       5.248820816800
       307    1       56.705600000000      14.031000000000       5.248820816800
       308    1       60.756000000000      21.046500000000       5.248820816800
       309    1       58.730800000000      15.200245323000       4.560590003200
       310    1       62.781200000000      22.215745323000       4.560590003200
       311    1       60.756000000000      18.707995323000       4.560590003200
       312    1       56.705600000000      25.723495323000       4.560590003200
       313    1       56.705600000000      18.707995323000       4.560590003200
       314    1       60.756000000000      14.031000000000       5.248820816800
       315    1       62.781200000000      15.200245323000       4.560590003200
       316    1       56.705600000000      21.046500000000       5.248820816800
       317    1       58.730800000000      22.215745323000       4.560590003200
       318    1       60.756000000000      25.723495323000       4.560590003200
       319    1       58.730800000000      17.538750000000       5.248820816800
       320    1       62.781200000000      24.554250000000       5.248820816800
       321    1       70.882000000000      17.538750000000       5.248820816800
       322    1       66.831600000000      24.554250000000       5.248820816800
       323    1       64.806400000000      14.031000000000       5.248820816800
       324    1       68.856800000000      21.046500000000       5.248820816800
       325    1       66.831600000000      15.200245323000       4.560590003200
       326    1       70.882000000000      22.215745323000       4.560590003200
       327    1       68.856800000000      18.707995323000       4.560590003200
       328    1       64.806400000000      25.723495323000       4.560590003200
       329    1       64.806400000000      18.707995323000       4.560590003200
       330    1       68.856800000000      14.031000000000       5.248820816800
       331    1       70.882000000000      15.200245323000       4.560590003200
       332    1       64.806400000000      21.046500000000       5.248820816800
       333    1       66.831600000000      22.215745323000       4.560590003200
       334    1       68.856800000000      25.723495323000       4.560590003200
       335    1       66.831600000000      17.538750000000       5.248820816800
       336    1       70.882000000000      24.554250000000       5.248820816800
       337    1       78.982800000000      17.538750000000       5.248820816800
       338    1       74.932400000000      24.554250000000       5.248820816800
       339    1       72.907200000000      14.031000000000       5.248820816800
       340    1       76.957600000000      21.046500000000       5.248820816800
       341    1       74.932400000000      15.200245323000       4.560590003200
       342    1       78.982800000000      22.215745323000       4.560590003200
       343    1       76.957600000000      18.707995323000       4.560590003200
       344    1       72.907200000000      25.723495323000       4.560590003200
       345    1       72.907200000000      18.707995323000       4.560590003200
       346    1       76.957600000000      14.031000000000       5.248820816800
       347    1       78.982800000000      15.200245323000       4.560590003200
       348    1       72.907200000000      21.046500000000       5.248820816800
       349    1       74.932400000000      22.215745323000       4.560590003200
       350    1       76.957600000000      25.723495323000       4.560590003200
       351    1       74.932400000000      17.538750000000       5.248820816800
       352    1       78.982800000000      24.554250000000       5.248820816800
       353    1       87.083600000000      17.538750000000       5.248820816800
       354    1       83.033200000000      24.554250000000       5.248820816800
       355    1       81.008000000000      14.031000000000       5.248820816800
       356    1       85.058400000000      21.046500000000       5.248820816800
       357    1       83.033200000000      15.200245323000       4.560590003200
       358    1       87.083600000000      22.215745323000       4.560590003200
       359    1       85.058400000000      18.707995323000       4.560590003200
       360    1       81.008000000000      25.723495323000       4.560590003200
       361    1       81.008000000000      18.707995323000       4.560590003200
       362    1       85.058400000000      14.031000000000       5.248820816800
       363    1       87.083600000000      15.200245323000       4.560590003200
       364    1       81.008000000000      21.046500000000       5.248820816800
       365    1       83.033200000000      22.215745323000       4.560590003200
       366    1       85.058400000000      25.723495323000       4.560590003200
       367    1       83.033200000000      17.538750000000       5.248820816800
       368    1       87.083600000000      24.554250000000       5.248820816800
       369    1       95.184400000000      17.538750000000       5.248820816800
       370    1       91.134000000000      24.554250000000       5.248820816800
       371    1       89.108800000000      14.031000000000       5.248820816800