 # Co8 Te16
  
        2688  atoms
           2  atom types
 
      0.000000000000     101.155600000000  xlo xhi
      0.000000000000     100.117600000000  ylo yhi
      0.000000000000      17.996200000000  zlo zhi
 
Masses
 
            1   58.93319500             # Co
            2   127.60000000            # Te
 
Atoms # atomic
 
         1    1        1.806350000000       3.128675000000       8.998100000000
         2    1        5.419050000000       9.386025000000       8.998100000000
         3    2        7.225400000000       4.171562495100       7.503029692600
         4    1        3.612700000000       0.000000000000       8.998100000000
         5    1        7.225400000000       6.257350000000       8.998100000000
         6    2        3.612700000000      10.428912495100       7.503029692600
         7    2        0.000000000000       4.171562495100      10.493170307400
         8    1        5.419050000000       3.128675000000       8.998100000000
         9    2        3.612700000000      10.428912495100      10.493170307400
        10    1        1.806350000000       9.386025000000       8.998100000000
        11    1        0.000000000000       0.000000000000       8.998100000000
        12    1        3.612700000000       6.257350000000       8.998100000000
        13    2        3.612700000000       4.171562495100      10.493170307400
        14    2        0.000000000000      10.428912495100      10.493170307400
        15    2        1.806350000000       1.042887495100       7.503029692600
        16    2        5.419050000000       7.300237495100       7.503029692600
        17    2        3.612700000000       4.171562495100       7.503029692600
        18    2        7.225400000000      10.428912495100       7.503029692600
        19    2        5.419050000000       1.042887495100      10.493170307400
        20    2        1.806350000000       7.300237495100      10.493170307400
        21    2        5.419050000000       1.042887495100       7.503029692600
        22    2        1.806350000000       7.300237495100       7.503029692600
        23    2        1.806350000000       1.042887495100      10.493170307400
        24    2        5.419050000000       7.300237495100      10.493170307400
        25    1        9.031750000000       3.128675000000       8.998100000000
        26    1       12.644450000000       9.386025000000       8.998100000000
        27    2       14.450800000000       4.171562495100       7.503029692600
        28    1       10.838100000000       0.000000000000       8.998100000000
        29    1       14.450800000000       6.257350000000       8.998100000000
        30    2       10.838100000000      10.428912495100       7.503029692600
        31    2        7.225400000000       4.171562495100      10.493170307400
        32    1       12.644450000000       3.128675000000       8.998100000000
        33    2       10.838100000000      10.428912495100      10.493170307400
        34    1        9.031750000000       9.386025000000       8.998100000000
        35    1        7.225400000000       0.000000000000       8.998100000000
        36    1       10.838100000000       6.257350000000       8.998100000000
        37    2       10.838100000000       4.171562495100      10.493170307400
        38    2        7.225400000000      10.428912495100      10.493170307400
        39    2        9.031750000000       1.042887495100       7.503029692600
        40    2       12.644450000000       7.300237495100       7.503029692600
        41    2       10.838100000000       4.171562495100       7.503029692600
        42    2       14.450800000000      10.428912495100       7.503029692600
        43    2       12.644450000000       1.042887495100      10.493170307400
        44    2        9.031750000000       7.300237495100      10.493170307400
        45    2       12.644450000000       1.042887495100       7.503029692600
        46    2        9.031750000000       7.300237495100       7.503029692600
        47    2        9.031750000000       1.042887495100      10.493170307400
        48    2       12.644450000000       7.300237495100      10.493170307400
        49    1       16.257150000000       3.128675000000       8.998100000000
        50    1       19.869850000000       9.386025000000       8.998100000000
        51    2       21.676200000000       4.171562495100       7.503029692600
        52    1       18.063500000000       0.000000000000       8.998100000000
        53    1       21.676200000000       6.257350000000       8.998100000000
        54    2       18.063500000000      10.428912495100       7.503029692600
        55    2       14.450800000000       4.171562495100      10.493170307400
        56    1       19.869850000000       3.128675000000       8.998100000000
        57    2       18.063500000000      10.428912495100      10.493170307400
        58    1       16.257150000000       9.386025000000       8.998100000000
        59    1       14.450800000000       0.000000000000       8.998100000000
        60    1       18.063500000000       6.257350000000       8.998100000000
        61    2       18.063500000000       4.171562495100      10.493170307400
        62    2       14.450800000000      10.428912495100      10.493170307400
        63    2       16.257150000000       1.042887495100       7.503029692600
        64    2       19.869850000000       7.300237495100       7.503029692600
        65    2       18.063500000000       4.171562495100       7.503029692600
        66    2       21.676200000000      10.428912495100       7.503029692600
        67    2       19.869850000000       1.042887495100      10.493170307400
        68    2       16.257150000000       7.300237495100      10.493170307400
        69    2       19.869850000000       1.042887495100       7.503029692600
        70    2       16.257150000000       7.300237495100       7.503029692600
        71    2       16.257150000000       1.042887495100      10.493170307400
        72    2       19.869850000000       7.300237495100      10.493170307400
        73    1       23.482550000000       3.128675000000       8.998100000000
        74    1       27.095250000000       9.386025000000       8.998100000000
        75    2       28.901600000000       4.171562495100       7.503029692600
        76    1       25.288900000000       0.000000000000       8.998100000000
        77    1       28.901600000000       6.257350000000       8.998100000000
        78    2       25.288900000000      10.428912495100       7.503029692600
        79    2       21.676200000000       4.171562495100      10.493170307400
        80    1       27.095250000000       3.128675000000       8.998100000000
        81    2       25.288900000000      10.428912495100      10.493170307400
        82    1       23.482550000000       9.386025000000       8.998100000000
        83    1       21.676200000000       0.000000000000       8.998100000000
        84    1       25.288900000000       6.257350000000       8.998100000000
        85    2       25.288900000000       4.171562495100      10.493170307400
        86    2       21.676200000000      10.428912495100      10.493170307400
        87    2       23.482550000000       1.042887495100       7.503029692600
        88    2       27.095250000000       7.300237495100       7.503029692600
        89    2       25.288900000000       4.171562495100       7.503029692600
        90    2       28.901600000000      10.428912495100       7.503029692600
        91    2       27.095250000000       1.042887495100      10.493170307400
        92    2       23.482550000000       7.300237495100      10.493170307400
        93    2       27.095250000000       1.042887495100       7.503029692600
        94    2       23.482550000000       7.300237495100       7.503029692600
        95    2       23.482550000000       1.042887495100      10.493170307400
        96    2       27.095250000000       7.300237495100      10.493170307400
        97    1       30.707950000000       3.128675000000       8.998100000000
        98    1       34.320650000000       9.386025000000       8.998100000000
        99    2       36.127000000000       4.171562495100       7.503029692600
       100    1       32.514300000000       0.000000000000       8.998100000000
       101    1       36.127000000000       6.257350000000       8.998100000000
       102    2       32.514300000000      10.428912495100       7.503029692600
       103    2       28.901600000000       4.171562495100      10.493170307400
       104    1       34.320650000000       3.128675000000       8.998100000000
       105    2       32.514300000000      10.428912495100      10.493170307400
       106    1       30.707950000000       9.386025000000       8.998100000000
       107    1       28.901600000000       0.000000000000       8.998100000000
       108    1       32.514300000000       6.257350000000       8.998100000000
       109    2       32.514300000000       4.171562495100      10.493170307400
       110    2       28.901600000000      10.428912495100      10.493170307400
       111    2       30.707950000000       1.042887495100       7.503029692600
       112    2       34.320650000000       7.300237495100       7.503029692600
       113    2       32.514300000000       4.171562495100       7.503029692600
       114    2       36.127000000000      10.428912495100       7.503029692600
       115    2       34.320650000000       1.042887495100      10.493170307400
       116    2       30.707950000000       7.300237495100      10.493170307400
       117    2       34.320650000000       1.042887495100       7.503029692600
       118    2       30.707950000000       7.300237495100       7.503029692600
       119    2       30.707950000000       1.042887495100      10.493170307400
       120    2       34.320650000000       7.300237495100      10.493170307400
       121    1       37.933350000000       3.128675000000       8.998100000000
       122    1       41.546050000000       9.386025000000       8.998100000000
       123    2       43.352400000000       4.171562495100       7.503029692600
       124    1       39.739700000000       0.000000000000       8.998100000000
       125    1       43.352400000000       6.257350000000       8.998100000000
       126    2       39.739700000000      10.428912495100       7.503029692600
       127    2       36.127000000000       4.171562495100      10.493170307400
       128    1       41.546050000000       3.128675000000       8.998100000000
       129    2       39.739700000000      10.428912495100      10.493170307400
       130    1       37.933350000000       9.386025000000       8.998100000000
       131    1       36.127000000000       0.000000000000       8.998100000000
       132    1       39.739700000000       6.257350000000       8.998100000000
       133    2       39.739700000000       4.171562495100      10.493170307400
       134    2       36.127000000000      10.428912495100      10.493170307400
       135    2       37.933350000000       1.042887495100       7.503029692600
       136    2       41.546050000000       7.300237495100       7.503029692600
       137    2       39.739700000000       4.171562495100       7.503029692600
       138    2       43.352400000000      10.428912495100       7.503029692600
       139    2       41.546050000000       1.042887495100      10.493170307400
       140    2       37.933350000000       7.300237495100      10.493170307400
       141    2       41.546050000000       1.042887495100       7.503029692600
       142    2       37.933350000000       7.300237495100       7.503029692600
       143    2       37.933350000000       1.042887495100      10.493170307400
       144    2       41.546050000000       7.300237495100      10.493170307400
       145    1       45.158750000000       3.128675000000       8.998100000000
       146    1       48.771450000000       9.386025000000       8.998100000000
       147    2       50.577800000000       4.171562495100       7.503029692600
       148    1       46.965100000000       0.000000000000       8.998100000000
       149    1       50.577800000000       6.257350000000       8.998100000000
       150    2       46.965100000000      10.428912495100       7.503029692600
       151    2       43.352400000000       4.171562495100      10.493170307400
       152    1       48.771450000000       3.128675000000       8.998100000000
       153    2       46.965100000000      10.428912495100      10.493170307400
       154    1       45.158750000000       9.386025000000       8.998100000000
       155    1       43.352400000000       0.000000000000       8.998100000000
       156    1       46.965100000000       6.257350000000       8.998100000000
       157    2       46.965100000000       4.171562495100      10.493170307400
       158    2       43.352400000000      10.428912495100      10.493170307400
       159    2       45.158750000000       1.042887495100       7.503029692600
       160    2       48.771450000000       7.300237495100       7.503029692600
       161    2       46.965100000000       4.171562495100       7.503029692600
       162    2       50.577800000000      10.428912495100       7.503029692600
       163    2       48.771450000000       1.042887495100      10.493170307400
       164    2       45.158750000000       7.300237495100      10.493170307400
       165    2       48.771450000000       1.042887495100       7.503029692600
       166    2       45.158750000000       7.300237495100       7.503029692600
       167    2       45.158750000000       1.042887495100      10.493170307400
       168    2       48.771450000000       7.300237495100      10.493170307400
       169    1       52.384150000000       3.128675000000       8.998100000000
       170    1       55.996850000000       9.386025000000       8.998100000000
       171    2       57.803200000000       4.171562495100       7.503029692600
       172    1       54.190500000000       0.000000000000       8.998100000000
       173    1       57.803200000000       6.257350000000       8.998100000000
       174    2       54.190500000000      10.428912495100       7.503029692600
       175    2       50.577800000000       4.171562495100      10.493170307400
       176    1       55.996850000000       3.128675000000       8.998100000000
       177    2       54.190500000000      10.428912495100      10.493170307400
       178    1       52.384150000000       9.386025000000       8.998100000000
       179    1       50.577800000000       0.000000000000       8.998100000000
       180    1       54.190500000000       6.257350000000       8.998100000000
       181    2       54.190500000000       4.171562495100      10.493170307400
       182    2       50.577800000000      10.428912495100      10.493170307400
       183    2       52.384150000000       1.042887495100       7.503029692600
       184    2       55.996850000000       7.300237495100       7.503029692600
       185    2       54.190500000000       4.171562495100       7.503029692600
       186    2       57.803200000000      10.428912495100       7.503029692600
       187    2       55.996850000000       1.042887495100      10.493170307400
       188    2       52.384150000000       7.300237495100      10.493170307400
       189    2       55.996850000000       1.042887495100       7.503029692600
       190    2       52.384150000000       7.300237495100       7.503029692600
       191    2       52.384150000000       1.042887495100      10.493170307400
       192    2       55.996850000000       7.300237495100      10.493170307400
       193    1       59.609550000000       3.128675000000       8.998100000000
       194    1       63.222250000000       9.386025000000       8.998100000000
       195    2       65.028600000000       4.171562495100       7.503029692600
       196    1       61.415900000000       0.000000000000       8.998100000000
       197    1       65.028600000000       6.257350000000       8.998100000000
       198    2       61.415900000000      10.428912495100       7.503029692600
       199    2       57.803200000000       4.171562495100      10.493170307400
       200    1       63.222250000000       3.128675000000       8.998100000000
       201    2       61.415900000000      10.428912495100      10.493170307400
       202    1       59.609550000000       9.386025000000       8.998100000000
       203    1       57.803200000000       0.000000000000       8.998100000000
       204    1       61.415900000000       6.257350000000       8.998100000000
       205    2       61.415900000000       4.171562495100      10.493170307400
       206    2       57.803200000000      10.428912495100      10.493170307400
       207    2       59.609550000000       1.042887495100       7.503029692600
       208    2       63.222250000000       7.300237495100       7.503029692600
       209    2       61.415900000000       4.171562495100       7.503029692600
       210    2       65.028600000000      10.428912495100       7.503029692600
       211    2       63.222250000000       1.042887495100      10.493170307400
       212    2       59.609550000000       7.300237495100      10.493170307400
       213    2       63.222250000000       1.042887495100       7.503029692600
       214    2       59.609550000000       7.300237495100       7.503029692600
       215    2       59.609550000000       1.042887495100      10.493170307400
       216    2       63.222250000000       7.300237495100      10.493170307400
       217    1       66.834950000000       3.128675000000       8.998100000000
       218    1       70.447650000000       9.386025000000       8.998100000000
       219    2       72.254000000000       4.171562495100       7.503029692600
       220    1       68.641300000000       0.000000000000       8.998100000000
       221    1       72.254000000000       6.257350000000       8.998100000000
       222    2       68.641300000000      10.428912495100       7.503029692600
       223    2       65.028600000000       4.171562495100      10.493170307400
       224    1       70.447650000000       3.128675000000       8.998100000000
       225    2       68.641300000000      10.428912495100      10.493170307400
       226    1       66.834950000000       9.386025000000       8.998100000000
       227    1       65.028600000000       0.000000000000       8.998100000000
       228    1       68.641300000000       6.257350000000       8.998100000000
       229    2       68.641300000000       4.171562495100      10.493170307400
       230    2       65.028600000000      10.428912495100      10.493170307400
       231    2       66.834950000000       1.042887495100       7.503029692600
       232    2       70.447650000000       7.300237495100       7.503029692600
       233    2       68.641300000000       4.171562495100       7.503029692600
       234    2       72.254000000000      10.428912495100       7.503029692600
       235    2       70.447650000000       1.042887495100      10.493170307400
       236    2       66.834950000000       7.300237495100      10.493170307400
       237    2       70.447650000000       1.042887495100       7.503029692600
       238    2       66.834950000000       7.300237495100       7.503029692600
       239    2       66.834950000000       1.042887495100      10.493170307400
       240    2       70.447650000000       7.300237495100      10.493170307400
       241    1       74.060350000000       3.128675000000       8.998100000000
       242    1       77.673050000000       9.386025000000       8.998100000000
       243    2       79.479400000000       4.171562495100       7.503029692600
       244    1       75.866700000000       0.000000000000       8.998100000000
       245    1       79.479400000000       6.257350000000       8.998100000000
       246    2       75.866700000000      10.428912495100       7.503029692600
       247    2       72.254000000000       4.171562495100      10.493170307400
       248    1       77.673050000000       3.128675000000       8.998100000000
       249    2       75.866700000000      10.428912495100      10.493170307400
       250    1       74.060350000000       9.386025000000       8.998100000000
       251    1       72.254000000000       0.000000000000       8.998100000000
       252    1       75.866700000000       6.257350000000       8.998100000000
       253    2       75.866700000000       4.171562495100      10.493170307400
       254    2       72.254000000000      10.428912495100      10.493170307400
       255    2       74.060350000000       1.042887495100       7.503029692600
       256    2       77.673050000000       7.300237495100       7.503029692600
       257    2       75.866700000000       4.171562495100       7.503029692600
       258    2       79.479400000000      10.428912495100       7.503029692600
       259    2       77.673050000000       1.042887495100      10.493170307400
       260    2       74.060350000000       7.300237495100      10.493170307400
       261    2       77.673050000000       1.042887495100       7.503029692600
       262    2       74.060350000000       7.300237495100       7.503029692600
       263    2       74.060350000000       1.042887495100      10.493170307400
       264    2       77.673050000000       7.300237495100      10.493170307400
       265    1       81.285750000000       3.128675000000       8.998100000000
       266    1       84.898450000000       9.386025000000       8.998100000000
       267    2       86.704800000000       4.171562495100       7.503029692600
       268    1       83.092100000000       0.000000000000       8.998100000000
       269    1       86.704800000000       6.257350000000       8.998100000000
       270    2       83.092100000000      10.428912495100       7.503029692600
       271    2       79.479400000000       4.171562495100      10.493170307400
       272    1       84.898450000000       3.128675000000       8.998100000000
       273    2       83.092100000000      10.428912495100      10.493170307400
       274    1       81.285750000000       9.386025000000       8.998100000000
       275    1       79.479400000000       0.000000000000       8.998100000000
       276    1       83.092100000000       6.257350000000       8.998100000000
       277    2       83.092100000000       4.171562495100      10.493170307400
       278    2       79.479400000000      10.428912495100      10.493170307400
       279    2       81.285750000000       1.042887495100       7.503029692600
       280    2       84.898450000000       7.300237495100       7.503029692600
       281    2       83.092100000000       4.171562495100       7.503029692600
       282    2       86.704800000000      10.428912495100       7.503029692600
       283    2       84.898450000000       1.042887495100      10.493170307400
       284    2       81.285750000000       7.300237495100      10.493170307400
       285    2       84.898450000000       1.042887495100       7.503029692600
       286    2       81.285750000000       7.300237495100       7.503029692600
       287    2       81.285750000000       1.042887495100      10.493170307400
       288    2       84.898450000000       7.300237495100      10.493170307400
       289    1       88.511150000000       3.128675000000       8.998100000000
       290    1       92.123850000000       9.386025000000       8.998100000000
       291    2       93.930200000000       4.171562495100       7.503029692600
       292    1       90.317500000000       0.000000000000       8.998100000000
       293    1       93.930200000000       6.257350000000       8.998100000000
       294    2       90.317500000000      10.428912495100       7.503029692600
       295    2       86.704800000000       4.171562495100      10.493170307400
       296    1       92.123850000000       3.128675000000       8.998100000000
       297    2       90.317500000000      10.428912495100      10.493170307400
       298    1       88.511150000000       9.386025000000       8.998100000000
       299    1       86.704800000000       0.000000000000       8.998100000000
       300    1       90.317500000000       6.257350000000       8.998100000000
       301    2       90.317500000000       4.171562495100      10.493170307400
       302    2       86.704800000000      10.428912495100      10.493170307400
       303    2       88.511150000000       1.042887495100       7.503029692600
       304    2       92.123850000000       7.300237495100       7.503029692600
       305    2       90.317500000000       4.171562495100       7.503029692600
       306    2       93.930200000000      10.428912495100       7.503029692600
       307    2       92.123850000000       1.042887495100      10.493170307400
       308    2       88.511150000000       7.300237495100      10.493170307400
       309    2       92.123850000000       1.042887495100       7.503029692600
       310    2       88.511150000000       7.300237495100       7.503029692600
       311    2       88.511150000000       1.042887495100      10.493170307400
       312    2       92.123850000000       7.300237495100      10.493170307400
       313    1       95.736550000000       3.128675000000       8.998100000000
       314    1       99.349250000000       9.386025000000       8.998100000000
       315    2      101.155600000000       4.171562495100       7.503029692600
       316    1       97.542900000000       0.000000000000       8.998100000000
       317    1      101.155600000000       6.257350000000       8.998100000000
       318    2       97.542900000000      10.428912495100       7.503029692600
       319    2       93.930200000000       4.171562495100      10.493170307400
       320    1       99.349250000000       3.128675000000       8.998100000000
       321    2       97.542900000000      10.428912495100      10.493170307400
       322    1       95.736550000000       9.386025000000       8.998100000000
       323    1       93.930200000000       0.000000000000       8.998100000000
       324    1       97.542900000000       6.257350000000       8.998100000000
       325    2       97.542900000000       4.171562495100      10.493170307400
       326    2       93.930200000000      10.428912495100      10.493170307400
       327    2       95.736550000000       1.042887495100       7.503029692600
       328    2       99.349250000000       7.300237495100       7.503029692600
       329    2       97.542900000000       4.171562495100       7.503029692600
       330    2      101.155600000000      10.428912495100       7.503029692600
       331    2       99.349250000000       1.042887495100      10.493170307400
       332    2       95.736550000000       7.300237495100      10.493170307400
       333    2       99.349250000000       1.042887495100       7.503029692600
       334    2       95.736550000000       7.300237495100       7.503029692600
       335    2       95.736550000000       1.042887495100      10.493170307400
       336    2       99.349250000000       7.300237495100      10.493170307400
       337    1        1.806350000000      15.643375000000       8.998100000000
       338    1        5.419050000000      21.900725000000       8.998100000000
       339    2        7.225400000000      16.686262495100       7.503029692600
       340    1        3.612700000000      12.514700000000       8.998100000000
       341    1        7.225400000000      18.772050000000       8.998100000000
       342    2        3.612700000000      22.943612495100       7.503029692600
       343    2        0.000000000000      16.686262495100      10.493170307400
       344    1        5.419050000000      15.643375000000       8.998100000000
       345    2        3.612700000000      22.943612495100      10.493170307400
       346    1        1.806350000000      21.900725000000       8.998100000000
       347    1        0.000000000000      12.514700000000       8.998100000000
       348    1        3.612700000000      18.772050000000       8.998100000000
       349    2        3.612700000000      16.686262495100      10.493170307400
       350    2        0.000000000000      22.943612495100      10.493170307400
       351    2        1.806350000000      13.557587495100       7.503029692600
       352    2        5.419050000000      19.814937495100       7.503029692600
       353    2        3.612700000000      16.686262495100       7.503029692600
       354    2        7.225400000000      22.943612495100       7.503029692600
       355    2        5.419050000000      13.557587495100      10.493170307400
       356    2        1.806350000000      19.814937495100      10.493170307400
       357    2        5.419050000000      13.557587495100       7.503029692600
       358    2        1.806350000000      19.814937495100       7.503029692600
       359    2        1.806350000000      13.557587495100      10.493170307400
       360    2        5.419050000000      19.814937495100      10.493170307400
       361    1        9.031750000000      15.643375000000       8.998100000000
       362    1       12.644450000000      21.900725000000       8.998100000000
       363    2       14.450800000000      16.686262495100       7.503029692600
       364    1       10.838100000000      12.514700000000       8.998100000000
       365    1       14.450800000000      18.772050000000       8.998100000000
       366    2       10.838100000000      22.943612495100       7.503029692600
       367    2        7.225400000000      16.686262495100      10.493170307400
       368    1       12.644450000000      15.643375000000       8.998100000000
       369    2       10.838100000000      22.943612495100      10.493170307400
       370    1        9.031750000000      21.900725000000       8.998100000000