 # Cr8 Te16
  
        2688  atoms
           2  atom types
 
      0.000000000000      97.164200000000  xlo xhi
      0.000000000000      96.168000000000  ylo yhi
      0.000000000000      18.412500000000  zlo zhi
 
Masses
 
            1   51.99610000             # Cr
            2   127.60000000            # Te
 
Atoms # atomic
 
         1    1        1.735075000000       3.005250000000       9.206250000000
         2    1        5.205225000000       9.015750000000       9.206250000000
         3    2        5.205225000000       1.001745993000      10.912481137500
         4    2        1.735075000000       7.012245993000      10.912481137500
         5    1        3.470150000000      12.021000000000       9.206250000000
         6    1        5.205225000000       3.005250000000       9.206250000000
         7    1        0.000000000000       6.010500000000       9.206250000000
         8    1        1.735075000000       9.015750000000       9.206250000000
         9    2        5.205225000000       1.001745993000       7.500018862500
        10    2        1.735075000000       7.012245993000       7.500018862500
        11    2        0.000000000000       4.006995993000      10.912481137500
        12    2        3.470150000000      10.017495993000      10.912481137500
        13    2        1.735075000000       1.001745993000      10.912481137500
        14    2        5.205225000000       7.012245993000      10.912481137500
        15    2        1.735075000000       1.001745993000       7.500018862500
        16    2        5.205225000000       7.012245993000       7.500018862500
        17    2        3.470150000000       4.006995993000       7.500018862500
        18    2        0.000000000000      10.017495993000       7.500018862500
        19    2        3.470150000000       4.006995993000      10.912481137500
        20    2        0.000000000000      10.017495993000      10.912481137500
        21    1        0.000000000000      12.021000000000       9.206250000000
        22    1        3.470150000000       6.010500000000       9.206250000000
        23    2        0.000000000000       4.006995993000       7.500018862500
        24    2        3.470150000000      10.017495993000       7.500018862500
        25    1        8.675375000000       3.005250000000       9.206250000000
        26    1       12.145525000000       9.015750000000       9.206250000000
        27    2       12.145525000000       1.001745993000      10.912481137500
        28    2        8.675375000000       7.012245993000      10.912481137500
        29    1       10.410450000000      12.021000000000       9.206250000000
        30    1       12.145525000000       3.005250000000       9.206250000000
        31    1        6.940300000000       6.010500000000       9.206250000000
        32    1        8.675375000000       9.015750000000       9.206250000000
        33    2       12.145525000000       1.001745993000       7.500018862500
        34    2        8.675375000000       7.012245993000       7.500018862500
        35    2        6.940300000000       4.006995993000      10.912481137500
        36    2       10.410450000000      10.017495993000      10.912481137500
        37    2        8.675375000000       1.001745993000      10.912481137500
        38    2       12.145525000000       7.012245993000      10.912481137500
        39    2        8.675375000000       1.001745993000       7.500018862500
        40    2       12.145525000000       7.012245993000       7.500018862500
        41    2       10.410450000000       4.006995993000       7.500018862500
        42    2        6.940300000000      10.017495993000       7.500018862500
        43    2       10.410450000000       4.006995993000      10.912481137500
        44    2        6.940300000000      10.017495993000      10.912481137500
        45    1        6.940300000000      12.021000000000       9.206250000000
        46    1       10.410450000000       6.010500000000       9.206250000000
        47    2        6.940300000000       4.006995993000       7.500018862500
        48    2       10.410450000000      10.017495993000       7.500018862500
        49    1       15.615675000000       3.005250000000       9.206250000000
        50    1       19.085825000000       9.015750000000       9.206250000000
        51    2       19.085825000000       1.001745993000      10.912481137500
        52    2       15.615675000000       7.012245993000      10.912481137500
        53    1       17.350750000000      12.021000000000       9.206250000000
        54    1       19.085825000000       3.005250000000       9.206250000000
        55    1       13.880600000000       6.010500000000       9.206250000000
        56    1       15.615675000000       9.015750000000       9.206250000000
        57    2       19.085825000000       1.001745993000       7.500018862500
        58    2       15.615675000000       7.012245993000       7.500018862500
        59    2       13.880600000000       4.006995993000      10.912481137500
        60    2       17.350750000000      10.017495993000      10.912481137500
        61    2       15.615675000000       1.001745993000      10.912481137500
        62    2       19.085825000000       7.012245993000      10.912481137500
        63    2       15.615675000000       1.001745993000       7.500018862500
        64    2       19.085825000000       7.012245993000       7.500018862500
        65    2       17.350750000000       4.006995993000       7.500018862500
        66    2       13.880600000000      10.017495993000       7.500018862500
        67    2       17.350750000000       4.006995993000      10.912481137500
        68    2       13.880600000000      10.017495993000      10.912481137500
        69    1       13.880600000000      12.021000000000       9.206250000000
        70    1       17.350750000000       6.010500000000       9.206250000000
        71    2       13.880600000000       4.006995993000       7.500018862500
        72    2       17.350750000000      10.017495993000       7.500018862500
        73    1       22.555975000000       3.005250000000       9.206250000000
        74    1       26.026125000000       9.015750000000       9.206250000000
        75    2       26.026125000000       1.001745993000      10.912481137500
        76    2       22.555975000000       7.012245993000      10.912481137500
        77    1       24.291050000000      12.021000000000       9.206250000000
        78    1       26.026125000000       3.005250000000       9.206250000000
        79    1       20.820900000000       6.010500000000       9.206250000000
        80    1       22.555975000000       9.015750000000       9.206250000000
        81    2       26.026125000000       1.001745993000       7.500018862500
        82    2       22.555975000000       7.012245993000       7.500018862500
        83    2       20.820900000000       4.006995993000      10.912481137500
        84    2       24.291050000000      10.017495993000      10.912481137500
        85    2       22.555975000000       1.001745993000      10.912481137500
        86    2       26.026125000000       7.012245993000      10.912481137500
        87    2       22.555975000000       1.001745993000       7.500018862500
        88    2       26.026125000000       7.012245993000       7.500018862500
        89    2       24.291050000000       4.006995993000       7.500018862500
        90    2       20.820900000000      10.017495993000       7.500018862500
        91    2       24.291050000000       4.006995993000      10.912481137500
        92    2       20.820900000000      10.017495993000      10.912481137500
        93    1       20.820900000000      12.021000000000       9.206250000000
        94    1       24.291050000000       6.010500000000       9.206250000000
        95    2       20.820900000000       4.006995993000       7.500018862500
        96    2       24.291050000000      10.017495993000       7.500018862500
        97    1       29.496275000000       3.005250000000       9.206250000000
        98    1       32.966425000000       9.015750000000       9.206250000000
        99    2       32.966425000000       1.001745993000      10.912481137500
       100    2       29.496275000000       7.012245993000      10.912481137500
       101    1       31.231350000000      12.021000000000       9.206250000000
       102    1       32.966425000000       3.005250000000       9.206250000000
       103    1       27.761200000000       6.010500000000       9.206250000000
       104    1       29.496275000000       9.015750000000       9.206250000000
       105    2       32.966425000000       1.001745993000       7.500018862500
       106    2       29.496275000000       7.012245993000       7.500018862500
       107    2       27.761200000000       4.006995993000      10.912481137500
       108    2       31.231350000000      10.017495993000      10.912481137500
       109    2       29.496275000000       1.001745993000      10.912481137500
       110    2       32.966425000000       7.012245993000      10.912481137500
       111    2       29.496275000000       1.001745993000       7.500018862500
       112    2       32.966425000000       7.012245993000       7.500018862500
       113    2       31.231350000000       4.006995993000       7.500018862500
       114    2       27.761200000000      10.017495993000       7.500018862500
       115    2       31.231350000000       4.006995993000      10.912481137500
       116    2       27.761200000000      10.017495993000      10.912481137500
       117    1       27.761200000000      12.021000000000       9.206250000000
       118    1       31.231350000000       6.010500000000       9.206250000000
       119    2       27.761200000000       4.006995993000       7.500018862500
       120    2       31.231350000000      10.017495993000       7.500018862500
       121    1       36.436575000000       3.005250000000       9.206250000000
       122    1       39.906725000000       9.015750000000       9.206250000000
       123    2       39.906725000000       1.001745993000      10.912481137500
       124    2       36.436575000000       7.012245993000      10.912481137500
       125    1       38.171650000000      12.021000000000       9.206250000000
       126    1       39.906725000000       3.005250000000       9.206250000000
       127    1       34.701500000000       6.010500000000       9.206250000000
       128    1       36.436575000000       9.015750000000       9.206250000000
       129    2       39.906725000000       1.001745993000       7.500018862500
       130    2       36.436575000000       7.012245993000       7.500018862500
       131    2       34.701500000000       4.006995993000      10.912481137500
       132    2       38.171650000000      10.017495993000      10.912481137500
       133    2       36.436575000000       1.001745993000      10.912481137500
       134    2       39.906725000000       7.012245993000      10.912481137500
       135    2       36.436575000000       1.001745993000       7.500018862500
       136    2       39.906725000000       7.012245993000       7.500018862500
       137    2       38.171650000000       4.006995993000       7.500018862500
       138    2       34.701500000000      10.017495993000       7.500018862500
       139    2       38.171650000000       4.006995993000      10.912481137500
       140    2       34.701500000000      10.017495993000      10.912481137500
       141    1       34.701500000000      12.021000000000       9.206250000000
       142    1       38.171650000000       6.010500000000       9.206250000000
       143    2       34.701500000000       4.006995993000       7.500018862500
       144    2       38.171650000000      10.017495993000       7.500018862500
       145    1       43.376875000000       3.005250000000       9.206250000000
       146    1       46.847025000000       9.015750000000       9.206250000000
       147    2       46.847025000000       1.001745993000      10.912481137500
       148    2       43.376875000000       7.012245993000      10.912481137500
       149    1       45.111950000000      12.021000000000       9.206250000000
       150    1       46.847025000000       3.005250000000       9.206250000000
       151    1       41.641800000000       6.010500000000       9.206250000000
       152    1       43.376875000000       9.015750000000       9.206250000000
       153    2       46.847025000000       1.001745993000       7.500018862500
       154    2       43.376875000000       7.012245993000       7.500018862500
       155    2       41.641800000000       4.006995993000      10.912481137500
       156    2       45.111950000000      10.017495993000      10.912481137500
       157    2       43.376875000000       1.001745993000      10.912481137500
       158    2       46.847025000000       7.012245993000      10.912481137500
       159    2       43.376875000000       1.001745993000       7.500018862500
       160    2       46.847025000000       7.012245993000       7.500018862500
       161    2       45.111950000000       4.006995993000       7.500018862500
       162    2       41.641800000000      10.017495993000       7.500018862500
       163    2       45.111950000000       4.006995993000      10.912481137500
       164    2       41.641800000000      10.017495993000      10.912481137500
       165    1       41.641800000000      12.021000000000       9.206250000000
       166    1       45.111950000000       6.010500000000       9.206250000000
       167    2       41.641800000000       4.006995993000       7.500018862500
       168    2       45.111950000000      10.017495993000       7.500018862500
       169    1       50.317175000000       3.005250000000       9.206250000000
       170    1       53.787325000000       9.015750000000       9.206250000000
       171    2       53.787325000000       1.001745993000      10.912481137500
       172    2       50.317175000000       7.012245993000      10.912481137500
       173    1       52.052250000000      12.021000000000       9.206250000000
       174    1       53.787325000000       3.005250000000       9.206250000000
       175    1       48.582100000000       6.010500000000       9.206250000000
       176    1       50.317175000000       9.015750000000       9.206250000000
       177    2       53.787325000000       1.001745993000       7.500018862500
       178    2       50.317175000000       7.012245993000       7.500018862500
       179    2       48.582100000000       4.006995993000      10.912481137500
       180    2       52.052250000000      10.017495993000      10.912481137500
       181    2       50.317175000000       1.001745993000      10.912481137500
       182    2       53.787325000000       7.012245993000      10.912481137500
       183    2       50.317175000000       1.001745993000       7.500018862500
       184    2       53.787325000000       7.012245993000       7.500018862500
       185    2       52.052250000000       4.006995993000       7.500018862500
       186    2       48.582100000000      10.017495993000       7.500018862500
       187    2       52.052250000000       4.006995993000      10.912481137500
       188    2       48.582100000000      10.017495993000      10.912481137500
       189    1       48.582100000000      12.021000000000       9.206250000000
       190    1       52.052250000000       6.010500000000       9.206250000000
       191    2       48.582100000000       4.006995993000       7.500018862500
       192    2       52.052250000000      10.017495993000       7.500018862500
       193    1       57.257475000000       3.005250000000       9.206250000000
       194    1       60.727625000000       9.015750000000       9.206250000000
       195    2       60.727625000000       1.001745993000      10.912481137500
       196    2       57.257475000000       7.012245993000      10.912481137500
       197    1       58.992550000000      12.021000000000       9.206250000000
       198    1       60.727625000000       3.005250000000       9.206250000000
       199    1       55.522400000000       6.010500000000       9.206250000000
       200    1       57.257475000000       9.015750000000       9.206250000000
       201    2       60.727625000000       1.001745993000       7.500018862500
       202    2       57.257475000000       7.012245993000       7.500018862500
       203    2       55.522400000000       4.006995993000      10.912481137500
       204    2       58.992550000000      10.017495993000      10.912481137500
       205    2       57.257475000000       1.001745993000      10.912481137500
       206    2       60.727625000000       7.012245993000      10.912481137500
       207    2       57.257475000000       1.001745993000       7.500018862500
       208    2       60.727625000000       7.012245993000       7.500018862500
       209    2       58.992550000000       4.006995993000       7.500018862500
       210    2       55.522400000000      10.017495993000       7.500018862500
       211    2       58.992550000000       4.006995993000      10.912481137500
       212    2       55.522400000000      10.017495993000      10.912481137500
       213    1       55.522400000000      12.021000000000       9.206250000000
       214    1       58.992550000000       6.010500000000       9.206250000000
       215    2       55.522400000000       4.006995993000       7.500018862500
       216    2       58.992550000000      10.017495993000       7.500018862500
       217    1       64.197775000000       3.005250000000       9.206250000000
       218    1       67.667925000000       9.015750000000       9.206250000000
       219    2       67.667925000000       1.001745993000      10.912481137500
       220    2       64.197775000000       7.012245993000      10.912481137500
       221    1       65.932850000000      12.021000000000       9.206250000000
       222    1       67.667925000000       3.005250000000       9.206250000000
       223    1       62.462700000000       6.010500000000       9.206250000000
       224    1       64.197775000000       9.015750000000       9.206250000000
       225    2       67.667925000000       1.001745993000       7.500018862500
       226    2       64.197775000000       7.012245993000       7.500018862500
       227    2       62.462700000000       4.006995993000      10.912481137500
       228    2       65.932850000000      10.017495993000      10.912481137500
       229    2       64.197775000000       1.001745993000      10.912481137500
       230    2       67.667925000000       7.012245993000      10.912481137500
       231    2       64.197775000000       1.001745993000       7.500018862500
       232    2       67.667925000000       7.012245993000       7.500018862500
       233    2       65.932850000000       4.006995993000       7.500018862500
       234    2       62.462700000000      10.017495993000       7.500018862500
       235    2       65.932850000000       4.006995993000      10.912481137500
       236    2       62.462700000000      10.017495993000      10.912481137500
       237    1       62.462700000000      12.021000000000       9.206250000000
       238    1       65.932850000000       6.010500000000       9.206250000000
       239    2       62.462700000000       4.006995993000       7.500018862500
       240    2       65.932850000000      10.017495993000       7.500018862500
       241    1       71.138075000000       3.005250000000       9.206250000000
       242    1       74.608225000000       9.015750000000       9.206250000000
       243    2       74.608225000000       1.001745993000      10.912481137500
       244    2       71.138075000000       7.012245993000      10.912481137500
       245    1       72.873150000000      12.021000000000       9.206250000000
       246    1       74.608225000000       3.005250000000       9.206250000000
       247    1       69.403000000000       6.010500000000       9.206250000000
       248    1       71.138075000000       9.015750000000       9.206250000000
       249    2       74.608225000000       1.001745993000       7.500018862500
       250    2       71.138075000000       7.012245993000       7.500018862500
       251    2       69.403000000000       4.006995993000      10.912481137500
       252    2       72.873150000000      10.017495993000      10.912481137500
       253    2       71.138075000000       1.001745993000      10.912481137500
       254    2       74.608225000000       7.012245993000      10.912481137500
       255    2       71.138075000000       1.001745993000       7.500018862500
       256    2       74.608225000000       7.012245993000       7.500018862500
       257    2       72.873150000000       4.006995993000       7.500018862500
       258    2       69.403000000000      10.017495993000       7.500018862500
       259    2       72.873150000000       4.006995993000      10.912481137500
       260    2       69.403000000000      10.017495993000      10.912481137500
       261    1       69.403000000000      12.021000000000       9.206250000000
       262    1       72.873150000000       6.010500000000       9.206250000000
       263    2       69.403000000000       4.006995993000       7.500018862500
       264    2       72.873150000000      10.017495993000       7.500018862500
       265    1       78.078375000000       3.005250000000       9.206250000000
       266    1       81.548525000000       9.015750000000       9.206250000000
       267    2       81.548525000000       1.001745993000      10.912481137500
       268    2       78.078375000000       7.012245993000      10.912481137500
       269    1       79.813450000000      12.021000000000       9.206250000000
       270    1       81.548525000000       3.005250000000       9.206250000000
       271    1       76.343300000000       6.010500000000       9.206250000000
       272    1       78.078375000000       9.015750000000       9.206250000000
       273    2       81.548525000000       1.001745993000       7.500018862500
       274    2       78.078375000000       7.012245993000       7.500018862500
       275    2       76.343300000000       4.006995993000      10.912481137500
       276    2       79.813450000000      10.017495993000      10.912481137500
       277    2       78.078375000000       1.001745993000      10.912481137500
       278    2       81.548525000000       7.012245993000      10.912481137500
       279    2       78.078375000000       1.001745993000       7.500018862500
       280    2       81.548525000000       7.012245993000       7.500018862500
       281    2       79.813450000000       4.006995993000       7.500018862500
       282    2       76.343300000000      10.017495993000       7.500018862500
       283    2       79.813450000000       4.006995993000      10.912481137500
       284    2       76.343300000000      10.017495993000      10.912481137500
       285    1       76.343300000000      12.021000000000       9.206250000000
       286    1       79.813450000000       6.010500000000       9.206250000000
       287    2       76.343300000000       4.006995993000       7.500018862500
       288    2       79.813450000000      10.017495993000       7.500018862500
       289    1       85.018675000000       3.005250000000       9.206250000000
       290    1       88.488825000000       9.015750000000       9.206250000000
       291    2       88.488825000000       1.001745993000      10.912481137500
       292    2       85.018675000000       7.012245993000      10.912481137500
       293    1       86.753750000000      12.021000000000       9.206250000000
       294    1       88.488825000000       3.005250000000       9.206250000000
       295    1       83.283600000000       6.010500000000       9.206250000000
       296    1       85.018675000000       9.015750000000       9.206250000000
       297    2       88.488825000000       1.001745993000       7.500018862500
       298    2       85.018675000000       7.012245993000       7.500018862500
       299    2       83.283600000000       4.006995993000      10.912481137500
       300    2       86.753750000000      10.017495993000      10.912481137500
       301    2       85.018675000000       1.001745993000      10.912481137500
       302    2       88.488825000000       7.012245993000      10.912481137500
       303    2       85.018675000000       1.001745993000       7.500018862500
       304    2       88.488825000000       7.012245993000       7.500018862500
       305    2       86.753750000000       4.006995993000       7.500018862500
       306    2       83.283600000000      10.017495993000       7.500018862500
       307    2       86.753750000000       4.006995993000      10.912481137500
       308    2       83.283600000000      10.017495993000      10.912481137500
       309    1       83.283600000000      12.021000000000       9.206250000000
       310    1       86.753750000000       6.010500000000       9.206250000000
       311    2       83.283600000000       4.006995993000       7.500018862500
       312    2       86.753750000000      10.017495993000       7.500018862500
       313    1       91.958975000000       3.005250000000       9.206250000000
       314    1       95.429125000000       9.015750000000       9.206250000000
       315    2       95.429125000000       1.001745993000      10.912481137500
       316    2       91.958975000000       7.012245993000      10.912481137500
       317    1       93.694050000000      12.021000000000       9.206250000000
       318    1       95.429125000000       3.005250000000       9.206250000000
       319    1       90.223900000000       6.010500000000       9.206250000000
       320    1       91.958975000000       9.015750000000       9.206250000000
       321    2       95.429125000000       1.001745993000       7.500018862500
       322    2       91.958975000000       7.012245993000       7.500018862500
       323    2       90.223900000000       4.006995993000      10.912481137500
       324    2       93.694050000000      10.017495993000      10.912481137500
       325    2       91.958975000000       1.001745993000      10.912481137500
       326    2       95.429125000000       7.012245993000      10.912481137500
       327    2       91.958975000000       1.001745993000       7.500018862500
       328    2       95.429125000000       7.012245993000       7.500018862500
       329    2       93.694050000000       4.006995993000       7.500018862500
       330    2       90.223900000000      10.017495993000       7.500018862500
       331    2       93.694050000000       4.006995993000      10.912481137500
       332    2       90.223900000000      10.017495993000      10.912481137500
       333    1       90.223900000000      12.021000000000       9.206250000000
       334    1       93.694050000000       6.010500000000       9.206250000000
       335    2       90.223900000000       4.006995993000       7.500018862500
       336    2       93.694050000000      10.017495993000       7.500018862500
       337    1        1.735075000000      15.026250000000       9.206250000000
       338    1        5.205225000000      21.036750000000       9.206250000000
       339    2        5.205225000000      13.022745993000      10.912481137500
       340    2        1.735075000000      19.033245993000      10.912481137500
       341    1        3.470150000000      24.042000000000       9.206250000000
       342    1        5.205225000000      15.026250000000       9.206250000000
       343    1        0.000000000000      18.031500000000       9.206250000000
       344    1        1.735075000000      21.036750000000       9.206250000000
       345    2        5.205225000000      13.022745993000       7.500018862500
       346    2        1.735075000000      19.033245993000       7.500018862500
       347    2        0.000000000000      16.027995993000      10.912481137500
       348    2        3.470150000000      22.038495993000      10.912481137500
       349    2        1.735075000000      13.022745993000      10.912481137500
       350    2        5.205225000000      19.033245993000      10.912481137500
       351    2        1.735075000000      13.022745993000       7.500018862500
       352    2        5.205225000000      19.033245993000       7.500018862500
       353    2        3.470150000000      16.027995993000       7.500018862500
       354    2        0.000000000000      22.038495993000       7.500018862500
       355    2        3.470150000000      16.027995993000      10.912481137500
       356    2        0.000000000000      22.038495993000      10.912481137500
       357    1        0.000000000000      24.042000000000       9.206250000000
       358    1        3.470150000000      18.031500000000       9.206250000000
       359    2        0.000000000000      16.027995993000       7.500018862500
       360    2        3.470150000000      22.038495993000       7.500018862500
       361    1        8.675375000000      15.026250000000       9.206250000000
       362    1       12.145525000000      21.036750000000       9.206250000000
       363    2       12.145525000000      13.022745993000      10.912481137500
       364    2        8.675375000000      19.033245993000      10.912481137500
       365    1       10.410450000000      24.042000000000       9.206250000000
       366    1       12.145525000000      15.026250000000       9.206250000000
       367    1        6.940300000000      18.031500000000       9.206250000000
       368    1        8.675375000000      21.036750000000       9.206250000000
       369    2       12.145525000000      13.022745993000       7.500018862500
       370    2        8.675375000000      19.033245993000       7.500018862500