 # Se16 Cr8
  
        3456  atoms
           2  atom types
 
      0.000000000000     102.724800000000  xlo xhi
      0.000000000000     100.082700000000  ylo yhi
      0.000000000000      18.147500000000  zlo zhi
 
Masses
 
            1   78.96000000             # Se
            2   51.99610000             # Cr
 
Atoms # atomic
 
         1    1        3.210150000000       3.706762959900       7.499980652500
         2    1        4.815225000000       0.926687959900      10.647519347500
         3    1        4.815225000000       0.926687959900       7.499980652500
         4    1        0.000000000000       9.266912959900       7.499980652500
         5    1        1.605075000000       6.486837959900       7.499980652500
         6    1        1.605075000000       6.486837959900      10.647519347500
         7    1        1.605075000000       0.926687959900      10.647519347500
         8    1        4.815225000000       6.486837959900      10.647519347500
         9    2        0.000000000000       0.000000000000       9.073750000000
        10    1        1.605075000000       0.926687959900       7.499980652500
        11    2        4.815225000000       2.780075000000       9.073750000000
        12    2        3.210150000000       5.560150000000       9.073750000000
        13    2        1.605075000000       8.340225000000       9.073750000000
        14    1        3.210150000000       3.706762959900      10.647519347500
        15    1        4.815225000000       6.486837959900       7.499980652500
        16    1        0.000000000000       9.266912959900      10.647519347500
        17    2        1.605075000000       2.780075000000       9.073750000000
        18    2        4.815225000000       8.340225000000       9.073750000000
        19    1        0.000000000000       3.706762959900      10.647519347500
        20    1        0.000000000000       3.706762959900       7.499980652500
        21    1        3.210150000000       9.266912959900      10.647519347500
        22    1        3.210150000000       9.266912959900       7.499980652500
        23    2        3.210150000000       0.000000000000       9.073750000000
        24    2        0.000000000000       5.560150000000       9.073750000000
        25    1        9.630450000000       3.706762959900       7.499980652500
        26    1       11.235525000000       0.926687959900      10.647519347500
        27    1       11.235525000000       0.926687959900       7.499980652500
        28    1        6.420300000000       9.266912959900       7.499980652500
        29    1        8.025375000000       6.486837959900       7.499980652500
        30    1        8.025375000000       6.486837959900      10.647519347500
        31    1        8.025375000000       0.926687959900      10.647519347500
        32    1       11.235525000000       6.486837959900      10.647519347500
        33    2        6.420300000000       0.000000000000       9.073750000000
        34    1        8.025375000000       0.926687959900       7.499980652500
        35    2       11.235525000000       2.780075000000       9.073750000000
        36    2        9.630450000000       5.560150000000       9.073750000000
        37    2        8.025375000000       8.340225000000       9.073750000000
        38    1        9.630450000000       3.706762959900      10.647519347500
        39    1       11.235525000000       6.486837959900       7.499980652500
        40    1        6.420300000000       9.266912959900      10.647519347500
        41    2        8.025375000000       2.780075000000       9.073750000000
        42    2       11.235525000000       8.340225000000       9.073750000000
        43    1        6.420300000000       3.706762959900      10.647519347500
        44    1        6.420300000000       3.706762959900       7.499980652500
        45    1        9.630450000000       9.266912959900      10.647519347500
        46    1        9.630450000000       9.266912959900       7.499980652500
        47    2        9.630450000000       0.000000000000       9.073750000000
        48    2        6.420300000000       5.560150000000       9.073750000000
        49    1       16.050750000000       3.706762959900       7.499980652500
        50    1       17.655825000000       0.926687959900      10.647519347500
        51    1       17.655825000000       0.926687959900       7.499980652500
        52    1       12.840600000000       9.266912959900       7.499980652500
        53    1       14.445675000000       6.486837959900       7.499980652500
        54    1       14.445675000000       6.486837959900      10.647519347500
        55    1       14.445675000000       0.926687959900      10.647519347500
        56    1       17.655825000000       6.486837959900      10.647519347500
        57    2       12.840600000000       0.000000000000       9.073750000000
        58    1       14.445675000000       0.926687959900       7.499980652500
        59    2       17.655825000000       2.780075000000       9.073750000000
        60    2       16.050750000000       5.560150000000       9.073750000000
        61    2       14.445675000000       8.340225000000       9.073750000000
        62    1       16.050750000000       3.706762959900      10.647519347500
        63    1       17.655825000000       6.486837959900       7.499980652500
        64    1       12.840600000000       9.266912959900      10.647519347500
        65    2       14.445675000000       2.780075000000       9.073750000000
        66    2       17.655825000000       8.340225000000       9.073750000000
        67    1       12.840600000000       3.706762959900      10.647519347500
        68    1       12.840600000000       3.706762959900       7.499980652500
        69    1       16.050750000000       9.266912959900      10.647519347500
        70    1       16.050750000000       9.266912959900       7.499980652500
        71    2       16.050750000000       0.000000000000       9.073750000000
        72    2       12.840600000000       5.560150000000       9.073750000000
        73    1       22.471050000000       3.706762959900       7.499980652500
        74    1       24.076125000000       0.926687959900      10.647519347500
        75    1       24.076125000000       0.926687959900       7.499980652500
        76    1       19.260900000000       9.266912959900       7.499980652500
        77    1       20.865975000000       6.486837959900       7.499980652500
        78    1       20.865975000000       6.486837959900      10.647519347500
        79    1       20.865975000000       0.926687959900      10.647519347500
        80    1       24.076125000000       6.486837959900      10.647519347500
        81    2       19.260900000000       0.000000000000       9.073750000000
        82    1       20.865975000000       0.926687959900       7.499980652500
        83    2       24.076125000000       2.780075000000       9.073750000000
        84    2       22.471050000000       5.560150000000       9.073750000000
        85    2       20.865975000000       8.340225000000       9.073750000000
        86    1       22.471050000000       3.706762959900      10.647519347500
        87    1       24.076125000000       6.486837959900       7.499980652500
        88    1       19.260900000000       9.266912959900      10.647519347500
        89    2       20.865975000000       2.780075000000       9.073750000000
        90    2       24.076125000000       8.340225000000       9.073750000000
        91    1       19.260900000000       3.706762959900      10.647519347500
        92    1       19.260900000000       3.706762959900       7.499980652500
        93    1       22.471050000000       9.266912959900      10.647519347500
        94    1       22.471050000000       9.266912959900       7.499980652500
        95    2       22.471050000000       0.000000000000       9.073750000000
        96    2       19.260900000000       5.560150000000       9.073750000000
        97    1       28.891350000000       3.706762959900       7.499980652500
        98    1       30.496425000000       0.926687959900      10.647519347500
        99    1       30.496425000000       0.926687959900       7.499980652500
       100    1       25.681200000000       9.266912959900       7.499980652500
       101    1       27.286275000000       6.486837959900       7.499980652500
       102    1       27.286275000000       6.486837959900      10.647519347500
       103    1       27.286275000000       0.926687959900      10.647519347500
       104    1       30.496425000000       6.486837959900      10.647519347500
       105    2       25.681200000000       0.000000000000       9.073750000000
       106    1       27.286275000000       0.926687959900       7.499980652500
       107    2       30.496425000000       2.780075000000       9.073750000000
       108    2       28.891350000000       5.560150000000       9.073750000000
       109    2       27.286275000000       8.340225000000       9.073750000000
       110    1       28.891350000000       3.706762959900      10.647519347500
       111    1       30.496425000000       6.486837959900       7.499980652500
       112    1       25.681200000000       9.266912959900      10.647519347500
       113    2       27.286275000000       2.780075000000       9.073750000000
       114    2       30.496425000000       8.340225000000       9.073750000000
       115    1       25.681200000000       3.706762959900      10.647519347500
       116    1       25.681200000000       3.706762959900       7.499980652500
       117    1       28.891350000000       9.266912959900      10.647519347500
       118    1       28.891350000000       9.266912959900       7.499980652500
       119    2       28.891350000000       0.000000000000       9.073750000000
       120    2       25.681200000000       5.560150000000       9.073750000000
       121    1       35.311650000000       3.706762959900       7.499980652500
       122    1       36.916725000000       0.926687959900      10.647519347500
       123    1       36.916725000000       0.926687959900       7.499980652500
       124    1       32.101500000000       9.266912959900       7.499980652500
       125    1       33.706575000000       6.486837959900       7.499980652500
       126    1       33.706575000000       6.486837959900      10.647519347500
       127    1       33.706575000000       0.926687959900      10.647519347500
       128    1       36.916725000000       6.486837959900      10.647519347500
       129    2       32.101500000000       0.000000000000       9.073750000000
       130    1       33.706575000000       0.926687959900       7.499980652500
       131    2       36.916725000000       2.780075000000       9.073750000000
       132    2       35.311650000000       5.560150000000       9.073750000000
       133    2       33.706575000000       8.340225000000       9.073750000000
       134    1       35.311650000000       3.706762959900      10.647519347500
       135    1       36.916725000000       6.486837959900       7.499980652500
       136    1       32.101500000000       9.266912959900      10.647519347500
       137    2       33.706575000000       2.780075000000       9.073750000000
       138    2       36.916725000000       8.340225000000       9.073750000000
       139    1       32.101500000000       3.706762959900      10.647519347500
       140    1       32.101500000000       3.706762959900       7.499980652500
       141    1       35.311650000000       9.266912959900      10.647519347500
       142    1       35.311650000000       9.266912959900       7.499980652500
       143    2       35.311650000000       0.000000000000       9.073750000000
       144    2       32.101500000000       5.560150000000       9.073750000000
       145    1       41.731950000000       3.706762959900       7.499980652500
       146    1       43.337025000000       0.926687959900      10.647519347500
       147    1       43.337025000000       0.926687959900       7.499980652500
       148    1       38.521800000000       9.266912959900       7.499980652500
       149    1       40.126875000000       6.486837959900       7.499980652500
       150    1       40.126875000000       6.486837959900      10.647519347500
       151    1       40.126875000000       0.926687959900      10.647519347500
       152    1       43.337025000000       6.486837959900      10.647519347500
       153    2       38.521800000000       0.000000000000       9.073750000000
       154    1       40.126875000000       0.926687959900       7.499980652500
       155    2       43.337025000000       2.780075000000       9.073750000000
       156    2       41.731950000000       5.560150000000       9.073750000000
       157    2       40.126875000000       8.340225000000       9.073750000000
       158    1       41.731950000000       3.706762959900      10.647519347500
       159    1       43.337025000000       6.486837959900       7.499980652500
       160    1       38.521800000000       9.266912959900      10.647519347500
       161    2       40.126875000000       2.780075000000       9.073750000000
       162    2       43.337025000000       8.340225000000       9.073750000000
       163    1       38.521800000000       3.706762959900      10.647519347500
       164    1       38.521800000000       3.706762959900       7.499980652500
       165    1       41.731950000000       9.266912959900      10.647519347500
       166    1       41.731950000000       9.266912959900       7.499980652500
       167    2       41.731950000000       0.000000000000       9.073750000000
       168    2       38.521800000000       5.560150000000       9.073750000000
       169    1       48.152250000000       3.706762959900       7.499980652500
       170    1       49.757325000000       0.926687959900      10.647519347500
       171    1       49.757325000000       0.926687959900       7.499980652500
       172    1       44.942100000000       9.266912959900       7.499980652500
       173    1       46.547175000000       6.486837959900       7.499980652500
       174    1       46.547175000000       6.486837959900      10.647519347500
       175    1       46.547175000000       0.926687959900      10.647519347500
       176    1       49.757325000000       6.486837959900      10.647519347500
       177    2       44.942100000000       0.000000000000       9.073750000000
       178    1       46.547175000000       0.926687959900       7.499980652500
       179    2       49.757325000000       2.780075000000       9.073750000000
       180    2       48.152250000000       5.560150000000       9.073750000000
       181    2       46.547175000000       8.340225000000       9.073750000000
       182    1       48.152250000000       3.706762959900      10.647519347500
       183    1       49.757325000000       6.486837959900       7.499980652500
       184    1       44.942100000000       9.266912959900      10.647519347500
       185    2       46.547175000000       2.780075000000       9.073750000000
       186    2       49.757325000000       8.340225000000       9.073750000000
       187    1       44.942100000000       3.706762959900      10.647519347500
       188    1       44.942100000000       3.706762959900       7.499980652500
       189    1       48.152250000000       9.266912959900      10.647519347500
       190    1       48.152250000000       9.266912959900       7.499980652500
       191    2       48.152250000000       0.000000000000       9.073750000000
       192    2       44.942100000000       5.560150000000       9.073750000000
       193    1       54.572550000000       3.706762959900       7.499980652500
       194    1       56.177625000000       0.926687959900      10.647519347500
       195    1       56.177625000000       0.926687959900       7.499980652500
       196    1       51.362400000000       9.266912959900       7.499980652500
       197    1       52.967475000000       6.486837959900       7.499980652500
       198    1       52.967475000000       6.486837959900      10.647519347500
       199    1       52.967475000000       0.926687959900      10.647519347500
       200    1       56.177625000000       6.486837959900      10.647519347500
       201    2       51.362400000000       0.000000000000       9.073750000000
       202    1       52.967475000000       0.926687959900       7.499980652500
       203    2       56.177625000000       2.780075000000       9.073750000000
       204    2       54.572550000000       5.560150000000       9.073750000000
       205    2       52.967475000000       8.340225000000       9.073750000000
       206    1       54.572550000000       3.706762959900      10.647519347500
       207    1       56.177625000000       6.486837959900       7.499980652500
       208    1       51.362400000000       9.266912959900      10.647519347500
       209    2       52.967475000000       2.780075000000       9.073750000000
       210    2       56.177625000000       8.340225000000       9.073750000000
       211    1       51.362400000000       3.706762959900      10.647519347500
       212    1       51.362400000000       3.706762959900       7.499980652500
       213    1       54.572550000000       9.266912959900      10.647519347500
       214    1       54.572550000000       9.266912959900       7.499980652500
       215    2       54.572550000000       0.000000000000       9.073750000000
       216    2       51.362400000000       5.560150000000       9.073750000000
       217    1       60.992850000000       3.706762959900       7.499980652500
       218    1       62.597925000000       0.926687959900      10.647519347500
       219    1       62.597925000000       0.926687959900       7.499980652500
       220    1       57.782700000000       9.266912959900       7.499980652500
       221    1       59.387775000000       6.486837959900       7.499980652500
       222    1       59.387775000000       6.486837959900      10.647519347500
       223    1       59.387775000000       0.926687959900      10.647519347500
       224    1       62.597925000000       6.486837959900      10.647519347500
       225    2       57.782700000000       0.000000000000       9.073750000000
       226    1       59.387775000000       0.926687959900       7.499980652500
       227    2       62.597925000000       2.780075000000       9.073750000000
       228    2       60.992850000000       5.560150000000       9.073750000000
       229    2       59.387775000000       8.340225000000       9.073750000000
       230    1       60.992850000000       3.706762959900      10.647519347500
       231    1       62.597925000000       6.486837959900       7.499980652500
       232    1       57.782700000000       9.266912959900      10.647519347500
       233    2       59.387775000000       2.780075000000       9.073750000000
       234    2       62.597925000000       8.340225000000       9.073750000000
       235    1       57.782700000000       3.706762959900      10.647519347500
       236    1       57.782700000000       3.706762959900       7.499980652500
       237    1       60.992850000000       9.266912959900      10.647519347500
       238    1       60.992850000000       9.266912959900       7.499980652500
       239    2       60.992850000000       0.000000000000       9.073750000000
       240    2       57.782700000000       5.560150000000       9.073750000000
       241    1       67.413150000000       3.706762959900       7.499980652500
       242    1       69.018225000000       0.926687959900      10.647519347500
       243    1       69.018225000000       0.926687959900       7.499980652500
       244    1       64.203000000000       9.266912959900       7.499980652500
       245    1       65.808075000000       6.486837959900       7.499980652500
       246    1       65.808075000000       6.486837959900      10.647519347500
       247    1       65.808075000000       0.926687959900      10.647519347500
       248    1       69.018225000000       6.486837959900      10.647519347500
       249    2       64.203000000000       0.000000000000       9.073750000000
       250    1       65.808075000000       0.926687959900       7.499980652500
       251    2       69.018225000000       2.780075000000       9.073750000000
       252    2       67.413150000000       5.560150000000       9.073750000000
       253    2       65.808075000000       8.340225000000       9.073750000000
       254    1       67.413150000000       3.706762959900      10.647519347500
       255    1       69.018225000000       6.486837959900       7.499980652500
       256    1       64.203000000000       9.266912959900      10.647519347500
       257    2       65.808075000000       2.780075000000       9.073750000000
       258    2       69.018225000000       8.340225000000       9.073750000000
       259    1       64.203000000000       3.706762959900      10.647519347500
       260    1       64.203000000000       3.706762959900       7.499980652500
       261    1       67.413150000000       9.266912959900      10.647519347500
       262    1       67.413150000000       9.266912959900       7.499980652500
       263    2       67.413150000000       0.000000000000       9.073750000000
       264    2       64.203000000000       5.560150000000       9.073750000000
       265    1       73.833450000000       3.706762959900       7.499980652500
       266    1       75.438525000000       0.926687959900      10.647519347500
       267    1       75.438525000000       0.926687959900       7.499980652500
       268    1       70.623300000000       9.266912959900       7.499980652500
       269    1       72.228375000000       6.486837959900       7.499980652500
       270    1       72.228375000000       6.486837959900      10.647519347500
       271    1       72.228375000000       0.926687959900      10.647519347500
       272    1       75.438525000000       6.486837959900      10.647519347500
       273    2       70.623300000000       0.000000000000       9.073750000000
       274    1       72.228375000000       0.926687959900       7.499980652500
       275    2       75.438525000000       2.780075000000       9.073750000000
       276    2       73.833450000000       5.560150000000       9.073750000000
       277    2       72.228375000000       8.340225000000       9.073750000000
       278    1       73.833450000000       3.706762959900      10.647519347500
       279    1       75.438525000000       6.486837959900       7.499980652500
       280    1       70.623300000000       9.266912959900      10.647519347500
       281    2       72.228375000000       2.780075000000       9.073750000000
       282    2       75.438525000000       8.340225000000       9.073750000000
       283    1       70.623300000000       3.706762959900      10.647519347500
       284    1       70.623300000000       3.706762959900       7.499980652500
       285    1       73.833450000000       9.266912959900      10.647519347500
       286    1       73.833450000000       9.266912959900       7.499980652500
       287    2       73.833450000000       0.000000000000       9.073750000000
       288    2       70.623300000000       5.560150000000       9.073750000000
       289    1       80.253750000000       3.706762959900       7.499980652500
       290    1       81.858825000000       0.926687959900      10.647519347500
       291    1       81.858825000000       0.926687959900       7.499980652500
       292    1       77.043600000000       9.266912959900       7.499980652500
       293    1       78.648675000000       6.486837959900       7.499980652500
       294    1       78.648675000000       6.486837959900      10.647519347500
       295    1       78.648675000000       0.926687959900      10.647519347500
       296    1       81.858825000000       6.486837959900      10.647519347500
       297    2       77.043600000000       0.000000000000       9.073750000000
       298    1       78.648675000000       0.926687959900       7.499980652500
       299    2       81.858825000000       2.780075000000       9.073750000000
       300    2       80.253750000000       5.560150000000       9.073750000000
       301    2       78.648675000000       8.340225000000       9.073750000000
       302    1       80.253750000000       3.706762959900      10.647519347500
       303    1       81.858825000000       6.486837959900       7.499980652500
       304    1       77.043600000000       9.266912959900      10.647519347500
       305    2       78.648675000000       2.780075000000       9.073750000000
       306    2       81.858825000000       8.340225000000       9.073750000000
       307    1       77.043600000000       3.706762959900      10.647519347500
       308    1       77.043600000000       3.706762959900       7.499980652500
       309    1       80.253750000000       9.266912959900      10.647519347500
       310    1       80.253750000000       9.266912959900       7.499980652500
       311    2       80.253750000000       0.000000000000       9.073750000000
       312    2       77.043600000000       5.560150000000       9.073750000000
       313    1       86.674050000000       3.706762959900       7.499980652500
       314    1       88.279125000000       0.926687959900      10.647519347500
       315    1       88.279125000000       0.926687959900       7.499980652500
       316    1       83.463900000000       9.266912959900       7.499980652500
       317    1       85.068975000000       6.486837959900       7.499980652500
       318    1       85.068975000000       6.486837959900      10.647519347500
       319    1       85.068975000000       0.926687959900      10.647519347500
       320    1       88.279125000000       6.486837959900      10.647519347500
       321    2       83.463900000000       0.000000000000       9.073750000000
       322    1       85.068975000000       0.926687959900       7.499980652500
       323    2       88.279125000000       2.780075000000       9.073750000000
       324    2       86.674050000000       5.560150000000       9.073750000000
       325    2       85.068975000000       8.340225000000       9.073750000000
       326    1       86.674050000000       3.706762959900      10.647519347500
       327    1       88.279125000000       6.486837959900       7.499980652500
       328    1       83.463900000000       9.266912959900      10.647519347500
       329    2       85.068975000000       2.780075000000       9.073750000000
       330    2       88.279125000000       8.340225000000       9.073750000000
       331    1       83.463900000000       3.706762959900      10.647519347500
       332    1       83.463900000000       3.706762959900       7.499980652500
       333    1       86.674050000000       9.266912959900      10.647519347500
       334    1       86.674050000000       9.266912959900       7.499980652500
       335    2       86.674050000000       0.000000000000       9.073750000000
       336    2       83.463900000000       5.560150000000       9.073750000000
       337    1       93.094350000000       3.706762959900       7.499980652500
       338    1       94.699425000000       0.926687959900      10.647519347500
       339    1       94.699425000000       0.926687959900       7.499980652500
       340    1       89.884200000000       9.266912959900       7.499980652500
       341    1       91.489275000000       6.486837959900       7.499980652500
       342    1       91.489275000000       6.486837959900      10.647519347500
       343    1       91.489275000000       0.926687959900      10.647519347500
       344    1       94.699425000000       6.486837959900      10.647519347500
       345    2       89.884200000000       0.000000000000       9.073750000000
       346    1       91.489275000000       0.926687959900       7.499980652500
       347    2       94.699425000000       2.780075000000       9.073750000000
       348    2       93.094350000000       5.560150000000       9.073750000000
       349    2       91.489275000000       8.340225000000       9.073750000000
       350    1       93.094350000000       3.706762959900      10.647519347500
       351    1       94.699425000000       6.486837959900       7.499980652500
       352    1       89.884200000000       9.266912959900      10.647519347500
       353    2       91.489275000000       2.780075000000       9.073750000000
       354    2       94.699425000000       8.340225000000       9.073750000000
       355    1       89.884200000000       3.706762959900      10.647519347500
       356    1       89.884200000000       3.706762959900       7.499980652500
       357    1       93.094350000000       9.266912959900      10.647519347500
       358    1       93.094350000000       9.266912959900       7.499980652500
       359    2       93.094350000000       0.000000000000       9.073750000000
       360    2       89.884200000000       5.560150000000       9.073750000000
       361    1       99.514650000000       3.706762959900       7.499980652500
       362    1      101.119725000000       0.926687959900      10.647519347500
       363    1      101.119725000000       0.926687959900       7.499980652500
       364    1       96.304500000000       9.266912959900       7.499980652500
       365    1       97.909575000000       6.486837959900       7.499980652500
       366    1       97.909575000000       6.486837959900      10.647519347500
       367    1       97.909575000000       0.926687959900      10.647519347500
       368    1      101.119725000000       6.486837959900      10.647519347500
       369    2       96.304500000000       0.000000000000       9.073750000000
       370    1       97.909575000000       0.926687959900       7.499980652500