 # Fe8 O16
  
        5016  atoms
           2  atom types
 
      0.000000000000     102.292200000000  xlo xhi
      0.000000000000     102.576100000000  ylo yhi
      0.000000000000      17.219900000000  zlo zhi
 
Masses
 
            1   55.84500000             # Fe
            2   15.99900000             # O
 
Atoms # atomic
 
         1    1        5.383800000000       0.000000000000       8.609950000000
         2    1        2.691900000000       4.662550000000       8.609950000000
         3    2        2.691900000000       3.108363558300       7.459798439200
         4    2        5.383800000000       7.770913558300       7.459798439200
         5    2        4.037850000000       0.777088558300       7.459798439200
         6    2        1.345950000000       5.439638558300       7.459798439200
         7    2        2.691900000000       3.108363558300       9.760101560800
         8    2        5.383800000000       7.770913558300       9.760101560800
         9    1        4.037850000000       2.331275000000       8.609950000000
        10    1        1.345950000000       6.993825000000       8.609950000000
        11    2        5.383800000000       3.108363558300       7.459798439200
        12    2        2.691900000000       7.770913558300       7.459798439200
        13    2        0.000000000000       3.108363558300       9.760101560800
        14    2        2.691900000000       7.770913558300       9.760101560800
        15    1        1.345950000000       2.331275000000       8.609950000000
        16    1        4.037850000000       6.993825000000       8.609950000000
        17    2        4.037850000000       0.777088558300       9.760101560800
        18    2        1.345950000000       5.439638558300       9.760101560800
        19    1        2.691900000000       0.000000000000       8.609950000000
        20    1        5.383800000000       4.662550000000       8.609950000000
        21    2        1.345950000000       0.777088558300       9.760101560800
        22    2        4.037850000000       5.439638558300       9.760101560800
        23    2        1.345950000000       0.777088558300       7.459798439200
        24    2        4.037850000000       5.439638558300       7.459798439200
        25    1       10.767600000000       0.000000000000       8.609950000000
        26    1        8.075700000000       4.662550000000       8.609950000000
        27    2        8.075700000000       3.108363558300       7.459798439200
        28    2       10.767600000000       7.770913558300       7.459798439200
        29    2        9.421650000000       0.777088558300       7.459798439200
        30    2        6.729750000000       5.439638558300       7.459798439200
        31    2        8.075700000000       3.108363558300       9.760101560800
        32    2       10.767600000000       7.770913558300       9.760101560800
        33    1        9.421650000000       2.331275000000       8.609950000000
        34    1        6.729750000000       6.993825000000       8.609950000000
        35    2       10.767600000000       3.108363558300       7.459798439200
        36    2        8.075700000000       7.770913558300       7.459798439200
        37    2        5.383800000000       3.108363558300       9.760101560800
        38    2        8.075700000000       7.770913558300       9.760101560800
        39    1        6.729750000000       2.331275000000       8.609950000000
        40    1        9.421650000000       6.993825000000       8.609950000000
        41    2        9.421650000000       0.777088558300       9.760101560800
        42    2        6.729750000000       5.439638558300       9.760101560800
        43    1        8.075700000000       0.000000000000       8.609950000000
        44    1       10.767600000000       4.662550000000       8.609950000000
        45    2        6.729750000000       0.777088558300       9.760101560800
        46    2        9.421650000000       5.439638558300       9.760101560800
        47    2        6.729750000000       0.777088558300       7.459798439200
        48    2        9.421650000000       5.439638558300       7.459798439200
        49    1       16.151400000000       0.000000000000       8.609950000000
        50    1       13.459500000000       4.662550000000       8.609950000000
        51    2       13.459500000000       3.108363558300       7.459798439200
        52    2       16.151400000000       7.770913558300       7.459798439200
        53    2       14.805450000000       0.777088558300       7.459798439200
        54    2       12.113550000000       5.439638558300       7.459798439200
        55    2       13.459500000000       3.108363558300       9.760101560800
        56    2       16.151400000000       7.770913558300       9.760101560800
        57    1       14.805450000000       2.331275000000       8.609950000000
        58    1       12.113550000000       6.993825000000       8.609950000000
        59    2       16.151400000000       3.108363558300       7.459798439200
        60    2       13.459500000000       7.770913558300       7.459798439200
        61    2       10.767600000000       3.108363558300       9.760101560800
        62    2       13.459500000000       7.770913558300       9.760101560800
        63    1       12.113550000000       2.331275000000       8.609950000000
        64    1       14.805450000000       6.993825000000       8.609950000000
        65    2       14.805450000000       0.777088558300       9.760101560800
        66    2       12.113550000000       5.439638558300       9.760101560800
        67    1       13.459500000000       0.000000000000       8.609950000000
        68    1       16.151400000000       4.662550000000       8.609950000000
        69    2       12.113550000000       0.777088558300       9.760101560800
        70    2       14.805450000000       5.439638558300       9.760101560800
        71    2       12.113550000000       0.777088558300       7.459798439200
        72    2       14.805450000000       5.439638558300       7.459798439200
        73    1       21.535200000000       0.000000000000       8.609950000000
        74    1       18.843300000000       4.662550000000       8.609950000000
        75    2       18.843300000000       3.108363558300       7.459798439200
        76    2       21.535200000000       7.770913558300       7.459798439200
        77    2       20.189250000000       0.777088558300       7.459798439200
        78    2       17.497350000000       5.439638558300       7.459798439200
        79    2       18.843300000000       3.108363558300       9.760101560800
        80    2       21.535200000000       7.770913558300       9.760101560800
        81    1       20.189250000000       2.331275000000       8.609950000000
        82    1       17.497350000000       6.993825000000       8.609950000000
        83    2       21.535200000000       3.108363558300       7.459798439200
        84    2       18.843300000000       7.770913558300       7.459798439200
        85    2       16.151400000000       3.108363558300       9.760101560800
        86    2       18.843300000000       7.770913558300       9.760101560800
        87    1       17.497350000000       2.331275000000       8.609950000000
        88    1       20.189250000000       6.993825000000       8.609950000000
        89    2       20.189250000000       0.777088558300       9.760101560800
        90    2       17.497350000000       5.439638558300       9.760101560800
        91    1       18.843300000000       0.000000000000       8.609950000000
        92    1       21.535200000000       4.662550000000       8.609950000000
        93    2       17.497350000000       0.777088558300       9.760101560800
        94    2       20.189250000000       5.439638558300       9.760101560800
        95    2       17.497350000000       0.777088558300       7.459798439200
        96    2       20.189250000000       5.439638558300       7.459798439200
        97    1       26.919000000000       0.000000000000       8.609950000000
        98    1       24.227100000000       4.662550000000       8.609950000000
        99    2       24.227100000000       3.108363558300       7.459798439200
       100    2       26.919000000000       7.770913558300       7.459798439200
       101    2       25.573050000000       0.777088558300       7.459798439200
       102    2       22.881150000000       5.439638558300       7.459798439200
       103    2       24.227100000000       3.108363558300       9.760101560800
       104    2       26.919000000000       7.770913558300       9.760101560800
       105    1       25.573050000000       2.331275000000       8.609950000000
       106    1       22.881150000000       6.993825000000       8.609950000000
       107    2       26.919000000000       3.108363558300       7.459798439200
       108    2       24.227100000000       7.770913558300       7.459798439200
       109    2       21.535200000000       3.108363558300       9.760101560800
       110    2       24.227100000000       7.770913558300       9.760101560800
       111    1       22.881150000000       2.331275000000       8.609950000000
       112    1       25.573050000000       6.993825000000       8.609950000000
       113    2       25.573050000000       0.777088558300       9.760101560800
       114    2       22.881150000000       5.439638558300       9.760101560800
       115    1       24.227100000000       0.000000000000       8.609950000000
       116    1       26.919000000000       4.662550000000       8.609950000000
       117    2       22.881150000000       0.777088558300       9.760101560800
       118    2       25.573050000000       5.439638558300       9.760101560800
       119    2       22.881150000000       0.777088558300       7.459798439200
       120    2       25.573050000000       5.439638558300       7.459798439200
       121    1       32.302800000000       0.000000000000       8.609950000000
       122    1       29.610900000000       4.662550000000       8.609950000000
       123    2       29.610900000000       3.108363558300       7.459798439200
       124    2       32.302800000000       7.770913558300       7.459798439200
       125    2       30.956850000000       0.777088558300       7.459798439200
       126    2       28.264950000000       5.439638558300       7.459798439200
       127    2       29.610900000000       3.108363558300       9.760101560800
       128    2       32.302800000000       7.770913558300       9.760101560800
       129    1       30.956850000000       2.331275000000       8.609950000000
       130    1       28.264950000000       6.993825000000       8.609950000000
       131    2       32.302800000000       3.108363558300       7.459798439200
       132    2       29.610900000000       7.770913558300       7.459798439200
       133    2       26.919000000000       3.108363558300       9.760101560800
       134    2       29.610900000000       7.770913558300       9.760101560800
       135    1       28.264950000000       2.331275000000       8.609950000000
       136    1       30.956850000000       6.993825000000       8.609950000000
       137    2       30.956850000000       0.777088558300       9.760101560800
       138    2       28.264950000000       5.439638558300       9.760101560800
       139    1       29.610900000000       0.000000000000       8.609950000000
       140    1       32.302800000000       4.662550000000       8.609950000000
       141    2       28.264950000000       0.777088558300       9.760101560800
       142    2       30.956850000000       5.439638558300       9.760101560800
       143    2       28.264950000000       0.777088558300       7.459798439200
       144    2       30.956850000000       5.439638558300       7.459798439200
       145    1       37.686600000000       0.000000000000       8.609950000000
       146    1       34.994700000000       4.662550000000       8.609950000000
       147    2       34.994700000000       3.108363558300       7.459798439200
       148    2       37.686600000000       7.770913558300       7.459798439200
       149    2       36.340650000000       0.777088558300       7.459798439200
       150    2       33.648750000000       5.439638558300       7.459798439200
       151    2       34.994700000000       3.108363558300       9.760101560800
       152    2       37.686600000000       7.770913558300       9.760101560800
       153    1       36.340650000000       2.331275000000       8.609950000000
       154    1       33.648750000000       6.993825000000       8.609950000000
       155    2       37.686600000000       3.108363558300       7.459798439200
       156    2       34.994700000000       7.770913558300       7.459798439200
       157    2       32.302800000000       3.108363558300       9.760101560800
       158    2       34.994700000000       7.770913558300       9.760101560800
       159    1       33.648750000000       2.331275000000       8.609950000000
       160    1       36.340650000000       6.993825000000       8.609950000000
       161    2       36.340650000000       0.777088558300       9.760101560800
       162    2       33.648750000000       5.439638558300       9.760101560800
       163    1       34.994700000000       0.000000000000       8.609950000000
       164    1       37.686600000000       4.662550000000       8.609950000000
       165    2       33.648750000000       0.777088558300       9.760101560800
       166    2       36.340650000000       5.439638558300       9.760101560800
       167    2       33.648750000000       0.777088558300       7.459798439200
       168    2       36.340650000000       5.439638558300       7.459798439200
       169    1       43.070400000000       0.000000000000       8.609950000000
       170    1       40.378500000000       4.662550000000       8.609950000000
       171    2       40.378500000000       3.108363558300       7.459798439200
       172    2       43.070400000000       7.770913558300       7.459798439200
       173    2       41.724450000000       0.777088558300       7.459798439200
       174    2       39.032550000000       5.439638558300       7.459798439200
       175    2       40.378500000000       3.108363558300       9.760101560800
       176    2       43.070400000000       7.770913558300       9.760101560800
       177    1       41.724450000000       2.331275000000       8.609950000000
       178    1       39.032550000000       6.993825000000       8.609950000000
       179    2       43.070400000000       3.108363558300       7.459798439200
       180    2       40.378500000000       7.770913558300       7.459798439200
       181    2       37.686600000000       3.108363558300       9.760101560800
       182    2       40.378500000000       7.770913558300       9.760101560800
       183    1       39.032550000000       2.331275000000       8.609950000000
       184    1       41.724450000000       6.993825000000       8.609950000000
       185    2       41.724450000000       0.777088558300       9.760101560800
       186    2       39.032550000000       5.439638558300       9.760101560800
       187    1       40.378500000000       0.000000000000       8.609950000000
       188    1       43.070400000000       4.662550000000       8.609950000000
       189    2       39.032550000000       0.777088558300       9.760101560800
       190    2       41.724450000000       5.439638558300       9.760101560800
       191    2       39.032550000000       0.777088558300       7.459798439200
       192    2       41.724450000000       5.439638558300       7.459798439200
       193    1       48.454200000000       0.000000000000       8.609950000000
       194    1       45.762300000000       4.662550000000       8.609950000000
       195    2       45.762300000000       3.108363558300       7.459798439200
       196    2       48.454200000000       7.770913558300       7.459798439200
       197    2       47.108250000000       0.777088558300       7.459798439200
       198    2       44.416350000000       5.439638558300       7.459798439200
       199    2       45.762300000000       3.108363558300       9.760101560800
       200    2       48.454200000000       7.770913558300       9.760101560800
       201    1       47.108250000000       2.331275000000       8.609950000000
       202    1       44.416350000000       6.993825000000       8.609950000000
       203    2       48.454200000000       3.108363558300       7.459798439200
       204    2       45.762300000000       7.770913558300       7.459798439200
       205    2       43.070400000000       3.108363558300       9.760101560800
       206    2       45.762300000000       7.770913558300       9.760101560800
       207    1       44.416350000000       2.331275000000       8.609950000000
       208    1       47.108250000000       6.993825000000       8.609950000000
       209    2       47.108250000000       0.777088558300       9.760101560800
       210    2       44.416350000000       5.439638558300       9.760101560800
       211    1       45.762300000000       0.000000000000       8.609950000000
       212    1       48.454200000000       4.662550000000       8.609950000000
       213    2       44.416350000000       0.777088558300       9.760101560800
       214    2       47.108250000000       5.439638558300       9.760101560800
       215    2       44.416350000000       0.777088558300       7.459798439200
       216    2       47.108250000000       5.439638558300       7.459798439200
       217    1       53.838000000000       0.000000000000       8.609950000000
       218    1       51.146100000000       4.662550000000       8.609950000000
       219    2       51.146100000000       3.108363558300       7.459798439200
       220    2       53.838000000000       7.770913558300       7.459798439200
       221    2       52.492050000000       0.777088558300       7.459798439200
       222    2       49.800150000000       5.439638558300       7.459798439200
       223    2       51.146100000000       3.108363558300       9.760101560800
       224    2       53.838000000000       7.770913558300       9.760101560800
       225    1       52.492050000000       2.331275000000       8.609950000000
       226    1       49.800150000000       6.993825000000       8.609950000000
       227    2       53.838000000000       3.108363558300       7.459798439200
       228    2       51.146100000000       7.770913558300       7.459798439200
       229    2       48.454200000000       3.108363558300       9.760101560800
       230    2       51.146100000000       7.770913558300       9.760101560800
       231    1       49.800150000000       2.331275000000       8.609950000000
       232    1       52.492050000000       6.993825000000       8.609950000000
       233    2       52.492050000000       0.777088558300       9.760101560800
       234    2       49.800150000000       5.439638558300       9.760101560800
       235    1       51.146100000000       0.000000000000       8.609950000000
       236    1       53.838000000000       4.662550000000       8.609950000000
       237    2       49.800150000000       0.777088558300       9.760101560800
       238    2       52.492050000000       5.439638558300       9.760101560800
       239    2       49.800150000000       0.777088558300       7.459798439200
       240    2       52.492050000000       5.439638558300       7.459798439200
       241    1       59.221800000000       0.000000000000       8.609950000000
       242    1       56.529900000000       4.662550000000       8.609950000000
       243    2       56.529900000000       3.108363558300       7.459798439200
       244    2       59.221800000000       7.770913558300       7.459798439200
       245    2       57.875850000000       0.777088558300       7.459798439200
       246    2       55.183950000000       5.439638558300       7.459798439200
       247    2       56.529900000000       3.108363558300       9.760101560800
       248    2       59.221800000000       7.770913558300       9.760101560800
       249    1       57.875850000000       2.331275000000       8.609950000000
       250    1       55.183950000000       6.993825000000       8.609950000000
       251    2       59.221800000000       3.108363558300       7.459798439200
       252    2       56.529900000000       7.770913558300       7.459798439200
       253    2       53.838000000000       3.108363558300       9.760101560800
       254    2       56.529900000000       7.770913558300       9.760101560800
       255    1       55.183950000000       2.331275000000       8.609950000000
       256    1       57.875850000000       6.993825000000       8.609950000000
       257    2       57.875850000000       0.777088558300       9.760101560800
       258    2       55.183950000000       5.439638558300       9.760101560800
       259    1       56.529900000000       0.000000000000       8.609950000000
       260    1       59.221800000000       4.662550000000       8.609950000000
       261    2       55.183950000000       0.777088558300       9.760101560800
       262    2       57.875850000000       5.439638558300       9.760101560800
       263    2       55.183950000000       0.777088558300       7.459798439200
       264    2       57.875850000000       5.439638558300       7.459798439200
       265    1       64.605600000000       0.000000000000       8.609950000000
       266    1       61.913700000000       4.662550000000       8.609950000000
       267    2       61.913700000000       3.108363558300       7.459798439200
       268    2       64.605600000000       7.770913558300       7.459798439200
       269    2       63.259650000000       0.777088558300       7.459798439200
       270    2       60.567750000000       5.439638558300       7.459798439200
       271    2       61.913700000000       3.108363558300       9.760101560800
       272    2       64.605600000000       7.770913558300       9.760101560800
       273    1       63.259650000000       2.331275000000       8.609950000000
       274    1       60.567750000000       6.993825000000       8.609950000000
       275    2       64.605600000000       3.108363558300       7.459798439200
       276    2       61.913700000000       7.770913558300       7.459798439200
       277    2       59.221800000000       3.108363558300       9.760101560800
       278    2       61.913700000000       7.770913558300       9.760101560800
       279    1       60.567750000000       2.331275000000       8.609950000000
       280    1       63.259650000000       6.993825000000       8.609950000000
       281    2       63.259650000000       0.777088558300       9.760101560800
       282    2       60.567750000000       5.439638558300       9.760101560800
       283    1       61.913700000000       0.000000000000       8.609950000000
       284    1       64.605600000000       4.662550000000       8.609950000000
       285    2       60.567750000000       0.777088558300       9.760101560800
       286    2       63.259650000000       5.439638558300       9.760101560800
       287    2       60.567750000000       0.777088558300       7.459798439200
       288    2       63.259650000000       5.439638558300       7.459798439200
       289    1       69.989400000000       0.000000000000       8.609950000000
       290    1       67.297500000000       4.662550000000       8.609950000000
       291    2       67.297500000000       3.108363558300       7.459798439200
       292    2       69.989400000000       7.770913558300       7.459798439200
       293    2       68.643450000000       0.777088558300       7.459798439200
       294    2       65.951550000000       5.439638558300       7.459798439200
       295    2       67.297500000000       3.108363558300       9.760101560800
       296    2       69.989400000000       7.770913558300       9.760101560800
       297    1       68.643450000000       2.331275000000       8.609950000000
       298    1       65.951550000000       6.993825000000       8.609950000000
       299    2       69.989400000000       3.108363558300       7.459798439200
       300    2       67.297500000000       7.770913558300       7.459798439200
       301    2       64.605600000000       3.108363558300       9.760101560800
       302    2       67.297500000000       7.770913558300       9.760101560800
       303    1       65.951550000000       2.331275000000       8.609950000000
       304    1       68.643450000000       6.993825000000       8.609950000000
       305    2       68.643450000000       0.777088558300       9.760101560800
       306    2       65.951550000000       5.439638558300       9.760101560800
       307    1       67.297500000000       0.000000000000       8.609950000000
       308    1       69.989400000000       4.662550000000       8.609950000000
       309    2       65.951550000000       0.777088558300       9.760101560800
       310    2       68.643450000000       5.439638558300       9.760101560800
       311    2       65.951550000000       0.777088558300       7.459798439200
       312    2       68.643450000000       5.439638558300       7.459798439200
       313    1       75.373200000000       0.000000000000       8.609950000000
       314    1       72.681300000000       4.662550000000       8.609950000000
       315    2       72.681300000000       3.108363558300       7.459798439200
       316    2       75.373200000000       7.770913558300       7.459798439200
       317    2       74.027250000000       0.777088558300       7.459798439200
       318    2       71.335350000000       5.439638558300       7.459798439200
       319    2       72.681300000000       3.108363558300       9.760101560800
       320    2       75.373200000000       7.770913558300       9.760101560800
       321    1       74.027250000000       2.331275000000       8.609950000000
       322    1       71.335350000000       6.993825000000       8.609950000000
       323    2       75.373200000000       3.108363558300       7.459798439200
       324    2       72.681300000000       7.770913558300       7.459798439200
       325    2       69.989400000000       3.108363558300       9.760101560800
       326    2       72.681300000000       7.770913558300       9.760101560800
       327    1       71.335350000000       2.331275000000       8.609950000000
       328    1       74.027250000000       6.993825000000       8.609950000000
       329    2       74.027250000000       0.777088558300       9.760101560800
       330    2       71.335350000000       5.439638558300       9.760101560800
       331    1       72.681300000000       0.000000000000       8.609950000000
       332    1       75.373200000000       4.662550000000       8.609950000000
       333    2       71.335350000000       0.777088558300       9.760101560800
       334    2       74.027250000000       5.439638558300       9.760101560800
       335    2       71.335350000000       0.777088558300       7.459798439200
       336    2       74.027250000000       5.439638558300       7.459798439200
       337    1       80.757000000000       0.000000000000       8.609950000000
       338    1       78.065100000000       4.662550000000       8.609950000000
       339    2       78.065100000000       3.108363558300       7.459798439200
       340    2       80.757000000000       7.770913558300       7.459798439200
       341    2       79.411050000000       0.777088558300       7.459798439200
       342    2       76.719150000000       5.439638558300       7.459798439200
       343    2       78.065100000000       3.108363558300       9.760101560800
       344    2       80.757000000000       7.770913558300       9.760101560800
       345    1       79.411050000000       2.331275000000       8.609950000000
       346    1       76.719150000000       6.993825000000       8.609950000000
       347    2       80.757000000000       3.108363558300       7.459798439200
       348    2       78.065100000000       7.770913558300       7.459798439200
       349    2       75.373200000000       3.108363558300       9.760101560800
       350    2       78.065100000000       7.770913558300       9.760101560800
       351    1       76.719150000000       2.331275000000       8.609950000000
       352    1       79.411050000000       6.993825000000       8.609950000000
       353    2       79.411050000000       0.777088558300       9.760101560800
       354    2       76.719150000000       5.439638558300       9.760101560800
       355    1       78.065100000000       0.000000000000       8.609950000000
       356    1       80.757000000000       4.662550000000       8.609950000000
       357    2       76.719150000000       0.777088558300       9.760101560800
       358    2       79.411050000000       5.439638558300       9.760101560800
       359    2       76.719150000000       0.777088558300       7.459798439200
       360    2       79.411050000000       5.439638558300       7.459798439200
       361    1       86.140800000000       0.000000000000       8.609950000000
       362    1       83.448900000000       4.662550000000       8.609950000000
       363    2       83.448900000000       3.108363558300       7.459798439200
       364    2       86.140800000000       7.770913558300       7.459798439200
       365    2       84.794850000000       0.777088558300       7.459798439200
       366    2       82.102950000000       5.439638558300       7.459798439200
       367    2       83.448900000000       3.108363558300       9.760101560800
       368    2       86.140800000000       7.770913558300       9.760101560800
       369    1       84.794850000000       2.331275000000       8.609950000000
       370    1       82.102950000000       6.993825000000       8.609950000000