 # Mo8 Se16
  
        3240  atoms
           2  atom types
 
      0.000000000000      99.592500000000  xlo xhi
      0.000000000000     103.499100000000  ylo yhi
      0.000000000000      18.338100000000  zlo zhi
 
Masses
 
            1   95.96000000             # Mo
            2   78.96000000             # Se
 
Atoms # atomic
 
         1    1        0.000000000000      11.499900000000       9.169050000000
         2    1        3.319750000000       5.749950000000       9.169050000000
         3    1        3.319750000000      11.499900000000       9.169050000000
         4    1        6.639500000000       5.749950000000       9.169050000000
         5    2        1.659875000000       0.958321166700       7.500007828500
         6    2        6.639500000000       3.833296166700      10.838092171500
         7    2        1.659875000000       0.958321166700      10.838092171500
         8    2        4.979625000000       6.708271166700       7.500007828500
         9    2        3.319750000000       9.583246166700      10.838092171500
        10    2        4.979625000000       6.708271166700      10.838092171500
        11    1        4.979625000000       2.874975000000       9.169050000000
        12    1        1.659875000000       8.624925000000       9.169050000000
        13    2        0.000000000000       3.833296166700       7.500007828500
        14    2        3.319750000000       9.583246166700       7.500007828500
        15    2        3.319750000000       3.833296166700       7.500007828500
        16    2        6.639500000000       9.583246166700       7.500007828500
        17    2        4.979625000000       0.958321166700       7.500007828500
        18    2        1.659875000000       6.708271166700       7.500007828500
        19    1        1.659875000000       2.874975000000       9.169050000000
        20    1        4.979625000000       8.624925000000       9.169050000000
        21    2        3.319750000000       3.833296166700      10.838092171500
        22    2        0.000000000000       9.583246166700      10.838092171500
        23    2        4.979625000000       0.958321166700      10.838092171500
        24    2        1.659875000000       6.708271166700      10.838092171500
        25    1        6.639500000000      11.499900000000       9.169050000000
        26    1        9.959250000000       5.749950000000       9.169050000000
        27    1        9.959250000000      11.499900000000       9.169050000000
        28    1       13.279000000000       5.749950000000       9.169050000000
        29    2        8.299375000000       0.958321166700       7.500007828500
        30    2       13.279000000000       3.833296166700      10.838092171500
        31    2        8.299375000000       0.958321166700      10.838092171500
        32    2       11.619125000000       6.708271166700       7.500007828500
        33    2        9.959250000000       9.583246166700      10.838092171500
        34    2       11.619125000000       6.708271166700      10.838092171500
        35    1       11.619125000000       2.874975000000       9.169050000000
        36    1        8.299375000000       8.624925000000       9.169050000000
        37    2        6.639500000000       3.833296166700       7.500007828500
        38    2        9.959250000000       9.583246166700       7.500007828500
        39    2        9.959250000000       3.833296166700       7.500007828500
        40    2       13.279000000000       9.583246166700       7.500007828500
        41    2       11.619125000000       0.958321166700       7.500007828500
        42    2        8.299375000000       6.708271166700       7.500007828500
        43    1        8.299375000000       2.874975000000       9.169050000000
        44    1       11.619125000000       8.624925000000       9.169050000000
        45    2        9.959250000000       3.833296166700      10.838092171500
        46    2        6.639500000000       9.583246166700      10.838092171500
        47    2       11.619125000000       0.958321166700      10.838092171500
        48    2        8.299375000000       6.708271166700      10.838092171500
        49    1       13.279000000000      11.499900000000       9.169050000000
        50    1       16.598750000000       5.749950000000       9.169050000000
        51    1       16.598750000000      11.499900000000       9.169050000000
        52    1       19.918500000000       5.749950000000       9.169050000000
        53    2       14.938875000000       0.958321166700       7.500007828500
        54    2       19.918500000000       3.833296166700      10.838092171500
        55    2       14.938875000000       0.958321166700      10.838092171500
        56    2       18.258625000000       6.708271166700       7.500007828500
        57    2       16.598750000000       9.583246166700      10.838092171500
        58    2       18.258625000000       6.708271166700      10.838092171500
        59    1       18.258625000000       2.874975000000       9.169050000000
        60    1       14.938875000000       8.624925000000       9.169050000000
        61    2       13.279000000000       3.833296166700       7.500007828500
        62    2       16.598750000000       9.583246166700       7.500007828500
        63    2       16.598750000000       3.833296166700       7.500007828500
        64    2       19.918500000000       9.583246166700       7.500007828500
        65    2       18.258625000000       0.958321166700       7.500007828500
        66    2       14.938875000000       6.708271166700       7.500007828500
        67    1       14.938875000000       2.874975000000       9.169050000000
        68    1       18.258625000000       8.624925000000       9.169050000000
        69    2       16.598750000000       3.833296166700      10.838092171500
        70    2       13.279000000000       9.583246166700      10.838092171500
        71    2       18.258625000000       0.958321166700      10.838092171500
        72    2       14.938875000000       6.708271166700      10.838092171500
        73    1       19.918500000000      11.499900000000       9.169050000000
        74    1       23.238250000000       5.749950000000       9.169050000000
        75    1       23.238250000000      11.499900000000       9.169050000000
        76    1       26.558000000000       5.749950000000       9.169050000000
        77    2       21.578375000000       0.958321166700       7.500007828500
        78    2       26.558000000000       3.833296166700      10.838092171500
        79    2       21.578375000000       0.958321166700      10.838092171500
        80    2       24.898125000000       6.708271166700       7.500007828500
        81    2       23.238250000000       9.583246166700      10.838092171500
        82    2       24.898125000000       6.708271166700      10.838092171500
        83    1       24.898125000000       2.874975000000       9.169050000000
        84    1       21.578375000000       8.624925000000       9.169050000000
        85    2       19.918500000000       3.833296166700       7.500007828500
        86    2       23.238250000000       9.583246166700       7.500007828500
        87    2       23.238250000000       3.833296166700       7.500007828500
        88    2       26.558000000000       9.583246166700       7.500007828500
        89    2       24.898125000000       0.958321166700       7.500007828500
        90    2       21.578375000000       6.708271166700       7.500007828500
        91    1       21.578375000000       2.874975000000       9.169050000000
        92    1       24.898125000000       8.624925000000       9.169050000000
        93    2       23.238250000000       3.833296166700      10.838092171500
        94    2       19.918500000000       9.583246166700      10.838092171500
        95    2       24.898125000000       0.958321166700      10.838092171500
        96    2       21.578375000000       6.708271166700      10.838092171500
        97    1       26.558000000000      11.499900000000       9.169050000000
        98    1       29.877750000000       5.749950000000       9.169050000000
        99    1       29.877750000000      11.499900000000       9.169050000000
       100    1       33.197500000000       5.749950000000       9.169050000000
       101    2       28.217875000000       0.958321166700       7.500007828500
       102    2       33.197500000000       3.833296166700      10.838092171500
       103    2       28.217875000000       0.958321166700      10.838092171500
       104    2       31.537625000000       6.708271166700       7.500007828500
       105    2       29.877750000000       9.583246166700      10.838092171500
       106    2       31.537625000000       6.708271166700      10.838092171500
       107    1       31.537625000000       2.874975000000       9.169050000000
       108    1       28.217875000000       8.624925000000       9.169050000000
       109    2       26.558000000000       3.833296166700       7.500007828500
       110    2       29.877750000000       9.583246166700       7.500007828500
       111    2       29.877750000000       3.833296166700       7.500007828500
       112    2       33.197500000000       9.583246166700       7.500007828500
       113    2       31.537625000000       0.958321166700       7.500007828500
       114    2       28.217875000000       6.708271166700       7.500007828500
       115    1       28.217875000000       2.874975000000       9.169050000000
       116    1       31.537625000000       8.624925000000       9.169050000000
       117    2       29.877750000000       3.833296166700      10.838092171500
       118    2       26.558000000000       9.583246166700      10.838092171500
       119    2       31.537625000000       0.958321166700      10.838092171500
       120    2       28.217875000000       6.708271166700      10.838092171500
       121    1       33.197500000000      11.499900000000       9.169050000000
       122    1       36.517250000000       5.749950000000       9.169050000000
       123    1       36.517250000000      11.499900000000       9.169050000000
       124    1       39.837000000000       5.749950000000       9.169050000000
       125    2       34.857375000000       0.958321166700       7.500007828500
       126    2       39.837000000000       3.833296166700      10.838092171500
       127    2       34.857375000000       0.958321166700      10.838092171500
       128    2       38.177125000000       6.708271166700       7.500007828500
       129    2       36.517250000000       9.583246166700      10.838092171500
       130    2       38.177125000000       6.708271166700      10.838092171500
       131    1       38.177125000000       2.874975000000       9.169050000000
       132    1       34.857375000000       8.624925000000       9.169050000000
       133    2       33.197500000000       3.833296166700       7.500007828500
       134    2       36.517250000000       9.583246166700       7.500007828500
       135    2       36.517250000000       3.833296166700       7.500007828500
       136    2       39.837000000000       9.583246166700       7.500007828500
       137    2       38.177125000000       0.958321166700       7.500007828500
       138    2       34.857375000000       6.708271166700       7.500007828500
       139    1       34.857375000000       2.874975000000       9.169050000000
       140    1       38.177125000000       8.624925000000       9.169050000000
       141    2       36.517250000000       3.833296166700      10.838092171500
       142    2       33.197500000000       9.583246166700      10.838092171500
       143    2       38.177125000000       0.958321166700      10.838092171500
       144    2       34.857375000000       6.708271166700      10.838092171500
       145    1       39.837000000000      11.499900000000       9.169050000000
       146    1       43.156750000000       5.749950000000       9.169050000000
       147    1       43.156750000000      11.499900000000       9.169050000000
       148    1       46.476500000000       5.749950000000       9.169050000000
       149    2       41.496875000000       0.958321166700       7.500007828500
       150    2       46.476500000000       3.833296166700      10.838092171500
       151    2       41.496875000000       0.958321166700      10.838092171500
       152    2       44.816625000000       6.708271166700       7.500007828500
       153    2       43.156750000000       9.583246166700      10.838092171500
       154    2       44.816625000000       6.708271166700      10.838092171500
       155    1       44.816625000000       2.874975000000       9.169050000000
       156    1       41.496875000000       8.624925000000       9.169050000000
       157    2       39.837000000000       3.833296166700       7.500007828500
       158    2       43.156750000000       9.583246166700       7.500007828500
       159    2       43.156750000000       3.833296166700       7.500007828500
       160    2       46.476500000000       9.583246166700       7.500007828500
       161    2       44.816625000000       0.958321166700       7.500007828500
       162    2       41.496875000000       6.708271166700       7.500007828500
       163    1       41.496875000000       2.874975000000       9.169050000000
       164    1       44.816625000000       8.624925000000       9.169050000000
       165    2       43.156750000000       3.833296166700      10.838092171500
       166    2       39.837000000000       9.583246166700      10.838092171500
       167    2       44.816625000000       0.958321166700      10.838092171500
       168    2       41.496875000000       6.708271166700      10.838092171500
       169    1       46.476500000000      11.499900000000       9.169050000000
       170    1       49.796250000000       5.749950000000       9.169050000000
       171    1       49.796250000000      11.499900000000       9.169050000000
       172    1       53.116000000000       5.749950000000       9.169050000000
       173    2       48.136375000000       0.958321166700       7.500007828500
       174    2       53.116000000000       3.833296166700      10.838092171500
       175    2       48.136375000000       0.958321166700      10.838092171500
       176    2       51.456125000000       6.708271166700       7.500007828500
       177    2       49.796250000000       9.583246166700      10.838092171500
       178    2       51.456125000000       6.708271166700      10.838092171500
       179    1       51.456125000000       2.874975000000       9.169050000000
       180    1       48.136375000000       8.624925000000       9.169050000000
       181    2       46.476500000000       3.833296166700       7.500007828500
       182    2       49.796250000000       9.583246166700       7.500007828500
       183    2       49.796250000000       3.833296166700       7.500007828500
       184    2       53.116000000000       9.583246166700       7.500007828500
       185    2       51.456125000000       0.958321166700       7.500007828500
       186    2       48.136375000000       6.708271166700       7.500007828500
       187    1       48.136375000000       2.874975000000       9.169050000000
       188    1       51.456125000000       8.624925000000       9.169050000000
       189    2       49.796250000000       3.833296166700      10.838092171500
       190    2       46.476500000000       9.583246166700      10.838092171500
       191    2       51.456125000000       0.958321166700      10.838092171500
       192    2       48.136375000000       6.708271166700      10.838092171500
       193    1       53.116000000000      11.499900000000       9.169050000000
       194    1       56.435750000000       5.749950000000       9.169050000000
       195    1       56.435750000000      11.499900000000       9.169050000000
       196    1       59.755500000000       5.749950000000       9.169050000000
       197    2       54.775875000000       0.958321166700       7.500007828500
       198    2       59.755500000000       3.833296166700      10.838092171500
       199    2       54.775875000000       0.958321166700      10.838092171500
       200    2       58.095625000000       6.708271166700       7.500007828500
       201    2       56.435750000000       9.583246166700      10.838092171500
       202    2       58.095625000000       6.708271166700      10.838092171500
       203    1       58.095625000000       2.874975000000       9.169050000000
       204    1       54.775875000000       8.624925000000       9.169050000000
       205    2       53.116000000000       3.833296166700       7.500007828500
       206    2       56.435750000000       9.583246166700       7.500007828500
       207    2       56.435750000000       3.833296166700       7.500007828500
       208    2       59.755500000000       9.583246166700       7.500007828500
       209    2       58.095625000000       0.958321166700       7.500007828500
       210    2       54.775875000000       6.708271166700       7.500007828500
       211    1       54.775875000000       2.874975000000       9.169050000000
       212    1       58.095625000000       8.624925000000       9.169050000000
       213    2       56.435750000000       3.833296166700      10.838092171500
       214    2       53.116000000000       9.583246166700      10.838092171500
       215    2       58.095625000000       0.958321166700      10.838092171500
       216    2       54.775875000000       6.708271166700      10.838092171500
       217    1       59.755500000000      11.499900000000       9.169050000000
       218    1       63.075250000000       5.749950000000       9.169050000000
       219    1       63.075250000000      11.499900000000       9.169050000000
       220    1       66.395000000000       5.749950000000       9.169050000000
       221    2       61.415375000000       0.958321166700       7.500007828500
       222    2       66.395000000000       3.833296166700      10.838092171500
       223    2       61.415375000000       0.958321166700      10.838092171500
       224    2       64.735125000000       6.708271166700       7.500007828500
       225    2       63.075250000000       9.583246166700      10.838092171500
       226    2       64.735125000000       6.708271166700      10.838092171500
       227    1       64.735125000000       2.874975000000       9.169050000000
       228    1       61.415375000000       8.624925000000       9.169050000000
       229    2       59.755500000000       3.833296166700       7.500007828500
       230    2       63.075250000000       9.583246166700       7.500007828500
       231    2       63.075250000000       3.833296166700       7.500007828500
       232    2       66.395000000000       9.583246166700       7.500007828500
       233    2       64.735125000000       0.958321166700       7.500007828500
       234    2       61.415375000000       6.708271166700       7.500007828500
       235    1       61.415375000000       2.874975000000       9.169050000000
       236    1       64.735125000000       8.624925000000       9.169050000000
       237    2       63.075250000000       3.833296166700      10.838092171500
       238    2       59.755500000000       9.583246166700      10.838092171500
       239    2       64.735125000000       0.958321166700      10.838092171500
       240    2       61.415375000000       6.708271166700      10.838092171500
       241    1       66.395000000000      11.499900000000       9.169050000000
       242    1       69.714750000000       5.749950000000       9.169050000000
       243    1       69.714750000000      11.499900000000       9.169050000000
       244    1       73.034500000000       5.749950000000       9.169050000000
       245    2       68.054875000000       0.958321166700       7.500007828500
       246    2       73.034500000000       3.833296166700      10.838092171500
       247    2       68.054875000000       0.958321166700      10.838092171500
       248    2       71.374625000000       6.708271166700       7.500007828500
       249    2       69.714750000000       9.583246166700      10.838092171500
       250    2       71.374625000000       6.708271166700      10.838092171500
       251    1       71.374625000000       2.874975000000       9.169050000000
       252    1       68.054875000000       8.624925000000       9.169050000000
       253    2       66.395000000000       3.833296166700       7.500007828500
       254    2       69.714750000000       9.583246166700       7.500007828500
       255    2       69.714750000000       3.833296166700       7.500007828500
       256    2       73.034500000000       9.583246166700       7.500007828500
       257    2       71.374625000000       0.958321166700       7.500007828500
       258    2       68.054875000000       6.708271166700       7.500007828500
       259    1       68.054875000000       2.874975000000       9.169050000000
       260    1       71.374625000000       8.624925000000       9.169050000000
       261    2       69.714750000000       3.833296166700      10.838092171500
       262    2       66.395000000000       9.583246166700      10.838092171500
       263    2       71.374625000000       0.958321166700      10.838092171500
       264    2       68.054875000000       6.708271166700      10.838092171500
       265    1       73.034500000000      11.499900000000       9.169050000000
       266    1       76.354250000000       5.749950000000       9.169050000000
       267    1       76.354250000000      11.499900000000       9.169050000000
       268    1       79.674000000000       5.749950000000       9.169050000000
       269    2       74.694375000000       0.958321166700       7.500007828500
       270    2       79.674000000000       3.833296166700      10.838092171500
       271    2       74.694375000000       0.958321166700      10.838092171500
       272    2       78.014125000000       6.708271166700       7.500007828500
       273    2       76.354250000000       9.583246166700      10.838092171500
       274    2       78.014125000000       6.708271166700      10.838092171500
       275    1       78.014125000000       2.874975000000       9.169050000000
       276    1       74.694375000000       8.624925000000       9.169050000000
       277    2       73.034500000000       3.833296166700       7.500007828500
       278    2       76.354250000000       9.583246166700       7.500007828500
       279    2       76.354250000000       3.833296166700       7.500007828500
       280    2       79.674000000000       9.583246166700       7.500007828500
       281    2       78.014125000000       0.958321166700       7.500007828500
       282    2       74.694375000000       6.708271166700       7.500007828500
       283    1       74.694375000000       2.874975000000       9.169050000000
       284    1       78.014125000000       8.624925000000       9.169050000000
       285    2       76.354250000000       3.833296166700      10.838092171500
       286    2       73.034500000000       9.583246166700      10.838092171500
       287    2       78.014125000000       0.958321166700      10.838092171500
       288    2       74.694375000000       6.708271166700      10.838092171500
       289    1       79.674000000000      11.499900000000       9.169050000000
       290    1       82.993750000000       5.749950000000       9.169050000000
       291    1       82.993750000000      11.499900000000       9.169050000000
       292    1       86.313500000000       5.749950000000       9.169050000000
       293    2       81.333875000000       0.958321166700       7.500007828500
       294    2       86.313500000000       3.833296166700      10.838092171500
       295    2       81.333875000000       0.958321166700      10.838092171500
       296    2       84.653625000000       6.708271166700       7.500007828500
       297    2       82.993750000000       9.583246166700      10.838092171500
       298    2       84.653625000000       6.708271166700      10.838092171500
       299    1       84.653625000000       2.874975000000       9.169050000000
       300    1       81.333875000000       8.624925000000       9.169050000000
       301    2       79.674000000000       3.833296166700       7.500007828500
       302    2       82.993750000000       9.583246166700       7.500007828500
       303    2       82.993750000000       3.833296166700       7.500007828500
       304    2       86.313500000000       9.583246166700       7.500007828500
       305    2       84.653625000000       0.958321166700       7.500007828500
       306    2       81.333875000000       6.708271166700       7.500007828500
       307    1       81.333875000000       2.874975000000       9.169050000000
       308    1       84.653625000000       8.624925000000       9.169050000000
       309    2       82.993750000000       3.833296166700      10.838092171500
       310    2       79.674000000000       9.583246166700      10.838092171500
       311    2       84.653625000000       0.958321166700      10.838092171500
       312    2       81.333875000000       6.708271166700      10.838092171500
       313    1       86.313500000000      11.499900000000       9.169050000000
       314    1       89.633250000000       5.749950000000       9.169050000000
       315    1       89.633250000000      11.499900000000       9.169050000000
       316    1       92.953000000000       5.749950000000       9.169050000000
       317    2       87.973375000000       0.958321166700       7.500007828500
       318    2       92.953000000000       3.833296166700      10.838092171500
       319    2       87.973375000000       0.958321166700      10.838092171500
       320    2       91.293125000000       6.708271166700       7.500007828500
       321    2       89.633250000000       9.583246166700      10.838092171500
       322    2       91.293125000000       6.708271166700      10.838092171500
       323    1       91.293125000000       2.874975000000       9.169050000000
       324    1       87.973375000000       8.624925000000       9.169050000000
       325    2       86.313500000000       3.833296166700       7.500007828500
       326    2       89.633250000000       9.583246166700       7.500007828500
       327    2       89.633250000000       3.833296166700       7.500007828500
       328    2       92.953000000000       9.583246166700       7.500007828500
       329    2       91.293125000000       0.958321166700       7.500007828500
       330    2       87.973375000000       6.708271166700       7.500007828500
       331    1       87.973375000000       2.874975000000       9.169050000000
       332    1       91.293125000000       8.624925000000       9.169050000000
       333    2       89.633250000000       3.833296166700      10.838092171500
       334    2       86.313500000000       9.583246166700      10.838092171500
       335    2       91.293125000000       0.958321166700      10.838092171500
       336    2       87.973375000000       6.708271166700      10.838092171500
       337    1       92.953000000000      11.499900000000       9.169050000000
       338    1       96.272750000000       5.749950000000       9.169050000000
       339    1       96.272750000000      11.499900000000       9.169050000000
       340    1       99.592500000000       5.749950000000       9.169050000000
       341    2       94.612875000000       0.958321166700       7.500007828500
       342    2       99.592500000000       3.833296166700      10.838092171500
       343    2       94.612875000000       0.958321166700      10.838092171500
       344    2       97.932625000000       6.708271166700       7.500007828500
       345    2       96.272750000000       9.583246166700      10.838092171500
       346    2       97.932625000000       6.708271166700      10.838092171500
       347    1       97.932625000000       2.874975000000       9.169050000000
       348    1       94.612875000000       8.624925000000       9.169050000000
       349    2       92.953000000000       3.833296166700       7.500007828500
       350    2       96.272750000000       9.583246166700       7.500007828500
       351    2       96.272750000000       3.833296166700       7.500007828500
       352    2       99.592500000000       9.583246166700       7.500007828500
       353    2       97.932625000000       0.958321166700       7.500007828500
       354    2       94.612875000000       6.708271166700       7.500007828500
       355    1       94.612875000000       2.874975000000       9.169050000000
       356    1       97.932625000000       8.624925000000       9.169050000000
       357    2       96.272750000000       3.833296166700      10.838092171500
       358    2       92.953000000000       9.583246166700      10.838092171500
       359    2       97.932625000000       0.958321166700      10.838092171500
       360    2       94.612875000000       6.708271166700      10.838092171500
       361    1        0.000000000000      22.999800000000       9.169050000000
       362    1        3.319750000000      17.249850000000       9.169050000000
       363    1        3.319750000000      22.999800000000       9.169050000000
       364    1        6.639500000000      17.249850000000       9.169050000000
       365    2        1.659875000000      12.458221166700       7.500007828500
       366    2        6.639500000000      15.333196166700      10.838092171500
       367    2        1.659875000000      12.458221166700      10.838092171500
       368    2        4.979625000000      18.208171166700       7.500007828500
       369    2        3.319750000000      21.083146166700      10.838092171500
       370    2        4.979625000000      18.208171166700      10.838092171500