 # O16 Mo8
  
        4320  atoms
           2  atom types
 
      0.000000000000     101.538000000000  xlo xhi
      0.000000000000      97.705000000000  ylo yhi
      0.000000000000      17.450000000000  zlo zhi
 
Masses
 
            1   15.99900000             # O
            2   95.96000000             # Mo
 
Atoms # atomic
 
         1    1        1.410250000000       0.814205076500       9.950007450000
         2    1        4.230750000000       5.699455076500       9.950007450000
         3    2        0.000000000000       0.000000000000       8.725000000000
         4    1        4.230750000000       0.814205076500       9.950007450000
         5    2        2.820500000000       0.000000000000       8.725000000000
         6    1        1.410250000000       5.699455076500       9.950007450000
         7    2        2.820500000000       4.885250000000       8.725000000000
         8    2        0.000000000000       4.885250000000       8.725000000000
         9    1        0.000000000000       3.256830076500       9.950007450000
        10    1        2.820500000000       8.142080076500       9.950007450000
        11    1        5.641000000000       3.256830076500       7.499992550000
        12    1        2.820500000000       8.142080076500       7.499992550000
        13    2        4.230750000000       2.442625000000       8.725000000000
        14    2        1.410250000000       7.327875000000       8.725000000000
        15    1        2.820500000000       3.256830076500       9.950007450000
        16    1        5.641000000000       8.142080076500       9.950007450000
        17    2        1.410250000000       2.442625000000       8.725000000000
        18    2        4.230750000000       7.327875000000       8.725000000000
        19    1        4.230750000000       0.814205076500       7.499992550000
        20    1        1.410250000000       5.699455076500       7.499992550000
        21    1        2.820500000000       3.256830076500       7.499992550000
        22    1        0.000000000000       8.142080076500       7.499992550000
        23    1        1.410250000000       0.814205076500       7.499992550000
        24    1        4.230750000000       5.699455076500       7.499992550000
        25    1        7.051250000000       0.814205076500       9.950007450000
        26    1        9.871750000000       5.699455076500       9.950007450000
        27    2        5.641000000000       0.000000000000       8.725000000000
        28    1        9.871750000000       0.814205076500       9.950007450000
        29    2        8.461500000000       0.000000000000       8.725000000000
        30    1        7.051250000000       5.699455076500       9.950007450000
        31    2        8.461500000000       4.885250000000       8.725000000000
        32    2        5.641000000000       4.885250000000       8.725000000000
        33    1        5.641000000000       3.256830076500       9.950007450000
        34    1        8.461500000000       8.142080076500       9.950007450000
        35    1       11.282000000000       3.256830076500       7.499992550000
        36    1        8.461500000000       8.142080076500       7.499992550000
        37    2        9.871750000000       2.442625000000       8.725000000000
        38    2        7.051250000000       7.327875000000       8.725000000000
        39    1        8.461500000000       3.256830076500       9.950007450000
        40    1       11.282000000000       8.142080076500       9.950007450000
        41    2        7.051250000000       2.442625000000       8.725000000000
        42    2        9.871750000000       7.327875000000       8.725000000000
        43    1        9.871750000000       0.814205076500       7.499992550000
        44    1        7.051250000000       5.699455076500       7.499992550000
        45    1        8.461500000000       3.256830076500       7.499992550000
        46    1        5.641000000000       8.142080076500       7.499992550000
        47    1        7.051250000000       0.814205076500       7.499992550000
        48    1        9.871750000000       5.699455076500       7.499992550000
        49    1       12.692250000000       0.814205076500       9.950007450000
        50    1       15.512750000000       5.699455076500       9.950007450000
        51    2       11.282000000000       0.000000000000       8.725000000000
        52    1       15.512750000000       0.814205076500       9.950007450000
        53    2       14.102500000000       0.000000000000       8.725000000000
        54    1       12.692250000000       5.699455076500       9.950007450000
        55    2       14.102500000000       4.885250000000       8.725000000000
        56    2       11.282000000000       4.885250000000       8.725000000000
        57    1       11.282000000000       3.256830076500       9.950007450000
        58    1       14.102500000000       8.142080076500       9.950007450000
        59    1       16.923000000000       3.256830076500       7.499992550000
        60    1       14.102500000000       8.142080076500       7.499992550000
        61    2       15.512750000000       2.442625000000       8.725000000000
        62    2       12.692250000000       7.327875000000       8.725000000000
        63    1       14.102500000000       3.256830076500       9.950007450000
        64    1       16.923000000000       8.142080076500       9.950007450000
        65    2       12.692250000000       2.442625000000       8.725000000000
        66    2       15.512750000000       7.327875000000       8.725000000000
        67    1       15.512750000000       0.814205076500       7.499992550000
        68    1       12.692250000000       5.699455076500       7.499992550000
        69    1       14.102500000000       3.256830076500       7.499992550000
        70    1       11.282000000000       8.142080076500       7.499992550000
        71    1       12.692250000000       0.814205076500       7.499992550000
        72    1       15.512750000000       5.699455076500       7.499992550000
        73    1       18.333250000000       0.814205076500       9.950007450000
        74    1       21.153750000000       5.699455076500       9.950007450000
        75    2       16.923000000000       0.000000000000       8.725000000000
        76    1       21.153750000000       0.814205076500       9.950007450000
        77    2       19.743500000000       0.000000000000       8.725000000000
        78    1       18.333250000000       5.699455076500       9.950007450000
        79    2       19.743500000000       4.885250000000       8.725000000000
        80    2       16.923000000000       4.885250000000       8.725000000000
        81    1       16.923000000000       3.256830076500       9.950007450000
        82    1       19.743500000000       8.142080076500       9.950007450000
        83    1       22.564000000000       3.256830076500       7.499992550000
        84    1       19.743500000000       8.142080076500       7.499992550000
        85    2       21.153750000000       2.442625000000       8.725000000000
        86    2       18.333250000000       7.327875000000       8.725000000000
        87    1       19.743500000000       3.256830076500       9.950007450000
        88    1       22.564000000000       8.142080076500       9.950007450000
        89    2       18.333250000000       2.442625000000       8.725000000000
        90    2       21.153750000000       7.327875000000       8.725000000000
        91    1       21.153750000000       0.814205076500       7.499992550000
        92    1       18.333250000000       5.699455076500       7.499992550000
        93    1       19.743500000000       3.256830076500       7.499992550000
        94    1       16.923000000000       8.142080076500       7.499992550000
        95    1       18.333250000000       0.814205076500       7.499992550000
        96    1       21.153750000000       5.699455076500       7.499992550000
        97    1       23.974250000000       0.814205076500       9.950007450000
        98    1       26.794750000000       5.699455076500       9.950007450000
        99    2       22.564000000000       0.000000000000       8.725000000000
       100    1       26.794750000000       0.814205076500       9.950007450000
       101    2       25.384500000000       0.000000000000       8.725000000000
       102    1       23.974250000000       5.699455076500       9.950007450000
       103    2       25.384500000000       4.885250000000       8.725000000000
       104    2       22.564000000000       4.885250000000       8.725000000000
       105    1       22.564000000000       3.256830076500       9.950007450000
       106    1       25.384500000000       8.142080076500       9.950007450000
       107    1       28.205000000000       3.256830076500       7.499992550000
       108    1       25.384500000000       8.142080076500       7.499992550000
       109    2       26.794750000000       2.442625000000       8.725000000000
       110    2       23.974250000000       7.327875000000       8.725000000000
       111    1       25.384500000000       3.256830076500       9.950007450000
       112    1       28.205000000000       8.142080076500       9.950007450000
       113    2       23.974250000000       2.442625000000       8.725000000000
       114    2       26.794750000000       7.327875000000       8.725000000000
       115    1       26.794750000000       0.814205076500       7.499992550000
       116    1       23.974250000000       5.699455076500       7.499992550000
       117    1       25.384500000000       3.256830076500       7.499992550000
       118    1       22.564000000000       8.142080076500       7.499992550000
       119    1       23.974250000000       0.814205076500       7.499992550000
       120    1       26.794750000000       5.699455076500       7.499992550000
       121    1       29.615250000000       0.814205076500       9.950007450000
       122    1       32.435750000000       5.699455076500       9.950007450000
       123    2       28.205000000000       0.000000000000       8.725000000000
       124    1       32.435750000000       0.814205076500       9.950007450000
       125    2       31.025500000000       0.000000000000       8.725000000000
       126    1       29.615250000000       5.699455076500       9.950007450000
       127    2       31.025500000000       4.885250000000       8.725000000000
       128    2       28.205000000000       4.885250000000       8.725000000000
       129    1       28.205000000000       3.256830076500       9.950007450000
       130    1       31.025500000000       8.142080076500       9.950007450000
       131    1       33.846000000000       3.256830076500       7.499992550000
       132    1       31.025500000000       8.142080076500       7.499992550000
       133    2       32.435750000000       2.442625000000       8.725000000000
       134    2       29.615250000000       7.327875000000       8.725000000000
       135    1       31.025500000000       3.256830076500       9.950007450000
       136    1       33.846000000000       8.142080076500       9.950007450000
       137    2       29.615250000000       2.442625000000       8.725000000000
       138    2       32.435750000000       7.327875000000       8.725000000000
       139    1       32.435750000000       0.814205076500       7.499992550000
       140    1       29.615250000000       5.699455076500       7.499992550000
       141    1       31.025500000000       3.256830076500       7.499992550000
       142    1       28.205000000000       8.142080076500       7.499992550000
       143    1       29.615250000000       0.814205076500       7.499992550000
       144    1       32.435750000000       5.699455076500       7.499992550000
       145    1       35.256250000000       0.814205076500       9.950007450000
       146    1       38.076750000000       5.699455076500       9.950007450000
       147    2       33.846000000000       0.000000000000       8.725000000000
       148    1       38.076750000000       0.814205076500       9.950007450000
       149    2       36.666500000000       0.000000000000       8.725000000000
       150    1       35.256250000000       5.699455076500       9.950007450000
       151    2       36.666500000000       4.885250000000       8.725000000000
       152    2       33.846000000000       4.885250000000       8.725000000000
       153    1       33.846000000000       3.256830076500       9.950007450000
       154    1       36.666500000000       8.142080076500       9.950007450000
       155    1       39.487000000000       3.256830076500       7.499992550000
       156    1       36.666500000000       8.142080076500       7.499992550000
       157    2       38.076750000000       2.442625000000       8.725000000000
       158    2       35.256250000000       7.327875000000       8.725000000000
       159    1       36.666500000000       3.256830076500       9.950007450000
       160    1       39.487000000000       8.142080076500       9.950007450000
       161    2       35.256250000000       2.442625000000       8.725000000000
       162    2       38.076750000000       7.327875000000       8.725000000000
       163    1       38.076750000000       0.814205076500       7.499992550000
       164    1       35.256250000000       5.699455076500       7.499992550000
       165    1       36.666500000000       3.256830076500       7.499992550000
       166    1       33.846000000000       8.142080076500       7.499992550000
       167    1       35.256250000000       0.814205076500       7.499992550000
       168    1       38.076750000000       5.699455076500       7.499992550000
       169    1       40.897250000000       0.814205076500       9.950007450000
       170    1       43.717750000000       5.699455076500       9.950007450000
       171    2       39.487000000000       0.000000000000       8.725000000000
       172    1       43.717750000000       0.814205076500       9.950007450000
       173    2       42.307500000000       0.000000000000       8.725000000000
       174    1       40.897250000000       5.699455076500       9.950007450000
       175    2       42.307500000000       4.885250000000       8.725000000000
       176    2       39.487000000000       4.885250000000       8.725000000000
       177    1       39.487000000000       3.256830076500       9.950007450000
       178    1       42.307500000000       8.142080076500       9.950007450000
       179    1       45.128000000000       3.256830076500       7.499992550000
       180    1       42.307500000000       8.142080076500       7.499992550000
       181    2       43.717750000000       2.442625000000       8.725000000000
       182    2       40.897250000000       7.327875000000       8.725000000000
       183    1       42.307500000000       3.256830076500       9.950007450000
       184    1       45.128000000000       8.142080076500       9.950007450000
       185    2       40.897250000000       2.442625000000       8.725000000000
       186    2       43.717750000000       7.327875000000       8.725000000000
       187    1       43.717750000000       0.814205076500       7.499992550000
       188    1       40.897250000000       5.699455076500       7.499992550000
       189    1       42.307500000000       3.256830076500       7.499992550000
       190    1       39.487000000000       8.142080076500       7.499992550000
       191    1       40.897250000000       0.814205076500       7.499992550000
       192    1       43.717750000000       5.699455076500       7.499992550000
       193    1       46.538250000000       0.814205076500       9.950007450000
       194    1       49.358750000000       5.699455076500       9.950007450000
       195    2       45.128000000000       0.000000000000       8.725000000000
       196    1       49.358750000000       0.814205076500       9.950007450000
       197    2       47.948500000000       0.000000000000       8.725000000000
       198    1       46.538250000000       5.699455076500       9.950007450000
       199    2       47.948500000000       4.885250000000       8.725000000000
       200    2       45.128000000000       4.885250000000       8.725000000000
       201    1       45.128000000000       3.256830076500       9.950007450000
       202    1       47.948500000000       8.142080076500       9.950007450000
       203    1       50.769000000000       3.256830076500       7.499992550000
       204    1       47.948500000000       8.142080076500       7.499992550000
       205    2       49.358750000000       2.442625000000       8.725000000000
       206    2       46.538250000000       7.327875000000       8.725000000000
       207    1       47.948500000000       3.256830076500       9.950007450000
       208    1       50.769000000000       8.142080076500       9.950007450000
       209    2       46.538250000000       2.442625000000       8.725000000000
       210    2       49.358750000000       7.327875000000       8.725000000000
       211    1       49.358750000000       0.814205076500       7.499992550000
       212    1       46.538250000000       5.699455076500       7.499992550000
       213    1       47.948500000000       3.256830076500       7.499992550000
       214    1       45.128000000000       8.142080076500       7.499992550000
       215    1       46.538250000000       0.814205076500       7.499992550000
       216    1       49.358750000000       5.699455076500       7.499992550000
       217    1       52.179250000000       0.814205076500       9.950007450000
       218    1       54.999750000000       5.699455076500       9.950007450000
       219    2       50.769000000000       0.000000000000       8.725000000000
       220    1       54.999750000000       0.814205076500       9.950007450000
       221    2       53.589500000000       0.000000000000       8.725000000000
       222    1       52.179250000000       5.699455076500       9.950007450000
       223    2       53.589500000000       4.885250000000       8.725000000000
       224    2       50.769000000000       4.885250000000       8.725000000000
       225    1       50.769000000000       3.256830076500       9.950007450000
       226    1       53.589500000000       8.142080076500       9.950007450000
       227    1       56.410000000000       3.256830076500       7.499992550000
       228    1       53.589500000000       8.142080076500       7.499992550000
       229    2       54.999750000000       2.442625000000       8.725000000000
       230    2       52.179250000000       7.327875000000       8.725000000000
       231    1       53.589500000000       3.256830076500       9.950007450000
       232    1       56.410000000000       8.142080076500       9.950007450000
       233    2       52.179250000000       2.442625000000       8.725000000000
       234    2       54.999750000000       7.327875000000       8.725000000000
       235    1       54.999750000000       0.814205076500       7.499992550000
       236    1       52.179250000000       5.699455076500       7.499992550000
       237    1       53.589500000000       3.256830076500       7.499992550000
       238    1       50.769000000000       8.142080076500       7.499992550000
       239    1       52.179250000000       0.814205076500       7.499992550000
       240    1       54.999750000000       5.699455076500       7.499992550000
       241    1       57.820250000000       0.814205076500       9.950007450000
       242    1       60.640750000000       5.699455076500       9.950007450000
       243    2       56.410000000000       0.000000000000       8.725000000000
       244    1       60.640750000000       0.814205076500       9.950007450000
       245    2       59.230500000000       0.000000000000       8.725000000000
       246    1       57.820250000000       5.699455076500       9.950007450000
       247    2       59.230500000000       4.885250000000       8.725000000000
       248    2       56.410000000000       4.885250000000       8.725000000000
       249    1       56.410000000000       3.256830076500       9.950007450000
       250    1       59.230500000000       8.142080076500       9.950007450000
       251    1       62.051000000000       3.256830076500       7.499992550000
       252    1       59.230500000000       8.142080076500       7.499992550000
       253    2       60.640750000000       2.442625000000       8.725000000000
       254    2       57.820250000000       7.327875000000       8.725000000000
       255    1       59.230500000000       3.256830076500       9.950007450000
       256    1       62.051000000000       8.142080076500       9.950007450000
       257    2       57.820250000000       2.442625000000       8.725000000000
       258    2       60.640750000000       7.327875000000       8.725000000000
       259    1       60.640750000000       0.814205076500       7.499992550000
       260    1       57.820250000000       5.699455076500       7.499992550000
       261    1       59.230500000000       3.256830076500       7.499992550000
       262    1       56.410000000000       8.142080076500       7.499992550000
       263    1       57.820250000000       0.814205076500       7.499992550000
       264    1       60.640750000000       5.699455076500       7.499992550000
       265    1       63.461250000000       0.814205076500       9.950007450000
       266    1       66.281750000000       5.699455076500       9.950007450000
       267    2       62.051000000000       0.000000000000       8.725000000000
       268    1       66.281750000000       0.814205076500       9.950007450000
       269    2       64.871500000000       0.000000000000       8.725000000000
       270    1       63.461250000000       5.699455076500       9.950007450000
       271    2       64.871500000000       4.885250000000       8.725000000000
       272    2       62.051000000000       4.885250000000       8.725000000000
       273    1       62.051000000000       3.256830076500       9.950007450000
       274    1       64.871500000000       8.142080076500       9.950007450000
       275    1       67.692000000000       3.256830076500       7.499992550000
       276    1       64.871500000000       8.142080076500       7.499992550000
       277    2       66.281750000000       2.442625000000       8.725000000000
       278    2       63.461250000000       7.327875000000       8.725000000000
       279    1       64.871500000000       3.256830076500       9.950007450000
       280    1       67.692000000000       8.142080076500       9.950007450000
       281    2       63.461250000000       2.442625000000       8.725000000000
       282    2       66.281750000000       7.327875000000       8.725000000000
       283    1       66.281750000000       0.814205076500       7.499992550000
       284    1       63.461250000000       5.699455076500       7.499992550000
       285    1       64.871500000000       3.256830076500       7.499992550000
       286    1       62.051000000000       8.142080076500       7.499992550000
       287    1       63.461250000000       0.814205076500       7.499992550000
       288    1       66.281750000000       5.699455076500       7.499992550000
       289    1       69.102250000000       0.814205076500       9.950007450000
       290    1       71.922750000000       5.699455076500       9.950007450000
       291    2       67.692000000000       0.000000000000       8.725000000000
       292    1       71.922750000000       0.814205076500       9.950007450000
       293    2       70.512500000000       0.000000000000       8.725000000000
       294    1       69.102250000000       5.699455076500       9.950007450000
       295    2       70.512500000000       4.885250000000       8.725000000000
       296    2       67.692000000000       4.885250000000       8.725000000000
       297    1       67.692000000000       3.256830076500       9.950007450000
       298    1       70.512500000000       8.142080076500       9.950007450000
       299    1       73.333000000000       3.256830076500       7.499992550000
       300    1       70.512500000000       8.142080076500       7.499992550000
       301    2       71.922750000000       2.442625000000       8.725000000000
       302    2       69.102250000000       7.327875000000       8.725000000000
       303    1       70.512500000000       3.256830076500       9.950007450000
       304    1       73.333000000000       8.142080076500       9.950007450000
       305    2       69.102250000000       2.442625000000       8.725000000000
       306    2       71.922750000000       7.327875000000       8.725000000000
       307    1       71.922750000000       0.814205076500       7.499992550000
       308    1       69.102250000000       5.699455076500       7.499992550000
       309    1       70.512500000000       3.256830076500       7.499992550000
       310    1       67.692000000000       8.142080076500       7.499992550000
       311    1       69.102250000000       0.814205076500       7.499992550000
       312    1       71.922750000000       5.699455076500       7.499992550000
       313    1       74.743250000000       0.814205076500       9.950007450000
       314    1       77.563750000000       5.699455076500       9.950007450000
       315    2       73.333000000000       0.000000000000       8.725000000000
       316    1       77.563750000000       0.814205076500       9.950007450000
       317    2       76.153500000000       0.000000000000       8.725000000000
       318    1       74.743250000000       5.699455076500       9.950007450000
       319    2       76.153500000000       4.885250000000       8.725000000000
       320    2       73.333000000000       4.885250000000       8.725000000000
       321    1       73.333000000000       3.256830076500       9.950007450000
       322    1       76.153500000000       8.142080076500       9.950007450000
       323    1       78.974000000000       3.256830076500       7.499992550000
       324    1       76.153500000000       8.142080076500       7.499992550000
       325    2       77.563750000000       2.442625000000       8.725000000000
       326    2       74.743250000000       7.327875000000       8.725000000000
       327    1       76.153500000000       3.256830076500       9.950007450000
       328    1       78.974000000000       8.142080076500       9.950007450000
       329    2       74.743250000000       2.442625000000       8.725000000000
       330    2       77.563750000000       7.327875000000       8.725000000000
       331    1       77.563750000000       0.814205076500       7.499992550000
       332    1       74.743250000000       5.699455076500       7.499992550000
       333    1       76.153500000000       3.256830076500       7.499992550000
       334    1       73.333000000000       8.142080076500       7.499992550000
       335    1       74.743250000000       0.814205076500       7.499992550000
       336    1       77.563750000000       5.699455076500       7.499992550000
       337    1       80.384250000000       0.814205076500       9.950007450000
       338    1       83.204750000000       5.699455076500       9.950007450000
       339    2       78.974000000000       0.000000000000       8.725000000000
       340    1       83.204750000000       0.814205076500       9.950007450000
       341    2       81.794500000000       0.000000000000       8.725000000000
       342    1       80.384250000000       5.699455076500       9.950007450000
       343    2       81.794500000000       4.885250000000       8.725000000000
       344    2       78.974000000000       4.885250000000       8.725000000000
       345    1       78.974000000000       3.256830076500       9.950007450000
       346    1       81.794500000000       8.142080076500       9.950007450000
       347    1       84.615000000000       3.256830076500       7.499992550000
       348    1       81.794500000000       8.142080076500       7.499992550000
       349    2       83.204750000000       2.442625000000       8.725000000000
       350    2       80.384250000000       7.327875000000       8.725000000000
       351    1       81.794500000000       3.256830076500       9.950007450000
       352    1       84.615000000000       8.142080076500       9.950007450000
       353    2       80.384250000000       2.442625000000       8.725000000000
       354    2       83.204750000000       7.327875000000       8.725000000000
       355    1       83.204750000000       0.814205076500       7.499992550000
       356    1       80.384250000000       5.699455076500       7.499992550000
       357    1       81.794500000000       3.256830076500       7.499992550000
       358    1       78.974000000000       8.142080076500       7.499992550000
       359    1       80.384250000000       0.814205076500       7.499992550000
       360    1       83.204750000000       5.699455076500       7.499992550000
       361    1       86.025250000000       0.814205076500       9.950007450000
       362    1       88.845750000000       5.699455076500       9.950007450000
       363    2       84.615000000000       0.000000000000       8.725000000000
       364    1       88.845750000000       0.814205076500       9.950007450000
       365    2       87.435500000000       0.000000000000       8.725000000000
       366    1       86.025250000000       5.699455076500       9.950007450000
       367    2       87.435500000000       4.885250000000       8.725000000000
       368    2       84.615000000000       4.885250000000       8.725000000000
       369    1       84.615000000000       3.256830076500       9.950007450000
       370    1       87.435500000000       8.142080076500       9.950007450000