 # Nb8 Se16
  
        2688  atoms
           2  atom types
 
      0.000000000000      97.203400000000  xlo xhi
      0.000000000000      96.205600000000  ylo yhi
      0.000000000000      18.355400000000  zlo zhi
 
Masses
 
            1   92.90638000             # Nb
            2   78.96000000             # Se
 
Atoms # atomic
 
         1    1        0.000000000000       0.000000000000       9.177700000000
         2    1        3.471550000000       6.012850000000       9.177700000000
         3    1        3.471550000000       0.000000000000       9.177700000000
         4    1        0.000000000000       6.012850000000       9.177700000000
         5    2        3.471550000000       4.008562658100       7.501374739600
         6    2        0.000000000000      10.021412658100       7.501374739600
         7    1        1.735775000000       3.006425000000       9.177700000000
         8    1        5.207325000000       9.019275000000       9.177700000000
         9    2        5.207325000000       1.002137658100       7.501374739600
        10    2        1.735775000000       1.002137658100       7.501374739600
        11    2        0.000000000000       4.008562658100      10.854025260400
        12    2        1.735775000000       1.002137658100      10.854025260400
        13    2        1.735775000000       7.014987658100       7.501374739600
        14    2        5.207325000000       7.014987658100       7.501374739600
        15    2        3.471550000000      10.021412658100      10.854025260400
        16    2        5.207325000000       7.014987658100      10.854025260400
        17    2        5.207325000000       1.002137658100      10.854025260400
        18    1        5.207325000000       3.006425000000       9.177700000000
        19    2        1.735775000000       7.014987658100      10.854025260400
        20    1        1.735775000000       9.019275000000       9.177700000000
        21    2        3.471550000000       4.008562658100      10.854025260400
        22    2        0.000000000000      10.021412658100      10.854025260400
        23    2        0.000000000000       4.008562658100       7.501374739600
        24    2        3.471550000000      10.021412658100       7.501374739600
        25    1        6.943100000000       0.000000000000       9.177700000000
        26    1       10.414650000000       6.012850000000       9.177700000000
        27    1       10.414650000000       0.000000000000       9.177700000000
        28    1        6.943100000000       6.012850000000       9.177700000000
        29    2       10.414650000000       4.008562658100       7.501374739600
        30    2        6.943100000000      10.021412658100       7.501374739600
        31    1        8.678875000000       3.006425000000       9.177700000000
        32    1       12.150425000000       9.019275000000       9.177700000000
        33    2       12.150425000000       1.002137658100       7.501374739600
        34    2        8.678875000000       1.002137658100       7.501374739600
        35    2        6.943100000000       4.008562658100      10.854025260400
        36    2        8.678875000000       1.002137658100      10.854025260400
        37    2        8.678875000000       7.014987658100       7.501374739600
        38    2       12.150425000000       7.014987658100       7.501374739600
        39    2       10.414650000000      10.021412658100      10.854025260400
        40    2       12.150425000000       7.014987658100      10.854025260400
        41    2       12.150425000000       1.002137658100      10.854025260400
        42    1       12.150425000000       3.006425000000       9.177700000000
        43    2        8.678875000000       7.014987658100      10.854025260400
        44    1        8.678875000000       9.019275000000       9.177700000000
        45    2       10.414650000000       4.008562658100      10.854025260400
        46    2        6.943100000000      10.021412658100      10.854025260400
        47    2        6.943100000000       4.008562658100       7.501374739600
        48    2       10.414650000000      10.021412658100       7.501374739600
        49    1       13.886200000000       0.000000000000       9.177700000000
        50    1       17.357750000000       6.012850000000       9.177700000000
        51    1       17.357750000000       0.000000000000       9.177700000000
        52    1       13.886200000000       6.012850000000       9.177700000000
        53    2       17.357750000000       4.008562658100       7.501374739600
        54    2       13.886200000000      10.021412658100       7.501374739600
        55    1       15.621975000000       3.006425000000       9.177700000000
        56    1       19.093525000000       9.019275000000       9.177700000000
        57    2       19.093525000000       1.002137658100       7.501374739600
        58    2       15.621975000000       1.002137658100       7.501374739600
        59    2       13.886200000000       4.008562658100      10.854025260400
        60    2       15.621975000000       1.002137658100      10.854025260400
        61    2       15.621975000000       7.014987658100       7.501374739600
        62    2       19.093525000000       7.014987658100       7.501374739600
        63    2       17.357750000000      10.021412658100      10.854025260400
        64    2       19.093525000000       7.014987658100      10.854025260400
        65    2       19.093525000000       1.002137658100      10.854025260400
        66    1       19.093525000000       3.006425000000       9.177700000000
        67    2       15.621975000000       7.014987658100      10.854025260400
        68    1       15.621975000000       9.019275000000       9.177700000000
        69    2       17.357750000000       4.008562658100      10.854025260400
        70    2       13.886200000000      10.021412658100      10.854025260400
        71    2       13.886200000000       4.008562658100       7.501374739600
        72    2       17.357750000000      10.021412658100       7.501374739600
        73    1       20.829300000000       0.000000000000       9.177700000000
        74    1       24.300850000000       6.012850000000       9.177700000000
        75    1       24.300850000000       0.000000000000       9.177700000000
        76    1       20.829300000000       6.012850000000       9.177700000000
        77    2       24.300850000000       4.008562658100       7.501374739600
        78    2       20.829300000000      10.021412658100       7.501374739600
        79    1       22.565075000000       3.006425000000       9.177700000000
        80    1       26.036625000000       9.019275000000       9.177700000000
        81    2       26.036625000000       1.002137658100       7.501374739600
        82    2       22.565075000000       1.002137658100       7.501374739600
        83    2       20.829300000000       4.008562658100      10.854025260400
        84    2       22.565075000000       1.002137658100      10.854025260400
        85    2       22.565075000000       7.014987658100       7.501374739600
        86    2       26.036625000000       7.014987658100       7.501374739600
        87    2       24.300850000000      10.021412658100      10.854025260400
        88    2       26.036625000000       7.014987658100      10.854025260400
        89    2       26.036625000000       1.002137658100      10.854025260400
        90    1       26.036625000000       3.006425000000       9.177700000000
        91    2       22.565075000000       7.014987658100      10.854025260400
        92    1       22.565075000000       9.019275000000       9.177700000000
        93    2       24.300850000000       4.008562658100      10.854025260400
        94    2       20.829300000000      10.021412658100      10.854025260400
        95    2       20.829300000000       4.008562658100       7.501374739600
        96    2       24.300850000000      10.021412658100       7.501374739600
        97    1       27.772400000000       0.000000000000       9.177700000000
        98    1       31.243950000000       6.012850000000       9.177700000000
        99    1       31.243950000000       0.000000000000       9.177700000000
       100    1       27.772400000000       6.012850000000       9.177700000000
       101    2       31.243950000000       4.008562658100       7.501374739600
       102    2       27.772400000000      10.021412658100       7.501374739600
       103    1       29.508175000000       3.006425000000       9.177700000000
       104    1       32.979725000000       9.019275000000       9.177700000000
       105    2       32.979725000000       1.002137658100       7.501374739600
       106    2       29.508175000000       1.002137658100       7.501374739600
       107    2       27.772400000000       4.008562658100      10.854025260400
       108    2       29.508175000000       1.002137658100      10.854025260400
       109    2       29.508175000000       7.014987658100       7.501374739600
       110    2       32.979725000000       7.014987658100       7.501374739600
       111    2       31.243950000000      10.021412658100      10.854025260400
       112    2       32.979725000000       7.014987658100      10.854025260400
       113    2       32.979725000000       1.002137658100      10.854025260400
       114    1       32.979725000000       3.006425000000       9.177700000000
       115    2       29.508175000000       7.014987658100      10.854025260400
       116    1       29.508175000000       9.019275000000       9.177700000000
       117    2       31.243950000000       4.008562658100      10.854025260400
       118    2       27.772400000000      10.021412658100      10.854025260400
       119    2       27.772400000000       4.008562658100       7.501374739600
       120    2       31.243950000000      10.021412658100       7.501374739600
       121    1       34.715500000000       0.000000000000       9.177700000000
       122    1       38.187050000000       6.012850000000       9.177700000000
       123    1       38.187050000000       0.000000000000       9.177700000000
       124    1       34.715500000000       6.012850000000       9.177700000000
       125    2       38.187050000000       4.008562658100       7.501374739600
       126    2       34.715500000000      10.021412658100       7.501374739600
       127    1       36.451275000000       3.006425000000       9.177700000000
       128    1       39.922825000000       9.019275000000       9.177700000000
       129    2       39.922825000000       1.002137658100       7.501374739600
       130    2       36.451275000000       1.002137658100       7.501374739600
       131    2       34.715500000000       4.008562658100      10.854025260400
       132    2       36.451275000000       1.002137658100      10.854025260400
       133    2       36.451275000000       7.014987658100       7.501374739600
       134    2       39.922825000000       7.014987658100       7.501374739600
       135    2       38.187050000000      10.021412658100      10.854025260400
       136    2       39.922825000000       7.014987658100      10.854025260400
       137    2       39.922825000000       1.002137658100      10.854025260400
       138    1       39.922825000000       3.006425000000       9.177700000000
       139    2       36.451275000000       7.014987658100      10.854025260400
       140    1       36.451275000000       9.019275000000       9.177700000000
       141    2       38.187050000000       4.008562658100      10.854025260400
       142    2       34.715500000000      10.021412658100      10.854025260400
       143    2       34.715500000000       4.008562658100       7.501374739600
       144    2       38.187050000000      10.021412658100       7.501374739600
       145    1       41.658600000000       0.000000000000       9.177700000000
       146    1       45.130150000000       6.012850000000       9.177700000000
       147    1       45.130150000000       0.000000000000       9.177700000000
       148    1       41.658600000000       6.012850000000       9.177700000000
       149    2       45.130150000000       4.008562658100       7.501374739600
       150    2       41.658600000000      10.021412658100       7.501374739600
       151    1       43.394375000000       3.006425000000       9.177700000000
       152    1       46.865925000000       9.019275000000       9.177700000000
       153    2       46.865925000000       1.002137658100       7.501374739600
       154    2       43.394375000000       1.002137658100       7.501374739600
       155    2       41.658600000000       4.008562658100      10.854025260400
       156    2       43.394375000000       1.002137658100      10.854025260400
       157    2       43.394375000000       7.014987658100       7.501374739600
       158    2       46.865925000000       7.014987658100       7.501374739600
       159    2       45.130150000000      10.021412658100      10.854025260400
       160    2       46.865925000000       7.014987658100      10.854025260400
       161    2       46.865925000000       1.002137658100      10.854025260400
       162    1       46.865925000000       3.006425000000       9.177700000000
       163    2       43.394375000000       7.014987658100      10.854025260400
       164    1       43.394375000000       9.019275000000       9.177700000000
       165    2       45.130150000000       4.008562658100      10.854025260400
       166    2       41.658600000000      10.021412658100      10.854025260400
       167    2       41.658600000000       4.008562658100       7.501374739600
       168    2       45.130150000000      10.021412658100       7.501374739600
       169    1       48.601700000000       0.000000000000       9.177700000000
       170    1       52.073250000000       6.012850000000       9.177700000000
       171    1       52.073250000000       0.000000000000       9.177700000000
       172    1       48.601700000000       6.012850000000       9.177700000000
       173    2       52.073250000000       4.008562658100       7.501374739600
       174    2       48.601700000000      10.021412658100       7.501374739600
       175    1       50.337475000000       3.006425000000       9.177700000000
       176    1       53.809025000000       9.019275000000       9.177700000000
       177    2       53.809025000000       1.002137658100       7.501374739600
       178    2       50.337475000000       1.002137658100       7.501374739600
       179    2       48.601700000000       4.008562658100      10.854025260400
       180    2       50.337475000000       1.002137658100      10.854025260400
       181    2       50.337475000000       7.014987658100       7.501374739600
       182    2       53.809025000000       7.014987658100       7.501374739600
       183    2       52.073250000000      10.021412658100      10.854025260400
       184    2       53.809025000000       7.014987658100      10.854025260400
       185    2       53.809025000000       1.002137658100      10.854025260400
       186    1       53.809025000000       3.006425000000       9.177700000000
       187    2       50.337475000000       7.014987658100      10.854025260400
       188    1       50.337475000000       9.019275000000       9.177700000000
       189    2       52.073250000000       4.008562658100      10.854025260400
       190    2       48.601700000000      10.021412658100      10.854025260400
       191    2       48.601700000000       4.008562658100       7.501374739600
       192    2       52.073250000000      10.021412658100       7.501374739600
       193    1       55.544800000000       0.000000000000       9.177700000000
       194    1       59.016350000000       6.012850000000       9.177700000000
       195    1       59.016350000000       0.000000000000       9.177700000000
       196    1       55.544800000000       6.012850000000       9.177700000000
       197    2       59.016350000000       4.008562658100       7.501374739600
       198    2       55.544800000000      10.021412658100       7.501374739600
       199    1       57.280575000000       3.006425000000       9.177700000000
       200    1       60.752125000000       9.019275000000       9.177700000000
       201    2       60.752125000000       1.002137658100       7.501374739600
       202    2       57.280575000000       1.002137658100       7.501374739600
       203    2       55.544800000000       4.008562658100      10.854025260400
       204    2       57.280575000000       1.002137658100      10.854025260400
       205    2       57.280575000000       7.014987658100       7.501374739600
       206    2       60.752125000000       7.014987658100       7.501374739600
       207    2       59.016350000000      10.021412658100      10.854025260400
       208    2       60.752125000000       7.014987658100      10.854025260400
       209    2       60.752125000000       1.002137658100      10.854025260400
       210    1       60.752125000000       3.006425000000       9.177700000000
       211    2       57.280575000000       7.014987658100      10.854025260400
       212    1       57.280575000000       9.019275000000       9.177700000000
       213    2       59.016350000000       4.008562658100      10.854025260400
       214    2       55.544800000000      10.021412658100      10.854025260400
       215    2       55.544800000000       4.008562658100       7.501374739600
       216    2       59.016350000000      10.021412658100       7.501374739600
       217    1       62.487900000000       0.000000000000       9.177700000000
       218    1       65.959450000000       6.012850000000       9.177700000000
       219    1       65.959450000000       0.000000000000       9.177700000000
       220    1       62.487900000000       6.012850000000       9.177700000000
       221    2       65.959450000000       4.008562658100       7.501374739600
       222    2       62.487900000000      10.021412658100       7.501374739600
       223    1       64.223675000000       3.006425000000       9.177700000000
       224    1       67.695225000000       9.019275000000       9.177700000000
       225    2       67.695225000000       1.002137658100       7.501374739600
       226    2       64.223675000000       1.002137658100       7.501374739600
       227    2       62.487900000000       4.008562658100      10.854025260400
       228    2       64.223675000000       1.002137658100      10.854025260400
       229    2       64.223675000000       7.014987658100       7.501374739600
       230    2       67.695225000000       7.014987658100       7.501374739600
       231    2       65.959450000000      10.021412658100      10.854025260400
       232    2       67.695225000000       7.014987658100      10.854025260400
       233    2       67.695225000000       1.002137658100      10.854025260400
       234    1       67.695225000000       3.006425000000       9.177700000000
       235    2       64.223675000000       7.014987658100      10.854025260400
       236    1       64.223675000000       9.019275000000       9.177700000000
       237    2       65.959450000000       4.008562658100      10.854025260400
       238    2       62.487900000000      10.021412658100      10.854025260400
       239    2       62.487900000000       4.008562658100       7.501374739600
       240    2       65.959450000000      10.021412658100       7.501374739600
       241    1       69.431000000000       0.000000000000       9.177700000000
       242    1       72.902550000000       6.012850000000       9.177700000000
       243    1       72.902550000000       0.000000000000       9.177700000000
       244    1       69.431000000000       6.012850000000       9.177700000000
       245    2       72.902550000000       4.008562658100       7.501374739600
       246    2       69.431000000000      10.021412658100       7.501374739600
       247    1       71.166775000000       3.006425000000       9.177700000000
       248    1       74.638325000000       9.019275000000       9.177700000000
       249    2       74.638325000000       1.002137658100       7.501374739600
       250    2       71.166775000000       1.002137658100       7.501374739600
       251    2       69.431000000000       4.008562658100      10.854025260400
       252    2       71.166775000000       1.002137658100      10.854025260400
       253    2       71.166775000000       7.014987658100       7.501374739600
       254    2       74.638325000000       7.014987658100       7.501374739600
       255    2       72.902550000000      10.021412658100      10.854025260400
       256    2       74.638325000000       7.014987658100      10.854025260400
       257    2       74.638325000000       1.002137658100      10.854025260400
       258    1       74.638325000000       3.006425000000       9.177700000000
       259    2       71.166775000000       7.014987658100      10.854025260400
       260    1       71.166775000000       9.019275000000       9.177700000000
       261    2       72.902550000000       4.008562658100      10.854025260400
       262    2       69.431000000000      10.021412658100      10.854025260400
       263    2       69.431000000000       4.008562658100       7.501374739600
       264    2       72.902550000000      10.021412658100       7.501374739600
       265    1       76.374100000000       0.000000000000       9.177700000000
       266    1       79.845650000000       6.012850000000       9.177700000000
       267    1       79.845650000000       0.000000000000       9.177700000000
       268    1       76.374100000000       6.012850000000       9.177700000000
       269    2       79.845650000000       4.008562658100       7.501374739600
       270    2       76.374100000000      10.021412658100       7.501374739600
       271    1       78.109875000000       3.006425000000       9.177700000000
       272    1       81.581425000000       9.019275000000       9.177700000000
       273    2       81.581425000000       1.002137658100       7.501374739600
       274    2       78.109875000000       1.002137658100       7.501374739600
       275    2       76.374100000000       4.008562658100      10.854025260400
       276    2       78.109875000000       1.002137658100      10.854025260400
       277    2       78.109875000000       7.014987658100       7.501374739600
       278    2       81.581425000000       7.014987658100       7.501374739600
       279    2       79.845650000000      10.021412658100      10.854025260400
       280    2       81.581425000000       7.014987658100      10.854025260400
       281    2       81.581425000000       1.002137658100      10.854025260400
       282    1       81.581425000000       3.006425000000       9.177700000000
       283    2       78.109875000000       7.014987658100      10.854025260400
       284    1       78.109875000000       9.019275000000       9.177700000000
       285    2       79.845650000000       4.008562658100      10.854025260400
       286    2       76.374100000000      10.021412658100      10.854025260400
       287    2       76.374100000000       4.008562658100       7.501374739600
       288    2       79.845650000000      10.021412658100       7.501374739600
       289    1       83.317200000000       0.000000000000       9.177700000000
       290    1       86.788750000000       6.012850000000       9.177700000000
       291    1       86.788750000000       0.000000000000       9.177700000000
       292    1       83.317200000000       6.012850000000       9.177700000000
       293    2       86.788750000000       4.008562658100       7.501374739600
       294    2       83.317200000000      10.021412658100       7.501374739600
       295    1       85.052975000000       3.006425000000       9.177700000000
       296    1       88.524525000000       9.019275000000       9.177700000000
       297    2       88.524525000000       1.002137658100       7.501374739600
       298    2       85.052975000000       1.002137658100       7.501374739600
       299    2       83.317200000000       4.008562658100      10.854025260400
       300    2       85.052975000000       1.002137658100      10.854025260400
       301    2       85.052975000000       7.014987658100       7.501374739600
       302    2       88.524525000000       7.014987658100       7.501374739600
       303    2       86.788750000000      10.021412658100      10.854025260400
       304    2       88.524525000000       7.014987658100      10.854025260400
       305    2       88.524525000000       1.002137658100      10.854025260400
       306    1       88.524525000000       3.006425000000       9.177700000000
       307    2       85.052975000000       7.014987658100      10.854025260400
       308    1       85.052975000000       9.019275000000       9.177700000000
       309    2       86.788750000000       4.008562658100      10.854025260400
       310    2       83.317200000000      10.021412658100      10.854025260400
       311    2       83.317200000000       4.008562658100       7.501374739600
       312    2       86.788750000000      10.021412658100       7.501374739600
       313    1       90.260300000000       0.000000000000       9.177700000000
       314    1       93.731850000000       6.012850000000       9.177700000000
       315    1       93.731850000000       0.000000000000       9.177700000000
       316    1       90.260300000000       6.012850000000       9.177700000000
       317    2       93.731850000000       4.008562658100       7.501374739600
       318    2       90.260300000000      10.021412658100       7.501374739600
       319    1       91.996075000000       3.006425000000       9.177700000000
       320    1       95.467625000000       9.019275000000       9.177700000000
       321    2       95.467625000000       1.002137658100       7.501374739600
       322    2       91.996075000000       1.002137658100       7.501374739600
       323    2       90.260300000000       4.008562658100      10.854025260400
       324    2       91.996075000000       1.002137658100      10.854025260400
       325    2       91.996075000000       7.014987658100       7.501374739600
       326    2       95.467625000000       7.014987658100       7.501374739600
       327    2       93.731850000000      10.021412658100      10.854025260400
       328    2       95.467625000000       7.014987658100      10.854025260400
       329    2       95.467625000000       1.002137658100      10.854025260400
       330    1       95.467625000000       3.006425000000       9.177700000000
       331    2       91.996075000000       7.014987658100      10.854025260400
       332    1       91.996075000000       9.019275000000       9.177700000000
       333    2       93.731850000000       4.008562658100      10.854025260400
       334    2       90.260300000000      10.021412658100      10.854025260400
       335    2       90.260300000000       4.008562658100       7.501374739600
       336    2       93.731850000000      10.021412658100       7.501374739600
       337    1        0.000000000000      12.025700000000       9.177700000000
       338    1        3.471550000000      18.038550000000       9.177700000000
       339    1        3.471550000000      12.025700000000       9.177700000000
       340    1        0.000000000000      18.038550000000       9.177700000000
       341    2        3.471550000000      16.034262658100       7.501374739600
       342    2        0.000000000000      22.047112658100       7.501374739600
       343    1        1.735775000000      15.032125000000       9.177700000000
       344    1        5.207325000000      21.044975000000       9.177700000000
       345    2        5.207325000000      13.027837658100       7.501374739600
       346    2        1.735775000000      13.027837658100       7.501374739600
       347    2        0.000000000000      16.034262658100      10.854025260400
       348    2        1.735775000000      13.027837658100      10.854025260400
       349    2        1.735775000000      19.040687658100       7.501374739600
       350    2        5.207325000000      19.040687658100       7.501374739600
       351    2        3.471550000000      22.047112658100      10.854025260400
       352    2        5.207325000000      19.040687658100      10.854025260400
       353    2        5.207325000000      13.027837658100      10.854025260400
       354    1        5.207325000000      15.032125000000       9.177700000000
       355    2        1.735775000000      19.040687658100      10.854025260400
       356    1        1.735775000000      21.044975000000       9.177700000000
       357    2        3.471550000000      16.034262658100      10.854025260400
       358    2        0.000000000000      22.047112658100      10.854025260400
       359    2        0.000000000000      16.034262658100       7.501374739600
       360    2        3.471550000000      22.047112658100       7.501374739600
       361    1        6.943100000000      12.025700000000       9.177700000000
       362    1       10.414650000000      18.038550000000       9.177700000000
       363    1       10.414650000000      12.025700000000       9.177700000000
       364    1        6.943100000000      18.038550000000       9.177700000000
       365    2       10.414650000000      16.034262658100       7.501374739600
       366    2        6.943100000000      22.047112658100       7.501374739600
       367    1        8.678875000000      15.032125000000       9.177700000000
       368    1       12.150425000000      21.044975000000       9.177700000000
       369    2       12.150425000000      13.027837658100       7.501374739600
       370    2        8.678875000000      13.027837658100       7.501374739600