 # S16 Ni8
  
        2688  atoms
           2  atom types
 
      0.000000000000      99.171800000000  xlo xhi
      0.000000000000      98.154400000000  ylo yhi
      0.000000000000      17.137300000000  zlo zhi
 
Masses
 
            1   32.06000000             # S
            2   58.69340000             # Ni
 
Atoms # charge
 
         1    1   0.000000        0.000000000000       4.089762576900       9.636166691600
         2    1   0.000000        3.541850000000      10.224412576900       9.636166691600
         3    2   0.000000        1.770925000000       3.067325000000       8.568650000000
         4    2   0.000000        5.312775000000       9.201975000000       8.568650000000
         5    1   0.000000        1.770925000000       1.022437576900       9.636166691600
         6    1   0.000000        3.541850000000       4.089762576900       9.636166691600
         7    1   0.000000        5.312775000000       7.157087576900       9.636166691600
         8    1   0.000000        0.000000000000      10.224412576900       9.636166691600
         9    1   0.000000        5.312775000000       1.022437576900       7.501133308400
        10    1   0.000000        1.770925000000       7.157087576900       7.501133308400
        11    1   0.000000        5.312775000000       1.022437576900       9.636166691600
        12    1   0.000000        1.770925000000       7.157087576900       9.636166691600
        13    1   0.000000        0.000000000000       4.089762576900       7.501133308400
        14    1   0.000000        3.541850000000      10.224412576900       7.501133308400
        15    1   0.000000        3.541850000000       4.089762576900       7.501133308400
        16    1   0.000000        0.000000000000      10.224412576900       7.501133308400
        17    1   0.000000        1.770925000000       1.022437576900       7.501133308400
        18    1   0.000000        5.312775000000       7.157087576900       7.501133308400
        19    2   0.000000        5.312775000000       3.067325000000       8.568650000000
        20    2   0.000000        3.541850000000       0.000000000000       8.568650000000
        21    2   0.000000        1.770925000000       9.201975000000       8.568650000000
        22    2   0.000000        0.000000000000       6.134650000000       8.568650000000
        23    2   0.000000        0.000000000000       0.000000000000       8.568650000000
        24    2   0.000000        3.541850000000       6.134650000000       8.568650000000
        25    1   0.000000        7.083700000000       4.089762576900       9.636166691600
        26    1   0.000000       10.625550000000      10.224412576900       9.636166691600
        27    2   0.000000        8.854625000000       3.067325000000       8.568650000000
        28    2   0.000000       12.396475000000       9.201975000000       8.568650000000
        29    1   0.000000        8.854625000000       1.022437576900       9.636166691600
        30    1   0.000000       10.625550000000       4.089762576900       9.636166691600
        31    1   0.000000       12.396475000000       7.157087576900       9.636166691600
        32    1   0.000000        7.083700000000      10.224412576900       9.636166691600
        33    1   0.000000       12.396475000000       1.022437576900       7.501133308400
        34    1   0.000000        8.854625000000       7.157087576900       7.501133308400
        35    1   0.000000       12.396475000000       1.022437576900       9.636166691600
        36    1   0.000000        8.854625000000       7.157087576900       9.636166691600
        37    1   0.000000        7.083700000000       4.089762576900       7.501133308400
        38    1   0.000000       10.625550000000      10.224412576900       7.501133308400
        39    1   0.000000       10.625550000000       4.089762576900       7.501133308400
        40    1   0.000000        7.083700000000      10.224412576900       7.501133308400
        41    1   0.000000        8.854625000000       1.022437576900       7.501133308400
        42    1   0.000000       12.396475000000       7.157087576900       7.501133308400
        43    2   0.000000       12.396475000000       3.067325000000       8.568650000000
        44    2   0.000000       10.625550000000       0.000000000000       8.568650000000
        45    2   0.000000        8.854625000000       9.201975000000       8.568650000000
        46    2   0.000000        7.083700000000       6.134650000000       8.568650000000
        47    2   0.000000        7.083700000000       0.000000000000       8.568650000000
        48    2   0.000000       10.625550000000       6.134650000000       8.568650000000
        49    1   0.000000       14.167400000000       4.089762576900       9.636166691600
        50    1   0.000000       17.709250000000      10.224412576900       9.636166691600
        51    2   0.000000       15.938325000000       3.067325000000       8.568650000000
        52    2   0.000000       19.480175000000       9.201975000000       8.568650000000
        53    1   0.000000       15.938325000000       1.022437576900       9.636166691600
        54    1   0.000000       17.709250000000       4.089762576900       9.636166691600
        55    1   0.000000       19.480175000000       7.157087576900       9.636166691600
        56    1   0.000000       14.167400000000      10.224412576900       9.636166691600
        57    1   0.000000       19.480175000000       1.022437576900       7.501133308400
        58    1   0.000000       15.938325000000       7.157087576900       7.501133308400
        59    1   0.000000       19.480175000000       1.022437576900       9.636166691600
        60    1   0.000000       15.938325000000       7.157087576900       9.636166691600
        61    1   0.000000       14.167400000000       4.089762576900       7.501133308400
        62    1   0.000000       17.709250000000      10.224412576900       7.501133308400
        63    1   0.000000       17.709250000000       4.089762576900       7.501133308400
        64    1   0.000000       14.167400000000      10.224412576900       7.501133308400
        65    1   0.000000       15.938325000000       1.022437576900       7.501133308400
        66    1   0.000000       19.480175000000       7.157087576900       7.501133308400
        67    2   0.000000       19.480175000000       3.067325000000       8.568650000000
        68    2   0.000000       17.709250000000       0.000000000000       8.568650000000
        69    2   0.000000       15.938325000000       9.201975000000       8.568650000000
        70    2   0.000000       14.167400000000       6.134650000000       8.568650000000
        71    2   0.000000       14.167400000000       0.000000000000       8.568650000000
        72    2   0.000000       17.709250000000       6.134650000000       8.568650000000
        73    1   0.000000       21.251100000000       4.089762576900       9.636166691600
        74    1   0.000000       24.792950000000      10.224412576900       9.636166691600
        75    2   0.000000       23.022025000000       3.067325000000       8.568650000000
        76    2   0.000000       26.563875000000       9.201975000000       8.568650000000
        77    1   0.000000       23.022025000000       1.022437576900       9.636166691600
        78    1   0.000000       24.792950000000       4.089762576900       9.636166691600
        79    1   0.000000       26.563875000000       7.157087576900       9.636166691600
        80    1   0.000000       21.251100000000      10.224412576900       9.636166691600
        81    1   0.000000       26.563875000000       1.022437576900       7.501133308400
        82    1   0.000000       23.022025000000       7.157087576900       7.501133308400
        83    1   0.000000       26.563875000000       1.022437576900       9.636166691600
        84    1   0.000000       23.022025000000       7.157087576900       9.636166691600
        85    1   0.000000       21.251100000000       4.089762576900       7.501133308400
        86    1   0.000000       24.792950000000      10.224412576900       7.501133308400
        87    1   0.000000       24.792950000000       4.089762576900       7.501133308400
        88    1   0.000000       21.251100000000      10.224412576900       7.501133308400
        89    1   0.000000       23.022025000000       1.022437576900       7.501133308400
        90    1   0.000000       26.563875000000       7.157087576900       7.501133308400
        91    2   0.000000       26.563875000000       3.067325000000       8.568650000000
        92    2   0.000000       24.792950000000       0.000000000000       8.568650000000
        93    2   0.000000       23.022025000000       9.201975000000       8.568650000000
        94    2   0.000000       21.251100000000       6.134650000000       8.568650000000
        95    2   0.000000       21.251100000000       0.000000000000       8.568650000000
        96    2   0.000000       24.792950000000       6.134650000000       8.568650000000
        97    1   0.000000       28.334800000000       4.089762576900       9.636166691600
        98    1   0.000000       31.876650000000      10.224412576900       9.636166691600
        99    2   0.000000       30.105725000000       3.067325000000       8.568650000000
       100    2   0.000000       33.647575000000       9.201975000000       8.568650000000
       101    1   0.000000       30.105725000000       1.022437576900       9.636166691600
       102    1   0.000000       31.876650000000       4.089762576900       9.636166691600
       103    1   0.000000       33.647575000000       7.157087576900       9.636166691600
       104    1   0.000000       28.334800000000      10.224412576900       9.636166691600
       105    1   0.000000       33.647575000000       1.022437576900       7.501133308400
       106    1   0.000000       30.105725000000       7.157087576900       7.501133308400
       107    1   0.000000       33.647575000000       1.022437576900       9.636166691600
       108    1   0.000000       30.105725000000       7.157087576900       9.636166691600
       109    1   0.000000       28.334800000000       4.089762576900       7.501133308400
       110    1   0.000000       31.876650000000      10.224412576900       7.501133308400
       111    1   0.000000       31.876650000000       4.089762576900       7.501133308400
       112    1   0.000000       28.334800000000      10.224412576900       7.501133308400
       113    1   0.000000       30.105725000000       1.022437576900       7.501133308400
       114    1   0.000000       33.647575000000       7.157087576900       7.501133308400
       115    2   0.000000       33.647575000000       3.067325000000       8.568650000000
       116    2   0.000000       31.876650000000       0.000000000000       8.568650000000
       117    2   0.000000       30.105725000000       9.201975000000       8.568650000000
       118    2   0.000000       28.334800000000       6.134650000000       8.568650000000
       119    2   0.000000       28.334800000000       0.000000000000       8.568650000000
       120    2   0.000000       31.876650000000       6.134650000000       8.568650000000
       121    1   0.000000       35.418500000000       4.089762576900       9.636166691600
       122    1   0.000000       38.960350000000      10.224412576900       9.636166691600
       123    2   0.000000       37.189425000000       3.067325000000       8.568650000000
       124    2   0.000000       40.731275000000       9.201975000000       8.568650000000
       125    1   0.000000       37.189425000000       1.022437576900       9.636166691600
       126    1   0.000000       38.960350000000       4.089762576900       9.636166691600
       127    1   0.000000       40.731275000000       7.157087576900       9.636166691600
       128    1   0.000000       35.418500000000      10.224412576900       9.636166691600
       129    1   0.000000       40.731275000000       1.022437576900       7.501133308400
       130    1   0.000000       37.189425000000       7.157087576900       7.501133308400
       131    1   0.000000       40.731275000000       1.022437576900       9.636166691600
       132    1   0.000000       37.189425000000       7.157087576900       9.636166691600
       133    1   0.000000       35.418500000000       4.089762576900       7.501133308400
       134    1   0.000000       38.960350000000      10.224412576900       7.501133308400
       135    1   0.000000       38.960350000000       4.089762576900       7.501133308400
       136    1   0.000000       35.418500000000      10.224412576900       7.501133308400
       137    1   0.000000       37.189425000000       1.022437576900       7.501133308400
       138    1   0.000000       40.731275000000       7.157087576900       7.501133308400
       139    2   0.000000       40.731275000000       3.067325000000       8.568650000000
       140    2   0.000000       38.960350000000       0.000000000000       8.568650000000
       141    2   0.000000       37.189425000000       9.201975000000       8.568650000000
       142    2   0.000000       35.418500000000       6.134650000000       8.568650000000
       143    2   0.000000       35.418500000000       0.000000000000       8.568650000000
       144    2   0.000000       38.960350000000       6.134650000000       8.568650000000
       145    1   0.000000       42.502200000000       4.089762576900       9.636166691600
       146    1   0.000000       46.044050000000      10.224412576900       9.636166691600
       147    2   0.000000       44.273125000000       3.067325000000       8.568650000000
       148    2   0.000000       47.814975000000       9.201975000000       8.568650000000
       149    1   0.000000       44.273125000000       1.022437576900       9.636166691600
       150    1   0.000000       46.044050000000       4.089762576900       9.636166691600
       151    1   0.000000       47.814975000000       7.157087576900       9.636166691600
       152    1   0.000000       42.502200000000      10.224412576900       9.636166691600
       153    1   0.000000       47.814975000000       1.022437576900       7.501133308400
       154    1   0.000000       44.273125000000       7.157087576900       7.501133308400
       155    1   0.000000       47.814975000000       1.022437576900       9.636166691600
       156    1   0.000000       44.273125000000       7.157087576900       9.636166691600
       157    1   0.000000       42.502200000000       4.089762576900       7.501133308400
       158    1   0.000000       46.044050000000      10.224412576900       7.501133308400
       159    1   0.000000       46.044050000000       4.089762576900       7.501133308400
       160    1   0.000000       42.502200000000      10.224412576900       7.501133308400
       161    1   0.000000       44.273125000000       1.022437576900       7.501133308400
       162    1   0.000000       47.814975000000       7.157087576900       7.501133308400
       163    2   0.000000       47.814975000000       3.067325000000       8.568650000000
       164    2   0.000000       46.044050000000       0.000000000000       8.568650000000
       165    2   0.000000       44.273125000000       9.201975000000       8.568650000000
       166    2   0.000000       42.502200000000       6.134650000000       8.568650000000
       167    2   0.000000       42.502200000000       0.000000000000       8.568650000000
       168    2   0.000000       46.044050000000       6.134650000000       8.568650000000
       169    1   0.000000       49.585900000000       4.089762576900       9.636166691600
       170    1   0.000000       53.127750000000      10.224412576900       9.636166691600
       171    2   0.000000       51.356825000000       3.067325000000       8.568650000000
       172    2   0.000000       54.898675000000       9.201975000000       8.568650000000
       173    1   0.000000       51.356825000000       1.022437576900       9.636166691600
       174    1   0.000000       53.127750000000       4.089762576900       9.636166691600
       175    1   0.000000       54.898675000000       7.157087576900       9.636166691600
       176    1   0.000000       49.585900000000      10.224412576900       9.636166691600
       177    1   0.000000       54.898675000000       1.022437576900       7.501133308400
       178    1   0.000000       51.356825000000       7.157087576900       7.501133308400
       179    1   0.000000       54.898675000000       1.022437576900       9.636166691600
       180    1   0.000000       51.356825000000       7.157087576900       9.636166691600
       181    1   0.000000       49.585900000000       4.089762576900       7.501133308400
       182    1   0.000000       53.127750000000      10.224412576900       7.501133308400
       183    1   0.000000       53.127750000000       4.089762576900       7.501133308400
       184    1   0.000000       49.585900000000      10.224412576900       7.501133308400
       185    1   0.000000       51.356825000000       1.022437576900       7.501133308400
       186    1   0.000000       54.898675000000       7.157087576900       7.501133308400
       187    2   0.000000       54.898675000000       3.067325000000       8.568650000000
       188    2   0.000000       53.127750000000       0.000000000000       8.568650000000
       189    2   0.000000       51.356825000000       9.201975000000       8.568650000000
       190    2   0.000000       49.585900000000       6.134650000000       8.568650000000
       191    2   0.000000       49.585900000000       0.000000000000       8.568650000000
       192    2   0.000000       53.127750000000       6.134650000000       8.568650000000
       193    1   0.000000       56.669600000000       4.089762576900       9.636166691600
       194    1   0.000000       60.211450000000      10.224412576900       9.636166691600
       195    2   0.000000       58.440525000000       3.067325000000       8.568650000000
       196    2   0.000000       61.982375000000       9.201975000000       8.568650000000
       197    1   0.000000       58.440525000000       1.022437576900       9.636166691600
       198    1   0.000000       60.211450000000       4.089762576900       9.636166691600
       199    1   0.000000       61.982375000000       7.157087576900       9.636166691600
       200    1   0.000000       56.669600000000      10.224412576900       9.636166691600
       201    1   0.000000       61.982375000000       1.022437576900       7.501133308400
       202    1   0.000000       58.440525000000       7.157087576900       7.501133308400
       203    1   0.000000       61.982375000000       1.022437576900       9.636166691600
       204    1   0.000000       58.440525000000       7.157087576900       9.636166691600
       205    1   0.000000       56.669600000000       4.089762576900       7.501133308400
       206    1   0.000000       60.211450000000      10.224412576900       7.501133308400
       207    1   0.000000       60.211450000000       4.089762576900       7.501133308400
       208    1   0.000000       56.669600000000      10.224412576900       7.501133308400
       209    1   0.000000       58.440525000000       1.022437576900       7.501133308400
       210    1   0.000000       61.982375000000       7.157087576900       7.501133308400
       211    2   0.000000       61.982375000000       3.067325000000       8.568650000000
       212    2   0.000000       60.211450000000       0.000000000000       8.568650000000
       213    2   0.000000       58.440525000000       9.201975000000       8.568650000000
       214    2   0.000000       56.669600000000       6.134650000000       8.568650000000
       215    2   0.000000       56.669600000000       0.000000000000       8.568650000000
       216    2   0.000000       60.211450000000       6.134650000000       8.568650000000
       217    1   0.000000       63.753300000000       4.089762576900       9.636166691600
       218    1   0.000000       67.295150000000      10.224412576900       9.636166691600
       219    2   0.000000       65.524225000000       3.067325000000       8.568650000000
       220    2   0.000000       69.066075000000       9.201975000000       8.568650000000
       221    1   0.000000       65.524225000000       1.022437576900       9.636166691600
       222    1   0.000000       67.295150000000       4.089762576900       9.636166691600
       223    1   0.000000       69.066075000000       7.157087576900       9.636166691600
       224    1   0.000000       63.753300000000      10.224412576900       9.636166691600
       225    1   0.000000       69.066075000000       1.022437576900       7.501133308400
       226    1   0.000000       65.524225000000       7.157087576900       7.501133308400
       227    1   0.000000       69.066075000000       1.022437576900       9.636166691600
       228    1   0.000000       65.524225000000       7.157087576900       9.636166691600
       229    1   0.000000       63.753300000000       4.089762576900       7.501133308400
       230    1   0.000000       67.295150000000      10.224412576900       7.501133308400
       231    1   0.000000       67.295150000000       4.089762576900       7.501133308400
       232    1   0.000000       63.753300000000      10.224412576900       7.501133308400
       233    1   0.000000       65.524225000000       1.022437576900       7.501133308400
       234    1   0.000000       69.066075000000       7.157087576900       7.501133308400
       235    2   0.000000       69.066075000000       3.067325000000       8.568650000000
       236    2   0.000000       67.295150000000       0.000000000000       8.568650000000
       237    2   0.000000       65.524225000000       9.201975000000       8.568650000000
       238    2   0.000000       63.753300000000       6.134650000000       8.568650000000
       239    2   0.000000       63.753300000000       0.000000000000       8.568650000000
       240    2   0.000000       67.295150000000       6.134650000000       8.568650000000
       241    1   0.000000       70.837000000000       4.089762576900       9.636166691600
       242    1   0.000000       74.378850000000      10.224412576900       9.636166691600
       243    2   0.000000       72.607925000000       3.067325000000       8.568650000000
       244    2   0.000000       76.149775000000       9.201975000000       8.568650000000
       245    1   0.000000       72.607925000000       1.022437576900       9.636166691600
       246    1   0.000000       74.378850000000       4.089762576900       9.636166691600
       247    1   0.000000       76.149775000000       7.157087576900       9.636166691600
       248    1   0.000000       70.837000000000      10.224412576900       9.636166691600
       249    1   0.000000       76.149775000000       1.022437576900       7.501133308400
       250    1   0.000000       72.607925000000       7.157087576900       7.501133308400
       251    1   0.000000       76.149775000000       1.022437576900       9.636166691600
       252    1   0.000000       72.607925000000       7.157087576900       9.636166691600
       253    1   0.000000       70.837000000000       4.089762576900       7.501133308400
       254    1   0.000000       74.378850000000      10.224412576900       7.501133308400
       255    1   0.000000       74.378850000000       4.089762576900       7.501133308400
       256    1   0.000000       70.837000000000      10.224412576900       7.501133308400
       257    1   0.000000       72.607925000000       1.022437576900       7.501133308400
       258    1   0.000000       76.149775000000       7.157087576900       7.501133308400
       259    2   0.000000       76.149775000000       3.067325000000       8.568650000000
       260    2   0.000000       74.378850000000       0.000000000000       8.568650000000
       261    2   0.000000       72.607925000000       9.201975000000       8.568650000000
       262    2   0.000000       70.837000000000       6.134650000000       8.568650000000
       263    2   0.000000       70.837000000000       0.000000000000       8.568650000000
       264    2   0.000000       74.378850000000       6.134650000000       8.568650000000
       265    1   0.000000       77.920700000000       4.089762576900       9.636166691600
       266    1   0.000000       81.462550000000      10.224412576900       9.636166691600
       267    2   0.000000       79.691625000000       3.067325000000       8.568650000000
       268    2   0.000000       83.233475000000       9.201975000000       8.568650000000
       269    1   0.000000       79.691625000000       1.022437576900       9.636166691600
       270    1   0.000000       81.462550000000       4.089762576900       9.636166691600
       271    1   0.000000       83.233475000000       7.157087576900       9.636166691600
       272    1   0.000000       77.920700000000      10.224412576900       9.636166691600
       273    1   0.000000       83.233475000000       1.022437576900       7.501133308400
       274    1   0.000000       79.691625000000       7.157087576900       7.501133308400
       275    1   0.000000       83.233475000000       1.022437576900       9.636166691600
       276    1   0.000000       79.691625000000       7.157087576900       9.636166691600
       277    1   0.000000       77.920700000000       4.089762576900       7.501133308400
       278    1   0.000000       81.462550000000      10.224412576900       7.501133308400
       279    1   0.000000       81.462550000000       4.089762576900       7.501133308400
       280    1   0.000000       77.920700000000      10.224412576900       7.501133308400
       281    1   0.000000       79.691625000000       1.022437576900       7.501133308400
       282    1   0.000000       83.233475000000       7.157087576900       7.501133308400
       283    2   0.000000       83.233475000000       3.067325000000       8.568650000000
       284    2   0.000000       81.462550000000       0.000000000000       8.568650000000
       285    2   0.000000       79.691625000000       9.201975000000       8.568650000000
       286    2   0.000000       77.920700000000       6.134650000000       8.568650000000
       287    2   0.000000       77.920700000000       0.000000000000       8.568650000000
       288    2   0.000000       81.462550000000       6.134650000000       8.568650000000
       289    1   0.000000       85.004400000000       4.089762576900       9.636166691600
       290    1   0.000000       88.546250000000      10.224412576900       9.636166691600
       291    2   0.000000       86.775325000000       3.067325000000       8.568650000000
       292    2   0.000000       90.317175000000       9.201975000000       8.568650000000
       293    1   0.000000       86.775325000000       1.022437576900       9.636166691600
       294    1   0.000000       88.546250000000       4.089762576900       9.636166691600
       295    1   0.000000       90.317175000000       7.157087576900       9.636166691600
       296    1   0.000000       85.004400000000      10.224412576900       9.636166691600
       297    1   0.000000       90.317175000000       1.022437576900       7.501133308400
       298    1   0.000000       86.775325000000       7.157087576900       7.501133308400
       299    1   0.000000       90.317175000000       1.022437576900       9.636166691600
       300    1   0.000000       86.775325000000       7.157087576900       9.636166691600
       301    1   0.000000       85.004400000000       4.089762576900       7.501133308400
       302    1   0.000000       88.546250000000      10.224412576900       7.501133308400
       303    1   0.000000       88.546250000000       4.089762576900       7.501133308400
       304    1   0.000000       85.004400000000      10.224412576900       7.501133308400
       305    1   0.000000       86.775325000000       1.022437576900       7.501133308400
       306    1   0.000000       90.317175000000       7.157087576900       7.501133308400
       307    2   0.000000       90.317175000000       3.067325000000       8.568650000000
       308    2   0.000000       88.546250000000       0.000000000000       8.568650000000
       309    2   0.000000       86.775325000000       9.201975000000       8.568650000000
       310    2   0.000000       85.004400000000       6.134650000000       8.568650000000
       311    2   0.000000       85.004400000000       0.000000000000       8.568650000000
       312    2   0.000000       88.546250000000       6.134650000000       8.568650000000
       313    1   0.000000       92.088100000000       4.089762576900       9.636166691600
       314    1   0.000000       95.629950000000      10.224412576900       9.636166691600
       315    2   0.000000       93.859025000000       3.067325000000       8.568650000000
       316    2   0.000000       97.400875000000       9.201975000000       8.568650000000
       317    1   0.000000       93.859025000000       1.022437576900       9.636166691600
       318    1   0.000000       95.629950000000       4.089762576900       9.636166691600
       319    1   0.000000       97.400875000000       7.157087576900       9.636166691600
       320    1   0.000000       92.088100000000      10.224412576900       9.636166691600
       321    1   0.000000       97.400875000000       1.022437576900       7.501133308400
       322    1   0.000000       93.859025000000       7.157087576900       7.501133308400
       323    1   0.000000       97.400875000000       1.022437576900       9.636166691600
       324    1   0.000000       93.859025000000       7.157087576900       9.636166691600
       325    1   0.000000       92.088100000000       4.089762576900       7.501133308400
       326    1   0.000000       95.629950000000      10.224412576900       7.501133308400