 # O16 Sc8
  
        3456  atoms
           2  atom types
 
      0.000000000000     102.955200000000  xlo xhi
      0.000000000000     100.307700000000  ylo yhi
      0.000000000000      17.071100000000  zlo zhi
 
Masses
 
            1   15.99900000             # O
            2   44.95591200             # Sc
 
Atoms # atomic
 
         1    1        6.434700000000       3.715096284900       9.570946357200
         2    1        3.217350000000       9.287746284900       9.570946357200
         3    1        6.434700000000       3.715096284900       7.500153642800
         4    1        3.217350000000       9.287746284900       7.500153642800
         5    2        4.826025000000       2.786325000000       8.535550000000
         6    2        1.608675000000       8.358975000000       8.535550000000
         7    2        6.434700000000       0.000000000000       8.535550000000
         8    2        3.217350000000       5.572650000000       8.535550000000
         9    1        4.826025000000       0.928771284900       7.500153642800
        10    1        1.608675000000       6.501421284900       7.500153642800
        11    1        4.826025000000       0.928771284900       9.570946357200
        12    1        1.608675000000       6.501421284900       9.570946357200
        13    1        3.217350000000       3.715096284900       7.500153642800
        14    1        0.000000000000       9.287746284900       7.500153642800
        15    1        1.608675000000       0.928771284900       9.570946357200
        16    1        4.826025000000       6.501421284900       9.570946357200
        17    1        3.217350000000       3.715096284900       9.570946357200
        18    1        6.434700000000       9.287746284900       9.570946357200
        19    2        3.217350000000       0.000000000000       8.535550000000
        20    2        6.434700000000       5.572650000000       8.535550000000
        21    1        1.608675000000       0.928771284900       7.500153642800
        22    1        4.826025000000       6.501421284900       7.500153642800
        23    2        1.608675000000       2.786325000000       8.535550000000
        24    2        4.826025000000       8.358975000000       8.535550000000
        25    1       12.869400000000       3.715096284900       9.570946357200
        26    1        9.652050000000       9.287746284900       9.570946357200
        27    1       12.869400000000       3.715096284900       7.500153642800
        28    1        9.652050000000       9.287746284900       7.500153642800
        29    2       11.260725000000       2.786325000000       8.535550000000
        30    2        8.043375000000       8.358975000000       8.535550000000
        31    2       12.869400000000       0.000000000000       8.535550000000
        32    2        9.652050000000       5.572650000000       8.535550000000
        33    1       11.260725000000       0.928771284900       7.500153642800
        34    1        8.043375000000       6.501421284900       7.500153642800
        35    1       11.260725000000       0.928771284900       9.570946357200
        36    1        8.043375000000       6.501421284900       9.570946357200
        37    1        9.652050000000       3.715096284900       7.500153642800
        38    1        6.434700000000       9.287746284900       7.500153642800
        39    1        8.043375000000       0.928771284900       9.570946357200
        40    1       11.260725000000       6.501421284900       9.570946357200
        41    1        9.652050000000       3.715096284900       9.570946357200
        42    1       12.869400000000       9.287746284900       9.570946357200
        43    2        9.652050000000       0.000000000000       8.535550000000
        44    2       12.869400000000       5.572650000000       8.535550000000
        45    1        8.043375000000       0.928771284900       7.500153642800
        46    1       11.260725000000       6.501421284900       7.500153642800
        47    2        8.043375000000       2.786325000000       8.535550000000
        48    2       11.260725000000       8.358975000000       8.535550000000
        49    1       19.304100000000       3.715096284900       9.570946357200
        50    1       16.086750000000       9.287746284900       9.570946357200
        51    1       19.304100000000       3.715096284900       7.500153642800
        52    1       16.086750000000       9.287746284900       7.500153642800
        53    2       17.695425000000       2.786325000000       8.535550000000
        54    2       14.478075000000       8.358975000000       8.535550000000
        55    2       19.304100000000       0.000000000000       8.535550000000
        56    2       16.086750000000       5.572650000000       8.535550000000
        57    1       17.695425000000       0.928771284900       7.500153642800
        58    1       14.478075000000       6.501421284900       7.500153642800
        59    1       17.695425000000       0.928771284900       9.570946357200
        60    1       14.478075000000       6.501421284900       9.570946357200
        61    1       16.086750000000       3.715096284900       7.500153642800
        62    1       12.869400000000       9.287746284900       7.500153642800
        63    1       14.478075000000       0.928771284900       9.570946357200
        64    1       17.695425000000       6.501421284900       9.570946357200
        65    1       16.086750000000       3.715096284900       9.570946357200
        66    1       19.304100000000       9.287746284900       9.570946357200
        67    2       16.086750000000       0.000000000000       8.535550000000
        68    2       19.304100000000       5.572650000000       8.535550000000
        69    1       14.478075000000       0.928771284900       7.500153642800
        70    1       17.695425000000       6.501421284900       7.500153642800
        71    2       14.478075000000       2.786325000000       8.535550000000
        72    2       17.695425000000       8.358975000000       8.535550000000
        73    1       25.738800000000       3.715096284900       9.570946357200
        74    1       22.521450000000       9.287746284900       9.570946357200
        75    1       25.738800000000       3.715096284900       7.500153642800
        76    1       22.521450000000       9.287746284900       7.500153642800
        77    2       24.130125000000       2.786325000000       8.535550000000
        78    2       20.912775000000       8.358975000000       8.535550000000
        79    2       25.738800000000       0.000000000000       8.535550000000
        80    2       22.521450000000       5.572650000000       8.535550000000
        81    1       24.130125000000       0.928771284900       7.500153642800
        82    1       20.912775000000       6.501421284900       7.500153642800
        83    1       24.130125000000       0.928771284900       9.570946357200
        84    1       20.912775000000       6.501421284900       9.570946357200
        85    1       22.521450000000       3.715096284900       7.500153642800
        86    1       19.304100000000       9.287746284900       7.500153642800
        87    1       20.912775000000       0.928771284900       9.570946357200
        88    1       24.130125000000       6.501421284900       9.570946357200
        89    1       22.521450000000       3.715096284900       9.570946357200
        90    1       25.738800000000       9.287746284900       9.570946357200
        91    2       22.521450000000       0.000000000000       8.535550000000
        92    2       25.738800000000       5.572650000000       8.535550000000
        93    1       20.912775000000       0.928771284900       7.500153642800
        94    1       24.130125000000       6.501421284900       7.500153642800
        95    2       20.912775000000       2.786325000000       8.535550000000
        96    2       24.130125000000       8.358975000000       8.535550000000
        97    1       32.173500000000       3.715096284900       9.570946357200
        98    1       28.956150000000       9.287746284900       9.570946357200
        99    1       32.173500000000       3.715096284900       7.500153642800
       100    1       28.956150000000       9.287746284900       7.500153642800
       101    2       30.564825000000       2.786325000000       8.535550000000
       102    2       27.347475000000       8.358975000000       8.535550000000
       103    2       32.173500000000       0.000000000000       8.535550000000
       104    2       28.956150000000       5.572650000000       8.535550000000
       105    1       30.564825000000       0.928771284900       7.500153642800
       106    1       27.347475000000       6.501421284900       7.500153642800
       107    1       30.564825000000       0.928771284900       9.570946357200
       108    1       27.347475000000       6.501421284900       9.570946357200
       109    1       28.956150000000       3.715096284900       7.500153642800
       110    1       25.738800000000       9.287746284900       7.500153642800
       111    1       27.347475000000       0.928771284900       9.570946357200
       112    1       30.564825000000       6.501421284900       9.570946357200
       113    1       28.956150000000       3.715096284900       9.570946357200
       114    1       32.173500000000       9.287746284900       9.570946357200
       115    2       28.956150000000       0.000000000000       8.535550000000
       116    2       32.173500000000       5.572650000000       8.535550000000
       117    1       27.347475000000       0.928771284900       7.500153642800
       118    1       30.564825000000       6.501421284900       7.500153642800
       119    2       27.347475000000       2.786325000000       8.535550000000
       120    2       30.564825000000       8.358975000000       8.535550000000
       121    1       38.608200000000       3.715096284900       9.570946357200
       122    1       35.390850000000       9.287746284900       9.570946357200
       123    1       38.608200000000       3.715096284900       7.500153642800
       124    1       35.390850000000       9.287746284900       7.500153642800
       125    2       36.999525000000       2.786325000000       8.535550000000
       126    2       33.782175000000       8.358975000000       8.535550000000
       127    2       38.608200000000       0.000000000000       8.535550000000
       128    2       35.390850000000       5.572650000000       8.535550000000
       129    1       36.999525000000       0.928771284900       7.500153642800
       130    1       33.782175000000       6.501421284900       7.500153642800
       131    1       36.999525000000       0.928771284900       9.570946357200
       132    1       33.782175000000       6.501421284900       9.570946357200
       133    1       35.390850000000       3.715096284900       7.500153642800
       134    1       32.173500000000       9.287746284900       7.500153642800
       135    1       33.782175000000       0.928771284900       9.570946357200
       136    1       36.999525000000       6.501421284900       9.570946357200
       137    1       35.390850000000       3.715096284900       9.570946357200
       138    1       38.608200000000       9.287746284900       9.570946357200
       139    2       35.390850000000       0.000000000000       8.535550000000
       140    2       38.608200000000       5.572650000000       8.535550000000
       141    1       33.782175000000       0.928771284900       7.500153642800
       142    1       36.999525000000       6.501421284900       7.500153642800
       143    2       33.782175000000       2.786325000000       8.535550000000
       144    2       36.999525000000       8.358975000000       8.535550000000
       145    1       45.042900000000       3.715096284900       9.570946357200
       146    1       41.825550000000       9.287746284900       9.570946357200
       147    1       45.042900000000       3.715096284900       7.500153642800
       148    1       41.825550000000       9.287746284900       7.500153642800
       149    2       43.434225000000       2.786325000000       8.535550000000
       150    2       40.216875000000       8.358975000000       8.535550000000
       151    2       45.042900000000       0.000000000000       8.535550000000
       152    2       41.825550000000       5.572650000000       8.535550000000
       153    1       43.434225000000       0.928771284900       7.500153642800
       154    1       40.216875000000       6.501421284900       7.500153642800
       155    1       43.434225000000       0.928771284900       9.570946357200
       156    1       40.216875000000       6.501421284900       9.570946357200
       157    1       41.825550000000       3.715096284900       7.500153642800
       158    1       38.608200000000       9.287746284900       7.500153642800
       159    1       40.216875000000       0.928771284900       9.570946357200
       160    1       43.434225000000       6.501421284900       9.570946357200
       161    1       41.825550000000       3.715096284900       9.570946357200
       162    1       45.042900000000       9.287746284900       9.570946357200
       163    2       41.825550000000       0.000000000000       8.535550000000
       164    2       45.042900000000       5.572650000000       8.535550000000
       165    1       40.216875000000       0.928771284900       7.500153642800
       166    1       43.434225000000       6.501421284900       7.500153642800
       167    2       40.216875000000       2.786325000000       8.535550000000
       168    2       43.434225000000       8.358975000000       8.535550000000
       169    1       51.477600000000       3.715096284900       9.570946357200
       170    1       48.260250000000       9.287746284900       9.570946357200
       171    1       51.477600000000       3.715096284900       7.500153642800
       172    1       48.260250000000       9.287746284900       7.500153642800
       173    2       49.868925000000       2.786325000000       8.535550000000
       174    2       46.651575000000       8.358975000000       8.535550000000
       175    2       51.477600000000       0.000000000000       8.535550000000
       176    2       48.260250000000       5.572650000000       8.535550000000
       177    1       49.868925000000       0.928771284900       7.500153642800
       178    1       46.651575000000       6.501421284900       7.500153642800
       179    1       49.868925000000       0.928771284900       9.570946357200
       180    1       46.651575000000       6.501421284900       9.570946357200
       181    1       48.260250000000       3.715096284900       7.500153642800
       182    1       45.042900000000       9.287746284900       7.500153642800
       183    1       46.651575000000       0.928771284900       9.570946357200
       184    1       49.868925000000       6.501421284900       9.570946357200
       185    1       48.260250000000       3.715096284900       9.570946357200
       186    1       51.477600000000       9.287746284900       9.570946357200
       187    2       48.260250000000       0.000000000000       8.535550000000
       188    2       51.477600000000       5.572650000000       8.535550000000
       189    1       46.651575000000       0.928771284900       7.500153642800
       190    1       49.868925000000       6.501421284900       7.500153642800
       191    2       46.651575000000       2.786325000000       8.535550000000
       192    2       49.868925000000       8.358975000000       8.535550000000
       193    1       57.912300000000       3.715096284900       9.570946357200
       194    1       54.694950000000       9.287746284900       9.570946357200
       195    1       57.912300000000       3.715096284900       7.500153642800
       196    1       54.694950000000       9.287746284900       7.500153642800
       197    2       56.303625000000       2.786325000000       8.535550000000
       198    2       53.086275000000       8.358975000000       8.535550000000
       199    2       57.912300000000       0.000000000000       8.535550000000
       200    2       54.694950000000       5.572650000000       8.535550000000
       201    1       56.303625000000       0.928771284900       7.500153642800
       202    1       53.086275000000       6.501421284900       7.500153642800
       203    1       56.303625000000       0.928771284900       9.570946357200
       204    1       53.086275000000       6.501421284900       9.570946357200
       205    1       54.694950000000       3.715096284900       7.500153642800
       206    1       51.477600000000       9.287746284900       7.500153642800
       207    1       53.086275000000       0.928771284900       9.570946357200
       208    1       56.303625000000       6.501421284900       9.570946357200
       209    1       54.694950000000       3.715096284900       9.570946357200
       210    1       57.912300000000       9.287746284900       9.570946357200
       211    2       54.694950000000       0.000000000000       8.535550000000
       212    2       57.912300000000       5.572650000000       8.535550000000
       213    1       53.086275000000       0.928771284900       7.500153642800
       214    1       56.303625000000       6.501421284900       7.500153642800
       215    2       53.086275000000       2.786325000000       8.535550000000
       216    2       56.303625000000       8.358975000000       8.535550000000
       217    1       64.347000000000       3.715096284900       9.570946357200
       218    1       61.129650000000       9.287746284900       9.570946357200
       219    1       64.347000000000       3.715096284900       7.500153642800
       220    1       61.129650000000       9.287746284900       7.500153642800
       221    2       62.738325000000       2.786325000000       8.535550000000
       222    2       59.520975000000       8.358975000000       8.535550000000
       223    2       64.347000000000       0.000000000000       8.535550000000
       224    2       61.129650000000       5.572650000000       8.535550000000
       225    1       62.738325000000       0.928771284900       7.500153642800
       226    1       59.520975000000       6.501421284900       7.500153642800
       227    1       62.738325000000       0.928771284900       9.570946357200
       228    1       59.520975000000       6.501421284900       9.570946357200
       229    1       61.129650000000       3.715096284900       7.500153642800
       230    1       57.912300000000       9.287746284900       7.500153642800
       231    1       59.520975000000       0.928771284900       9.570946357200
       232    1       62.738325000000       6.501421284900       9.570946357200
       233    1       61.129650000000       3.715096284900       9.570946357200
       234    1       64.347000000000       9.287746284900       9.570946357200
       235    2       61.129650000000       0.000000000000       8.535550000000
       236    2       64.347000000000       5.572650000000       8.535550000000
       237    1       59.520975000000       0.928771284900       7.500153642800
       238    1       62.738325000000       6.501421284900       7.500153642800
       239    2       59.520975000000       2.786325000000       8.535550000000
       240    2       62.738325000000       8.358975000000       8.535550000000
       241    1       70.781700000000       3.715096284900       9.570946357200
       242    1       67.564350000000       9.287746284900       9.570946357200
       243    1       70.781700000000       3.715096284900       7.500153642800
       244    1       67.564350000000       9.287746284900       7.500153642800
       245    2       69.173025000000       2.786325000000       8.535550000000
       246    2       65.955675000000       8.358975000000       8.535550000000
       247    2       70.781700000000       0.000000000000       8.535550000000
       248    2       67.564350000000       5.572650000000       8.535550000000
       249    1       69.173025000000       0.928771284900       7.500153642800
       250    1       65.955675000000       6.501421284900       7.500153642800
       251    1       69.173025000000       0.928771284900       9.570946357200
       252    1       65.955675000000       6.501421284900       9.570946357200
       253    1       67.564350000000       3.715096284900       7.500153642800
       254    1       64.347000000000       9.287746284900       7.500153642800
       255    1       65.955675000000       0.928771284900       9.570946357200
       256    1       69.173025000000       6.501421284900       9.570946357200
       257    1       67.564350000000       3.715096284900       9.570946357200
       258    1       70.781700000000       9.287746284900       9.570946357200
       259    2       67.564350000000       0.000000000000       8.535550000000
       260    2       70.781700000000       5.572650000000       8.535550000000
       261    1       65.955675000000       0.928771284900       7.500153642800
       262    1       69.173025000000       6.501421284900       7.500153642800
       263    2       65.955675000000       2.786325000000       8.535550000000
       264    2       69.173025000000       8.358975000000       8.535550000000
       265    1       77.216400000000       3.715096284900       9.570946357200
       266    1       73.999050000000       9.287746284900       9.570946357200
       267    1       77.216400000000       3.715096284900       7.500153642800
       268    1       73.999050000000       9.287746284900       7.500153642800
       269    2       75.607725000000       2.786325000000       8.535550000000
       270    2       72.390375000000       8.358975000000       8.535550000000
       271    2       77.216400000000       0.000000000000       8.535550000000
       272    2       73.999050000000       5.572650000000       8.535550000000
       273    1       75.607725000000       0.928771284900       7.500153642800
       274    1       72.390375000000       6.501421284900       7.500153642800
       275    1       75.607725000000       0.928771284900       9.570946357200
       276    1       72.390375000000       6.501421284900       9.570946357200
       277    1       73.999050000000       3.715096284900       7.500153642800
       278    1       70.781700000000       9.287746284900       7.500153642800
       279    1       72.390375000000       0.928771284900       9.570946357200
       280    1       75.607725000000       6.501421284900       9.570946357200
       281    1       73.999050000000       3.715096284900       9.570946357200
       282    1       77.216400000000       9.287746284900       9.570946357200
       283    2       73.999050000000       0.000000000000       8.535550000000
       284    2       77.216400000000       5.572650000000       8.535550000000
       285    1       72.390375000000       0.928771284900       7.500153642800
       286    1       75.607725000000       6.501421284900       7.500153642800
       287    2       72.390375000000       2.786325000000       8.535550000000
       288    2       75.607725000000       8.358975000000       8.535550000000
       289    1       83.651100000000       3.715096284900       9.570946357200
       290    1       80.433750000000       9.287746284900       9.570946357200
       291    1       83.651100000000       3.715096284900       7.500153642800
       292    1       80.433750000000       9.287746284900       7.500153642800
       293    2       82.042425000000       2.786325000000       8.535550000000
       294    2       78.825075000000       8.358975000000       8.535550000000
       295    2       83.651100000000       0.000000000000       8.535550000000
       296    2       80.433750000000       5.572650000000       8.535550000000
       297    1       82.042425000000       0.928771284900       7.500153642800
       298    1       78.825075000000       6.501421284900       7.500153642800
       299    1       82.042425000000       0.928771284900       9.570946357200
       300    1       78.825075000000       6.501421284900       9.570946357200
       301    1       80.433750000000       3.715096284900       7.500153642800
       302    1       77.216400000000       9.287746284900       7.500153642800
       303    1       78.825075000000       0.928771284900       9.570946357200
       304    1       82.042425000000       6.501421284900       9.570946357200
       305    1       80.433750000000       3.715096284900       9.570946357200
       306    1       83.651100000000       9.287746284900       9.570946357200
       307    2       80.433750000000       0.000000000000       8.535550000000
       308    2       83.651100000000       5.572650000000       8.535550000000
       309    1       78.825075000000       0.928771284900       7.500153642800
       310    1       82.042425000000       6.501421284900       7.500153642800
       311    2       78.825075000000       2.786325000000       8.535550000000
       312    2       82.042425000000       8.358975000000       8.535550000000
       313    1       90.085800000000       3.715096284900       9.570946357200
       314    1       86.868450000000       9.287746284900       9.570946357200
       315    1       90.085800000000       3.715096284900       7.500153642800
       316    1       86.868450000000       9.287746284900       7.500153642800
       317    2       88.477125000000       2.786325000000       8.535550000000
       318    2       85.259775000000       8.358975000000       8.535550000000
       319    2       90.085800000000       0.000000000000       8.535550000000
       320    2       86.868450000000       5.572650000000       8.535550000000
       321    1       88.477125000000       0.928771284900       7.500153642800
       322    1       85.259775000000       6.501421284900       7.500153642800
       323    1       88.477125000000       0.928771284900       9.570946357200
       324    1       85.259775000000       6.501421284900       9.570946357200
       325    1       86.868450000000       3.715096284900       7.500153642800
       326    1       83.651100000000       9.287746284900       7.500153642800
       327    1       85.259775000000       0.928771284900       9.570946357200
       328    1       88.477125000000       6.501421284900       9.570946357200
       329    1       86.868450000000       3.715096284900       9.570946357200
       330    1       90.085800000000       9.287746284900       9.570946357200
       331    2       86.868450000000       0.000000000000       8.535550000000
       332    2       90.085800000000       5.572650000000       8.535550000000
       333    1       85.259775000000       0.928771284900       7.500153642800
       334    1       88.477125000000       6.501421284900       7.500153642800
       335    2       85.259775000000       2.786325000000       8.535550000000
       336    2       88.477125000000       8.358975000000       8.535550000000
       337    1       96.520500000000       3.715096284900       9.570946357200
       338    1       93.303150000000       9.287746284900       9.570946357200
       339    1       96.520500000000       3.715096284900       7.500153642800
       340    1       93.303150000000       9.287746284900       7.500153642800
       341    2       94.911825000000       2.786325000000       8.535550000000
       342    2       91.694475000000       8.358975000000       8.535550000000
       343    2       96.520500000000       0.000000000000       8.535550000000
       344    2       93.303150000000       5.572650000000       8.535550000000
       345    1       94.911825000000       0.928771284900       7.500153642800
       346    1       91.694475000000       6.501421284900       7.500153642800
       347    1       94.911825000000       0.928771284900       9.570946357200
       348    1       91.694475000000       6.501421284900       9.570946357200
       349    1       93.303150000000       3.715096284900       7.500153642800
       350    1       90.085800000000       9.287746284900       7.500153642800
       351    1       91.694475000000       0.928771284900       9.570946357200
       352    1       94.911825000000       6.501421284900       9.570946357200
       353    1       93.303150000000       3.715096284900       9.570946357200
       354    1       96.520500000000       9.287746284900       9.570946357200
       355    2       93.303150000000       0.000000000000       8.535550000000
       356    2       96.520500000000       5.572650000000       8.535550000000
       357    1       91.694475000000       0.928771284900       7.500153642800
       358    1       94.911825000000       6.501421284900       7.500153642800
       359    2       91.694475000000       2.786325000000       8.535550000000
       360    2       94.911825000000       8.358975000000       8.535550000000
       361    1      102.955200000000       3.715096284900       9.570946357200
       362    1       99.737850000000       9.287746284900       9.570946357200
       363    1      102.955200000000       3.715096284900       7.500153642800
       364    1       99.737850000000       9.287746284900       7.500153642800
       365    2      101.346525000000       2.786325000000       8.535550000000
       366    2       98.129175000000       8.358975000000       8.535550000000
       367    2      102.955200000000       0.000000000000       8.535550000000
       368    2       99.737850000000       5.572650000000       8.535550000000
       369    1      101.346525000000       0.928771284900       7.500153642800
       370    1       98.129175000000       6.501421284900       7.500153642800