 # Sc8 Te16
  
        2496  atoms
           2  atom types
 
      0.000000000000      97.294600000000  xlo xhi
      0.000000000000     103.704000000000  ylo yhi
      0.000000000000      19.010100000000  zlo zhi
 
Masses
 
            1   44.95591200             # Sc
            2   127.60000000            # Te
 
Atoms # atomic
 
         1    1        0.000000000000      12.963000000000       9.505050000000
         2    1        3.742100000000       6.481500000000       9.505050000000
         3    2        1.871050000000       1.080245679000       7.502050813500
         4    2        3.742100000000       4.320995679000       7.502050813500
         5    2        0.000000000000      10.802495679000       7.502050813500
         6    2        5.613150000000       7.561745679000       7.502050813500
         7    2        0.000000000000       4.320995679000      11.508049186500
         8    2        3.742100000000       4.320995679000      11.508049186500
         9    1        3.742100000000      12.963000000000       9.505050000000
        10    2        7.484200000000      10.802495679000      11.508049186500
        11    1        0.000000000000       6.481500000000       9.505050000000
        12    2        3.742100000000      10.802495679000      11.508049186500
        13    2        1.871050000000       1.080245679000      11.508049186500
        14    2        5.613150000000       7.561745679000      11.508049186500
        15    1        1.871050000000       3.240750000000       9.505050000000
        16    1        5.613150000000       9.722250000000       9.505050000000
        17    1        5.613150000000       3.240750000000       9.505050000000
        18    1        1.871050000000       9.722250000000       9.505050000000
        19    2        5.613150000000       1.080245679000       7.502050813500
        20    2        1.871050000000       7.561745679000       7.502050813500
        21    2        5.613150000000       1.080245679000      11.508049186500
        22    2        1.871050000000       7.561745679000      11.508049186500
        23    2        7.484200000000       4.320995679000       7.502050813500
        24    2        3.742100000000      10.802495679000       7.502050813500
        25    1        7.484200000000      12.963000000000       9.505050000000
        26    1       11.226300000000       6.481500000000       9.505050000000
        27    2        9.355250000000       1.080245679000       7.502050813500
        28    2       11.226300000000       4.320995679000       7.502050813500
        29    2        7.484200000000      10.802495679000       7.502050813500
        30    2       13.097350000000       7.561745679000       7.502050813500
        31    2        7.484200000000       4.320995679000      11.508049186500
        32    2       11.226300000000       4.320995679000      11.508049186500
        33    1       11.226300000000      12.963000000000       9.505050000000
        34    2       14.968400000000      10.802495679000      11.508049186500
        35    1        7.484200000000       6.481500000000       9.505050000000
        36    2       11.226300000000      10.802495679000      11.508049186500
        37    2        9.355250000000       1.080245679000      11.508049186500
        38    2       13.097350000000       7.561745679000      11.508049186500
        39    1        9.355250000000       3.240750000000       9.505050000000
        40    1       13.097350000000       9.722250000000       9.505050000000
        41    1       13.097350000000       3.240750000000       9.505050000000
        42    1        9.355250000000       9.722250000000       9.505050000000
        43    2       13.097350000000       1.080245679000       7.502050813500
        44    2        9.355250000000       7.561745679000       7.502050813500
        45    2       13.097350000000       1.080245679000      11.508049186500
        46    2        9.355250000000       7.561745679000      11.508049186500
        47    2       14.968400000000       4.320995679000       7.502050813500
        48    2       11.226300000000      10.802495679000       7.502050813500
        49    1       14.968400000000      12.963000000000       9.505050000000
        50    1       18.710500000000       6.481500000000       9.505050000000
        51    2       16.839450000000       1.080245679000       7.502050813500
        52    2       18.710500000000       4.320995679000       7.502050813500
        53    2       14.968400000000      10.802495679000       7.502050813500
        54    2       20.581550000000       7.561745679000       7.502050813500
        55    2       14.968400000000       4.320995679000      11.508049186500
        56    2       18.710500000000       4.320995679000      11.508049186500
        57    1       18.710500000000      12.963000000000       9.505050000000
        58    2       22.452600000000      10.802495679000      11.508049186500
        59    1       14.968400000000       6.481500000000       9.505050000000
        60    2       18.710500000000      10.802495679000      11.508049186500
        61    2       16.839450000000       1.080245679000      11.508049186500
        62    2       20.581550000000       7.561745679000      11.508049186500
        63    1       16.839450000000       3.240750000000       9.505050000000
        64    1       20.581550000000       9.722250000000       9.505050000000
        65    1       20.581550000000       3.240750000000       9.505050000000
        66    1       16.839450000000       9.722250000000       9.505050000000
        67    2       20.581550000000       1.080245679000       7.502050813500
        68    2       16.839450000000       7.561745679000       7.502050813500
        69    2       20.581550000000       1.080245679000      11.508049186500
        70    2       16.839450000000       7.561745679000      11.508049186500
        71    2       22.452600000000       4.320995679000       7.502050813500
        72    2       18.710500000000      10.802495679000       7.502050813500
        73    1       22.452600000000      12.963000000000       9.505050000000
        74    1       26.194700000000       6.481500000000       9.505050000000
        75    2       24.323650000000       1.080245679000       7.502050813500
        76    2       26.194700000000       4.320995679000       7.502050813500
        77    2       22.452600000000      10.802495679000       7.502050813500
        78    2       28.065750000000       7.561745679000       7.502050813500
        79    2       22.452600000000       4.320995679000      11.508049186500
        80    2       26.194700000000       4.320995679000      11.508049186500
        81    1       26.194700000000      12.963000000000       9.505050000000
        82    2       29.936800000000      10.802495679000      11.508049186500
        83    1       22.452600000000       6.481500000000       9.505050000000
        84    2       26.194700000000      10.802495679000      11.508049186500
        85    2       24.323650000000       1.080245679000      11.508049186500
        86    2       28.065750000000       7.561745679000      11.508049186500
        87    1       24.323650000000       3.240750000000       9.505050000000
        88    1       28.065750000000       9.722250000000       9.505050000000
        89    1       28.065750000000       3.240750000000       9.505050000000
        90    1       24.323650000000       9.722250000000       9.505050000000
        91    2       28.065750000000       1.080245679000       7.502050813500
        92    2       24.323650000000       7.561745679000       7.502050813500
        93    2       28.065750000000       1.080245679000      11.508049186500
        94    2       24.323650000000       7.561745679000      11.508049186500
        95    2       29.936800000000       4.320995679000       7.502050813500
        96    2       26.194700000000      10.802495679000       7.502050813500
        97    1       29.936800000000      12.963000000000       9.505050000000
        98    1       33.678900000000       6.481500000000       9.505050000000
        99    2       31.807850000000       1.080245679000       7.502050813500
       100    2       33.678900000000       4.320995679000       7.502050813500
       101    2       29.936800000000      10.802495679000       7.502050813500
       102    2       35.549950000000       7.561745679000       7.502050813500
       103    2       29.936800000000       4.320995679000      11.508049186500
       104    2       33.678900000000       4.320995679000      11.508049186500
       105    1       33.678900000000      12.963000000000       9.505050000000
       106    2       37.421000000000      10.802495679000      11.508049186500
       107    1       29.936800000000       6.481500000000       9.505050000000
       108    2       33.678900000000      10.802495679000      11.508049186500
       109    2       31.807850000000       1.080245679000      11.508049186500
       110    2       35.549950000000       7.561745679000      11.508049186500
       111    1       31.807850000000       3.240750000000       9.505050000000
       112    1       35.549950000000       9.722250000000       9.505050000000
       113    1       35.549950000000       3.240750000000       9.505050000000
       114    1       31.807850000000       9.722250000000       9.505050000000
       115    2       35.549950000000       1.080245679000       7.502050813500
       116    2       31.807850000000       7.561745679000       7.502050813500
       117    2       35.549950000000       1.080245679000      11.508049186500
       118    2       31.807850000000       7.561745679000      11.508049186500
       119    2       37.421000000000       4.320995679000       7.502050813500
       120    2       33.678900000000      10.802495679000       7.502050813500
       121    1       37.421000000000      12.963000000000       9.505050000000
       122    1       41.163100000000       6.481500000000       9.505050000000
       123    2       39.292050000000       1.080245679000       7.502050813500
       124    2       41.163100000000       4.320995679000       7.502050813500
       125    2       37.421000000000      10.802495679000       7.502050813500
       126    2       43.034150000000       7.561745679000       7.502050813500
       127    2       37.421000000000       4.320995679000      11.508049186500
       128    2       41.163100000000       4.320995679000      11.508049186500
       129    1       41.163100000000      12.963000000000       9.505050000000
       130    2       44.905200000000      10.802495679000      11.508049186500
       131    1       37.421000000000       6.481500000000       9.505050000000
       132    2       41.163100000000      10.802495679000      11.508049186500
       133    2       39.292050000000       1.080245679000      11.508049186500
       134    2       43.034150000000       7.561745679000      11.508049186500
       135    1       39.292050000000       3.240750000000       9.505050000000
       136    1       43.034150000000       9.722250000000       9.505050000000
       137    1       43.034150000000       3.240750000000       9.505050000000
       138    1       39.292050000000       9.722250000000       9.505050000000
       139    2       43.034150000000       1.080245679000       7.502050813500
       140    2       39.292050000000       7.561745679000       7.502050813500
       141    2       43.034150000000       1.080245679000      11.508049186500
       142    2       39.292050000000       7.561745679000      11.508049186500
       143    2       44.905200000000       4.320995679000       7.502050813500
       144    2       41.163100000000      10.802495679000       7.502050813500
       145    1       44.905200000000      12.963000000000       9.505050000000
       146    1       48.647300000000       6.481500000000       9.505050000000
       147    2       46.776250000000       1.080245679000       7.502050813500
       148    2       48.647300000000       4.320995679000       7.502050813500
       149    2       44.905200000000      10.802495679000       7.502050813500
       150    2       50.518350000000       7.561745679000       7.502050813500
       151    2       44.905200000000       4.320995679000      11.508049186500
       152    2       48.647300000000       4.320995679000      11.508049186500
       153    1       48.647300000000      12.963000000000       9.505050000000
       154    2       52.389400000000      10.802495679000      11.508049186500
       155    1       44.905200000000       6.481500000000       9.505050000000
       156    2       48.647300000000      10.802495679000      11.508049186500
       157    2       46.776250000000       1.080245679000      11.508049186500
       158    2       50.518350000000       7.561745679000      11.508049186500
       159    1       46.776250000000       3.240750000000       9.505050000000
       160    1       50.518350000000       9.722250000000       9.505050000000
       161    1       50.518350000000       3.240750000000       9.505050000000
       162    1       46.776250000000       9.722250000000       9.505050000000
       163    2       50.518350000000       1.080245679000       7.502050813500
       164    2       46.776250000000       7.561745679000       7.502050813500
       165    2       50.518350000000       1.080245679000      11.508049186500
       166    2       46.776250000000       7.561745679000      11.508049186500
       167    2       52.389400000000       4.320995679000       7.502050813500
       168    2       48.647300000000      10.802495679000       7.502050813500
       169    1       52.389400000000      12.963000000000       9.505050000000
       170    1       56.131500000000       6.481500000000       9.505050000000
       171    2       54.260450000000       1.080245679000       7.502050813500
       172    2       56.131500000000       4.320995679000       7.502050813500
       173    2       52.389400000000      10.802495679000       7.502050813500
       174    2       58.002550000000       7.561745679000       7.502050813500
       175    2       52.389400000000       4.320995679000      11.508049186500
       176    2       56.131500000000       4.320995679000      11.508049186500
       177    1       56.131500000000      12.963000000000       9.505050000000
       178    2       59.873600000000      10.802495679000      11.508049186500
       179    1       52.389400000000       6.481500000000       9.505050000000
       180    2       56.131500000000      10.802495679000      11.508049186500
       181    2       54.260450000000       1.080245679000      11.508049186500
       182    2       58.002550000000       7.561745679000      11.508049186500
       183    1       54.260450000000       3.240750000000       9.505050000000
       184    1       58.002550000000       9.722250000000       9.505050000000
       185    1       58.002550000000       3.240750000000       9.505050000000
       186    1       54.260450000000       9.722250000000       9.505050000000
       187    2       58.002550000000       1.080245679000       7.502050813500
       188    2       54.260450000000       7.561745679000       7.502050813500
       189    2       58.002550000000       1.080245679000      11.508049186500
       190    2       54.260450000000       7.561745679000      11.508049186500
       191    2       59.873600000000       4.320995679000       7.502050813500
       192    2       56.131500000000      10.802495679000       7.502050813500
       193    1       59.873600000000      12.963000000000       9.505050000000
       194    1       63.615700000000       6.481500000000       9.505050000000
       195    2       61.744650000000       1.080245679000       7.502050813500
       196    2       63.615700000000       4.320995679000       7.502050813500
       197    2       59.873600000000      10.802495679000       7.502050813500
       198    2       65.486750000000       7.561745679000       7.502050813500
       199    2       59.873600000000       4.320995679000      11.508049186500
       200    2       63.615700000000       4.320995679000      11.508049186500
       201    1       63.615700000000      12.963000000000       9.505050000000
       202    2       67.357800000000      10.802495679000      11.508049186500
       203    1       59.873600000000       6.481500000000       9.505050000000
       204    2       63.615700000000      10.802495679000      11.508049186500
       205    2       61.744650000000       1.080245679000      11.508049186500
       206    2       65.486750000000       7.561745679000      11.508049186500
       207    1       61.744650000000       3.240750000000       9.505050000000
       208    1       65.486750000000       9.722250000000       9.505050000000
       209    1       65.486750000000       3.240750000000       9.505050000000
       210    1       61.744650000000       9.722250000000       9.505050000000
       211    2       65.486750000000       1.080245679000       7.502050813500
       212    2       61.744650000000       7.561745679000       7.502050813500
       213    2       65.486750000000       1.080245679000      11.508049186500
       214    2       61.744650000000       7.561745679000      11.508049186500
       215    2       67.357800000000       4.320995679000       7.502050813500
       216    2       63.615700000000      10.802495679000       7.502050813500
       217    1       67.357800000000      12.963000000000       9.505050000000
       218    1       71.099900000000       6.481500000000       9.505050000000
       219    2       69.228850000000       1.080245679000       7.502050813500
       220    2       71.099900000000       4.320995679000       7.502050813500
       221    2       67.357800000000      10.802495679000       7.502050813500
       222    2       72.970950000000       7.561745679000       7.502050813500
       223    2       67.357800000000       4.320995679000      11.508049186500
       224    2       71.099900000000       4.320995679000      11.508049186500
       225    1       71.099900000000      12.963000000000       9.505050000000
       226    2       74.842000000000      10.802495679000      11.508049186500
       227    1       67.357800000000       6.481500000000       9.505050000000
       228    2       71.099900000000      10.802495679000      11.508049186500
       229    2       69.228850000000       1.080245679000      11.508049186500
       230    2       72.970950000000       7.561745679000      11.508049186500
       231    1       69.228850000000       3.240750000000       9.505050000000
       232    1       72.970950000000       9.722250000000       9.505050000000
       233    1       72.970950000000       3.240750000000       9.505050000000
       234    1       69.228850000000       9.722250000000       9.505050000000
       235    2       72.970950000000       1.080245679000       7.502050813500
       236    2       69.228850000000       7.561745679000       7.502050813500
       237    2       72.970950000000       1.080245679000      11.508049186500
       238    2       69.228850000000       7.561745679000      11.508049186500
       239    2       74.842000000000       4.320995679000       7.502050813500
       240    2       71.099900000000      10.802495679000       7.502050813500
       241    1       74.842000000000      12.963000000000       9.505050000000
       242    1       78.584100000000       6.481500000000       9.505050000000
       243    2       76.713050000000       1.080245679000       7.502050813500
       244    2       78.584100000000       4.320995679000       7.502050813500
       245    2       74.842000000000      10.802495679000       7.502050813500
       246    2       80.455150000000       7.561745679000       7.502050813500
       247    2       74.842000000000       4.320995679000      11.508049186500
       248    2       78.584100000000       4.320995679000      11.508049186500
       249    1       78.584100000000      12.963000000000       9.505050000000
       250    2       82.326200000000      10.802495679000      11.508049186500
       251    1       74.842000000000       6.481500000000       9.505050000000
       252    2       78.584100000000      10.802495679000      11.508049186500
       253    2       76.713050000000       1.080245679000      11.508049186500
       254    2       80.455150000000       7.561745679000      11.508049186500
       255    1       76.713050000000       3.240750000000       9.505050000000
       256    1       80.455150000000       9.722250000000       9.505050000000
       257    1       80.455150000000       3.240750000000       9.505050000000
       258    1       76.713050000000       9.722250000000       9.505050000000
       259    2       80.455150000000       1.080245679000       7.502050813500
       260    2       76.713050000000       7.561745679000       7.502050813500
       261    2       80.455150000000       1.080245679000      11.508049186500
       262    2       76.713050000000       7.561745679000      11.508049186500
       263    2       82.326200000000       4.320995679000       7.502050813500
       264    2       78.584100000000      10.802495679000       7.502050813500
       265    1       82.326200000000      12.963000000000       9.505050000000
       266    1       86.068300000000       6.481500000000       9.505050000000
       267    2       84.197250000000       1.080245679000       7.502050813500
       268    2       86.068300000000       4.320995679000       7.502050813500
       269    2       82.326200000000      10.802495679000       7.502050813500
       270    2       87.939350000000       7.561745679000       7.502050813500
       271    2       82.326200000000       4.320995679000      11.508049186500
       272    2       86.068300000000       4.320995679000      11.508049186500
       273    1       86.068300000000      12.963000000000       9.505050000000
       274    2       89.810400000000      10.802495679000      11.508049186500
       275    1       82.326200000000       6.481500000000       9.505050000000
       276    2       86.068300000000      10.802495679000      11.508049186500
       277    2       84.197250000000       1.080245679000      11.508049186500
       278    2       87.939350000000       7.561745679000      11.508049186500
       279    1       84.197250000000       3.240750000000       9.505050000000
       280    1       87.939350000000       9.722250000000       9.505050000000
       281    1       87.939350000000       3.240750000000       9.505050000000
       282    1       84.197250000000       9.722250000000       9.505050000000
       283    2       87.939350000000       1.080245679000       7.502050813500
       284    2       84.197250000000       7.561745679000       7.502050813500
       285    2       87.939350000000       1.080245679000      11.508049186500
       286    2       84.197250000000       7.561745679000      11.508049186500
       287    2       89.810400000000       4.320995679000       7.502050813500
       288    2       86.068300000000      10.802495679000       7.502050813500
       289    1       89.810400000000      12.963000000000       9.505050000000
       290    1       93.552500000000       6.481500000000       9.505050000000
       291    2       91.681450000000       1.080245679000       7.502050813500
       292    2       93.552500000000       4.320995679000       7.502050813500
       293    2       89.810400000000      10.802495679000       7.502050813500
       294    2       95.423550000000       7.561745679000       7.502050813500
       295    2       89.810400000000       4.320995679000      11.508049186500
       296    2       93.552500000000       4.320995679000      11.508049186500
       297    1       93.552500000000      12.963000000000       9.505050000000
       298    2       97.294600000000      10.802495679000      11.508049186500
       299    1       89.810400000000       6.481500000000       9.505050000000
       300    2       93.552500000000      10.802495679000      11.508049186500
       301    2       91.681450000000       1.080245679000      11.508049186500
       302    2       95.423550000000       7.561745679000      11.508049186500
       303    1       91.681450000000       3.240750000000       9.505050000000
       304    1       95.423550000000       9.722250000000       9.505050000000
       305    1       95.423550000000       3.240750000000       9.505050000000
       306    1       91.681450000000       9.722250000000       9.505050000000
       307    2       95.423550000000       1.080245679000       7.502050813500
       308    2       91.681450000000       7.561745679000       7.502050813500
       309    2       95.423550000000       1.080245679000      11.508049186500
       310    2       91.681450000000       7.561745679000      11.508049186500
       311    2       97.294600000000       4.320995679000       7.502050813500
       312    2       93.552500000000      10.802495679000       7.502050813500
       313    1        0.000000000000      25.926000000000       9.505050000000
       314    1        3.742100000000      19.444500000000       9.505050000000
       315    2        1.871050000000      14.043245679000       7.502050813500
       316    2        3.742100000000      17.283995679000       7.502050813500
       317    2        0.000000000000      23.765495679000       7.502050813500
       318    2        5.613150000000      20.524745679000       7.502050813500
       319    2        0.000000000000      17.283995679000      11.508049186500
       320    2        3.742100000000      17.283995679000      11.508049186500
       321    1        3.742100000000      25.926000000000       9.505050000000
       322    2        7.484200000000      23.765495679000      11.508049186500
       323    1        0.000000000000      19.444500000000       9.505050000000
       324    2        3.742100000000      23.765495679000      11.508049186500
       325    2        1.871050000000      14.043245679000      11.508049186500
       326    2        5.613150000000      20.524745679000      11.508049186500
       327    1        1.871050000000      16.203750000000       9.505050000000
       328    1        5.613150000000      22.685250000000       9.505050000000
       329    1        5.613150000000      16.203750000000       9.505050000000
       330    1        1.871050000000      22.685250000000       9.505050000000
       331    2        5.613150000000      14.043245679000       7.502050813500
       332    2        1.871050000000      20.524745679000       7.502050813500
       333    2        5.613150000000      14.043245679000      11.508049186500
       334    2        1.871050000000      20.524745679000      11.508049186500
       335    2        7.484200000000      17.283995679000       7.502050813500
       336    2        3.742100000000      23.765495679000       7.502050813500
       337    1        7.484200000000      25.926000000000       9.505050000000
       338    1       11.226300000000      19.444500000000       9.505050000000
       339    2        9.355250000000      14.043245679000       7.502050813500
       340    2       11.226300000000      17.283995679000       7.502050813500
       341    2        7.484200000000      23.765495679000       7.502050813500
       342    2       13.097350000000      20.524745679000       7.502050813500
       343    2        7.484200000000      17.283995679000      11.508049186500
       344    2       11.226300000000      17.283995679000      11.508049186500
       345    1       11.226300000000      25.926000000000       9.505050000000
       346    2       14.968400000000      23.765495679000      11.508049186500
       347    1        7.484200000000      19.444500000000       9.505050000000
       348    2       11.226300000000      23.765495679000      11.508049186500
       349    2        9.355250000000      14.043245679000      11.508049186500
       350    2       13.097350000000      20.524745679000      11.508049186500
       351    1        9.355250000000      16.203750000000       9.505050000000
       352    1       13.097350000000      22.685250000000       9.505050000000
       353    1       13.097350000000      16.203750000000       9.505050000000
       354    1        9.355250000000      22.685250000000       9.505050000000
       355    2       13.097350000000      14.043245679000       7.502050813500
       356    2        9.355250000000      20.524745679000       7.502050813500
       357    2       13.097350000000      14.043245679000      11.508049186500
       358    2        9.355250000000      20.524745679000      11.508049186500
       359    2       14.968400000000      17.283995679000       7.502050813500
       360    2       11.226300000000      23.765495679000       7.502050813500
       361    1       14.968400000000      25.926000000000       9.505050000000
       362    1       18.710500000000      19.444500000000       9.505050000000
       363    2       16.839450000000      14.043245679000       7.502050813500
       364    2       18.710500000000      17.283995679000       7.502050813500
       365    2       14.968400000000      23.765495679000       7.502050813500
       366    2       20.581550000000      20.524745679000       7.502050813500
       367    2       14.968400000000      17.283995679000      11.508049186500
       368    2       18.710500000000      17.283995679000      11.508049186500
       369    1       18.710500000000      25.926000000000       9.505050000000
       370    2       22.452600000000      23.765495679000      11.508049186500