 # Sc8 S16
  
        2496  atoms
           2  atom types
 
      0.000000000000      98.482800000000  xlo xhi
      0.000000000000     104.971200000000  ylo yhi
      0.000000000000      17.717600000000  zlo zhi
 
Masses
 
            1   44.95591200             # Sc
            2   32.06000000             # S
 
Atoms # atomic
 
         1    1        0.000000000000       0.000000000000       8.858800000000
         2    1        3.787800000000       6.560700000000       8.858800000000
         3    2        3.787800000000       4.373795626200       7.498814741600
         4    2        0.000000000000      10.934495626200       7.498814741600
         5    1        5.681700000000       3.280350000000       8.858800000000
         6    2        1.893900000000       1.093445626200       7.498814741600
         7    1        1.893900000000       3.280350000000       8.858800000000
         8    1        1.893900000000       9.841050000000       8.858800000000
         9    2        5.681700000000       7.654145626200       7.498814741600
        10    1        5.681700000000       9.841050000000       8.858800000000
        11    2        7.575600000000       4.373795626200      10.218785258400
        12    2        7.575600000000       4.373795626200       7.498814741600
        13    2        3.787800000000      10.934495626200      10.218785258400
        14    2        3.787800000000      10.934495626200       7.498814741600
        15    2        5.681700000000       1.093445626200       7.498814741600
        16    2        1.893900000000       7.654145626200       7.498814741600
        17    2        5.681700000000       1.093445626200      10.218785258400
        18    2        1.893900000000       7.654145626200      10.218785258400
        19    2        1.893900000000       1.093445626200      10.218785258400
        20    2        5.681700000000       7.654145626200      10.218785258400
        21    1        3.787800000000       0.000000000000       8.858800000000
        22    1        7.575600000000       6.560700000000       8.858800000000
        23    2        3.787800000000       4.373795626200      10.218785258400
        24    2        0.000000000000      10.934495626200      10.218785258400
        25    1        7.575600000000       0.000000000000       8.858800000000
        26    1       11.363400000000       6.560700000000       8.858800000000
        27    2       11.363400000000       4.373795626200       7.498814741600
        28    2        7.575600000000      10.934495626200       7.498814741600
        29    1       13.257300000000       3.280350000000       8.858800000000
        30    2        9.469500000000       1.093445626200       7.498814741600
        31    1        9.469500000000       3.280350000000       8.858800000000
        32    1        9.469500000000       9.841050000000       8.858800000000
        33    2       13.257300000000       7.654145626200       7.498814741600
        34    1       13.257300000000       9.841050000000       8.858800000000
        35    2       15.151200000000       4.373795626200      10.218785258400
        36    2       15.151200000000       4.373795626200       7.498814741600
        37    2       11.363400000000      10.934495626200      10.218785258400
        38    2       11.363400000000      10.934495626200       7.498814741600
        39    2       13.257300000000       1.093445626200       7.498814741600
        40    2        9.469500000000       7.654145626200       7.498814741600
        41    2       13.257300000000       1.093445626200      10.218785258400
        42    2        9.469500000000       7.654145626200      10.218785258400
        43    2        9.469500000000       1.093445626200      10.218785258400
        44    2       13.257300000000       7.654145626200      10.218785258400
        45    1       11.363400000000       0.000000000000       8.858800000000
        46    1       15.151200000000       6.560700000000       8.858800000000
        47    2       11.363400000000       4.373795626200      10.218785258400
        48    2        7.575600000000      10.934495626200      10.218785258400
        49    1       15.151200000000       0.000000000000       8.858800000000
        50    1       18.939000000000       6.560700000000       8.858800000000
        51    2       18.939000000000       4.373795626200       7.498814741600
        52    2       15.151200000000      10.934495626200       7.498814741600
        53    1       20.832900000000       3.280350000000       8.858800000000
        54    2       17.045100000000       1.093445626200       7.498814741600
        55    1       17.045100000000       3.280350000000       8.858800000000
        56    1       17.045100000000       9.841050000000       8.858800000000
        57    2       20.832900000000       7.654145626200       7.498814741600
        58    1       20.832900000000       9.841050000000       8.858800000000
        59    2       22.726800000000       4.373795626200      10.218785258400
        60    2       22.726800000000       4.373795626200       7.498814741600
        61    2       18.939000000000      10.934495626200      10.218785258400
        62    2       18.939000000000      10.934495626200       7.498814741600
        63    2       20.832900000000       1.093445626200       7.498814741600
        64    2       17.045100000000       7.654145626200       7.498814741600
        65    2       20.832900000000       1.093445626200      10.218785258400
        66    2       17.045100000000       7.654145626200      10.218785258400
        67    2       17.045100000000       1.093445626200      10.218785258400
        68    2       20.832900000000       7.654145626200      10.218785258400
        69    1       18.939000000000       0.000000000000       8.858800000000
        70    1       22.726800000000       6.560700000000       8.858800000000
        71    2       18.939000000000       4.373795626200      10.218785258400
        72    2       15.151200000000      10.934495626200      10.218785258400
        73    1       22.726800000000       0.000000000000       8.858800000000
        74    1       26.514600000000       6.560700000000       8.858800000000
        75    2       26.514600000000       4.373795626200       7.498814741600
        76    2       22.726800000000      10.934495626200       7.498814741600
        77    1       28.408500000000       3.280350000000       8.858800000000
        78    2       24.620700000000       1.093445626200       7.498814741600
        79    1       24.620700000000       3.280350000000       8.858800000000
        80    1       24.620700000000       9.841050000000       8.858800000000
        81    2       28.408500000000       7.654145626200       7.498814741600
        82    1       28.408500000000       9.841050000000       8.858800000000
        83    2       30.302400000000       4.373795626200      10.218785258400
        84    2       30.302400000000       4.373795626200       7.498814741600
        85    2       26.514600000000      10.934495626200      10.218785258400
        86    2       26.514600000000      10.934495626200       7.498814741600
        87    2       28.408500000000       1.093445626200       7.498814741600
        88    2       24.620700000000       7.654145626200       7.498814741600
        89    2       28.408500000000       1.093445626200      10.218785258400
        90    2       24.620700000000       7.654145626200      10.218785258400
        91    2       24.620700000000       1.093445626200      10.218785258400
        92    2       28.408500000000       7.654145626200      10.218785258400
        93    1       26.514600000000       0.000000000000       8.858800000000
        94    1       30.302400000000       6.560700000000       8.858800000000
        95    2       26.514600000000       4.373795626200      10.218785258400
        96    2       22.726800000000      10.934495626200      10.218785258400
        97    1       30.302400000000       0.000000000000       8.858800000000
        98    1       34.090200000000       6.560700000000       8.858800000000
        99    2       34.090200000000       4.373795626200       7.498814741600
       100    2       30.302400000000      10.934495626200       7.498814741600
       101    1       35.984100000000       3.280350000000       8.858800000000
       102    2       32.196300000000       1.093445626200       7.498814741600
       103    1       32.196300000000       3.280350000000       8.858800000000
       104    1       32.196300000000       9.841050000000       8.858800000000
       105    2       35.984100000000       7.654145626200       7.498814741600
       106    1       35.984100000000       9.841050000000       8.858800000000
       107    2       37.878000000000       4.373795626200      10.218785258400
       108    2       37.878000000000       4.373795626200       7.498814741600
       109    2       34.090200000000      10.934495626200      10.218785258400
       110    2       34.090200000000      10.934495626200       7.498814741600
       111    2       35.984100000000       1.093445626200       7.498814741600
       112    2       32.196300000000       7.654145626200       7.498814741600
       113    2       35.984100000000       1.093445626200      10.218785258400
       114    2       32.196300000000       7.654145626200      10.218785258400
       115    2       32.196300000000       1.093445626200      10.218785258400
       116    2       35.984100000000       7.654145626200      10.218785258400
       117    1       34.090200000000       0.000000000000       8.858800000000
       118    1       37.878000000000       6.560700000000       8.858800000000
       119    2       34.090200000000       4.373795626200      10.218785258400
       120    2       30.302400000000      10.934495626200      10.218785258400
       121    1       37.878000000000       0.000000000000       8.858800000000
       122    1       41.665800000000       6.560700000000       8.858800000000
       123    2       41.665800000000       4.373795626200       7.498814741600
       124    2       37.878000000000      10.934495626200       7.498814741600
       125    1       43.559700000000       3.280350000000       8.858800000000
       126    2       39.771900000000       1.093445626200       7.498814741600
       127    1       39.771900000000       3.280350000000       8.858800000000
       128    1       39.771900000000       9.841050000000       8.858800000000
       129    2       43.559700000000       7.654145626200       7.498814741600
       130    1       43.559700000000       9.841050000000       8.858800000000
       131    2       45.453600000000       4.373795626200      10.218785258400
       132    2       45.453600000000       4.373795626200       7.498814741600
       133    2       41.665800000000      10.934495626200      10.218785258400
       134    2       41.665800000000      10.934495626200       7.498814741600
       135    2       43.559700000000       1.093445626200       7.498814741600
       136    2       39.771900000000       7.654145626200       7.498814741600
       137    2       43.559700000000       1.093445626200      10.218785258400
       138    2       39.771900000000       7.654145626200      10.218785258400
       139    2       39.771900000000       1.093445626200      10.218785258400
       140    2       43.559700000000       7.654145626200      10.218785258400
       141    1       41.665800000000       0.000000000000       8.858800000000
       142    1       45.453600000000       6.560700000000       8.858800000000
       143    2       41.665800000000       4.373795626200      10.218785258400
       144    2       37.878000000000      10.934495626200      10.218785258400
       145    1       45.453600000000       0.000000000000       8.858800000000
       146    1       49.241400000000       6.560700000000       8.858800000000
       147    2       49.241400000000       4.373795626200       7.498814741600
       148    2       45.453600000000      10.934495626200       7.498814741600
       149    1       51.135300000000       3.280350000000       8.858800000000
       150    2       47.347500000000       1.093445626200       7.498814741600
       151    1       47.347500000000       3.280350000000       8.858800000000
       152    1       47.347500000000       9.841050000000       8.858800000000
       153    2       51.135300000000       7.654145626200       7.498814741600
       154    1       51.135300000000       9.841050000000       8.858800000000
       155    2       53.029200000000       4.373795626200      10.218785258400
       156    2       53.029200000000       4.373795626200       7.498814741600
       157    2       49.241400000000      10.934495626200      10.218785258400
       158    2       49.241400000000      10.934495626200       7.498814741600
       159    2       51.135300000000       1.093445626200       7.498814741600
       160    2       47.347500000000       7.654145626200       7.498814741600
       161    2       51.135300000000       1.093445626200      10.218785258400
       162    2       47.347500000000       7.654145626200      10.218785258400
       163    2       47.347500000000       1.093445626200      10.218785258400
       164    2       51.135300000000       7.654145626200      10.218785258400
       165    1       49.241400000000       0.000000000000       8.858800000000
       166    1       53.029200000000       6.560700000000       8.858800000000
       167    2       49.241400000000       4.373795626200      10.218785258400
       168    2       45.453600000000      10.934495626200      10.218785258400
       169    1       53.029200000000       0.000000000000       8.858800000000
       170    1       56.817000000000       6.560700000000       8.858800000000
       171    2       56.817000000000       4.373795626200       7.498814741600
       172    2       53.029200000000      10.934495626200       7.498814741600
       173    1       58.710900000000       3.280350000000       8.858800000000
       174    2       54.923100000000       1.093445626200       7.498814741600
       175    1       54.923100000000       3.280350000000       8.858800000000
       176    1       54.923100000000       9.841050000000       8.858800000000
       177    2       58.710900000000       7.654145626200       7.498814741600
       178    1       58.710900000000       9.841050000000       8.858800000000
       179    2       60.604800000000       4.373795626200      10.218785258400
       180    2       60.604800000000       4.373795626200       7.498814741600
       181    2       56.817000000000      10.934495626200      10.218785258400
       182    2       56.817000000000      10.934495626200       7.498814741600
       183    2       58.710900000000       1.093445626200       7.498814741600
       184    2       54.923100000000       7.654145626200       7.498814741600
       185    2       58.710900000000       1.093445626200      10.218785258400
       186    2       54.923100000000       7.654145626200      10.218785258400
       187    2       54.923100000000       1.093445626200      10.218785258400
       188    2       58.710900000000       7.654145626200      10.218785258400
       189    1       56.817000000000       0.000000000000       8.858800000000
       190    1       60.604800000000       6.560700000000       8.858800000000
       191    2       56.817000000000       4.373795626200      10.218785258400
       192    2       53.029200000000      10.934495626200      10.218785258400
       193    1       60.604800000000       0.000000000000       8.858800000000
       194    1       64.392600000000       6.560700000000       8.858800000000
       195    2       64.392600000000       4.373795626200       7.498814741600
       196    2       60.604800000000      10.934495626200       7.498814741600
       197    1       66.286500000000       3.280350000000       8.858800000000
       198    2       62.498700000000       1.093445626200       7.498814741600
       199    1       62.498700000000       3.280350000000       8.858800000000
       200    1       62.498700000000       9.841050000000       8.858800000000
       201    2       66.286500000000       7.654145626200       7.498814741600
       202    1       66.286500000000       9.841050000000       8.858800000000
       203    2       68.180400000000       4.373795626200      10.218785258400
       204    2       68.180400000000       4.373795626200       7.498814741600
       205    2       64.392600000000      10.934495626200      10.218785258400
       206    2       64.392600000000      10.934495626200       7.498814741600
       207    2       66.286500000000       1.093445626200       7.498814741600
       208    2       62.498700000000       7.654145626200       7.498814741600
       209    2       66.286500000000       1.093445626200      10.218785258400
       210    2       62.498700000000       7.654145626200      10.218785258400
       211    2       62.498700000000       1.093445626200      10.218785258400
       212    2       66.286500000000       7.654145626200      10.218785258400
       213    1       64.392600000000       0.000000000000       8.858800000000
       214    1       68.180400000000       6.560700000000       8.858800000000
       215    2       64.392600000000       4.373795626200      10.218785258400
       216    2       60.604800000000      10.934495626200      10.218785258400
       217    1       68.180400000000       0.000000000000       8.858800000000
       218    1       71.968200000000       6.560700000000       8.858800000000
       219    2       71.968200000000       4.373795626200       7.498814741600
       220    2       68.180400000000      10.934495626200       7.498814741600
       221    1       73.862100000000       3.280350000000       8.858800000000
       222    2       70.074300000000       1.093445626200       7.498814741600
       223    1       70.074300000000       3.280350000000       8.858800000000
       224    1       70.074300000000       9.841050000000       8.858800000000
       225    2       73.862100000000       7.654145626200       7.498814741600
       226    1       73.862100000000       9.841050000000       8.858800000000
       227    2       75.756000000000       4.373795626200      10.218785258400
       228    2       75.756000000000       4.373795626200       7.498814741600
       229    2       71.968200000000      10.934495626200      10.218785258400
       230    2       71.968200000000      10.934495626200       7.498814741600
       231    2       73.862100000000       1.093445626200       7.498814741600
       232    2       70.074300000000       7.654145626200       7.498814741600
       233    2       73.862100000000       1.093445626200      10.218785258400
       234    2       70.074300000000       7.654145626200      10.218785258400
       235    2       70.074300000000       1.093445626200      10.218785258400
       236    2       73.862100000000       7.654145626200      10.218785258400
       237    1       71.968200000000       0.000000000000       8.858800000000
       238    1       75.756000000000       6.560700000000       8.858800000000
       239    2       71.968200000000       4.373795626200      10.218785258400
       240    2       68.180400000000      10.934495626200      10.218785258400
       241    1       75.756000000000       0.000000000000       8.858800000000
       242    1       79.543800000000       6.560700000000       8.858800000000
       243    2       79.543800000000       4.373795626200       7.498814741600
       244    2       75.756000000000      10.934495626200       7.498814741600
       245    1       81.437700000000       3.280350000000       8.858800000000
       246    2       77.649900000000       1.093445626200       7.498814741600
       247    1       77.649900000000       3.280350000000       8.858800000000
       248    1       77.649900000000       9.841050000000       8.858800000000
       249    2       81.437700000000       7.654145626200       7.498814741600
       250    1       81.437700000000       9.841050000000       8.858800000000
       251    2       83.331600000000       4.373795626200      10.218785258400
       252    2       83.331600000000       4.373795626200       7.498814741600
       253    2       79.543800000000      10.934495626200      10.218785258400
       254    2       79.543800000000      10.934495626200       7.498814741600
       255    2       81.437700000000       1.093445626200       7.498814741600
       256    2       77.649900000000       7.654145626200       7.498814741600
       257    2       81.437700000000       1.093445626200      10.218785258400
       258    2       77.649900000000       7.654145626200      10.218785258400
       259    2       77.649900000000       1.093445626200      10.218785258400
       260    2       81.437700000000       7.654145626200      10.218785258400
       261    1       79.543800000000       0.000000000000       8.858800000000
       262    1       83.331600000000       6.560700000000       8.858800000000
       263    2       79.543800000000       4.373795626200      10.218785258400
       264    2       75.756000000000      10.934495626200      10.218785258400
       265    1       83.331600000000       0.000000000000       8.858800000000
       266    1       87.119400000000       6.560700000000       8.858800000000
       267    2       87.119400000000       4.373795626200       7.498814741600
       268    2       83.331600000000      10.934495626200       7.498814741600
       269    1       89.013300000000       3.280350000000       8.858800000000
       270    2       85.225500000000       1.093445626200       7.498814741600
       271    1       85.225500000000       3.280350000000       8.858800000000
       272    1       85.225500000000       9.841050000000       8.858800000000
       273    2       89.013300000000       7.654145626200       7.498814741600
       274    1       89.013300000000       9.841050000000       8.858800000000
       275    2       90.907200000000       4.373795626200      10.218785258400
       276    2       90.907200000000       4.373795626200       7.498814741600
       277    2       87.119400000000      10.934495626200      10.218785258400
       278    2       87.119400000000      10.934495626200       7.498814741600
       279    2       89.013300000000       1.093445626200       7.498814741600
       280    2       85.225500000000       7.654145626200       7.498814741600
       281    2       89.013300000000       1.093445626200      10.218785258400
       282    2       85.225500000000       7.654145626200      10.218785258400
       283    2       85.225500000000       1.093445626200      10.218785258400
       284    2       89.013300000000       7.654145626200      10.218785258400
       285    1       87.119400000000       0.000000000000       8.858800000000
       286    1       90.907200000000       6.560700000000       8.858800000000
       287    2       87.119400000000       4.373795626200      10.218785258400
       288    2       83.331600000000      10.934495626200      10.218785258400
       289    1       90.907200000000       0.000000000000       8.858800000000
       290    1       94.695000000000       6.560700000000       8.858800000000
       291    2       94.695000000000       4.373795626200       7.498814741600
       292    2       90.907200000000      10.934495626200       7.498814741600
       293    1       96.588900000000       3.280350000000       8.858800000000
       294    2       92.801100000000       1.093445626200       7.498814741600
       295    1       92.801100000000       3.280350000000       8.858800000000
       296    1       92.801100000000       9.841050000000       8.858800000000
       297    2       96.588900000000       7.654145626200       7.498814741600
       298    1       96.588900000000       9.841050000000       8.858800000000
       299    2       98.482800000000       4.373795626200      10.218785258400
       300    2       98.482800000000       4.373795626200       7.498814741600
       301    2       94.695000000000      10.934495626200      10.218785258400
       302    2       94.695000000000      10.934495626200       7.498814741600
       303    2       96.588900000000       1.093445626200       7.498814741600
       304    2       92.801100000000       7.654145626200       7.498814741600
       305    2       96.588900000000       1.093445626200      10.218785258400
       306    2       92.801100000000       7.654145626200      10.218785258400
       307    2       92.801100000000       1.093445626200      10.218785258400
       308    2       96.588900000000       7.654145626200      10.218785258400
       309    1       94.695000000000       0.000000000000       8.858800000000
       310    1       98.482800000000       6.560700000000       8.858800000000
       311    2       94.695000000000       4.373795626200      10.218785258400
       312    2       90.907200000000      10.934495626200      10.218785258400
       313    1        0.000000000000      13.121400000000       8.858800000000
       314    1        3.787800000000      19.682100000000       8.858800000000
       315    2        3.787800000000      17.495195626200       7.498814741600
       316    2        0.000000000000      24.055895626200       7.498814741600
       317    1        5.681700000000      16.401750000000       8.858800000000
       318    2        1.893900000000      14.214845626200       7.498814741600
       319    1        1.893900000000      16.401750000000       8.858800000000
       320    1        1.893900000000      22.962450000000       8.858800000000
       321    2        5.681700000000      20.775545626200       7.498814741600
       322    1        5.681700000000      22.962450000000       8.858800000000
       323    2        7.575600000000      17.495195626200      10.218785258400
       324    2        7.575600000000      17.495195626200       7.498814741600
       325    2        3.787800000000      24.055895626200      10.218785258400
       326    2        3.787800000000      24.055895626200       7.498814741600
       327    2        5.681700000000      14.214845626200       7.498814741600
       328    2        1.893900000000      20.775545626200       7.498814741600
       329    2        5.681700000000      14.214845626200      10.218785258400
       330    2        1.893900000000      20.775545626200      10.218785258400
       331    2        1.893900000000      14.214845626200      10.218785258400
       332    2        5.681700000000      20.775545626200      10.218785258400
       333    1        3.787800000000      13.121400000000       8.858800000000
       334    1        7.575600000000      19.682100000000       8.858800000000
       335    2        3.787800000000      17.495195626200      10.218785258400
       336    2        0.000000000000      24.055895626200      10.218785258400
       337    1        7.575600000000      13.121400000000       8.858800000000
       338    1       11.363400000000      19.682100000000       8.858800000000
       339    2       11.363400000000      17.495195626200       7.498814741600
       340    2        7.575600000000      24.055895626200       7.498814741600
       341    1       13.257300000000      16.401750000000       8.858800000000
       342    2        9.469500000000      14.214845626200       7.498814741600
       343    1        9.469500000000      16.401750000000       8.858800000000
       344    1        9.469500000000      22.962450000000       8.858800000000
       345    2       13.257300000000      20.775545626200       7.498814741600
       346    1       13.257300000000      22.962450000000       8.858800000000
       347    2       15.151200000000      17.495195626200      10.218785258400
       348    2       15.151200000000      17.495195626200       7.498814741600
       349    2       11.363400000000      24.055895626200      10.218785258400
       350    2       11.363400000000      24.055895626200       7.498814741600
       351    2       13.257300000000      14.214845626200       7.498814741600
       352    2        9.469500000000      20.775545626200       7.498814741600
       353    2       13.257300000000      14.214845626200      10.218785258400
       354    2        9.469500000000      20.775545626200      10.218785258400
       355    2        9.469500000000      14.214845626200      10.218785258400
       356    2       13.257300000000      20.775545626200      10.218785258400
       357    1       11.363400000000      13.121400000000       8.858800000000
       358    1       15.151200000000      19.682100000000       8.858800000000
       359    2       11.363400000000      17.495195626200      10.218785258400
       360    2        7.575600000000      24.055895626200      10.218785258400
       361    1       15.151200000000      13.121400000000       8.858800000000
       362    1       18.939000000000      19.682100000000       8.858800000000
       363    2       18.939000000000      17.495195626200       7.498814741600
       364    2       15.151200000000      24.055895626200       7.498814741600
       365    1       20.832900000000      16.401750000000       8.858800000000
       366    2       17.045100000000      14.214845626200       7.498814741600
       367    1       17.045100000000      16.401750000000       8.858800000000
       368    1       17.045100000000      22.962450000000       8.858800000000
       369    2       20.832900000000      20.775545626200       7.498814741600
       370    1       20.832900000000      22.962450000000       8.858800000000