 # Se16 Sc8
  
        2184  atoms
           2  atom types
 
      0.000000000000     102.580400000000  xlo xhi
      0.000000000000      95.670400000000  ylo yhi
      0.000000000000      17.932600000000  zlo zhi
 
Masses
 
            1   78.96000000             # Se
            2   44.95591200             # Sc
 
Atoms # charge
 
         1    1   0.000000        7.890800000000       4.555728777600       7.500005095800
         2    1   0.000000        3.945400000000      11.389328777600       7.500005095800
         3    2   0.000000        1.972700000000       3.416800000000       8.966300000000
         4    2   0.000000        5.918100000000      10.250400000000       8.966300000000
         5    1   0.000000        5.918100000000       1.138928777600      10.432594904200
         6    1   0.000000        1.972700000000       7.972528777600      10.432594904200
         7    1   0.000000        3.945400000000       4.555728777600      10.432594904200
         8    1   0.000000        7.890800000000      11.389328777600      10.432594904200
         9    2   0.000000        5.918100000000       3.416800000000       8.966300000000
        10    2   0.000000        1.972700000000      10.250400000000       8.966300000000
        11    2   0.000000        0.000000000000      13.667200000000       8.966300000000
        12    2   0.000000        3.945400000000       6.833600000000       8.966300000000
        13    1   0.000000        3.945400000000       4.555728777600       7.500005095800
        14    1   0.000000        7.890800000000      11.389328777600       7.500005095800
        15    2   0.000000        3.945400000000      13.667200000000       8.966300000000
        16    2   0.000000        0.000000000000       6.833600000000       8.966300000000
        17    1   0.000000        1.972700000000       1.138928777600      10.432594904200
        18    1   0.000000        5.918100000000       7.972528777600      10.432594904200
        19    1   0.000000        1.972700000000       1.138928777600       7.500005095800
        20    1   0.000000        5.918100000000       7.972528777600       7.500005095800
        21    1   0.000000        7.890800000000       4.555728777600      10.432594904200
        22    1   0.000000        3.945400000000      11.389328777600      10.432594904200
        23    1   0.000000        5.918100000000       1.138928777600       7.500005095800
        24    1   0.000000        1.972700000000       7.972528777600       7.500005095800
        25    1   0.000000       15.781600000000       4.555728777600       7.500005095800
        26    1   0.000000       11.836200000000      11.389328777600       7.500005095800
        27    2   0.000000        9.863500000000       3.416800000000       8.966300000000
        28    2   0.000000       13.808900000000      10.250400000000       8.966300000000
        29    1   0.000000       13.808900000000       1.138928777600      10.432594904200
        30    1   0.000000        9.863500000000       7.972528777600      10.432594904200
        31    1   0.000000       11.836200000000       4.555728777600      10.432594904200
        32    1   0.000000       15.781600000000      11.389328777600      10.432594904200
        33    2   0.000000       13.808900000000       3.416800000000       8.966300000000
        34    2   0.000000        9.863500000000      10.250400000000       8.966300000000
        35    2   0.000000        7.890800000000      13.667200000000       8.966300000000
        36    2   0.000000       11.836200000000       6.833600000000       8.966300000000
        37    1   0.000000       11.836200000000       4.555728777600       7.500005095800
        38    1   0.000000       15.781600000000      11.389328777600       7.500005095800
        39    2   0.000000       11.836200000000      13.667200000000       8.966300000000
        40    2   0.000000        7.890800000000       6.833600000000       8.966300000000
        41    1   0.000000        9.863500000000       1.138928777600      10.432594904200
        42    1   0.000000       13.808900000000       7.972528777600      10.432594904200
        43    1   0.000000        9.863500000000       1.138928777600       7.500005095800
        44    1   0.000000       13.808900000000       7.972528777600       7.500005095800
        45    1   0.000000       15.781600000000       4.555728777600      10.432594904200
        46    1   0.000000       11.836200000000      11.389328777600      10.432594904200
        47    1   0.000000       13.808900000000       1.138928777600       7.500005095800
        48    1   0.000000        9.863500000000       7.972528777600       7.500005095800
        49    1   0.000000       23.672400000000       4.555728777600       7.500005095800
        50    1   0.000000       19.727000000000      11.389328777600       7.500005095800
        51    2   0.000000       17.754300000000       3.416800000000       8.966300000000
        52    2   0.000000       21.699700000000      10.250400000000       8.966300000000
        53    1   0.000000       21.699700000000       1.138928777600      10.432594904200
        54    1   0.000000       17.754300000000       7.972528777600      10.432594904200
        55    1   0.000000       19.727000000000       4.555728777600      10.432594904200
        56    1   0.000000       23.672400000000      11.389328777600      10.432594904200
        57    2   0.000000       21.699700000000       3.416800000000       8.966300000000
        58    2   0.000000       17.754300000000      10.250400000000       8.966300000000
        59    2   0.000000       15.781600000000      13.667200000000       8.966300000000
        60    2   0.000000       19.727000000000       6.833600000000       8.966300000000
        61    1   0.000000       19.727000000000       4.555728777600       7.500005095800
        62    1   0.000000       23.672400000000      11.389328777600       7.500005095800
        63    2   0.000000       19.727000000000      13.667200000000       8.966300000000
        64    2   0.000000       15.781600000000       6.833600000000       8.966300000000
        65    1   0.000000       17.754300000000       1.138928777600      10.432594904200
        66    1   0.000000       21.699700000000       7.972528777600      10.432594904200
        67    1   0.000000       17.754300000000       1.138928777600       7.500005095800
        68    1   0.000000       21.699700000000       7.972528777600       7.500005095800
        69    1   0.000000       23.672400000000       4.555728777600      10.432594904200
        70    1   0.000000       19.727000000000      11.389328777600      10.432594904200
        71    1   0.000000       21.699700000000       1.138928777600       7.500005095800
        72    1   0.000000       17.754300000000       7.972528777600       7.500005095800
        73    1   0.000000       31.563200000000       4.555728777600       7.500005095800
        74    1   0.000000       27.617800000000      11.389328777600       7.500005095800
        75    2   0.000000       25.645100000000       3.416800000000       8.966300000000
        76    2   0.000000       29.590500000000      10.250400000000       8.966300000000
        77    1   0.000000       29.590500000000       1.138928777600      10.432594904200
        78    1   0.000000       25.645100000000       7.972528777600      10.432594904200
        79    1   0.000000       27.617800000000       4.555728777600      10.432594904200
        80    1   0.000000       31.563200000000      11.389328777600      10.432594904200
        81    2   0.000000       29.590500000000       3.416800000000       8.966300000000
        82    2   0.000000       25.645100000000      10.250400000000       8.966300000000
        83    2   0.000000       23.672400000000      13.667200000000       8.966300000000
        84    2   0.000000       27.617800000000       6.833600000000       8.966300000000
        85    1   0.000000       27.617800000000       4.555728777600       7.500005095800
        86    1   0.000000       31.563200000000      11.389328777600       7.500005095800
        87    2   0.000000       27.617800000000      13.667200000000       8.966300000000
        88    2   0.000000       23.672400000000       6.833600000000       8.966300000000
        89    1   0.000000       25.645100000000       1.138928777600      10.432594904200
        90    1   0.000000       29.590500000000       7.972528777600      10.432594904200
        91    1   0.000000       25.645100000000       1.138928777600       7.500005095800
        92    1   0.000000       29.590500000000       7.972528777600       7.500005095800
        93    1   0.000000       31.563200000000       4.555728777600      10.432594904200
        94    1   0.000000       27.617800000000      11.389328777600      10.432594904200
        95    1   0.000000       29.590500000000       1.138928777600       7.500005095800
        96    1   0.000000       25.645100000000       7.972528777600       7.500005095800
        97    1   0.000000       39.454000000000       4.555728777600       7.500005095800
        98    1   0.000000       35.508600000000      11.389328777600       7.500005095800
        99    2   0.000000       33.535900000000       3.416800000000       8.966300000000
       100    2   0.000000       37.481300000000      10.250400000000       8.966300000000
       101    1   0.000000       37.481300000000       1.138928777600      10.432594904200
       102    1   0.000000       33.535900000000       7.972528777600      10.432594904200
       103    1   0.000000       35.508600000000       4.555728777600      10.432594904200
       104    1   0.000000       39.454000000000      11.389328777600      10.432594904200
       105    2   0.000000       37.481300000000       3.416800000000       8.966300000000
       106    2   0.000000       33.535900000000      10.250400000000       8.966300000000
       107    2   0.000000       31.563200000000      13.667200000000       8.966300000000
       108    2   0.000000       35.508600000000       6.833600000000       8.966300000000
       109    1   0.000000       35.508600000000       4.555728777600       7.500005095800
       110    1   0.000000       39.454000000000      11.389328777600       7.500005095800
       111    2   0.000000       35.508600000000      13.667200000000       8.966300000000
       112    2   0.000000       31.563200000000       6.833600000000       8.966300000000
       113    1   0.000000       33.535900000000       1.138928777600      10.432594904200
       114    1   0.000000       37.481300000000       7.972528777600      10.432594904200
       115    1   0.000000       33.535900000000       1.138928777600       7.500005095800
       116    1   0.000000       37.481300000000       7.972528777600       7.500005095800
       117    1   0.000000       39.454000000000       4.555728777600      10.432594904200
       118    1   0.000000       35.508600000000      11.389328777600      10.432594904200
       119    1   0.000000       37.481300000000       1.138928777600       7.500005095800
       120    1   0.000000       33.535900000000       7.972528777600       7.500005095800
       121    1   0.000000       47.344800000000       4.555728777600       7.500005095800
       122    1   0.000000       43.399400000000      11.389328777600       7.500005095800
       123    2   0.000000       41.426700000000       3.416800000000       8.966300000000
       124    2   0.000000       45.372100000000      10.250400000000       8.966300000000
       125    1   0.000000       45.372100000000       1.138928777600      10.432594904200
       126    1   0.000000       41.426700000000       7.972528777600      10.432594904200
       127    1   0.000000       43.399400000000       4.555728777600      10.432594904200
       128    1   0.000000       47.344800000000      11.389328777600      10.432594904200
       129    2   0.000000       45.372100000000       3.416800000000       8.966300000000
       130    2   0.000000       41.426700000000      10.250400000000       8.966300000000
       131    2   0.000000       39.454000000000      13.667200000000       8.966300000000
       132    2   0.000000       43.399400000000       6.833600000000       8.966300000000
       133    1   0.000000       43.399400000000       4.555728777600       7.500005095800
       134    1   0.000000       47.344800000000      11.389328777600       7.500005095800
       135    2   0.000000       43.399400000000      13.667200000000       8.966300000000
       136    2   0.000000       39.454000000000       6.833600000000       8.966300000000
       137    1   0.000000       41.426700000000       1.138928777600      10.432594904200
       138    1   0.000000       45.372100000000       7.972528777600      10.432594904200
       139    1   0.000000       41.426700000000       1.138928777600       7.500005095800
       140    1   0.000000       45.372100000000       7.972528777600       7.500005095800
       141    1   0.000000       47.344800000000       4.555728777600      10.432594904200
       142    1   0.000000       43.399400000000      11.389328777600      10.432594904200
       143    1   0.000000       45.372100000000       1.138928777600       7.500005095800
       144    1   0.000000       41.426700000000       7.972528777600       7.500005095800
       145    1   0.000000       55.235600000000       4.555728777600       7.500005095800
       146    1   0.000000       51.290200000000      11.389328777600       7.500005095800
       147    2   0.000000       49.317500000000       3.416800000000       8.966300000000
       148    2   0.000000       53.262900000000      10.250400000000       8.966300000000
       149    1   0.000000       53.262900000000       1.138928777600      10.432594904200
       150    1   0.000000       49.317500000000       7.972528777600      10.432594904200
       151    1   0.000000       51.290200000000       4.555728777600      10.432594904200
       152    1   0.000000       55.235600000000      11.389328777600      10.432594904200
       153    2   0.000000       53.262900000000       3.416800000000       8.966300000000
       154    2   0.000000       49.317500000000      10.250400000000       8.966300000000
       155    2   0.000000       47.344800000000      13.667200000000       8.966300000000
       156    2   0.000000       51.290200000000       6.833600000000       8.966300000000
       157    1   0.000000       51.290200000000       4.555728777600       7.500005095800
       158    1   0.000000       55.235600000000      11.389328777600       7.500005095800
       159    2   0.000000       51.290200000000      13.667200000000       8.966300000000
       160    2   0.000000       47.344800000000       6.833600000000       8.966300000000
       161    1   0.000000       49.317500000000       1.138928777600      10.432594904200
       162    1   0.000000       53.262900000000       7.972528777600      10.432594904200
       163    1   0.000000       49.317500000000       1.138928777600       7.500005095800
       164    1   0.000000       53.262900000000       7.972528777600       7.500005095800
       165    1   0.000000       55.235600000000       4.555728777600      10.432594904200
       166    1   0.000000       51.290200000000      11.389328777600      10.432594904200
       167    1   0.000000       53.262900000000       1.138928777600       7.500005095800
       168    1   0.000000       49.317500000000       7.972528777600       7.500005095800
       169    1   0.000000       63.126400000000       4.555728777600       7.500005095800
       170    1   0.000000       59.181000000000      11.389328777600       7.500005095800
       171    2   0.000000       57.208300000000       3.416800000000       8.966300000000
       172    2   0.000000       61.153700000000      10.250400000000       8.966300000000
       173    1   0.000000       61.153700000000       1.138928777600      10.432594904200
       174    1   0.000000       57.208300000000       7.972528777600      10.432594904200
       175    1   0.000000       59.181000000000       4.555728777600      10.432594904200
       176    1   0.000000       63.126400000000      11.389328777600      10.432594904200
       177    2   0.000000       61.153700000000       3.416800000000       8.966300000000
       178    2   0.000000       57.208300000000      10.250400000000       8.966300000000
       179    2   0.000000       55.235600000000      13.667200000000       8.966300000000
       180    2   0.000000       59.181000000000       6.833600000000       8.966300000000
       181    1   0.000000       59.181000000000       4.555728777600       7.500005095800
       182    1   0.000000       63.126400000000      11.389328777600       7.500005095800
       183    2   0.000000       59.181000000000      13.667200000000       8.966300000000
       184    2   0.000000       55.235600000000       6.833600000000       8.966300000000
       185    1   0.000000       57.208300000000       1.138928777600      10.432594904200
       186    1   0.000000       61.153700000000       7.972528777600      10.432594904200
       187    1   0.000000       57.208300000000       1.138928777600       7.500005095800
       188    1   0.000000       61.153700000000       7.972528777600       7.500005095800
       189    1   0.000000       63.126400000000       4.555728777600      10.432594904200
       190    1   0.000000       59.181000000000      11.389328777600      10.432594904200
       191    1   0.000000       61.153700000000       1.138928777600       7.500005095800
       192    1   0.000000       57.208300000000       7.972528777600       7.500005095800
       193    1   0.000000       71.017200000000       4.555728777600       7.500005095800
       194    1   0.000000       67.071800000000      11.389328777600       7.500005095800
       195    2   0.000000       65.099100000000       3.416800000000       8.966300000000
       196    2   0.000000       69.044500000000      10.250400000000       8.966300000000
       197    1   0.000000       69.044500000000       1.138928777600      10.432594904200
       198    1   0.000000       65.099100000000       7.972528777600      10.432594904200
       199    1   0.000000       67.071800000000       4.555728777600      10.432594904200
       200    1   0.000000       71.017200000000      11.389328777600      10.432594904200
       201    2   0.000000       69.044500000000       3.416800000000       8.966300000000
       202    2   0.000000       65.099100000000      10.250400000000       8.966300000000
       203    2   0.000000       63.126400000000      13.667200000000       8.966300000000
       204    2   0.000000       67.071800000000       6.833600000000       8.966300000000
       205    1   0.000000       67.071800000000       4.555728777600       7.500005095800
       206    1   0.000000       71.017200000000      11.389328777600       7.500005095800
       207    2   0.000000       67.071800000000      13.667200000000       8.966300000000
       208    2   0.000000       63.126400000000       6.833600000000       8.966300000000
       209    1   0.000000       65.099100000000       1.138928777600      10.432594904200
       210    1   0.000000       69.044500000000       7.972528777600      10.432594904200
       211    1   0.000000       65.099100000000       1.138928777600       7.500005095800
       212    1   0.000000       69.044500000000       7.972528777600       7.500005095800
       213    1   0.000000       71.017200000000       4.555728777600      10.432594904200
       214    1   0.000000       67.071800000000      11.389328777600      10.432594904200
       215    1   0.000000       69.044500000000       1.138928777600       7.500005095800
       216    1   0.000000       65.099100000000       7.972528777600       7.500005095800
       217    1   0.000000       78.908000000000       4.555728777600       7.500005095800
       218    1   0.000000       74.962600000000      11.389328777600       7.500005095800
       219    2   0.000000       72.989900000000       3.416800000000       8.966300000000
       220    2   0.000000       76.935300000000      10.250400000000       8.966300000000
       221    1   0.000000       76.935300000000       1.138928777600      10.432594904200
       222    1   0.000000       72.989900000000       7.972528777600      10.432594904200
       223    1   0.000000       74.962600000000       4.555728777600      10.432594904200
       224    1   0.000000       78.908000000000      11.389328777600      10.432594904200
       225    2   0.000000       76.935300000000       3.416800000000       8.966300000000
       226    2   0.000000       72.989900000000      10.250400000000       8.966300000000
       227    2   0.000000       71.017200000000      13.667200000000       8.966300000000
       228    2   0.000000       74.962600000000       6.833600000000       8.966300000000
       229    1   0.000000       74.962600000000       4.555728777600       7.500005095800
       230    1   0.000000       78.908000000000      11.389328777600       7.500005095800
       231    2   0.000000       74.962600000000      13.667200000000       8.966300000000
       232    2   0.000000       71.017200000000       6.833600000000       8.966300000000
       233    1   0.000000       72.989900000000       1.138928777600      10.432594904200
       234    1   0.000000       76.935300000000       7.972528777600      10.432594904200
       235    1   0.000000       72.989900000000       1.138928777600       7.500005095800
       236    1   0.000000       76.935300000000       7.972528777600       7.500005095800
       237    1   0.000000       78.908000000000       4.555728777600      10.432594904200
       238    1   0.000000       74.962600000000      11.389328777600      10.432594904200
       239    1   0.000000       76.935300000000       1.138928777600       7.500005095800
       240    1   0.000000       72.989900000000       7.972528777600       7.500005095800
       241    1   0.000000       86.798800000000       4.555728777600       7.500005095800
       242    1   0.000000       82.853400000000      11.389328777600       7.500005095800
       243    2   0.000000       80.880700000000       3.416800000000       8.966300000000
       244    2   0.000000       84.826100000000      10.250400000000       8.966300000000
       245    1   0.000000       84.826100000000       1.138928777600      10.432594904200
       246    1   0.000000       80.880700000000       7.972528777600      10.432594904200
       247    1   0.000000       82.853400000000       4.555728777600      10.432594904200
       248    1   0.000000       86.798800000000      11.389328777600      10.432594904200
       249    2   0.000000       84.826100000000       3.416800000000       8.966300000000
       250    2   0.000000       80.880700000000      10.250400000000       8.966300000000
       251    2   0.000000       78.908000000000      13.667200000000       8.966300000000
       252    2   0.000000       82.853400000000       6.833600000000       8.966300000000
       253    1   0.000000       82.853400000000       4.555728777600       7.500005095800
       254    1   0.000000       86.798800000000      11.389328777600       7.500005095800
       255    2   0.000000       82.853400000000      13.667200000000       8.966300000000
       256    2   0.000000       78.908000000000       6.833600000000       8.966300000000
       257    1   0.000000       80.880700000000       1.138928777600      10.432594904200
       258    1   0.000000       84.826100000000       7.972528777600      10.432594904200
       259    1   0.000000       80.880700000000       1.138928777600       7.500005095800
       260    1   0.000000       84.826100000000       7.972528777600       7.500005095800
       261    1   0.000000       86.798800000000       4.555728777600      10.432594904200
       262    1   0.000000       82.853400000000      11.389328777600      10.432594904200
       263    1   0.000000       84.826100000000       1.138928777600       7.500005095800
       264    1   0.000000       80.880700000000       7.972528777600       7.500005095800
       265    1   0.000000       94.689600000000       4.555728777600       7.500005095800
       266    1   0.000000       90.744200000000      11.389328777600       7.500005095800
       267    2   0.000000       88.771500000000       3.416800000000       8.966300000000
       268    2   0.000000       92.716900000000      10.250400000000       8.966300000000
       269    1   0.000000       92.716900000000       1.138928777600      10.432594904200
       270    1   0.000000       88.771500000000       7.972528777600      10.432594904200
       271    1   0.000000       90.744200000000       4.555728777600      10.432594904200
       272    1   0.000000       94.689600000000      11.389328777600      10.432594904200
       273    2   0.000000       92.716900000000       3.416800000000       8.966300000000
       274    2   0.000000       88.771500000000      10.250400000000       8.966300000000
       275    2   0.000000       86.798800000000      13.667200000000       8.966300000000
       276    2   0.000000       90.744200000000       6.833600000000       8.966300000000
       277    1   0.000000       90.744200000000       4.555728777600       7.500005095800
       278    1   0.000000       94.689600000000      11.389328777600       7.500005095800
       279    2   0.000000       90.744200000000      13.667200000000       8.966300000000
       280    2   0.000000       86.798800000000       6.833600000000       8.966300000000
       281    1   0.000000       88.771500000000       1.138928777600      10.432594904200
       282    1   0.000000       92.716900000000       7.972528777600      10.432594904200
       283    1   0.000000       88.771500000000       1.138928777600       7.500005095800
       284    1   0.000000       92.716900000000       7.972528777600       7.500005095800
       285    1   0.000000       94.689600000000       4.555728777600      10.432594904200
       286    1   0.000000       90.744200000000      11.389328777600      10.432594904200
       287    1   0.000000       92.716900000000       1.138928777600       7.500005095800
       288    1   0.000000       88.771500000000       7.972528777600       7.500005095800
       289    1   0.000000      102.580400000000       4.555728777600       7.500005095800
       290    1   0.000000       98.635000000000      11.389328777600       7.500005095800
       291    2   0.000000       96.662300000000       3.416800000000       8.966300000000
       292    2   0.000000      100.607700000000      10.250400000000       8.966300000000
       293    1   0.000000      100.607700000000       1.138928777600      10.432594904200
       294    1   0.000000       96.662300000000       7.972528777600      10.432594904200
       295    1   0.000000       98.635000000000       4.555728777600      10.432594904200
       296    1   0.000000      102.580400000000      11.389328777600      10.432594904200
       297    2   0.000000      100.607700000000       3.416800000000       8.966300000000
       298    2   0.000000       96.662300000000      10.250400000000       8.966300000000
       299    2   0.000000       94.689600000000      13.667200000000       8.966300000000
       300    2   0.000000       98.635000000000       6.833600000000       8.966300000000
       301    1   0.000000       98.635000000000       4.555728777600       7.500005095800
       302    1   0.000000      102.580400000000      11.389328777600       7.500005095800
       303    2   0.000000       98.635000000000      13.667200000000       8.966300000000
       304    2   0.000000       94.689600000000       6.833600000000       8.966300000000
       305    1   0.000000       96.662300000000       1.138928777600      10.432594904200
       306    1   0.000000      100.607700000000       7.972528777600      10.432594904200
       307    1   0.000000       96.662300000000       1.138928777600       7.500005095800
       308    1   0.000000      100.607700000000       7.972528777600       7.500005095800
       309    1   0.000000      102.580400000000       4.555728777600      10.432594904200
       310    1   0.000000       98.635000000000      11.389328777600      10.432594904200
       311    1   0.000000      100.607700000000       1.138928777600       7.500005095800
       312    1   0.000000       96.662300000000       7.972528777600       7.500005095800
       313    1   0.000000        7.890800000000      18.222928777600       7.500005095800
       314    1   0.000000        3.945400000000      25.056528777600       7.500005095800
       315    2   0.000000        1.972700000000      17.084000000000       8.966300000000
       316    2   0.000000        5.918100000000      23.917600000000       8.966300000000
       317    1   0.000000        5.918100000000      14.806128777600      10.432594904200
       318    1   0.000000        1.972700000000      21.639728777600      10.432594904200
       319    1   0.000000        3.945400000000      18.222928777600      10.432594904200
       320    1   0.000000        7.890800000000      25.056528777600      10.432594904200
       321    2   0.000000        5.918100000000      17.084000000000       8.966300000000
       322    2   0.000000        1.972700000000      23.917600000000       8.966300000000
       323    2   0.000000        0.000000000000      27.334400000000       8.966300000000
       324    2   0.000000        3.945400000000      20.500800000000       8.966300000000
       325    1   0.000000        3.945400000000      18.222928777600       7.500005095800