 # Ta8 Se16
  
        2688  atoms
           2  atom types
 
      0.000000000000      97.199200000000  xlo xhi
      0.000000000000      96.203200000000  ylo yhi
      0.000000000000      18.356000000000  zlo zhi
 
Masses
 
            1   180.94788000            # Ta
            2   78.96000000             # Se
 
Atoms # atomic
 
         1    1        0.000000000000       0.000000000000       9.178000000000
         2    1        3.471400000000       6.012700000000       9.178000000000
         3    1        5.207100000000       3.006350000000       9.178000000000
         4    1        1.735700000000       9.019050000000       9.178000000000
         5    2        1.735700000000       1.002112658200       7.499986260000
         6    2        5.207100000000       7.014812658200       7.499986260000
         7    2        5.207100000000       1.002112658200       7.499986260000
         8    2        3.471400000000       4.008462658200      10.856013740000
         9    2        1.735700000000       7.014812658200       7.499986260000
        10    2        0.000000000000      10.021162658200      10.856013740000
        11    2        5.207100000000       1.002112658200      10.856013740000
        12    2        1.735700000000       7.014812658200      10.856013740000
        13    1        3.471400000000       0.000000000000       9.178000000000
        14    1        0.000000000000       6.012700000000       9.178000000000
        15    2        3.471400000000       4.008462658200       7.499986260000
        16    2        0.000000000000      10.021162658200       7.499986260000
        17    1        1.735700000000       3.006350000000       9.178000000000
        18    2        1.735700000000       1.002112658200      10.856013740000
        19    1        5.207100000000       9.019050000000       9.178000000000
        20    2        5.207100000000       7.014812658200      10.856013740000
        21    2        0.000000000000       4.008462658200       7.499986260000
        22    2        3.471400000000      10.021162658200       7.499986260000
        23    2        0.000000000000       4.008462658200      10.856013740000
        24    2        3.471400000000      10.021162658200      10.856013740000
        25    1        6.942800000000       0.000000000000       9.178000000000
        26    1       10.414200000000       6.012700000000       9.178000000000
        27    1       12.149900000000       3.006350000000       9.178000000000
        28    1        8.678500000000       9.019050000000       9.178000000000
        29    2        8.678500000000       1.002112658200       7.499986260000
        30    2       12.149900000000       7.014812658200       7.499986260000
        31    2       12.149900000000       1.002112658200       7.499986260000
        32    2       10.414200000000       4.008462658200      10.856013740000
        33    2        8.678500000000       7.014812658200       7.499986260000
        34    2        6.942800000000      10.021162658200      10.856013740000
        35    2       12.149900000000       1.002112658200      10.856013740000
        36    2        8.678500000000       7.014812658200      10.856013740000
        37    1       10.414200000000       0.000000000000       9.178000000000
        38    1        6.942800000000       6.012700000000       9.178000000000
        39    2       10.414200000000       4.008462658200       7.499986260000
        40    2        6.942800000000      10.021162658200       7.499986260000
        41    1        8.678500000000       3.006350000000       9.178000000000
        42    2        8.678500000000       1.002112658200      10.856013740000
        43    1       12.149900000000       9.019050000000       9.178000000000
        44    2       12.149900000000       7.014812658200      10.856013740000
        45    2        6.942800000000       4.008462658200       7.499986260000
        46    2       10.414200000000      10.021162658200       7.499986260000
        47    2        6.942800000000       4.008462658200      10.856013740000
        48    2       10.414200000000      10.021162658200      10.856013740000
        49    1       13.885600000000       0.000000000000       9.178000000000
        50    1       17.357000000000       6.012700000000       9.178000000000
        51    1       19.092700000000       3.006350000000       9.178000000000
        52    1       15.621300000000       9.019050000000       9.178000000000
        53    2       15.621300000000       1.002112658200       7.499986260000
        54    2       19.092700000000       7.014812658200       7.499986260000
        55    2       19.092700000000       1.002112658200       7.499986260000
        56    2       17.357000000000       4.008462658200      10.856013740000
        57    2       15.621300000000       7.014812658200       7.499986260000
        58    2       13.885600000000      10.021162658200      10.856013740000
        59    2       19.092700000000       1.002112658200      10.856013740000
        60    2       15.621300000000       7.014812658200      10.856013740000
        61    1       17.357000000000       0.000000000000       9.178000000000
        62    1       13.885600000000       6.012700000000       9.178000000000
        63    2       17.357000000000       4.008462658200       7.499986260000
        64    2       13.885600000000      10.021162658200       7.499986260000
        65    1       15.621300000000       3.006350000000       9.178000000000
        66    2       15.621300000000       1.002112658200      10.856013740000
        67    1       19.092700000000       9.019050000000       9.178000000000
        68    2       19.092700000000       7.014812658200      10.856013740000
        69    2       13.885600000000       4.008462658200       7.499986260000
        70    2       17.357000000000      10.021162658200       7.499986260000
        71    2       13.885600000000       4.008462658200      10.856013740000
        72    2       17.357000000000      10.021162658200      10.856013740000
        73    1       20.828400000000       0.000000000000       9.178000000000
        74    1       24.299800000000       6.012700000000       9.178000000000
        75    1       26.035500000000       3.006350000000       9.178000000000
        76    1       22.564100000000       9.019050000000       9.178000000000
        77    2       22.564100000000       1.002112658200       7.499986260000
        78    2       26.035500000000       7.014812658200       7.499986260000
        79    2       26.035500000000       1.002112658200       7.499986260000
        80    2       24.299800000000       4.008462658200      10.856013740000
        81    2       22.564100000000       7.014812658200       7.499986260000
        82    2       20.828400000000      10.021162658200      10.856013740000
        83    2       26.035500000000       1.002112658200      10.856013740000
        84    2       22.564100000000       7.014812658200      10.856013740000
        85    1       24.299800000000       0.000000000000       9.178000000000
        86    1       20.828400000000       6.012700000000       9.178000000000
        87    2       24.299800000000       4.008462658200       7.499986260000
        88    2       20.828400000000      10.021162658200       7.499986260000
        89    1       22.564100000000       3.006350000000       9.178000000000
        90    2       22.564100000000       1.002112658200      10.856013740000
        91    1       26.035500000000       9.019050000000       9.178000000000
        92    2       26.035500000000       7.014812658200      10.856013740000
        93    2       20.828400000000       4.008462658200       7.499986260000
        94    2       24.299800000000      10.021162658200       7.499986260000
        95    2       20.828400000000       4.008462658200      10.856013740000
        96    2       24.299800000000      10.021162658200      10.856013740000
        97    1       27.771200000000       0.000000000000       9.178000000000
        98    1       31.242600000000       6.012700000000       9.178000000000
        99    1       32.978300000000       3.006350000000       9.178000000000
       100    1       29.506900000000       9.019050000000       9.178000000000
       101    2       29.506900000000       1.002112658200       7.499986260000
       102    2       32.978300000000       7.014812658200       7.499986260000
       103    2       32.978300000000       1.002112658200       7.499986260000
       104    2       31.242600000000       4.008462658200      10.856013740000
       105    2       29.506900000000       7.014812658200       7.499986260000
       106    2       27.771200000000      10.021162658200      10.856013740000
       107    2       32.978300000000       1.002112658200      10.856013740000
       108    2       29.506900000000       7.014812658200      10.856013740000
       109    1       31.242600000000       0.000000000000       9.178000000000
       110    1       27.771200000000       6.012700000000       9.178000000000
       111    2       31.242600000000       4.008462658200       7.499986260000
       112    2       27.771200000000      10.021162658200       7.499986260000
       113    1       29.506900000000       3.006350000000       9.178000000000
       114    2       29.506900000000       1.002112658200      10.856013740000
       115    1       32.978300000000       9.019050000000       9.178000000000
       116    2       32.978300000000       7.014812658200      10.856013740000
       117    2       27.771200000000       4.008462658200       7.499986260000
       118    2       31.242600000000      10.021162658200       7.499986260000
       119    2       27.771200000000       4.008462658200      10.856013740000
       120    2       31.242600000000      10.021162658200      10.856013740000
       121    1       34.714000000000       0.000000000000       9.178000000000
       122    1       38.185400000000       6.012700000000       9.178000000000
       123    1       39.921100000000       3.006350000000       9.178000000000
       124    1       36.449700000000       9.019050000000       9.178000000000
       125    2       36.449700000000       1.002112658200       7.499986260000
       126    2       39.921100000000       7.014812658200       7.499986260000
       127    2       39.921100000000       1.002112658200       7.499986260000
       128    2       38.185400000000       4.008462658200      10.856013740000
       129    2       36.449700000000       7.014812658200       7.499986260000
       130    2       34.714000000000      10.021162658200      10.856013740000
       131    2       39.921100000000       1.002112658200      10.856013740000
       132    2       36.449700000000       7.014812658200      10.856013740000
       133    1       38.185400000000       0.000000000000       9.178000000000
       134    1       34.714000000000       6.012700000000       9.178000000000
       135    2       38.185400000000       4.008462658200       7.499986260000
       136    2       34.714000000000      10.021162658200       7.499986260000
       137    1       36.449700000000       3.006350000000       9.178000000000
       138    2       36.449700000000       1.002112658200      10.856013740000
       139    1       39.921100000000       9.019050000000       9.178000000000
       140    2       39.921100000000       7.014812658200      10.856013740000
       141    2       34.714000000000       4.008462658200       7.499986260000
       142    2       38.185400000000      10.021162658200       7.499986260000
       143    2       34.714000000000       4.008462658200      10.856013740000
       144    2       38.185400000000      10.021162658200      10.856013740000
       145    1       41.656800000000       0.000000000000       9.178000000000
       146    1       45.128200000000       6.012700000000       9.178000000000
       147    1       46.863900000000       3.006350000000       9.178000000000
       148    1       43.392500000000       9.019050000000       9.178000000000
       149    2       43.392500000000       1.002112658200       7.499986260000
       150    2       46.863900000000       7.014812658200       7.499986260000
       151    2       46.863900000000       1.002112658200       7.499986260000
       152    2       45.128200000000       4.008462658200      10.856013740000
       153    2       43.392500000000       7.014812658200       7.499986260000
       154    2       41.656800000000      10.021162658200      10.856013740000
       155    2       46.863900000000       1.002112658200      10.856013740000
       156    2       43.392500000000       7.014812658200      10.856013740000
       157    1       45.128200000000       0.000000000000       9.178000000000
       158    1       41.656800000000       6.012700000000       9.178000000000
       159    2       45.128200000000       4.008462658200       7.499986260000
       160    2       41.656800000000      10.021162658200       7.499986260000
       161    1       43.392500000000       3.006350000000       9.178000000000
       162    2       43.392500000000       1.002112658200      10.856013740000
       163    1       46.863900000000       9.019050000000       9.178000000000
       164    2       46.863900000000       7.014812658200      10.856013740000
       165    2       41.656800000000       4.008462658200       7.499986260000
       166    2       45.128200000000      10.021162658200       7.499986260000
       167    2       41.656800000000       4.008462658200      10.856013740000
       168    2       45.128200000000      10.021162658200      10.856013740000
       169    1       48.599600000000       0.000000000000       9.178000000000
       170    1       52.071000000000       6.012700000000       9.178000000000
       171    1       53.806700000000       3.006350000000       9.178000000000
       172    1       50.335300000000       9.019050000000       9.178000000000
       173    2       50.335300000000       1.002112658200       7.499986260000
       174    2       53.806700000000       7.014812658200       7.499986260000
       175    2       53.806700000000       1.002112658200       7.499986260000
       176    2       52.071000000000       4.008462658200      10.856013740000
       177    2       50.335300000000       7.014812658200       7.499986260000
       178    2       48.599600000000      10.021162658200      10.856013740000
       179    2       53.806700000000       1.002112658200      10.856013740000
       180    2       50.335300000000       7.014812658200      10.856013740000
       181    1       52.071000000000       0.000000000000       9.178000000000
       182    1       48.599600000000       6.012700000000       9.178000000000
       183    2       52.071000000000       4.008462658200       7.499986260000
       184    2       48.599600000000      10.021162658200       7.499986260000
       185    1       50.335300000000       3.006350000000       9.178000000000
       186    2       50.335300000000       1.002112658200      10.856013740000
       187    1       53.806700000000       9.019050000000       9.178000000000
       188    2       53.806700000000       7.014812658200      10.856013740000
       189    2       48.599600000000       4.008462658200       7.499986260000
       190    2       52.071000000000      10.021162658200       7.499986260000
       191    2       48.599600000000       4.008462658200      10.856013740000
       192    2       52.071000000000      10.021162658200      10.856013740000
       193    1       55.542400000000       0.000000000000       9.178000000000
       194    1       59.013800000000       6.012700000000       9.178000000000
       195    1       60.749500000000       3.006350000000       9.178000000000
       196    1       57.278100000000       9.019050000000       9.178000000000
       197    2       57.278100000000       1.002112658200       7.499986260000
       198    2       60.749500000000       7.014812658200       7.499986260000
       199    2       60.749500000000       1.002112658200       7.499986260000
       200    2       59.013800000000       4.008462658200      10.856013740000
       201    2       57.278100000000       7.014812658200       7.499986260000
       202    2       55.542400000000      10.021162658200      10.856013740000
       203    2       60.749500000000       1.002112658200      10.856013740000
       204    2       57.278100000000       7.014812658200      10.856013740000
       205    1       59.013800000000       0.000000000000       9.178000000000
       206    1       55.542400000000       6.012700000000       9.178000000000
       207    2       59.013800000000       4.008462658200       7.499986260000
       208    2       55.542400000000      10.021162658200       7.499986260000
       209    1       57.278100000000       3.006350000000       9.178000000000
       210    2       57.278100000000       1.002112658200      10.856013740000
       211    1       60.749500000000       9.019050000000       9.178000000000
       212    2       60.749500000000       7.014812658200      10.856013740000
       213    2       55.542400000000       4.008462658200       7.499986260000
       214    2       59.013800000000      10.021162658200       7.499986260000
       215    2       55.542400000000       4.008462658200      10.856013740000
       216    2       59.013800000000      10.021162658200      10.856013740000
       217    1       62.485200000000       0.000000000000       9.178000000000
       218    1       65.956600000000       6.012700000000       9.178000000000
       219    1       67.692300000000       3.006350000000       9.178000000000
       220    1       64.220900000000       9.019050000000       9.178000000000
       221    2       64.220900000000       1.002112658200       7.499986260000
       222    2       67.692300000000       7.014812658200       7.499986260000
       223    2       67.692300000000       1.002112658200       7.499986260000
       224    2       65.956600000000       4.008462658200      10.856013740000
       225    2       64.220900000000       7.014812658200       7.499986260000
       226    2       62.485200000000      10.021162658200      10.856013740000
       227    2       67.692300000000       1.002112658200      10.856013740000
       228    2       64.220900000000       7.014812658200      10.856013740000
       229    1       65.956600000000       0.000000000000       9.178000000000
       230    1       62.485200000000       6.012700000000       9.178000000000
       231    2       65.956600000000       4.008462658200       7.499986260000
       232    2       62.485200000000      10.021162658200       7.499986260000
       233    1       64.220900000000       3.006350000000       9.178000000000
       234    2       64.220900000000       1.002112658200      10.856013740000
       235    1       67.692300000000       9.019050000000       9.178000000000
       236    2       67.692300000000       7.014812658200      10.856013740000
       237    2       62.485200000000       4.008462658200       7.499986260000
       238    2       65.956600000000      10.021162658200       7.499986260000
       239    2       62.485200000000       4.008462658200      10.856013740000
       240    2       65.956600000000      10.021162658200      10.856013740000
       241    1       69.428000000000       0.000000000000       9.178000000000
       242    1       72.899400000000       6.012700000000       9.178000000000
       243    1       74.635100000000       3.006350000000       9.178000000000
       244    1       71.163700000000       9.019050000000       9.178000000000
       245    2       71.163700000000       1.002112658200       7.499986260000
       246    2       74.635100000000       7.014812658200       7.499986260000
       247    2       74.635100000000       1.002112658200       7.499986260000
       248    2       72.899400000000       4.008462658200      10.856013740000
       249    2       71.163700000000       7.014812658200       7.499986260000
       250    2       69.428000000000      10.021162658200      10.856013740000
       251    2       74.635100000000       1.002112658200      10.856013740000
       252    2       71.163700000000       7.014812658200      10.856013740000
       253    1       72.899400000000       0.000000000000       9.178000000000
       254    1       69.428000000000       6.012700000000       9.178000000000
       255    2       72.899400000000       4.008462658200       7.499986260000
       256    2       69.428000000000      10.021162658200       7.499986260000
       257    1       71.163700000000       3.006350000000       9.178000000000
       258    2       71.163700000000       1.002112658200      10.856013740000
       259    1       74.635100000000       9.019050000000       9.178000000000
       260    2       74.635100000000       7.014812658200      10.856013740000
       261    2       69.428000000000       4.008462658200       7.499986260000
       262    2       72.899400000000      10.021162658200       7.499986260000
       263    2       69.428000000000       4.008462658200      10.856013740000
       264    2       72.899400000000      10.021162658200      10.856013740000
       265    1       76.370800000000       0.000000000000       9.178000000000
       266    1       79.842200000000       6.012700000000       9.178000000000
       267    1       81.577900000000       3.006350000000       9.178000000000
       268    1       78.106500000000       9.019050000000       9.178000000000
       269    2       78.106500000000       1.002112658200       7.499986260000
       270    2       81.577900000000       7.014812658200       7.499986260000
       271    2       81.577900000000       1.002112658200       7.499986260000
       272    2       79.842200000000       4.008462658200      10.856013740000
       273    2       78.106500000000       7.014812658200       7.499986260000
       274    2       76.370800000000      10.021162658200      10.856013740000
       275    2       81.577900000000       1.002112658200      10.856013740000
       276    2       78.106500000000       7.014812658200      10.856013740000
       277    1       79.842200000000       0.000000000000       9.178000000000
       278    1       76.370800000000       6.012700000000       9.178000000000
       279    2       79.842200000000       4.008462658200       7.499986260000
       280    2       76.370800000000      10.021162658200       7.499986260000
       281    1       78.106500000000       3.006350000000       9.178000000000
       282    2       78.106500000000       1.002112658200      10.856013740000
       283    1       81.577900000000       9.019050000000       9.178000000000
       284    2       81.577900000000       7.014812658200      10.856013740000
       285    2       76.370800000000       4.008462658200       7.499986260000
       286    2       79.842200000000      10.021162658200       7.499986260000
       287    2       76.370800000000       4.008462658200      10.856013740000
       288    2       79.842200000000      10.021162658200      10.856013740000
       289    1       83.313600000000       0.000000000000       9.178000000000
       290    1       86.785000000000       6.012700000000       9.178000000000
       291    1       88.520700000000       3.006350000000       9.178000000000
       292    1       85.049300000000       9.019050000000       9.178000000000
       293    2       85.049300000000       1.002112658200       7.499986260000
       294    2       88.520700000000       7.014812658200       7.499986260000
       295    2       88.520700000000       1.002112658200       7.499986260000
       296    2       86.785000000000       4.008462658200      10.856013740000
       297    2       85.049300000000       7.014812658200       7.499986260000
       298    2       83.313600000000      10.021162658200      10.856013740000
       299    2       88.520700000000       1.002112658200      10.856013740000
       300    2       85.049300000000       7.014812658200      10.856013740000
       301    1       86.785000000000       0.000000000000       9.178000000000
       302    1       83.313600000000       6.012700000000       9.178000000000
       303    2       86.785000000000       4.008462658200       7.499986260000
       304    2       83.313600000000      10.021162658200       7.499986260000
       305    1       85.049300000000       3.006350000000       9.178000000000
       306    2       85.049300000000       1.002112658200      10.856013740000
       307    1       88.520700000000       9.019050000000       9.178000000000
       308    2       88.520700000000       7.014812658200      10.856013740000
       309    2       83.313600000000       4.008462658200       7.499986260000
       310    2       86.785000000000      10.021162658200       7.499986260000
       311    2       83.313600000000       4.008462658200      10.856013740000
       312    2       86.785000000000      10.021162658200      10.856013740000
       313    1       90.256400000000       0.000000000000       9.178000000000
       314    1       93.727800000000       6.012700000000       9.178000000000
       315    1       95.463500000000       3.006350000000       9.178000000000
       316    1       91.992100000000       9.019050000000       9.178000000000
       317    2       91.992100000000       1.002112658200       7.499986260000
       318    2       95.463500000000       7.014812658200       7.499986260000
       319    2       95.463500000000       1.002112658200       7.499986260000
       320    2       93.727800000000       4.008462658200      10.856013740000
       321    2       91.992100000000       7.014812658200       7.499986260000
       322    2       90.256400000000      10.021162658200      10.856013740000
       323    2       95.463500000000       1.002112658200      10.856013740000
       324    2       91.992100000000       7.014812658200      10.856013740000
       325    1       93.727800000000       0.000000000000       9.178000000000
       326    1       90.256400000000       6.012700000000       9.178000000000
       327    2       93.727800000000       4.008462658200       7.499986260000
       328    2       90.256400000000      10.021162658200       7.499986260000
       329    1       91.992100000000       3.006350000000       9.178000000000
       330    2       91.992100000000       1.002112658200      10.856013740000
       331    1       95.463500000000       9.019050000000       9.178000000000
       332    2       95.463500000000       7.014812658200      10.856013740000
       333    2       90.256400000000       4.008462658200       7.499986260000
       334    2       93.727800000000      10.021162658200       7.499986260000
       335    2       90.256400000000       4.008462658200      10.856013740000
       336    2       93.727800000000      10.021162658200      10.856013740000
       337    1        0.000000000000      12.025400000000       9.178000000000
       338    1        3.471400000000      18.038100000000       9.178000000000
       339    1        5.207100000000      15.031750000000       9.178000000000
       340    1        1.735700000000      21.044450000000       9.178000000000
       341    2        1.735700000000      13.027512658200       7.499986260000
       342    2        5.207100000000      19.040212658200       7.499986260000
       343    2        5.207100000000      13.027512658200       7.499986260000
       344    2        3.471400000000      16.033862658200      10.856013740000
       345    2        1.735700000000      19.040212658200       7.499986260000
       346    2        0.000000000000      22.046562658200      10.856013740000
       347    2        5.207100000000      13.027512658200      10.856013740000
       348    2        1.735700000000      19.040212658200      10.856013740000
       349    1        3.471400000000      12.025400000000       9.178000000000
       350    1        0.000000000000      18.038100000000       9.178000000000
       351    2        3.471400000000      16.033862658200       7.499986260000
       352    2        0.000000000000      22.046562658200       7.499986260000
       353    1        1.735700000000      15.031750000000       9.178000000000
       354    2        1.735700000000      13.027512658200      10.856013740000
       355    1        5.207100000000      21.044450000000       9.178000000000
       356    2        5.207100000000      19.040212658200      10.856013740000
       357    2        0.000000000000      16.033862658200       7.499986260000
       358    2        3.471400000000      22.046562658200       7.499986260000
       359    2        0.000000000000      16.033862658200      10.856013740000
       360    2        3.471400000000      22.046562658200      10.856013740000
       361    1        6.942800000000      12.025400000000       9.178000000000
       362    1       10.414200000000      18.038100000000       9.178000000000
       363    1       12.149900000000      15.031750000000       9.178000000000
       364    1        8.678500000000      21.044450000000       9.178000000000
       365    2        8.678500000000      13.027512658200       7.499986260000
       366    2       12.149900000000      19.040212658200       7.499986260000
       367    2       12.149900000000      13.027512658200       7.499986260000
       368    2       10.414200000000      16.033862658200      10.856013740000
       369    2        8.678500000000      19.040212658200       7.499986260000
       370    2        6.942800000000      22.046562658200      10.856013740000