 # V8 O16
  
        4320  atoms
           2  atom types
 
      0.000000000000      99.099000000000  xlo xhi
      0.000000000000      95.358000000000  ylo yhi
      0.000000000000      17.271100000000  zlo zhi
 
Masses
 
            1   50.94150000             # V
            2   15.99900000             # O
 
Atoms # atomic
 
         1    1        5.505500000000       9.535800000000       8.635550000000
         2    1        2.752750000000       4.767900000000       8.635550000000
         3    2        0.000000000000       3.178596821400       7.495294706900
         4    1        1.376375000000       2.383950000000       8.635550000000
         5    2        2.752750000000       3.178596821400       9.775805293100
         6    2        2.752750000000       7.946496821400       7.495294706900
         7    2        5.505500000000       7.946496821400       9.775805293100
         8    1        4.129125000000       7.151850000000       8.635550000000
         9    2        1.376375000000       0.794646821400       9.775805293100
        10    2        2.752750000000       3.178596821400       7.495294706900
        11    2        4.129125000000       5.562546821400       9.775805293100
        12    2        5.505500000000       7.946496821400       7.495294706900
        13    2        0.000000000000       3.178596821400       9.775805293100
        14    2        2.752750000000       7.946496821400       9.775805293100
        15    2        4.129125000000       0.794646821400       9.775805293100
        16    2        1.376375000000       5.562546821400       9.775805293100
        17    2        4.129125000000       0.794646821400       7.495294706900
        18    2        1.376375000000       5.562546821400       7.495294706900
        19    1        4.129125000000       2.383950000000       8.635550000000
        20    1        1.376375000000       7.151850000000       8.635550000000
        21    2        1.376375000000       0.794646821400       7.495294706900
        22    2        4.129125000000       5.562546821400       7.495294706900
        23    1        2.752750000000       9.535800000000       8.635550000000
        24    1        5.505500000000       4.767900000000       8.635550000000
        25    1       11.011000000000       9.535800000000       8.635550000000
        26    1        8.258250000000       4.767900000000       8.635550000000
        27    2        5.505500000000       3.178596821400       7.495294706900
        28    1        6.881875000000       2.383950000000       8.635550000000
        29    2        8.258250000000       3.178596821400       9.775805293100
        30    2        8.258250000000       7.946496821400       7.495294706900
        31    2       11.011000000000       7.946496821400       9.775805293100
        32    1        9.634625000000       7.151850000000       8.635550000000
        33    2        6.881875000000       0.794646821400       9.775805293100
        34    2        8.258250000000       3.178596821400       7.495294706900
        35    2        9.634625000000       5.562546821400       9.775805293100
        36    2       11.011000000000       7.946496821400       7.495294706900
        37    2        5.505500000000       3.178596821400       9.775805293100
        38    2        8.258250000000       7.946496821400       9.775805293100
        39    2        9.634625000000       0.794646821400       9.775805293100
        40    2        6.881875000000       5.562546821400       9.775805293100
        41    2        9.634625000000       0.794646821400       7.495294706900
        42    2        6.881875000000       5.562546821400       7.495294706900
        43    1        9.634625000000       2.383950000000       8.635550000000
        44    1        6.881875000000       7.151850000000       8.635550000000
        45    2        6.881875000000       0.794646821400       7.495294706900
        46    2        9.634625000000       5.562546821400       7.495294706900
        47    1        8.258250000000       9.535800000000       8.635550000000
        48    1       11.011000000000       4.767900000000       8.635550000000
        49    1       16.516500000000       9.535800000000       8.635550000000
        50    1       13.763750000000       4.767900000000       8.635550000000
        51    2       11.011000000000       3.178596821400       7.495294706900
        52    1       12.387375000000       2.383950000000       8.635550000000
        53    2       13.763750000000       3.178596821400       9.775805293100
        54    2       13.763750000000       7.946496821400       7.495294706900
        55    2       16.516500000000       7.946496821400       9.775805293100
        56    1       15.140125000000       7.151850000000       8.635550000000
        57    2       12.387375000000       0.794646821400       9.775805293100
        58    2       13.763750000000       3.178596821400       7.495294706900
        59    2       15.140125000000       5.562546821400       9.775805293100
        60    2       16.516500000000       7.946496821400       7.495294706900
        61    2       11.011000000000       3.178596821400       9.775805293100
        62    2       13.763750000000       7.946496821400       9.775805293100
        63    2       15.140125000000       0.794646821400       9.775805293100
        64    2       12.387375000000       5.562546821400       9.775805293100
        65    2       15.140125000000       0.794646821400       7.495294706900
        66    2       12.387375000000       5.562546821400       7.495294706900
        67    1       15.140125000000       2.383950000000       8.635550000000
        68    1       12.387375000000       7.151850000000       8.635550000000
        69    2       12.387375000000       0.794646821400       7.495294706900
        70    2       15.140125000000       5.562546821400       7.495294706900
        71    1       13.763750000000       9.535800000000       8.635550000000
        72    1       16.516500000000       4.767900000000       8.635550000000
        73    1       22.022000000000       9.535800000000       8.635550000000
        74    1       19.269250000000       4.767900000000       8.635550000000
        75    2       16.516500000000       3.178596821400       7.495294706900
        76    1       17.892875000000       2.383950000000       8.635550000000
        77    2       19.269250000000       3.178596821400       9.775805293100
        78    2       19.269250000000       7.946496821400       7.495294706900
        79    2       22.022000000000       7.946496821400       9.775805293100
        80    1       20.645625000000       7.151850000000       8.635550000000
        81    2       17.892875000000       0.794646821400       9.775805293100
        82    2       19.269250000000       3.178596821400       7.495294706900
        83    2       20.645625000000       5.562546821400       9.775805293100
        84    2       22.022000000000       7.946496821400       7.495294706900
        85    2       16.516500000000       3.178596821400       9.775805293100
        86    2       19.269250000000       7.946496821400       9.775805293100
        87    2       20.645625000000       0.794646821400       9.775805293100
        88    2       17.892875000000       5.562546821400       9.775805293100
        89    2       20.645625000000       0.794646821400       7.495294706900
        90    2       17.892875000000       5.562546821400       7.495294706900
        91    1       20.645625000000       2.383950000000       8.635550000000
        92    1       17.892875000000       7.151850000000       8.635550000000
        93    2       17.892875000000       0.794646821400       7.495294706900
        94    2       20.645625000000       5.562546821400       7.495294706900
        95    1       19.269250000000       9.535800000000       8.635550000000
        96    1       22.022000000000       4.767900000000       8.635550000000
        97    1       27.527500000000       9.535800000000       8.635550000000
        98    1       24.774750000000       4.767900000000       8.635550000000
        99    2       22.022000000000       3.178596821400       7.495294706900
       100    1       23.398375000000       2.383950000000       8.635550000000
       101    2       24.774750000000       3.178596821400       9.775805293100
       102    2       24.774750000000       7.946496821400       7.495294706900
       103    2       27.527500000000       7.946496821400       9.775805293100
       104    1       26.151125000000       7.151850000000       8.635550000000
       105    2       23.398375000000       0.794646821400       9.775805293100
       106    2       24.774750000000       3.178596821400       7.495294706900
       107    2       26.151125000000       5.562546821400       9.775805293100
       108    2       27.527500000000       7.946496821400       7.495294706900
       109    2       22.022000000000       3.178596821400       9.775805293100
       110    2       24.774750000000       7.946496821400       9.775805293100
       111    2       26.151125000000       0.794646821400       9.775805293100
       112    2       23.398375000000       5.562546821400       9.775805293100
       113    2       26.151125000000       0.794646821400       7.495294706900
       114    2       23.398375000000       5.562546821400       7.495294706900
       115    1       26.151125000000       2.383950000000       8.635550000000
       116    1       23.398375000000       7.151850000000       8.635550000000
       117    2       23.398375000000       0.794646821400       7.495294706900
       118    2       26.151125000000       5.562546821400       7.495294706900
       119    1       24.774750000000       9.535800000000       8.635550000000
       120    1       27.527500000000       4.767900000000       8.635550000000
       121    1       33.033000000000       9.535800000000       8.635550000000
       122    1       30.280250000000       4.767900000000       8.635550000000
       123    2       27.527500000000       3.178596821400       7.495294706900
       124    1       28.903875000000       2.383950000000       8.635550000000
       125    2       30.280250000000       3.178596821400       9.775805293100
       126    2       30.280250000000       7.946496821400       7.495294706900
       127    2       33.033000000000       7.946496821400       9.775805293100
       128    1       31.656625000000       7.151850000000       8.635550000000
       129    2       28.903875000000       0.794646821400       9.775805293100
       130    2       30.280250000000       3.178596821400       7.495294706900
       131    2       31.656625000000       5.562546821400       9.775805293100
       132    2       33.033000000000       7.946496821400       7.495294706900
       133    2       27.527500000000       3.178596821400       9.775805293100
       134    2       30.280250000000       7.946496821400       9.775805293100
       135    2       31.656625000000       0.794646821400       9.775805293100
       136    2       28.903875000000       5.562546821400       9.775805293100
       137    2       31.656625000000       0.794646821400       7.495294706900
       138    2       28.903875000000       5.562546821400       7.495294706900
       139    1       31.656625000000       2.383950000000       8.635550000000
       140    1       28.903875000000       7.151850000000       8.635550000000
       141    2       28.903875000000       0.794646821400       7.495294706900
       142    2       31.656625000000       5.562546821400       7.495294706900
       143    1       30.280250000000       9.535800000000       8.635550000000
       144    1       33.033000000000       4.767900000000       8.635550000000
       145    1       38.538500000000       9.535800000000       8.635550000000
       146    1       35.785750000000       4.767900000000       8.635550000000
       147    2       33.033000000000       3.178596821400       7.495294706900
       148    1       34.409375000000       2.383950000000       8.635550000000
       149    2       35.785750000000       3.178596821400       9.775805293100
       150    2       35.785750000000       7.946496821400       7.495294706900
       151    2       38.538500000000       7.946496821400       9.775805293100
       152    1       37.162125000000       7.151850000000       8.635550000000
       153    2       34.409375000000       0.794646821400       9.775805293100
       154    2       35.785750000000       3.178596821400       7.495294706900
       155    2       37.162125000000       5.562546821400       9.775805293100
       156    2       38.538500000000       7.946496821400       7.495294706900
       157    2       33.033000000000       3.178596821400       9.775805293100
       158    2       35.785750000000       7.946496821400       9.775805293100
       159    2       37.162125000000       0.794646821400       9.775805293100
       160    2       34.409375000000       5.562546821400       9.775805293100
       161    2       37.162125000000       0.794646821400       7.495294706900
       162    2       34.409375000000       5.562546821400       7.495294706900
       163    1       37.162125000000       2.383950000000       8.635550000000
       164    1       34.409375000000       7.151850000000       8.635550000000
       165    2       34.409375000000       0.794646821400       7.495294706900
       166    2       37.162125000000       5.562546821400       7.495294706900
       167    1       35.785750000000       9.535800000000       8.635550000000
       168    1       38.538500000000       4.767900000000       8.635550000000
       169    1       44.044000000000       9.535800000000       8.635550000000
       170    1       41.291250000000       4.767900000000       8.635550000000
       171    2       38.538500000000       3.178596821400       7.495294706900
       172    1       39.914875000000       2.383950000000       8.635550000000
       173    2       41.291250000000       3.178596821400       9.775805293100
       174    2       41.291250000000       7.946496821400       7.495294706900
       175    2       44.044000000000       7.946496821400       9.775805293100
       176    1       42.667625000000       7.151850000000       8.635550000000
       177    2       39.914875000000       0.794646821400       9.775805293100
       178    2       41.291250000000       3.178596821400       7.495294706900
       179    2       42.667625000000       5.562546821400       9.775805293100
       180    2       44.044000000000       7.946496821400       7.495294706900
       181    2       38.538500000000       3.178596821400       9.775805293100
       182    2       41.291250000000       7.946496821400       9.775805293100
       183    2       42.667625000000       0.794646821400       9.775805293100
       184    2       39.914875000000       5.562546821400       9.775805293100
       185    2       42.667625000000       0.794646821400       7.495294706900
       186    2       39.914875000000       5.562546821400       7.495294706900
       187    1       42.667625000000       2.383950000000       8.635550000000
       188    1       39.914875000000       7.151850000000       8.635550000000
       189    2       39.914875000000       0.794646821400       7.495294706900
       190    2       42.667625000000       5.562546821400       7.495294706900
       191    1       41.291250000000       9.535800000000       8.635550000000
       192    1       44.044000000000       4.767900000000       8.635550000000
       193    1       49.549500000000       9.535800000000       8.635550000000
       194    1       46.796750000000       4.767900000000       8.635550000000
       195    2       44.044000000000       3.178596821400       7.495294706900
       196    1       45.420375000000       2.383950000000       8.635550000000
       197    2       46.796750000000       3.178596821400       9.775805293100
       198    2       46.796750000000       7.946496821400       7.495294706900
       199    2       49.549500000000       7.946496821400       9.775805293100
       200    1       48.173125000000       7.151850000000       8.635550000000
       201    2       45.420375000000       0.794646821400       9.775805293100
       202    2       46.796750000000       3.178596821400       7.495294706900
       203    2       48.173125000000       5.562546821400       9.775805293100
       204    2       49.549500000000       7.946496821400       7.495294706900
       205    2       44.044000000000       3.178596821400       9.775805293100
       206    2       46.796750000000       7.946496821400       9.775805293100
       207    2       48.173125000000       0.794646821400       9.775805293100
       208    2       45.420375000000       5.562546821400       9.775805293100
       209    2       48.173125000000       0.794646821400       7.495294706900
       210    2       45.420375000000       5.562546821400       7.495294706900
       211    1       48.173125000000       2.383950000000       8.635550000000
       212    1       45.420375000000       7.151850000000       8.635550000000
       213    2       45.420375000000       0.794646821400       7.495294706900
       214    2       48.173125000000       5.562546821400       7.495294706900
       215    1       46.796750000000       9.535800000000       8.635550000000
       216    1       49.549500000000       4.767900000000       8.635550000000
       217    1       55.055000000000       9.535800000000       8.635550000000
       218    1       52.302250000000       4.767900000000       8.635550000000
       219    2       49.549500000000       3.178596821400       7.495294706900
       220    1       50.925875000000       2.383950000000       8.635550000000
       221    2       52.302250000000       3.178596821400       9.775805293100
       222    2       52.302250000000       7.946496821400       7.495294706900
       223    2       55.055000000000       7.946496821400       9.775805293100
       224    1       53.678625000000       7.151850000000       8.635550000000
       225    2       50.925875000000       0.794646821400       9.775805293100
       226    2       52.302250000000       3.178596821400       7.495294706900
       227    2       53.678625000000       5.562546821400       9.775805293100
       228    2       55.055000000000       7.946496821400       7.495294706900
       229    2       49.549500000000       3.178596821400       9.775805293100
       230    2       52.302250000000       7.946496821400       9.775805293100
       231    2       53.678625000000       0.794646821400       9.775805293100
       232    2       50.925875000000       5.562546821400       9.775805293100
       233    2       53.678625000000       0.794646821400       7.495294706900
       234    2       50.925875000000       5.562546821400       7.495294706900
       235    1       53.678625000000       2.383950000000       8.635550000000
       236    1       50.925875000000       7.151850000000       8.635550000000
       237    2       50.925875000000       0.794646821400       7.495294706900
       238    2       53.678625000000       5.562546821400       7.495294706900
       239    1       52.302250000000       9.535800000000       8.635550000000
       240    1       55.055000000000       4.767900000000       8.635550000000
       241    1       60.560500000000       9.535800000000       8.635550000000
       242    1       57.807750000000       4.767900000000       8.635550000000
       243    2       55.055000000000       3.178596821400       7.495294706900
       244    1       56.431375000000       2.383950000000       8.635550000000
       245    2       57.807750000000       3.178596821400       9.775805293100
       246    2       57.807750000000       7.946496821400       7.495294706900
       247    2       60.560500000000       7.946496821400       9.775805293100
       248    1       59.184125000000       7.151850000000       8.635550000000
       249    2       56.431375000000       0.794646821400       9.775805293100
       250    2       57.807750000000       3.178596821400       7.495294706900
       251    2       59.184125000000       5.562546821400       9.775805293100
       252    2       60.560500000000       7.946496821400       7.495294706900
       253    2       55.055000000000       3.178596821400       9.775805293100
       254    2       57.807750000000       7.946496821400       9.775805293100
       255    2       59.184125000000       0.794646821400       9.775805293100
       256    2       56.431375000000       5.562546821400       9.775805293100
       257    2       59.184125000000       0.794646821400       7.495294706900
       258    2       56.431375000000       5.562546821400       7.495294706900
       259    1       59.184125000000       2.383950000000       8.635550000000
       260    1       56.431375000000       7.151850000000       8.635550000000
       261    2       56.431375000000       0.794646821400       7.495294706900
       262    2       59.184125000000       5.562546821400       7.495294706900
       263    1       57.807750000000       9.535800000000       8.635550000000
       264    1       60.560500000000       4.767900000000       8.635550000000
       265    1       66.066000000000       9.535800000000       8.635550000000
       266    1       63.313250000000       4.767900000000       8.635550000000
       267    2       60.560500000000       3.178596821400       7.495294706900
       268    1       61.936875000000       2.383950000000       8.635550000000
       269    2       63.313250000000       3.178596821400       9.775805293100
       270    2       63.313250000000       7.946496821400       7.495294706900
       271    2       66.066000000000       7.946496821400       9.775805293100
       272    1       64.689625000000       7.151850000000       8.635550000000
       273    2       61.936875000000       0.794646821400       9.775805293100
       274    2       63.313250000000       3.178596821400       7.495294706900
       275    2       64.689625000000       5.562546821400       9.775805293100
       276    2       66.066000000000       7.946496821400       7.495294706900
       277    2       60.560500000000       3.178596821400       9.775805293100
       278    2       63.313250000000       7.946496821400       9.775805293100
       279    2       64.689625000000       0.794646821400       9.775805293100
       280    2       61.936875000000       5.562546821400       9.775805293100
       281    2       64.689625000000       0.794646821400       7.495294706900
       282    2       61.936875000000       5.562546821400       7.495294706900
       283    1       64.689625000000       2.383950000000       8.635550000000
       284    1       61.936875000000       7.151850000000       8.635550000000
       285    2       61.936875000000       0.794646821400       7.495294706900
       286    2       64.689625000000       5.562546821400       7.495294706900
       287    1       63.313250000000       9.535800000000       8.635550000000
       288    1       66.066000000000       4.767900000000       8.635550000000
       289    1       71.571500000000       9.535800000000       8.635550000000
       290    1       68.818750000000       4.767900000000       8.635550000000
       291    2       66.066000000000       3.178596821400       7.495294706900
       292    1       67.442375000000       2.383950000000       8.635550000000
       293    2       68.818750000000       3.178596821400       9.775805293100
       294    2       68.818750000000       7.946496821400       7.495294706900
       295    2       71.571500000000       7.946496821400       9.775805293100
       296    1       70.195125000000       7.151850000000       8.635550000000
       297    2       67.442375000000       0.794646821400       9.775805293100
       298    2       68.818750000000       3.178596821400       7.495294706900
       299    2       70.195125000000       5.562546821400       9.775805293100
       300    2       71.571500000000       7.946496821400       7.495294706900
       301    2       66.066000000000       3.178596821400       9.775805293100
       302    2       68.818750000000       7.946496821400       9.775805293100
       303    2       70.195125000000       0.794646821400       9.775805293100
       304    2       67.442375000000       5.562546821400       9.775805293100
       305    2       70.195125000000       0.794646821400       7.495294706900
       306    2       67.442375000000       5.562546821400       7.495294706900
       307    1       70.195125000000       2.383950000000       8.635550000000
       308    1       67.442375000000       7.151850000000       8.635550000000
       309    2       67.442375000000       0.794646821400       7.495294706900
       310    2       70.195125000000       5.562546821400       7.495294706900
       311    1       68.818750000000       9.535800000000       8.635550000000
       312    1       71.571500000000       4.767900000000       8.635550000000
       313    1       77.077000000000       9.535800000000       8.635550000000
       314    1       74.324250000000       4.767900000000       8.635550000000
       315    2       71.571500000000       3.178596821400       7.495294706900
       316    1       72.947875000000       2.383950000000       8.635550000000
       317    2       74.324250000000       3.178596821400       9.775805293100
       318    2       74.324250000000       7.946496821400       7.495294706900
       319    2       77.077000000000       7.946496821400       9.775805293100
       320    1       75.700625000000       7.151850000000       8.635550000000
       321    2       72.947875000000       0.794646821400       9.775805293100
       322    2       74.324250000000       3.178596821400       7.495294706900
       323    2       75.700625000000       5.562546821400       9.775805293100
       324    2       77.077000000000       7.946496821400       7.495294706900
       325    2       71.571500000000       3.178596821400       9.775805293100
       326    2       74.324250000000       7.946496821400       9.775805293100
       327    2       75.700625000000       0.794646821400       9.775805293100
       328    2       72.947875000000       5.562546821400       9.775805293100
       329    2       75.700625000000       0.794646821400       7.495294706900
       330    2       72.947875000000       5.562546821400       7.495294706900
       331    1       75.700625000000       2.383950000000       8.635550000000
       332    1       72.947875000000       7.151850000000       8.635550000000
       333    2       72.947875000000       0.794646821400       7.495294706900
       334    2       75.700625000000       5.562546821400       7.495294706900
       335    1       74.324250000000       9.535800000000       8.635550000000
       336    1       77.077000000000       4.767900000000       8.635550000000
       337    1       82.582500000000       9.535800000000       8.635550000000
       338    1       79.829750000000       4.767900000000       8.635550000000
       339    2       77.077000000000       3.178596821400       7.495294706900
       340    1       78.453375000000       2.383950000000       8.635550000000
       341    2       79.829750000000       3.178596821400       9.775805293100
       342    2       79.829750000000       7.946496821400       7.495294706900
       343    2       82.582500000000       7.946496821400       9.775805293100
       344    1       81.206125000000       7.151850000000       8.635550000000
       345    2       78.453375000000       0.794646821400       9.775805293100
       346    2       79.829750000000       3.178596821400       7.495294706900
       347    2       81.206125000000       5.562546821400       9.775805293100
       348    2       82.582500000000       7.946496821400       7.495294706900
       349    2       77.077000000000       3.178596821400       9.775805293100
       350    2       79.829750000000       7.946496821400       9.775805293100
       351    2       81.206125000000       0.794646821400       9.775805293100
       352    2       78.453375000000       5.562546821400       9.775805293100
       353    2       81.206125000000       0.794646821400       7.495294706900
       354    2       78.453375000000       5.562546821400       7.495294706900
       355    1       81.206125000000       2.383950000000       8.635550000000
       356    1       78.453375000000       7.151850000000       8.635550000000
       357    2       78.453375000000       0.794646821400       7.495294706900
       358    2       81.206125000000       5.562546821400       7.495294706900
       359    1       79.829750000000       9.535800000000       8.635550000000
       360    1       82.582500000000       4.767900000000       8.635550000000
       361    1       88.088000000000       9.535800000000       8.635550000000
       362    1       85.335250000000       4.767900000000       8.635550000000
       363    2       82.582500000000       3.178596821400       7.495294706900
       364    1       83.958875000000       2.383950000000       8.635550000000
       365    2       85.335250000000       3.178596821400       9.775805293100
       366    2       85.335250000000       7.946496821400       7.495294706900
       367    2       88.088000000000       7.946496821400       9.775805293100
       368    1       86.711625000000       7.151850000000       8.635550000000
       369    2       83.958875000000       0.794646821400       9.775805293100
       370    2       85.335250000000       3.178596821400       7.495294706900