 # V8 S16
  
        3456  atoms
           2  atom types
 
      0.000000000000     101.958400000000  xlo xhi
      0.000000000000      99.335700000000  ylo yhi
      0.000000000000      17.979500000000  zlo zhi
 
Masses
 
            1   50.94150000             # V
            2   32.06000000             # S
 
Atoms # atomic
 
         1    1        0.000000000000       0.000000000000       8.989750000000
         2    1        3.186200000000       5.518650000000       8.989750000000
         3    1        1.593100000000       2.759325000000       8.989750000000
         4    1        4.779300000000       8.277975000000       8.989750000000
         5    2        1.593100000000       0.919771320900      10.483954327000
         6    2        4.779300000000       6.438421320900      10.483954327000
         7    2        3.186200000000       3.679096320900       7.495545673000
         8    2        0.000000000000       9.197746320900       7.495545673000
         9    2        3.186200000000       3.679096320900      10.483954327000
        10    2        0.000000000000       9.197746320900      10.483954327000
        11    2        4.779300000000       0.919771320900      10.483954327000
        12    2        1.593100000000       6.438421320900      10.483954327000
        13    2        1.593100000000       0.919771320900       7.495545673000
        14    2        4.779300000000       6.438421320900       7.495545673000
        15    1        3.186200000000       0.000000000000       8.989750000000
        16    1        6.372400000000       5.518650000000       8.989750000000
        17    1        4.779300000000       2.759325000000       8.989750000000
        18    1        1.593100000000       8.277975000000       8.989750000000
        19    2        4.779300000000       0.919771320900       7.495545673000
        20    2        1.593100000000       6.438421320900       7.495545673000
        21    2        6.372400000000       3.679096320900       7.495545673000
        22    2        3.186200000000       9.197746320900       7.495545673000
        23    2        0.000000000000       3.679096320900      10.483954327000
        24    2        3.186200000000       9.197746320900      10.483954327000
        25    1        6.372400000000       0.000000000000       8.989750000000
        26    1        9.558600000000       5.518650000000       8.989750000000
        27    1        7.965500000000       2.759325000000       8.989750000000
        28    1       11.151700000000       8.277975000000       8.989750000000
        29    2        7.965500000000       0.919771320900      10.483954327000
        30    2       11.151700000000       6.438421320900      10.483954327000
        31    2        9.558600000000       3.679096320900       7.495545673000
        32    2        6.372400000000       9.197746320900       7.495545673000
        33    2        9.558600000000       3.679096320900      10.483954327000
        34    2        6.372400000000       9.197746320900      10.483954327000
        35    2       11.151700000000       0.919771320900      10.483954327000
        36    2        7.965500000000       6.438421320900      10.483954327000
        37    2        7.965500000000       0.919771320900       7.495545673000
        38    2       11.151700000000       6.438421320900       7.495545673000
        39    1        9.558600000000       0.000000000000       8.989750000000
        40    1       12.744800000000       5.518650000000       8.989750000000
        41    1       11.151700000000       2.759325000000       8.989750000000
        42    1        7.965500000000       8.277975000000       8.989750000000
        43    2       11.151700000000       0.919771320900       7.495545673000
        44    2        7.965500000000       6.438421320900       7.495545673000
        45    2       12.744800000000       3.679096320900       7.495545673000
        46    2        9.558600000000       9.197746320900       7.495545673000
        47    2        6.372400000000       3.679096320900      10.483954327000
        48    2        9.558600000000       9.197746320900      10.483954327000
        49    1       12.744800000000       0.000000000000       8.989750000000
        50    1       15.931000000000       5.518650000000       8.989750000000
        51    1       14.337900000000       2.759325000000       8.989750000000
        52    1       17.524100000000       8.277975000000       8.989750000000
        53    2       14.337900000000       0.919771320900      10.483954327000
        54    2       17.524100000000       6.438421320900      10.483954327000
        55    2       15.931000000000       3.679096320900       7.495545673000
        56    2       12.744800000000       9.197746320900       7.495545673000
        57    2       15.931000000000       3.679096320900      10.483954327000
        58    2       12.744800000000       9.197746320900      10.483954327000
        59    2       17.524100000000       0.919771320900      10.483954327000
        60    2       14.337900000000       6.438421320900      10.483954327000
        61    2       14.337900000000       0.919771320900       7.495545673000
        62    2       17.524100000000       6.438421320900       7.495545673000
        63    1       15.931000000000       0.000000000000       8.989750000000
        64    1       19.117200000000       5.518650000000       8.989750000000
        65    1       17.524100000000       2.759325000000       8.989750000000
        66    1       14.337900000000       8.277975000000       8.989750000000
        67    2       17.524100000000       0.919771320900       7.495545673000
        68    2       14.337900000000       6.438421320900       7.495545673000
        69    2       19.117200000000       3.679096320900       7.495545673000
        70    2       15.931000000000       9.197746320900       7.495545673000
        71    2       12.744800000000       3.679096320900      10.483954327000
        72    2       15.931000000000       9.197746320900      10.483954327000
        73    1       19.117200000000       0.000000000000       8.989750000000
        74    1       22.303400000000       5.518650000000       8.989750000000
        75    1       20.710300000000       2.759325000000       8.989750000000
        76    1       23.896500000000       8.277975000000       8.989750000000
        77    2       20.710300000000       0.919771320900      10.483954327000
        78    2       23.896500000000       6.438421320900      10.483954327000
        79    2       22.303400000000       3.679096320900       7.495545673000
        80    2       19.117200000000       9.197746320900       7.495545673000
        81    2       22.303400000000       3.679096320900      10.483954327000
        82    2       19.117200000000       9.197746320900      10.483954327000
        83    2       23.896500000000       0.919771320900      10.483954327000
        84    2       20.710300000000       6.438421320900      10.483954327000
        85    2       20.710300000000       0.919771320900       7.495545673000
        86    2       23.896500000000       6.438421320900       7.495545673000
        87    1       22.303400000000       0.000000000000       8.989750000000
        88    1       25.489600000000       5.518650000000       8.989750000000
        89    1       23.896500000000       2.759325000000       8.989750000000
        90    1       20.710300000000       8.277975000000       8.989750000000
        91    2       23.896500000000       0.919771320900       7.495545673000
        92    2       20.710300000000       6.438421320900       7.495545673000
        93    2       25.489600000000       3.679096320900       7.495545673000
        94    2       22.303400000000       9.197746320900       7.495545673000
        95    2       19.117200000000       3.679096320900      10.483954327000
        96    2       22.303400000000       9.197746320900      10.483954327000
        97    1       25.489600000000       0.000000000000       8.989750000000
        98    1       28.675800000000       5.518650000000       8.989750000000
        99    1       27.082700000000       2.759325000000       8.989750000000
       100    1       30.268900000000       8.277975000000       8.989750000000
       101    2       27.082700000000       0.919771320900      10.483954327000
       102    2       30.268900000000       6.438421320900      10.483954327000
       103    2       28.675800000000       3.679096320900       7.495545673000
       104    2       25.489600000000       9.197746320900       7.495545673000
       105    2       28.675800000000       3.679096320900      10.483954327000
       106    2       25.489600000000       9.197746320900      10.483954327000
       107    2       30.268900000000       0.919771320900      10.483954327000
       108    2       27.082700000000       6.438421320900      10.483954327000
       109    2       27.082700000000       0.919771320900       7.495545673000
       110    2       30.268900000000       6.438421320900       7.495545673000
       111    1       28.675800000000       0.000000000000       8.989750000000
       112    1       31.862000000000       5.518650000000       8.989750000000
       113    1       30.268900000000       2.759325000000       8.989750000000
       114    1       27.082700000000       8.277975000000       8.989750000000
       115    2       30.268900000000       0.919771320900       7.495545673000
       116    2       27.082700000000       6.438421320900       7.495545673000
       117    2       31.862000000000       3.679096320900       7.495545673000
       118    2       28.675800000000       9.197746320900       7.495545673000
       119    2       25.489600000000       3.679096320900      10.483954327000
       120    2       28.675800000000       9.197746320900      10.483954327000
       121    1       31.862000000000       0.000000000000       8.989750000000
       122    1       35.048200000000       5.518650000000       8.989750000000
       123    1       33.455100000000       2.759325000000       8.989750000000
       124    1       36.641300000000       8.277975000000       8.989750000000
       125    2       33.455100000000       0.919771320900      10.483954327000
       126    2       36.641300000000       6.438421320900      10.483954327000
       127    2       35.048200000000       3.679096320900       7.495545673000
       128    2       31.862000000000       9.197746320900       7.495545673000
       129    2       35.048200000000       3.679096320900      10.483954327000
       130    2       31.862000000000       9.197746320900      10.483954327000
       131    2       36.641300000000       0.919771320900      10.483954327000
       132    2       33.455100000000       6.438421320900      10.483954327000
       133    2       33.455100000000       0.919771320900       7.495545673000
       134    2       36.641300000000       6.438421320900       7.495545673000
       135    1       35.048200000000       0.000000000000       8.989750000000
       136    1       38.234400000000       5.518650000000       8.989750000000
       137    1       36.641300000000       2.759325000000       8.989750000000
       138    1       33.455100000000       8.277975000000       8.989750000000
       139    2       36.641300000000       0.919771320900       7.495545673000
       140    2       33.455100000000       6.438421320900       7.495545673000
       141    2       38.234400000000       3.679096320900       7.495545673000
       142    2       35.048200000000       9.197746320900       7.495545673000
       143    2       31.862000000000       3.679096320900      10.483954327000
       144    2       35.048200000000       9.197746320900      10.483954327000
       145    1       38.234400000000       0.000000000000       8.989750000000
       146    1       41.420600000000       5.518650000000       8.989750000000
       147    1       39.827500000000       2.759325000000       8.989750000000
       148    1       43.013700000000       8.277975000000       8.989750000000
       149    2       39.827500000000       0.919771320900      10.483954327000
       150    2       43.013700000000       6.438421320900      10.483954327000
       151    2       41.420600000000       3.679096320900       7.495545673000
       152    2       38.234400000000       9.197746320900       7.495545673000
       153    2       41.420600000000       3.679096320900      10.483954327000
       154    2       38.234400000000       9.197746320900      10.483954327000
       155    2       43.013700000000       0.919771320900      10.483954327000
       156    2       39.827500000000       6.438421320900      10.483954327000
       157    2       39.827500000000       0.919771320900       7.495545673000
       158    2       43.013700000000       6.438421320900       7.495545673000
       159    1       41.420600000000       0.000000000000       8.989750000000
       160    1       44.606800000000       5.518650000000       8.989750000000
       161    1       43.013700000000       2.759325000000       8.989750000000
       162    1       39.827500000000       8.277975000000       8.989750000000
       163    2       43.013700000000       0.919771320900       7.495545673000
       164    2       39.827500000000       6.438421320900       7.495545673000
       165    2       44.606800000000       3.679096320900       7.495545673000
       166    2       41.420600000000       9.197746320900       7.495545673000
       167    2       38.234400000000       3.679096320900      10.483954327000
       168    2       41.420600000000       9.197746320900      10.483954327000
       169    1       44.606800000000       0.000000000000       8.989750000000
       170    1       47.793000000000       5.518650000000       8.989750000000
       171    1       46.199900000000       2.759325000000       8.989750000000
       172    1       49.386100000000       8.277975000000       8.989750000000
       173    2       46.199900000000       0.919771320900      10.483954327000
       174    2       49.386100000000       6.438421320900      10.483954327000
       175    2       47.793000000000       3.679096320900       7.495545673000
       176    2       44.606800000000       9.197746320900       7.495545673000
       177    2       47.793000000000       3.679096320900      10.483954327000
       178    2       44.606800000000       9.197746320900      10.483954327000
       179    2       49.386100000000       0.919771320900      10.483954327000
       180    2       46.199900000000       6.438421320900      10.483954327000
       181    2       46.199900000000       0.919771320900       7.495545673000
       182    2       49.386100000000       6.438421320900       7.495545673000
       183    1       47.793000000000       0.000000000000       8.989750000000
       184    1       50.979200000000       5.518650000000       8.989750000000
       185    1       49.386100000000       2.759325000000       8.989750000000
       186    1       46.199900000000       8.277975000000       8.989750000000
       187    2       49.386100000000       0.919771320900       7.495545673000
       188    2       46.199900000000       6.438421320900       7.495545673000
       189    2       50.979200000000       3.679096320900       7.495545673000
       190    2       47.793000000000       9.197746320900       7.495545673000
       191    2       44.606800000000       3.679096320900      10.483954327000
       192    2       47.793000000000       9.197746320900      10.483954327000
       193    1       50.979200000000       0.000000000000       8.989750000000
       194    1       54.165400000000       5.518650000000       8.989750000000
       195    1       52.572300000000       2.759325000000       8.989750000000
       196    1       55.758500000000       8.277975000000       8.989750000000
       197    2       52.572300000000       0.919771320900      10.483954327000
       198    2       55.758500000000       6.438421320900      10.483954327000
       199    2       54.165400000000       3.679096320900       7.495545673000
       200    2       50.979200000000       9.197746320900       7.495545673000
       201    2       54.165400000000       3.679096320900      10.483954327000
       202    2       50.979200000000       9.197746320900      10.483954327000
       203    2       55.758500000000       0.919771320900      10.483954327000
       204    2       52.572300000000       6.438421320900      10.483954327000
       205    2       52.572300000000       0.919771320900       7.495545673000
       206    2       55.758500000000       6.438421320900       7.495545673000
       207    1       54.165400000000       0.000000000000       8.989750000000
       208    1       57.351600000000       5.518650000000       8.989750000000
       209    1       55.758500000000       2.759325000000       8.989750000000
       210    1       52.572300000000       8.277975000000       8.989750000000
       211    2       55.758500000000       0.919771320900       7.495545673000
       212    2       52.572300000000       6.438421320900       7.495545673000
       213    2       57.351600000000       3.679096320900       7.495545673000
       214    2       54.165400000000       9.197746320900       7.495545673000
       215    2       50.979200000000       3.679096320900      10.483954327000
       216    2       54.165400000000       9.197746320900      10.483954327000
       217    1       57.351600000000       0.000000000000       8.989750000000
       218    1       60.537800000000       5.518650000000       8.989750000000
       219    1       58.944700000000       2.759325000000       8.989750000000
       220    1       62.130900000000       8.277975000000       8.989750000000
       221    2       58.944700000000       0.919771320900      10.483954327000
       222    2       62.130900000000       6.438421320900      10.483954327000
       223    2       60.537800000000       3.679096320900       7.495545673000
       224    2       57.351600000000       9.197746320900       7.495545673000
       225    2       60.537800000000       3.679096320900      10.483954327000
       226    2       57.351600000000       9.197746320900      10.483954327000
       227    2       62.130900000000       0.919771320900      10.483954327000
       228    2       58.944700000000       6.438421320900      10.483954327000
       229    2       58.944700000000       0.919771320900       7.495545673000
       230    2       62.130900000000       6.438421320900       7.495545673000
       231    1       60.537800000000       0.000000000000       8.989750000000
       232    1       63.724000000000       5.518650000000       8.989750000000
       233    1       62.130900000000       2.759325000000       8.989750000000
       234    1       58.944700000000       8.277975000000       8.989750000000
       235    2       62.130900000000       0.919771320900       7.495545673000
       236    2       58.944700000000       6.438421320900       7.495545673000
       237    2       63.724000000000       3.679096320900       7.495545673000
       238    2       60.537800000000       9.197746320900       7.495545673000
       239    2       57.351600000000       3.679096320900      10.483954327000
       240    2       60.537800000000       9.197746320900      10.483954327000
       241    1       63.724000000000       0.000000000000       8.989750000000
       242    1       66.910200000000       5.518650000000       8.989750000000
       243    1       65.317100000000       2.759325000000       8.989750000000
       244    1       68.503300000000       8.277975000000       8.989750000000
       245    2       65.317100000000       0.919771320900      10.483954327000
       246    2       68.503300000000       6.438421320900      10.483954327000
       247    2       66.910200000000       3.679096320900       7.495545673000
       248    2       63.724000000000       9.197746320900       7.495545673000
       249    2       66.910200000000       3.679096320900      10.483954327000
       250    2       63.724000000000       9.197746320900      10.483954327000
       251    2       68.503300000000       0.919771320900      10.483954327000
       252    2       65.317100000000       6.438421320900      10.483954327000
       253    2       65.317100000000       0.919771320900       7.495545673000
       254    2       68.503300000000       6.438421320900       7.495545673000
       255    1       66.910200000000       0.000000000000       8.989750000000
       256    1       70.096400000000       5.518650000000       8.989750000000
       257    1       68.503300000000       2.759325000000       8.989750000000
       258    1       65.317100000000       8.277975000000       8.989750000000
       259    2       68.503300000000       0.919771320900       7.495545673000
       260    2       65.317100000000       6.438421320900       7.495545673000
       261    2       70.096400000000       3.679096320900       7.495545673000
       262    2       66.910200000000       9.197746320900       7.495545673000
       263    2       63.724000000000       3.679096320900      10.483954327000
       264    2       66.910200000000       9.197746320900      10.483954327000
       265    1       70.096400000000       0.000000000000       8.989750000000
       266    1       73.282600000000       5.518650000000       8.989750000000
       267    1       71.689500000000       2.759325000000       8.989750000000
       268    1       74.875700000000       8.277975000000       8.989750000000
       269    2       71.689500000000       0.919771320900      10.483954327000
       270    2       74.875700000000       6.438421320900      10.483954327000
       271    2       73.282600000000       3.679096320900       7.495545673000
       272    2       70.096400000000       9.197746320900       7.495545673000
       273    2       73.282600000000       3.679096320900      10.483954327000
       274    2       70.096400000000       9.197746320900      10.483954327000
       275    2       74.875700000000       0.919771320900      10.483954327000
       276    2       71.689500000000       6.438421320900      10.483954327000
       277    2       71.689500000000       0.919771320900       7.495545673000
       278    2       74.875700000000       6.438421320900       7.495545673000
       279    1       73.282600000000       0.000000000000       8.989750000000
       280    1       76.468800000000       5.518650000000       8.989750000000
       281    1       74.875700000000       2.759325000000       8.989750000000
       282    1       71.689500000000       8.277975000000       8.989750000000
       283    2       74.875700000000       0.919771320900       7.495545673000
       284    2       71.689500000000       6.438421320900       7.495545673000
       285    2       76.468800000000       3.679096320900       7.495545673000
       286    2       73.282600000000       9.197746320900       7.495545673000
       287    2       70.096400000000       3.679096320900      10.483954327000
       288    2       73.282600000000       9.197746320900      10.483954327000
       289    1       76.468800000000       0.000000000000       8.989750000000
       290    1       79.655000000000       5.518650000000       8.989750000000
       291    1       78.061900000000       2.759325000000       8.989750000000
       292    1       81.248100000000       8.277975000000       8.989750000000
       293    2       78.061900000000       0.919771320900      10.483954327000
       294    2       81.248100000000       6.438421320900      10.483954327000
       295    2       79.655000000000       3.679096320900       7.495545673000
       296    2       76.468800000000       9.197746320900       7.495545673000
       297    2       79.655000000000       3.679096320900      10.483954327000
       298    2       76.468800000000       9.197746320900      10.483954327000
       299    2       81.248100000000       0.919771320900      10.483954327000
       300    2       78.061900000000       6.438421320900      10.483954327000
       301    2       78.061900000000       0.919771320900       7.495545673000
       302    2       81.248100000000       6.438421320900       7.495545673000
       303    1       79.655000000000       0.000000000000       8.989750000000
       304    1       82.841200000000       5.518650000000       8.989750000000
       305    1       81.248100000000       2.759325000000       8.989750000000
       306    1       78.061900000000       8.277975000000       8.989750000000
       307    2       81.248100000000       0.919771320900       7.495545673000
       308    2       78.061900000000       6.438421320900       7.495545673000
       309    2       82.841200000000       3.679096320900       7.495545673000
       310    2       79.655000000000       9.197746320900       7.495545673000
       311    2       76.468800000000       3.679096320900      10.483954327000
       312    2       79.655000000000       9.197746320900      10.483954327000
       313    1       82.841200000000       0.000000000000       8.989750000000
       314    1       86.027400000000       5.518650000000       8.989750000000
       315    1       84.434300000000       2.759325000000       8.989750000000
       316    1       87.620500000000       8.277975000000       8.989750000000
       317    2       84.434300000000       0.919771320900      10.483954327000
       318    2       87.620500000000       6.438421320900      10.483954327000
       319    2       86.027400000000       3.679096320900       7.495545673000
       320    2       82.841200000000       9.197746320900       7.495545673000
       321    2       86.027400000000       3.679096320900      10.483954327000
       322    2       82.841200000000       9.197746320900      10.483954327000
       323    2       87.620500000000       0.919771320900      10.483954327000
       324    2       84.434300000000       6.438421320900      10.483954327000
       325    2       84.434300000000       0.919771320900       7.495545673000
       326    2       87.620500000000       6.438421320900       7.495545673000
       327    1       86.027400000000       0.000000000000       8.989750000000
       328    1       89.213600000000       5.518650000000       8.989750000000
       329    1       87.620500000000       2.759325000000       8.989750000000
       330    1       84.434300000000       8.277975000000       8.989750000000
       331    2       87.620500000000       0.919771320900       7.495545673000
       332    2       84.434300000000       6.438421320900       7.495545673000
       333    2       89.213600000000       3.679096320900       7.495545673000
       334    2       86.027400000000       9.197746320900       7.495545673000
       335    2       82.841200000000       3.679096320900      10.483954327000
       336    2       86.027400000000       9.197746320900      10.483954327000
       337    1       89.213600000000       0.000000000000       8.989750000000
       338    1       92.399800000000       5.518650000000       8.989750000000
       339    1       90.806700000000       2.759325000000       8.989750000000
       340    1       93.992900000000       8.277975000000       8.989750000000
       341    2       90.806700000000       0.919771320900      10.483954327000
       342    2       93.992900000000       6.438421320900      10.483954327000
       343    2       92.399800000000       3.679096320900       7.495545673000
       344    2       89.213600000000       9.197746320900       7.495545673000
       345    2       92.399800000000       3.679096320900      10.483954327000
       346    2       89.213600000000       9.197746320900      10.483954327000
       347    2       93.992900000000       0.919771320900      10.483954327000
       348    2       90.806700000000       6.438421320900      10.483954327000
       349    2       90.806700000000       0.919771320900       7.495545673000
       350    2       93.992900000000       6.438421320900       7.495545673000
       351    1       92.399800000000       0.000000000000       8.989750000000
       352    1       95.586000000000       5.518650000000       8.989750000000
       353    1       93.992900000000       2.759325000000       8.989750000000
       354    1       90.806700000000       8.277975000000       8.989750000000
       355    2       93.992900000000       0.919771320900       7.495545673000
       356    2       90.806700000000       6.438421320900       7.495545673000
       357    2       95.586000000000       3.679096320900       7.495545673000
       358    2       92.399800000000       9.197746320900       7.495545673000
       359    2       89.213600000000       3.679096320900      10.483954327000
       360    2       92.399800000000       9.197746320900      10.483954327000
       361    1       95.586000000000       0.000000000000       8.989750000000
       362    1       98.772200000000       5.518650000000       8.989750000000
       363    1       97.179100000000       2.759325000000       8.989750000000
       364    1      100.365300000000       8.277975000000       8.989750000000
       365    2       97.179100000000       0.919771320900      10.483954327000
       366    2      100.365300000000       6.438421320900      10.483954327000
       367    2       98.772200000000       3.679096320900       7.495545673000
       368    2       95.586000000000       9.197746320900       7.495545673000
       369    2       98.772200000000       3.679096320900      10.483954327000
       370    2       95.586000000000       9.197746320900      10.483954327000