 # V8 Te16
  
        2688  atoms
           2  atom types
 
      0.000000000000     100.753800000000  xlo xhi
      0.000000000000      99.720800000000  ylo yhi
      0.000000000000      18.502500000000  zlo zhi
 
Masses
 
            1   50.94150000             # V
            2   127.60000000            # Te
 
Atoms # atomic
 
         1    1        1.799175000000       3.116275000000       9.251250000000
         2    1        3.598350000000       0.000000000000       9.251250000000
         3    1        5.397525000000       9.348825000000       9.251250000000
         4    1        7.196700000000       6.232550000000       9.251250000000
         5    1        5.397525000000       3.116275000000       9.251250000000
         6    1        1.799175000000       9.348825000000       9.251250000000
         7    2        3.598350000000       4.155029178300      11.003843805000
         8    2        7.196700000000      10.387579178300      11.003843805000
         9    2        3.598350000000       4.155029178300       7.498656195000
        10    2        0.000000000000      10.387579178300       7.498656195000
        11    1        0.000000000000       0.000000000000       9.251250000000
        12    1        3.598350000000       6.232550000000       9.251250000000
        13    2        0.000000000000       4.155029178300       7.498656195000
        14    2        3.598350000000      10.387579178300       7.498656195000
        15    2        5.397525000000       1.038754178300       7.498656195000
        16    2        1.799175000000       7.271304178300       7.498656195000
        17    2        0.000000000000       4.155029178300      11.003843805000
        18    2        3.598350000000      10.387579178300      11.003843805000
        19    2        1.799175000000       1.038754178300      11.003843805000
        20    2        5.397525000000       7.271304178300      11.003843805000
        21    2        5.397525000000       1.038754178300      11.003843805000
        22    2        1.799175000000       7.271304178300      11.003843805000
        23    2        1.799175000000       1.038754178300       7.498656195000
        24    2        5.397525000000       7.271304178300       7.498656195000
        25    1        8.995875000000       3.116275000000       9.251250000000
        26    1       10.795050000000       0.000000000000       9.251250000000
        27    1       12.594225000000       9.348825000000       9.251250000000
        28    1       14.393400000000       6.232550000000       9.251250000000
        29    1       12.594225000000       3.116275000000       9.251250000000
        30    1        8.995875000000       9.348825000000       9.251250000000
        31    2       10.795050000000       4.155029178300      11.003843805000
        32    2       14.393400000000      10.387579178300      11.003843805000
        33    2       10.795050000000       4.155029178300       7.498656195000
        34    2        7.196700000000      10.387579178300       7.498656195000
        35    1        7.196700000000       0.000000000000       9.251250000000
        36    1       10.795050000000       6.232550000000       9.251250000000
        37    2        7.196700000000       4.155029178300       7.498656195000
        38    2       10.795050000000      10.387579178300       7.498656195000
        39    2       12.594225000000       1.038754178300       7.498656195000
        40    2        8.995875000000       7.271304178300       7.498656195000
        41    2        7.196700000000       4.155029178300      11.003843805000
        42    2       10.795050000000      10.387579178300      11.003843805000
        43    2        8.995875000000       1.038754178300      11.003843805000
        44    2       12.594225000000       7.271304178300      11.003843805000
        45    2       12.594225000000       1.038754178300      11.003843805000
        46    2        8.995875000000       7.271304178300      11.003843805000
        47    2        8.995875000000       1.038754178300       7.498656195000
        48    2       12.594225000000       7.271304178300       7.498656195000
        49    1       16.192575000000       3.116275000000       9.251250000000
        50    1       17.991750000000       0.000000000000       9.251250000000
        51    1       19.790925000000       9.348825000000       9.251250000000
        52    1       21.590100000000       6.232550000000       9.251250000000
        53    1       19.790925000000       3.116275000000       9.251250000000
        54    1       16.192575000000       9.348825000000       9.251250000000
        55    2       17.991750000000       4.155029178300      11.003843805000
        56    2       21.590100000000      10.387579178300      11.003843805000
        57    2       17.991750000000       4.155029178300       7.498656195000
        58    2       14.393400000000      10.387579178300       7.498656195000
        59    1       14.393400000000       0.000000000000       9.251250000000
        60    1       17.991750000000       6.232550000000       9.251250000000
        61    2       14.393400000000       4.155029178300       7.498656195000
        62    2       17.991750000000      10.387579178300       7.498656195000
        63    2       19.790925000000       1.038754178300       7.498656195000
        64    2       16.192575000000       7.271304178300       7.498656195000
        65    2       14.393400000000       4.155029178300      11.003843805000
        66    2       17.991750000000      10.387579178300      11.003843805000
        67    2       16.192575000000       1.038754178300      11.003843805000
        68    2       19.790925000000       7.271304178300      11.003843805000
        69    2       19.790925000000       1.038754178300      11.003843805000
        70    2       16.192575000000       7.271304178300      11.003843805000
        71    2       16.192575000000       1.038754178300       7.498656195000
        72    2       19.790925000000       7.271304178300       7.498656195000
        73    1       23.389275000000       3.116275000000       9.251250000000
        74    1       25.188450000000       0.000000000000       9.251250000000
        75    1       26.987625000000       9.348825000000       9.251250000000
        76    1       28.786800000000       6.232550000000       9.251250000000
        77    1       26.987625000000       3.116275000000       9.251250000000
        78    1       23.389275000000       9.348825000000       9.251250000000
        79    2       25.188450000000       4.155029178300      11.003843805000
        80    2       28.786800000000      10.387579178300      11.003843805000
        81    2       25.188450000000       4.155029178300       7.498656195000
        82    2       21.590100000000      10.387579178300       7.498656195000
        83    1       21.590100000000       0.000000000000       9.251250000000
        84    1       25.188450000000       6.232550000000       9.251250000000
        85    2       21.590100000000       4.155029178300       7.498656195000
        86    2       25.188450000000      10.387579178300       7.498656195000
        87    2       26.987625000000       1.038754178300       7.498656195000
        88    2       23.389275000000       7.271304178300       7.498656195000
        89    2       21.590100000000       4.155029178300      11.003843805000
        90    2       25.188450000000      10.387579178300      11.003843805000
        91    2       23.389275000000       1.038754178300      11.003843805000
        92    2       26.987625000000       7.271304178300      11.003843805000
        93    2       26.987625000000       1.038754178300      11.003843805000
        94    2       23.389275000000       7.271304178300      11.003843805000
        95    2       23.389275000000       1.038754178300       7.498656195000
        96    2       26.987625000000       7.271304178300       7.498656195000
        97    1       30.585975000000       3.116275000000       9.251250000000
        98    1       32.385150000000       0.000000000000       9.251250000000
        99    1       34.184325000000       9.348825000000       9.251250000000
       100    1       35.983500000000       6.232550000000       9.251250000000
       101    1       34.184325000000       3.116275000000       9.251250000000
       102    1       30.585975000000       9.348825000000       9.251250000000
       103    2       32.385150000000       4.155029178300      11.003843805000
       104    2       35.983500000000      10.387579178300      11.003843805000
       105    2       32.385150000000       4.155029178300       7.498656195000
       106    2       28.786800000000      10.387579178300       7.498656195000
       107    1       28.786800000000       0.000000000000       9.251250000000
       108    1       32.385150000000       6.232550000000       9.251250000000
       109    2       28.786800000000       4.155029178300       7.498656195000
       110    2       32.385150000000      10.387579178300       7.498656195000
       111    2       34.184325000000       1.038754178300       7.498656195000
       112    2       30.585975000000       7.271304178300       7.498656195000
       113    2       28.786800000000       4.155029178300      11.003843805000
       114    2       32.385150000000      10.387579178300      11.003843805000
       115    2       30.585975000000       1.038754178300      11.003843805000
       116    2       34.184325000000       7.271304178300      11.003843805000
       117    2       34.184325000000       1.038754178300      11.003843805000
       118    2       30.585975000000       7.271304178300      11.003843805000
       119    2       30.585975000000       1.038754178300       7.498656195000
       120    2       34.184325000000       7.271304178300       7.498656195000
       121    1       37.782675000000       3.116275000000       9.251250000000
       122    1       39.581850000000       0.000000000000       9.251250000000
       123    1       41.381025000000       9.348825000000       9.251250000000
       124    1       43.180200000000       6.232550000000       9.251250000000
       125    1       41.381025000000       3.116275000000       9.251250000000
       126    1       37.782675000000       9.348825000000       9.251250000000
       127    2       39.581850000000       4.155029178300      11.003843805000
       128    2       43.180200000000      10.387579178300      11.003843805000
       129    2       39.581850000000       4.155029178300       7.498656195000
       130    2       35.983500000000      10.387579178300       7.498656195000
       131    1       35.983500000000       0.000000000000       9.251250000000
       132    1       39.581850000000       6.232550000000       9.251250000000
       133    2       35.983500000000       4.155029178300       7.498656195000
       134    2       39.581850000000      10.387579178300       7.498656195000
       135    2       41.381025000000       1.038754178300       7.498656195000
       136    2       37.782675000000       7.271304178300       7.498656195000
       137    2       35.983500000000       4.155029178300      11.003843805000
       138    2       39.581850000000      10.387579178300      11.003843805000
       139    2       37.782675000000       1.038754178300      11.003843805000
       140    2       41.381025000000       7.271304178300      11.003843805000
       141    2       41.381025000000       1.038754178300      11.003843805000
       142    2       37.782675000000       7.271304178300      11.003843805000
       143    2       37.782675000000       1.038754178300       7.498656195000
       144    2       41.381025000000       7.271304178300       7.498656195000
       145    1       44.979375000000       3.116275000000       9.251250000000
       146    1       46.778550000000       0.000000000000       9.251250000000
       147    1       48.577725000000       9.348825000000       9.251250000000
       148    1       50.376900000000       6.232550000000       9.251250000000
       149    1       48.577725000000       3.116275000000       9.251250000000
       150    1       44.979375000000       9.348825000000       9.251250000000
       151    2       46.778550000000       4.155029178300      11.003843805000
       152    2       50.376900000000      10.387579178300      11.003843805000
       153    2       46.778550000000       4.155029178300       7.498656195000
       154    2       43.180200000000      10.387579178300       7.498656195000
       155    1       43.180200000000       0.000000000000       9.251250000000
       156    1       46.778550000000       6.232550000000       9.251250000000
       157    2       43.180200000000       4.155029178300       7.498656195000
       158    2       46.778550000000      10.387579178300       7.498656195000
       159    2       48.577725000000       1.038754178300       7.498656195000
       160    2       44.979375000000       7.271304178300       7.498656195000
       161    2       43.180200000000       4.155029178300      11.003843805000
       162    2       46.778550000000      10.387579178300      11.003843805000
       163    2       44.979375000000       1.038754178300      11.003843805000
       164    2       48.577725000000       7.271304178300      11.003843805000
       165    2       48.577725000000       1.038754178300      11.003843805000
       166    2       44.979375000000       7.271304178300      11.003843805000
       167    2       44.979375000000       1.038754178300       7.498656195000
       168    2       48.577725000000       7.271304178300       7.498656195000
       169    1       52.176075000000       3.116275000000       9.251250000000
       170    1       53.975250000000       0.000000000000       9.251250000000
       171    1       55.774425000000       9.348825000000       9.251250000000
       172    1       57.573600000000       6.232550000000       9.251250000000
       173    1       55.774425000000       3.116275000000       9.251250000000
       174    1       52.176075000000       9.348825000000       9.251250000000
       175    2       53.975250000000       4.155029178300      11.003843805000
       176    2       57.573600000000      10.387579178300      11.003843805000
       177    2       53.975250000000       4.155029178300       7.498656195000
       178    2       50.376900000000      10.387579178300       7.498656195000
       179    1       50.376900000000       0.000000000000       9.251250000000
       180    1       53.975250000000       6.232550000000       9.251250000000
       181    2       50.376900000000       4.155029178300       7.498656195000
       182    2       53.975250000000      10.387579178300       7.498656195000
       183    2       55.774425000000       1.038754178300       7.498656195000
       184    2       52.176075000000       7.271304178300       7.498656195000
       185    2       50.376900000000       4.155029178300      11.003843805000
       186    2       53.975250000000      10.387579178300      11.003843805000
       187    2       52.176075000000       1.038754178300      11.003843805000
       188    2       55.774425000000       7.271304178300      11.003843805000
       189    2       55.774425000000       1.038754178300      11.003843805000
       190    2       52.176075000000       7.271304178300      11.003843805000
       191    2       52.176075000000       1.038754178300       7.498656195000
       192    2       55.774425000000       7.271304178300       7.498656195000
       193    1       59.372775000000       3.116275000000       9.251250000000
       194    1       61.171950000000       0.000000000000       9.251250000000
       195    1       62.971125000000       9.348825000000       9.251250000000
       196    1       64.770300000000       6.232550000000       9.251250000000
       197    1       62.971125000000       3.116275000000       9.251250000000
       198    1       59.372775000000       9.348825000000       9.251250000000
       199    2       61.171950000000       4.155029178300      11.003843805000
       200    2       64.770300000000      10.387579178300      11.003843805000
       201    2       61.171950000000       4.155029178300       7.498656195000
       202    2       57.573600000000      10.387579178300       7.498656195000
       203    1       57.573600000000       0.000000000000       9.251250000000
       204    1       61.171950000000       6.232550000000       9.251250000000
       205    2       57.573600000000       4.155029178300       7.498656195000
       206    2       61.171950000000      10.387579178300       7.498656195000
       207    2       62.971125000000       1.038754178300       7.498656195000
       208    2       59.372775000000       7.271304178300       7.498656195000
       209    2       57.573600000000       4.155029178300      11.003843805000
       210    2       61.171950000000      10.387579178300      11.003843805000
       211    2       59.372775000000       1.038754178300      11.003843805000
       212    2       62.971125000000       7.271304178300      11.003843805000
       213    2       62.971125000000       1.038754178300      11.003843805000
       214    2       59.372775000000       7.271304178300      11.003843805000
       215    2       59.372775000000       1.038754178300       7.498656195000
       216    2       62.971125000000       7.271304178300       7.498656195000
       217    1       66.569475000000       3.116275000000       9.251250000000
       218    1       68.368650000000       0.000000000000       9.251250000000
       219    1       70.167825000000       9.348825000000       9.251250000000
       220    1       71.967000000000       6.232550000000       9.251250000000
       221    1       70.167825000000       3.116275000000       9.251250000000
       222    1       66.569475000000       9.348825000000       9.251250000000
       223    2       68.368650000000       4.155029178300      11.003843805000
       224    2       71.967000000000      10.387579178300      11.003843805000
       225    2       68.368650000000       4.155029178300       7.498656195000
       226    2       64.770300000000      10.387579178300       7.498656195000
       227    1       64.770300000000       0.000000000000       9.251250000000
       228    1       68.368650000000       6.232550000000       9.251250000000
       229    2       64.770300000000       4.155029178300       7.498656195000
       230    2       68.368650000000      10.387579178300       7.498656195000
       231    2       70.167825000000       1.038754178300       7.498656195000
       232    2       66.569475000000       7.271304178300       7.498656195000
       233    2       64.770300000000       4.155029178300      11.003843805000
       234    2       68.368650000000      10.387579178300      11.003843805000
       235    2       66.569475000000       1.038754178300      11.003843805000
       236    2       70.167825000000       7.271304178300      11.003843805000
       237    2       70.167825000000       1.038754178300      11.003843805000
       238    2       66.569475000000       7.271304178300      11.003843805000
       239    2       66.569475000000       1.038754178300       7.498656195000
       240    2       70.167825000000       7.271304178300       7.498656195000
       241    1       73.766175000000       3.116275000000       9.251250000000
       242    1       75.565350000000       0.000000000000       9.251250000000
       243    1       77.364525000000       9.348825000000       9.251250000000
       244    1       79.163700000000       6.232550000000       9.251250000000
       245    1       77.364525000000       3.116275000000       9.251250000000
       246    1       73.766175000000       9.348825000000       9.251250000000
       247    2       75.565350000000       4.155029178300      11.003843805000
       248    2       79.163700000000      10.387579178300      11.003843805000
       249    2       75.565350000000       4.155029178300       7.498656195000
       250    2       71.967000000000      10.387579178300       7.498656195000
       251    1       71.967000000000       0.000000000000       9.251250000000
       252    1       75.565350000000       6.232550000000       9.251250000000
       253    2       71.967000000000       4.155029178300       7.498656195000
       254    2       75.565350000000      10.387579178300       7.498656195000
       255    2       77.364525000000       1.038754178300       7.498656195000
       256    2       73.766175000000       7.271304178300       7.498656195000
       257    2       71.967000000000       4.155029178300      11.003843805000
       258    2       75.565350000000      10.387579178300      11.003843805000
       259    2       73.766175000000       1.038754178300      11.003843805000
       260    2       77.364525000000       7.271304178300      11.003843805000
       261    2       77.364525000000       1.038754178300      11.003843805000
       262    2       73.766175000000       7.271304178300      11.003843805000
       263    2       73.766175000000       1.038754178300       7.498656195000
       264    2       77.364525000000       7.271304178300       7.498656195000
       265    1       80.962875000000       3.116275000000       9.251250000000
       266    1       82.762050000000       0.000000000000       9.251250000000
       267    1       84.561225000000       9.348825000000       9.251250000000
       268    1       86.360400000000       6.232550000000       9.251250000000
       269    1       84.561225000000       3.116275000000       9.251250000000
       270    1       80.962875000000       9.348825000000       9.251250000000
       271    2       82.762050000000       4.155029178300      11.003843805000
       272    2       86.360400000000      10.387579178300      11.003843805000
       273    2       82.762050000000       4.155029178300       7.498656195000
       274    2       79.163700000000      10.387579178300       7.498656195000
       275    1       79.163700000000       0.000000000000       9.251250000000
       276    1       82.762050000000       6.232550000000       9.251250000000
       277    2       79.163700000000       4.155029178300       7.498656195000
       278    2       82.762050000000      10.387579178300       7.498656195000
       279    2       84.561225000000       1.038754178300       7.498656195000
       280    2       80.962875000000       7.271304178300       7.498656195000
       281    2       79.163700000000       4.155029178300      11.003843805000
       282    2       82.762050000000      10.387579178300      11.003843805000
       283    2       80.962875000000       1.038754178300      11.003843805000
       284    2       84.561225000000       7.271304178300      11.003843805000
       285    2       84.561225000000       1.038754178300      11.003843805000
       286    2       80.962875000000       7.271304178300      11.003843805000
       287    2       80.962875000000       1.038754178300       7.498656195000
       288    2       84.561225000000       7.271304178300       7.498656195000
       289    1       88.159575000000       3.116275000000       9.251250000000
       290    1       89.958750000000       0.000000000000       9.251250000000
       291    1       91.757925000000       9.348825000000       9.251250000000
       292    1       93.557100000000       6.232550000000       9.251250000000
       293    1       91.757925000000       3.116275000000       9.251250000000
       294    1       88.159575000000       9.348825000000       9.251250000000
       295    2       89.958750000000       4.155029178300      11.003843805000
       296    2       93.557100000000      10.387579178300      11.003843805000
       297    2       89.958750000000       4.155029178300       7.498656195000
       298    2       86.360400000000      10.387579178300       7.498656195000
       299    1       86.360400000000       0.000000000000       9.251250000000
       300    1       89.958750000000       6.232550000000       9.251250000000
       301    2       86.360400000000       4.155029178300       7.498656195000
       302    2       89.958750000000      10.387579178300       7.498656195000
       303    2       91.757925000000       1.038754178300       7.498656195000
       304    2       88.159575000000       7.271304178300       7.498656195000
       305    2       86.360400000000       4.155029178300      11.003843805000
       306    2       89.958750000000      10.387579178300      11.003843805000
       307    2       88.159575000000       1.038754178300      11.003843805000
       308    2       91.757925000000       7.271304178300      11.003843805000
       309    2       91.757925000000       1.038754178300      11.003843805000
       310    2       88.159575000000       7.271304178300      11.003843805000
       311    2       88.159575000000       1.038754178300       7.498656195000
       312    2       91.757925000000       7.271304178300       7.498656195000
       313    1       95.356275000000       3.116275000000       9.251250000000
       314    1       97.155450000000       0.000000000000       9.251250000000
       315    1       98.954625000000       9.348825000000       9.251250000000
       316    1      100.753800000000       6.232550000000       9.251250000000
       317    1       98.954625000000       3.116275000000       9.251250000000
       318    1       95.356275000000       9.348825000000       9.251250000000
       319    2       97.155450000000       4.155029178300      11.003843805000
       320    2      100.753800000000      10.387579178300      11.003843805000
       321    2       97.155450000000       4.155029178300       7.498656195000
       322    2       93.557100000000      10.387579178300       7.498656195000
       323    1       93.557100000000       0.000000000000       9.251250000000
       324    1       97.155450000000       6.232550000000       9.251250000000
       325    2       93.557100000000       4.155029178300       7.498656195000
       326    2       97.155450000000      10.387579178300       7.498656195000
       327    2       98.954625000000       1.038754178300       7.498656195000
       328    2       95.356275000000       7.271304178300       7.498656195000
       329    2       93.557100000000       4.155029178300      11.003843805000
       330    2       97.155450000000      10.387579178300      11.003843805000
       331    2       95.356275000000       1.038754178300      11.003843805000
       332    2       98.954625000000       7.271304178300      11.003843805000
       333    2       98.954625000000       1.038754178300      11.003843805000
       334    2       95.356275000000       7.271304178300      11.003843805000
       335    2       95.356275000000       1.038754178300       7.498656195000
       336    2       98.954625000000       7.271304178300       7.498656195000
       337    1        1.799175000000      15.581375000000       9.251250000000
       338    1        3.598350000000      12.465100000000       9.251250000000
       339    1        5.397525000000      21.813925000000       9.251250000000
       340    1        7.196700000000      18.697650000000       9.251250000000
       341    1        5.397525000000      15.581375000000       9.251250000000
       342    1        1.799175000000      21.813925000000       9.251250000000
       343    2        3.598350000000      16.620129178300      11.003843805000
       344    2        7.196700000000      22.852679178300      11.003843805000
       345    2        3.598350000000      16.620129178300       7.498656195000
       346    2        0.000000000000      22.852679178300       7.498656195000
       347    1        0.000000000000      12.465100000000       9.251250000000
       348    1        3.598350000000      18.697650000000       9.251250000000
       349    2        0.000000000000      16.620129178300       7.498656195000
       350    2        3.598350000000      22.852679178300       7.498656195000
       351    2        5.397525000000      13.503854178300       7.498656195000
       352    2        1.799175000000      19.736404178300       7.498656195000
       353    2        0.000000000000      16.620129178300      11.003843805000
       354    2        3.598350000000      22.852679178300      11.003843805000
       355    2        1.799175000000      13.503854178300      11.003843805000
       356    2        5.397525000000      19.736404178300      11.003843805000
       357    2        5.397525000000      13.503854178300      11.003843805000
       358    2        1.799175000000      19.736404178300      11.003843805000
       359    2        1.799175000000      13.503854178300       7.498656195000
       360    2        5.397525000000      19.736404178300       7.498656195000
       361    1        8.995875000000      15.581375000000       9.251250000000
       362    1       10.795050000000      12.465100000000       9.251250000000
       363    1       12.594225000000      21.813925000000       9.251250000000
       364    1       14.393400000000      18.697650000000       9.251250000000
       365    1       12.594225000000      15.581375000000       9.251250000000
       366    1        8.995875000000      21.813925000000       9.251250000000
       367    2       10.795050000000      16.620129178300      11.003843805000
       368    2       14.393400000000      22.852679178300      11.003843805000
       369    2       10.795050000000      16.620129178300       7.498656195000
       370    2        7.196700000000      22.852679178300       7.498656195000