 # W8 Te16
  
        2688  atoms
           2  atom types
 
      0.000000000000      99.402800000000  xlo xhi
      0.000000000000      98.382400000000  ylo yhi
      0.000000000000      18.623900000000  zlo zhi
 
Masses
 
            1   183.84000000            # W
            2   127.60000000            # Te
 
Atoms # atomic
 
         1    1        5.325150000000       3.074450000000       9.311950000000
         2    1        1.775050000000       9.223350000000       9.311950000000
         3    2        0.000000000000       4.099262567400      11.123906478800
         4    2        3.550100000000      10.248162567400      11.123906478800
         5    1        1.775050000000       3.074450000000       9.311950000000
         6    2        5.325150000000       1.024812567400      11.123906478800
         7    1        0.000000000000       0.000000000000       9.311950000000
         8    2        0.000000000000       4.099262567400       7.499993521200
         9    2        1.775050000000       7.173712567400      11.123906478800
        10    2        1.775050000000       1.024812567400      11.123906478800
        11    1        5.325150000000       9.223350000000       9.311950000000
        12    1        3.550100000000       6.148900000000       9.311950000000
        13    2        3.550100000000      10.248162567400       7.499993521200
        14    2        5.325150000000       7.173712567400      11.123906478800
        15    1        3.550100000000       0.000000000000       9.311950000000
        16    1        7.100200000000       6.148900000000       9.311950000000
        17    2        1.775050000000       1.024812567400       7.499993521200
        18    2        5.325150000000       7.173712567400       7.499993521200
        19    2        3.550100000000       4.099262567400      11.123906478800
        20    2        0.000000000000      10.248162567400      11.123906478800
        21    2        3.550100000000       4.099262567400       7.499993521200
        22    2        0.000000000000      10.248162567400       7.499993521200
        23    2        5.325150000000       1.024812567400       7.499993521200
        24    2        1.775050000000       7.173712567400       7.499993521200
        25    1       12.425350000000       3.074450000000       9.311950000000
        26    1        8.875250000000       9.223350000000       9.311950000000
        27    2        7.100200000000       4.099262567400      11.123906478800
        28    2       10.650300000000      10.248162567400      11.123906478800
        29    1        8.875250000000       3.074450000000       9.311950000000
        30    2       12.425350000000       1.024812567400      11.123906478800
        31    1        7.100200000000       0.000000000000       9.311950000000
        32    2        7.100200000000       4.099262567400       7.499993521200
        33    2        8.875250000000       7.173712567400      11.123906478800
        34    2        8.875250000000       1.024812567400      11.123906478800
        35    1       12.425350000000       9.223350000000       9.311950000000
        36    1       10.650300000000       6.148900000000       9.311950000000
        37    2       10.650300000000      10.248162567400       7.499993521200
        38    2       12.425350000000       7.173712567400      11.123906478800
        39    1       10.650300000000       0.000000000000       9.311950000000
        40    1       14.200400000000       6.148900000000       9.311950000000
        41    2        8.875250000000       1.024812567400       7.499993521200
        42    2       12.425350000000       7.173712567400       7.499993521200
        43    2       10.650300000000       4.099262567400      11.123906478800
        44    2        7.100200000000      10.248162567400      11.123906478800
        45    2       10.650300000000       4.099262567400       7.499993521200
        46    2        7.100200000000      10.248162567400       7.499993521200
        47    2       12.425350000000       1.024812567400       7.499993521200
        48    2        8.875250000000       7.173712567400       7.499993521200
        49    1       19.525550000000       3.074450000000       9.311950000000
        50    1       15.975450000000       9.223350000000       9.311950000000
        51    2       14.200400000000       4.099262567400      11.123906478800
        52    2       17.750500000000      10.248162567400      11.123906478800
        53    1       15.975450000000       3.074450000000       9.311950000000
        54    2       19.525550000000       1.024812567400      11.123906478800
        55    1       14.200400000000       0.000000000000       9.311950000000
        56    2       14.200400000000       4.099262567400       7.499993521200
        57    2       15.975450000000       7.173712567400      11.123906478800
        58    2       15.975450000000       1.024812567400      11.123906478800
        59    1       19.525550000000       9.223350000000       9.311950000000
        60    1       17.750500000000       6.148900000000       9.311950000000
        61    2       17.750500000000      10.248162567400       7.499993521200
        62    2       19.525550000000       7.173712567400      11.123906478800
        63    1       17.750500000000       0.000000000000       9.311950000000
        64    1       21.300600000000       6.148900000000       9.311950000000
        65    2       15.975450000000       1.024812567400       7.499993521200
        66    2       19.525550000000       7.173712567400       7.499993521200
        67    2       17.750500000000       4.099262567400      11.123906478800
        68    2       14.200400000000      10.248162567400      11.123906478800
        69    2       17.750500000000       4.099262567400       7.499993521200
        70    2       14.200400000000      10.248162567400       7.499993521200
        71    2       19.525550000000       1.024812567400       7.499993521200
        72    2       15.975450000000       7.173712567400       7.499993521200
        73    1       26.625750000000       3.074450000000       9.311950000000
        74    1       23.075650000000       9.223350000000       9.311950000000
        75    2       21.300600000000       4.099262567400      11.123906478800
        76    2       24.850700000000      10.248162567400      11.123906478800
        77    1       23.075650000000       3.074450000000       9.311950000000
        78    2       26.625750000000       1.024812567400      11.123906478800
        79    1       21.300600000000       0.000000000000       9.311950000000
        80    2       21.300600000000       4.099262567400       7.499993521200
        81    2       23.075650000000       7.173712567400      11.123906478800
        82    2       23.075650000000       1.024812567400      11.123906478800
        83    1       26.625750000000       9.223350000000       9.311950000000
        84    1       24.850700000000       6.148900000000       9.311950000000
        85    2       24.850700000000      10.248162567400       7.499993521200
        86    2       26.625750000000       7.173712567400      11.123906478800
        87    1       24.850700000000       0.000000000000       9.311950000000
        88    1       28.400800000000       6.148900000000       9.311950000000
        89    2       23.075650000000       1.024812567400       7.499993521200
        90    2       26.625750000000       7.173712567400       7.499993521200
        91    2       24.850700000000       4.099262567400      11.123906478800
        92    2       21.300600000000      10.248162567400      11.123906478800
        93    2       24.850700000000       4.099262567400       7.499993521200
        94    2       21.300600000000      10.248162567400       7.499993521200
        95    2       26.625750000000       1.024812567400       7.499993521200
        96    2       23.075650000000       7.173712567400       7.499993521200
        97    1       33.725950000000       3.074450000000       9.311950000000
        98    1       30.175850000000       9.223350000000       9.311950000000
        99    2       28.400800000000       4.099262567400      11.123906478800
       100    2       31.950900000000      10.248162567400      11.123906478800
       101    1       30.175850000000       3.074450000000       9.311950000000
       102    2       33.725950000000       1.024812567400      11.123906478800
       103    1       28.400800000000       0.000000000000       9.311950000000
       104    2       28.400800000000       4.099262567400       7.499993521200
       105    2       30.175850000000       7.173712567400      11.123906478800
       106    2       30.175850000000       1.024812567400      11.123906478800
       107    1       33.725950000000       9.223350000000       9.311950000000
       108    1       31.950900000000       6.148900000000       9.311950000000
       109    2       31.950900000000      10.248162567400       7.499993521200
       110    2       33.725950000000       7.173712567400      11.123906478800
       111    1       31.950900000000       0.000000000000       9.311950000000
       112    1       35.501000000000       6.148900000000       9.311950000000
       113    2       30.175850000000       1.024812567400       7.499993521200
       114    2       33.725950000000       7.173712567400       7.499993521200
       115    2       31.950900000000       4.099262567400      11.123906478800
       116    2       28.400800000000      10.248162567400      11.123906478800
       117    2       31.950900000000       4.099262567400       7.499993521200
       118    2       28.400800000000      10.248162567400       7.499993521200
       119    2       33.725950000000       1.024812567400       7.499993521200
       120    2       30.175850000000       7.173712567400       7.499993521200
       121    1       40.826150000000       3.074450000000       9.311950000000
       122    1       37.276050000000       9.223350000000       9.311950000000
       123    2       35.501000000000       4.099262567400      11.123906478800
       124    2       39.051100000000      10.248162567400      11.123906478800
       125    1       37.276050000000       3.074450000000       9.311950000000
       126    2       40.826150000000       1.024812567400      11.123906478800
       127    1       35.501000000000       0.000000000000       9.311950000000
       128    2       35.501000000000       4.099262567400       7.499993521200
       129    2       37.276050000000       7.173712567400      11.123906478800
       130    2       37.276050000000       1.024812567400      11.123906478800
       131    1       40.826150000000       9.223350000000       9.311950000000
       132    1       39.051100000000       6.148900000000       9.311950000000
       133    2       39.051100000000      10.248162567400       7.499993521200
       134    2       40.826150000000       7.173712567400      11.123906478800
       135    1       39.051100000000       0.000000000000       9.311950000000
       136    1       42.601200000000       6.148900000000       9.311950000000
       137    2       37.276050000000       1.024812567400       7.499993521200
       138    2       40.826150000000       7.173712567400       7.499993521200
       139    2       39.051100000000       4.099262567400      11.123906478800
       140    2       35.501000000000      10.248162567400      11.123906478800
       141    2       39.051100000000       4.099262567400       7.499993521200
       142    2       35.501000000000      10.248162567400       7.499993521200
       143    2       40.826150000000       1.024812567400       7.499993521200
       144    2       37.276050000000       7.173712567400       7.499993521200
       145    1       47.926350000000       3.074450000000       9.311950000000
       146    1       44.376250000000       9.223350000000       9.311950000000
       147    2       42.601200000000       4.099262567400      11.123906478800
       148    2       46.151300000000      10.248162567400      11.123906478800
       149    1       44.376250000000       3.074450000000       9.311950000000
       150    2       47.926350000000       1.024812567400      11.123906478800
       151    1       42.601200000000       0.000000000000       9.311950000000
       152    2       42.601200000000       4.099262567400       7.499993521200
       153    2       44.376250000000       7.173712567400      11.123906478800
       154    2       44.376250000000       1.024812567400      11.123906478800
       155    1       47.926350000000       9.223350000000       9.311950000000
       156    1       46.151300000000       6.148900000000       9.311950000000
       157    2       46.151300000000      10.248162567400       7.499993521200
       158    2       47.926350000000       7.173712567400      11.123906478800
       159    1       46.151300000000       0.000000000000       9.311950000000
       160    1       49.701400000000       6.148900000000       9.311950000000
       161    2       44.376250000000       1.024812567400       7.499993521200
       162    2       47.926350000000       7.173712567400       7.499993521200
       163    2       46.151300000000       4.099262567400      11.123906478800
       164    2       42.601200000000      10.248162567400      11.123906478800
       165    2       46.151300000000       4.099262567400       7.499993521200
       166    2       42.601200000000      10.248162567400       7.499993521200
       167    2       47.926350000000       1.024812567400       7.499993521200
       168    2       44.376250000000       7.173712567400       7.499993521200
       169    1       55.026550000000       3.074450000000       9.311950000000
       170    1       51.476450000000       9.223350000000       9.311950000000
       171    2       49.701400000000       4.099262567400      11.123906478800
       172    2       53.251500000000      10.248162567400      11.123906478800
       173    1       51.476450000000       3.074450000000       9.311950000000
       174    2       55.026550000000       1.024812567400      11.123906478800
       175    1       49.701400000000       0.000000000000       9.311950000000
       176    2       49.701400000000       4.099262567400       7.499993521200
       177    2       51.476450000000       7.173712567400      11.123906478800
       178    2       51.476450000000       1.024812567400      11.123906478800
       179    1       55.026550000000       9.223350000000       9.311950000000
       180    1       53.251500000000       6.148900000000       9.311950000000
       181    2       53.251500000000      10.248162567400       7.499993521200
       182    2       55.026550000000       7.173712567400      11.123906478800
       183    1       53.251500000000       0.000000000000       9.311950000000
       184    1       56.801600000000       6.148900000000       9.311950000000
       185    2       51.476450000000       1.024812567400       7.499993521200
       186    2       55.026550000000       7.173712567400       7.499993521200
       187    2       53.251500000000       4.099262567400      11.123906478800
       188    2       49.701400000000      10.248162567400      11.123906478800
       189    2       53.251500000000       4.099262567400       7.499993521200
       190    2       49.701400000000      10.248162567400       7.499993521200
       191    2       55.026550000000       1.024812567400       7.499993521200
       192    2       51.476450000000       7.173712567400       7.499993521200
       193    1       62.126750000000       3.074450000000       9.311950000000
       194    1       58.576650000000       9.223350000000       9.311950000000
       195    2       56.801600000000       4.099262567400      11.123906478800
       196    2       60.351700000000      10.248162567400      11.123906478800
       197    1       58.576650000000       3.074450000000       9.311950000000
       198    2       62.126750000000       1.024812567400      11.123906478800
       199    1       56.801600000000       0.000000000000       9.311950000000
       200    2       56.801600000000       4.099262567400       7.499993521200
       201    2       58.576650000000       7.173712567400      11.123906478800
       202    2       58.576650000000       1.024812567400      11.123906478800
       203    1       62.126750000000       9.223350000000       9.311950000000
       204    1       60.351700000000       6.148900000000       9.311950000000
       205    2       60.351700000000      10.248162567400       7.499993521200
       206    2       62.126750000000       7.173712567400      11.123906478800
       207    1       60.351700000000       0.000000000000       9.311950000000
       208    1       63.901800000000       6.148900000000       9.311950000000
       209    2       58.576650000000       1.024812567400       7.499993521200
       210    2       62.126750000000       7.173712567400       7.499993521200
       211    2       60.351700000000       4.099262567400      11.123906478800
       212    2       56.801600000000      10.248162567400      11.123906478800
       213    2       60.351700000000       4.099262567400       7.499993521200
       214    2       56.801600000000      10.248162567400       7.499993521200
       215    2       62.126750000000       1.024812567400       7.499993521200
       216    2       58.576650000000       7.173712567400       7.499993521200
       217    1       69.226950000000       3.074450000000       9.311950000000
       218    1       65.676850000000       9.223350000000       9.311950000000
       219    2       63.901800000000       4.099262567400      11.123906478800
       220    2       67.451900000000      10.248162567400      11.123906478800
       221    1       65.676850000000       3.074450000000       9.311950000000
       222    2       69.226950000000       1.024812567400      11.123906478800
       223    1       63.901800000000       0.000000000000       9.311950000000
       224    2       63.901800000000       4.099262567400       7.499993521200
       225    2       65.676850000000       7.173712567400      11.123906478800
       226    2       65.676850000000       1.024812567400      11.123906478800
       227    1       69.226950000000       9.223350000000       9.311950000000
       228    1       67.451900000000       6.148900000000       9.311950000000
       229    2       67.451900000000      10.248162567400       7.499993521200
       230    2       69.226950000000       7.173712567400      11.123906478800
       231    1       67.451900000000       0.000000000000       9.311950000000
       232    1       71.002000000000       6.148900000000       9.311950000000
       233    2       65.676850000000       1.024812567400       7.499993521200
       234    2       69.226950000000       7.173712567400       7.499993521200
       235    2       67.451900000000       4.099262567400      11.123906478800
       236    2       63.901800000000      10.248162567400      11.123906478800
       237    2       67.451900000000       4.099262567400       7.499993521200
       238    2       63.901800000000      10.248162567400       7.499993521200
       239    2       69.226950000000       1.024812567400       7.499993521200
       240    2       65.676850000000       7.173712567400       7.499993521200
       241    1       76.327150000000       3.074450000000       9.311950000000
       242    1       72.777050000000       9.223350000000       9.311950000000
       243    2       71.002000000000       4.099262567400      11.123906478800
       244    2       74.552100000000      10.248162567400      11.123906478800
       245    1       72.777050000000       3.074450000000       9.311950000000
       246    2       76.327150000000       1.024812567400      11.123906478800
       247    1       71.002000000000       0.000000000000       9.311950000000
       248    2       71.002000000000       4.099262567400       7.499993521200
       249    2       72.777050000000       7.173712567400      11.123906478800
       250    2       72.777050000000       1.024812567400      11.123906478800
       251    1       76.327150000000       9.223350000000       9.311950000000
       252    1       74.552100000000       6.148900000000       9.311950000000
       253    2       74.552100000000      10.248162567400       7.499993521200
       254    2       76.327150000000       7.173712567400      11.123906478800
       255    1       74.552100000000       0.000000000000       9.311950000000
       256    1       78.102200000000       6.148900000000       9.311950000000
       257    2       72.777050000000       1.024812567400       7.499993521200
       258    2       76.327150000000       7.173712567400       7.499993521200
       259    2       74.552100000000       4.099262567400      11.123906478800
       260    2       71.002000000000      10.248162567400      11.123906478800
       261    2       74.552100000000       4.099262567400       7.499993521200
       262    2       71.002000000000      10.248162567400       7.499993521200
       263    2       76.327150000000       1.024812567400       7.499993521200
       264    2       72.777050000000       7.173712567400       7.499993521200
       265    1       83.427350000000       3.074450000000       9.311950000000
       266    1       79.877250000000       9.223350000000       9.311950000000
       267    2       78.102200000000       4.099262567400      11.123906478800
       268    2       81.652300000000      10.248162567400      11.123906478800
       269    1       79.877250000000       3.074450000000       9.311950000000
       270    2       83.427350000000       1.024812567400      11.123906478800
       271    1       78.102200000000       0.000000000000       9.311950000000
       272    2       78.102200000000       4.099262567400       7.499993521200
       273    2       79.877250000000       7.173712567400      11.123906478800
       274    2       79.877250000000       1.024812567400      11.123906478800
       275    1       83.427350000000       9.223350000000       9.311950000000
       276    1       81.652300000000       6.148900000000       9.311950000000
       277    2       81.652300000000      10.248162567400       7.499993521200
       278    2       83.427350000000       7.173712567400      11.123906478800
       279    1       81.652300000000       0.000000000000       9.311950000000
       280    1       85.202400000000       6.148900000000       9.311950000000
       281    2       79.877250000000       1.024812567400       7.499993521200
       282    2       83.427350000000       7.173712567400       7.499993521200
       283    2       81.652300000000       4.099262567400      11.123906478800
       284    2       78.102200000000      10.248162567400      11.123906478800
       285    2       81.652300000000       4.099262567400       7.499993521200
       286    2       78.102200000000      10.248162567400       7.499993521200
       287    2       83.427350000000       1.024812567400       7.499993521200
       288    2       79.877250000000       7.173712567400       7.499993521200
       289    1       90.527550000000       3.074450000000       9.311950000000
       290    1       86.977450000000       9.223350000000       9.311950000000
       291    2       85.202400000000       4.099262567400      11.123906478800
       292    2       88.752500000000      10.248162567400      11.123906478800
       293    1       86.977450000000       3.074450000000       9.311950000000
       294    2       90.527550000000       1.024812567400      11.123906478800
       295    1       85.202400000000       0.000000000000       9.311950000000
       296    2       85.202400000000       4.099262567400       7.499993521200
       297    2       86.977450000000       7.173712567400      11.123906478800
       298    2       86.977450000000       1.024812567400      11.123906478800
       299    1       90.527550000000       9.223350000000       9.311950000000
       300    1       88.752500000000       6.148900000000       9.311950000000
       301    2       88.752500000000      10.248162567400       7.499993521200
       302    2       90.527550000000       7.173712567400      11.123906478800
       303    1       88.752500000000       0.000000000000       9.311950000000
       304    1       92.302600000000       6.148900000000       9.311950000000
       305    2       86.977450000000       1.024812567400       7.499993521200
       306    2       90.527550000000       7.173712567400       7.499993521200
       307    2       88.752500000000       4.099262567400      11.123906478800
       308    2       85.202400000000      10.248162567400      11.123906478800
       309    2       88.752500000000       4.099262567400       7.499993521200
       310    2       85.202400000000      10.248162567400       7.499993521200
       311    2       90.527550000000       1.024812567400       7.499993521200
       312    2       86.977450000000       7.173712567400       7.499993521200
       313    1       97.627750000000       3.074450000000       9.311950000000
       314    1       94.077650000000       9.223350000000       9.311950000000
       315    2       92.302600000000       4.099262567400      11.123906478800
       316    2       95.852700000000      10.248162567400      11.123906478800
       317    1       94.077650000000       3.074450000000       9.311950000000
       318    2       97.627750000000       1.024812567400      11.123906478800
       319    1       92.302600000000       0.000000000000       9.311950000000
       320    2       92.302600000000       4.099262567400       7.499993521200
       321    2       94.077650000000       7.173712567400      11.123906478800
       322    2       94.077650000000       1.024812567400      11.123906478800
       323    1       97.627750000000       9.223350000000       9.311950000000
       324    1       95.852700000000       6.148900000000       9.311950000000
       325    2       95.852700000000      10.248162567400       7.499993521200
       326    2       97.627750000000       7.173712567400      11.123906478800
       327    1       95.852700000000       0.000000000000       9.311950000000
       328    1       99.402800000000       6.148900000000       9.311950000000
       329    2       94.077650000000       1.024812567400       7.499993521200
       330    2       97.627750000000       7.173712567400       7.499993521200
       331    2       95.852700000000       4.099262567400      11.123906478800
       332    2       92.302600000000      10.248162567400      11.123906478800
       333    2       95.852700000000       4.099262567400       7.499993521200
       334    2       92.302600000000      10.248162567400       7.499993521200
       335    2       97.627750000000       1.024812567400       7.499993521200
       336    2       94.077650000000       7.173712567400       7.499993521200
       337    1        5.325150000000      15.372250000000       9.311950000000
       338    1        1.775050000000      21.521150000000       9.311950000000
       339    2        0.000000000000      16.397062567400      11.123906478800
       340    2        3.550100000000      22.545962567400      11.123906478800
       341    1        1.775050000000      15.372250000000       9.311950000000
       342    2        5.325150000000      13.322612567400      11.123906478800
       343    1        0.000000000000      12.297800000000       9.311950000000
       344    2        0.000000000000      16.397062567400       7.499993521200
       345    2        1.775050000000      19.471512567400      11.123906478800
       346    2        1.775050000000      13.322612567400      11.123906478800
       347    1        5.325150000000      21.521150000000       9.311950000000
       348    1        3.550100000000      18.446700000000       9.311950000000
       349    2        3.550100000000      22.545962567400       7.499993521200
       350    2        5.325150000000      19.471512567400      11.123906478800
       351    1        3.550100000000      12.297800000000       9.311950000000
       352    1        7.100200000000      18.446700000000       9.311950000000
       353    2        1.775050000000      13.322612567400       7.499993521200
       354    2        5.325150000000      19.471512567400       7.499993521200
       355    2        3.550100000000      16.397062567400      11.123906478800
       356    2        0.000000000000      22.545962567400      11.123906478800
       357    2        3.550100000000      16.397062567400       7.499993521200
       358    2        0.000000000000      22.545962567400       7.499993521200
       359    2        5.325150000000      13.322612567400       7.499993521200
       360    2        1.775050000000      19.471512567400       7.499993521200
       361    1       12.425350000000      15.372250000000       9.311950000000
       362    1        8.875250000000      21.521150000000       9.311950000000
       363    2        7.100200000000      16.397062567400      11.123906478800
       364    2       10.650300000000      22.545962567400      11.123906478800
       365    1        8.875250000000      15.372250000000       9.311950000000
       366    2       12.425350000000      13.322612567400      11.123906478800
       367    1        7.100200000000      12.297800000000       9.311950000000
       368    2        7.100200000000      16.397062567400       7.499993521200
       369    2        8.875250000000      19.471512567400      11.123906478800
       370    2        8.875250000000      13.322612567400      11.123906478800