 # In16
  
        1344  atoms
           1  atom types
 
      0.000000000000     101.760000000000  xlo xhi
      0.000000000000     102.814600000000  ylo yhi
      0.000000000000     105.630000000000  zlo zhi
 
Masses
 
            1   114.81800000            # In
 
Atoms # atomic
 
         1    1        4.240000000000      14.687800000000      52.915031610000
         2    1        0.000000000000       7.343900000000      52.915031610000
         3    1        8.480000000000       4.895928437400      54.451103070000
         4    1        4.240000000000      12.239828437400      54.451103070000
         5    1        6.360000000000       3.671950000000      52.915031610000
         6    1        2.120000000000      11.015850000000      52.915031610000
         7    1        2.120000000000       1.223978437400      54.451103070000
         8    1        6.360000000000       8.567878437400      54.451103070000
         9    1        6.360000000000       1.223978437400      54.451103070000
        10    1        2.120000000000       8.567878437400      54.451103070000
        11    1        0.000000000000      14.687800000000      52.915031610000
        12    1        4.240000000000       7.343900000000      52.915031610000
        13    1        2.120000000000       3.671950000000      52.915031610000
        14    1        6.360000000000      11.015850000000      52.915031610000
        15    1        4.240000000000       4.895928437400      54.451103070000
        16    1        0.000000000000      12.239828437400      54.451103070000
        17    1       12.720000000000      14.687800000000      52.915031610000
        18    1        8.480000000000       7.343900000000      52.915031610000
        19    1       16.960000000000       4.895928437400      54.451103070000
        20    1       12.720000000000      12.239828437400      54.451103070000
        21    1       14.840000000000       3.671950000000      52.915031610000
        22    1       10.600000000000      11.015850000000      52.915031610000
        23    1       10.600000000000       1.223978437400      54.451103070000
        24    1       14.840000000000       8.567878437400      54.451103070000
        25    1       14.840000000000       1.223978437400      54.451103070000
        26    1       10.600000000000       8.567878437400      54.451103070000
        27    1        8.480000000000      14.687800000000      52.915031610000
        28    1       12.720000000000       7.343900000000      52.915031610000
        29    1       10.600000000000       3.671950000000      52.915031610000
        30    1       14.840000000000      11.015850000000      52.915031610000
        31    1       12.720000000000       4.895928437400      54.451103070000
        32    1        8.480000000000      12.239828437400      54.451103070000
        33    1       21.200000000000      14.687800000000      52.915031610000
        34    1       16.960000000000       7.343900000000      52.915031610000
        35    1       25.440000000000       4.895928437400      54.451103070000
        36    1       21.200000000000      12.239828437400      54.451103070000
        37    1       23.320000000000       3.671950000000      52.915031610000
        38    1       19.080000000000      11.015850000000      52.915031610000
        39    1       19.080000000000       1.223978437400      54.451103070000
        40    1       23.320000000000       8.567878437400      54.451103070000
        41    1       23.320000000000       1.223978437400      54.451103070000
        42    1       19.080000000000       8.567878437400      54.451103070000
        43    1       16.960000000000      14.687800000000      52.915031610000
        44    1       21.200000000000       7.343900000000      52.915031610000
        45    1       19.080000000000       3.671950000000      52.915031610000
        46    1       23.320000000000      11.015850000000      52.915031610000
        47    1       21.200000000000       4.895928437400      54.451103070000
        48    1       16.960000000000      12.239828437400      54.451103070000
        49    1       29.680000000000      14.687800000000      52.915031610000
        50    1       25.440000000000       7.343900000000      52.915031610000
        51    1       33.920000000000       4.895928437400      54.451103070000
        52    1       29.680000000000      12.239828437400      54.451103070000
        53    1       31.800000000000       3.671950000000      52.915031610000
        54    1       27.560000000000      11.015850000000      52.915031610000
        55    1       27.560000000000       1.223978437400      54.451103070000
        56    1       31.800000000000       8.567878437400      54.451103070000
        57    1       31.800000000000       1.223978437400      54.451103070000
        58    1       27.560000000000       8.567878437400      54.451103070000
        59    1       25.440000000000      14.687800000000      52.915031610000
        60    1       29.680000000000       7.343900000000      52.915031610000
        61    1       27.560000000000       3.671950000000      52.915031610000
        62    1       31.800000000000      11.015850000000      52.915031610000
        63    1       29.680000000000       4.895928437400      54.451103070000
        64    1       25.440000000000      12.239828437400      54.451103070000
        65    1       38.160000000000      14.687800000000      52.915031610000
        66    1       33.920000000000       7.343900000000      52.915031610000
        67    1       42.400000000000       4.895928437400      54.451103070000
        68    1       38.160000000000      12.239828437400      54.451103070000
        69    1       40.280000000000       3.671950000000      52.915031610000
        70    1       36.040000000000      11.015850000000      52.915031610000
        71    1       36.040000000000       1.223978437400      54.451103070000
        72    1       40.280000000000       8.567878437400      54.451103070000
        73    1       40.280000000000       1.223978437400      54.451103070000
        74    1       36.040000000000       8.567878437400      54.451103070000
        75    1       33.920000000000      14.687800000000      52.915031610000
        76    1       38.160000000000       7.343900000000      52.915031610000
        77    1       36.040000000000       3.671950000000      52.915031610000
        78    1       40.280000000000      11.015850000000      52.915031610000
        79    1       38.160000000000       4.895928437400      54.451103070000
        80    1       33.920000000000      12.239828437400      54.451103070000
        81    1       46.640000000000      14.687800000000      52.915031610000
        82    1       42.400000000000       7.343900000000      52.915031610000
        83    1       50.880000000000       4.895928437400      54.451103070000
        84    1       46.640000000000      12.239828437400      54.451103070000
        85    1       48.760000000000       3.671950000000      52.915031610000
        86    1       44.520000000000      11.015850000000      52.915031610000
        87    1       44.520000000000       1.223978437400      54.451103070000
        88    1       48.760000000000       8.567878437400      54.451103070000
        89    1       48.760000000000       1.223978437400      54.451103070000
        90    1       44.520000000000       8.567878437400      54.451103070000
        91    1       42.400000000000      14.687800000000      52.915031610000
        92    1       46.640000000000       7.343900000000      52.915031610000
        93    1       44.520000000000       3.671950000000      52.915031610000
        94    1       48.760000000000      11.015850000000      52.915031610000
        95    1       46.640000000000       4.895928437400      54.451103070000
        96    1       42.400000000000      12.239828437400      54.451103070000
        97    1       55.120000000000      14.687800000000      52.915031610000
        98    1       50.880000000000       7.343900000000      52.915031610000
        99    1       59.360000000000       4.895928437400      54.451103070000
       100    1       55.120000000000      12.239828437400      54.451103070000
       101    1       57.240000000000       3.671950000000      52.915031610000
       102    1       53.000000000000      11.015850000000      52.915031610000
       103    1       53.000000000000       1.223978437400      54.451103070000
       104    1       57.240000000000       8.567878437400      54.451103070000
       105    1       57.240000000000       1.223978437400      54.451103070000
       106    1       53.000000000000       8.567878437400      54.451103070000
       107    1       50.880000000000      14.687800000000      52.915031610000
       108    1       55.120000000000       7.343900000000      52.915031610000
       109    1       53.000000000000       3.671950000000      52.915031610000
       110    1       57.240000000000      11.015850000000      52.915031610000
       111    1       55.120000000000       4.895928437400      54.451103070000
       112    1       50.880000000000      12.239828437400      54.451103070000
       113    1       63.600000000000      14.687800000000      52.915031610000
       114    1       59.360000000000       7.343900000000      52.915031610000
       115    1       67.840000000000       4.895928437400      54.451103070000
       116    1       63.600000000000      12.239828437400      54.451103070000
       117    1       65.720000000000       3.671950000000      52.915031610000
       118    1       61.480000000000      11.015850000000      52.915031610000
       119    1       61.480000000000       1.223978437400      54.451103070000
       120    1       65.720000000000       8.567878437400      54.451103070000
       121    1       65.720000000000       1.223978437400      54.451103070000
       122    1       61.480000000000       8.567878437400      54.451103070000
       123    1       59.360000000000      14.687800000000      52.915031610000
       124    1       63.600000000000       7.343900000000      52.915031610000
       125    1       61.480000000000       3.671950000000      52.915031610000
       126    1       65.720000000000      11.015850000000      52.915031610000
       127    1       63.600000000000       4.895928437400      54.451103070000
       128    1       59.360000000000      12.239828437400      54.451103070000
       129    1       72.080000000000      14.687800000000      52.915031610000
       130    1       67.840000000000       7.343900000000      52.915031610000
       131    1       76.320000000000       4.895928437400      54.451103070000
       132    1       72.080000000000      12.239828437400      54.451103070000
       133    1       74.200000000000       3.671950000000      52.915031610000
       134    1       69.960000000000      11.015850000000      52.915031610000
       135    1       69.960000000000       1.223978437400      54.451103070000
       136    1       74.200000000000       8.567878437400      54.451103070000
       137    1       74.200000000000       1.223978437400      54.451103070000
       138    1       69.960000000000       8.567878437400      54.451103070000
       139    1       67.840000000000      14.687800000000      52.915031610000
       140    1       72.080000000000       7.343900000000      52.915031610000
       141    1       69.960000000000       3.671950000000      52.915031610000
       142    1       74.200000000000      11.015850000000      52.915031610000
       143    1       72.080000000000       4.895928437400      54.451103070000
       144    1       67.840000000000      12.239828437400      54.451103070000
       145    1       80.560000000000      14.687800000000      52.915031610000
       146    1       76.320000000000       7.343900000000      52.915031610000
       147    1       84.800000000000       4.895928437400      54.451103070000
       148    1       80.560000000000      12.239828437400      54.451103070000
       149    1       82.680000000000       3.671950000000      52.915031610000
       150    1       78.440000000000      11.015850000000      52.915031610000
       151    1       78.440000000000       1.223978437400      54.451103070000
       152    1       82.680000000000       8.567878437400      54.451103070000
       153    1       82.680000000000       1.223978437400      54.451103070000
       154    1       78.440000000000       8.567878437400      54.451103070000
       155    1       76.320000000000      14.687800000000      52.915031610000
       156    1       80.560000000000       7.343900000000      52.915031610000
       157    1       78.440000000000       3.671950000000      52.915031610000
       158    1       82.680000000000      11.015850000000      52.915031610000
       159    1       80.560000000000       4.895928437400      54.451103070000
       160    1       76.320000000000      12.239828437400      54.451103070000
       161    1       89.040000000000      14.687800000000      52.915031610000
       162    1       84.800000000000       7.343900000000      52.915031610000
       163    1       93.280000000000       4.895928437400      54.451103070000
       164    1       89.040000000000      12.239828437400      54.451103070000
       165    1       91.160000000000       3.671950000000      52.915031610000
       166    1       86.920000000000      11.015850000000      52.915031610000
       167    1       86.920000000000       1.223978437400      54.451103070000
       168    1       91.160000000000       8.567878437400      54.451103070000
       169    1       91.160000000000       1.223978437400      54.451103070000
       170    1       86.920000000000       8.567878437400      54.451103070000
       171    1       84.800000000000      14.687800000000      52.915031610000
       172    1       89.040000000000       7.343900000000      52.915031610000
       173    1       86.920000000000       3.671950000000      52.915031610000
       174    1       91.160000000000      11.015850000000      52.915031610000
       175    1       89.040000000000       4.895928437400      54.451103070000
       176    1       84.800000000000      12.239828437400      54.451103070000
       177    1       97.520000000000      14.687800000000      52.915031610000
       178    1       93.280000000000       7.343900000000      52.915031610000
       179    1      101.760000000000       4.895928437400      54.451103070000
       180    1       97.520000000000      12.239828437400      54.451103070000
       181    1       99.640000000000       3.671950000000      52.915031610000
       182    1       95.400000000000      11.015850000000      52.915031610000
       183    1       95.400000000000       1.223978437400      54.451103070000
       184    1       99.640000000000       8.567878437400      54.451103070000
       185    1       99.640000000000       1.223978437400      54.451103070000
       186    1       95.400000000000       8.567878437400      54.451103070000
       187    1       93.280000000000      14.687800000000      52.915031610000
       188    1       97.520000000000       7.343900000000      52.915031610000
       189    1       95.400000000000       3.671950000000      52.915031610000
       190    1       99.640000000000      11.015850000000      52.915031610000
       191    1       97.520000000000       4.895928437400      54.451103070000
       192    1       93.280000000000      12.239828437400      54.451103070000
       193    1        4.240000000000      29.375600000000      52.915031610000
       194    1        0.000000000000      22.031700000000      52.915031610000
       195    1        8.480000000000      19.583728437400      54.451103070000
       196    1        4.240000000000      26.927628437400      54.451103070000
       197    1        6.360000000000      18.359750000000      52.915031610000
       198    1        2.120000000000      25.703650000000      52.915031610000
       199    1        2.120000000000      15.911778437400      54.451103070000
       200    1        6.360000000000      23.255678437400      54.451103070000
       201    1        6.360000000000      15.911778437400      54.451103070000
       202    1        2.120000000000      23.255678437400      54.451103070000
       203    1        0.000000000000      29.375600000000      52.915031610000
       204    1        4.240000000000      22.031700000000      52.915031610000
       205    1        2.120000000000      18.359750000000      52.915031610000
       206    1        6.360000000000      25.703650000000      52.915031610000
       207    1        4.240000000000      19.583728437400      54.451103070000
       208    1        0.000000000000      26.927628437400      54.451103070000
       209    1       12.720000000000      29.375600000000      52.915031610000
       210    1        8.480000000000      22.031700000000      52.915031610000
       211    1       16.960000000000      19.583728437400      54.451103070000
       212    1       12.720000000000      26.927628437400      54.451103070000
       213    1       14.840000000000      18.359750000000      52.915031610000
       214    1       10.600000000000      25.703650000000      52.915031610000
       215    1       10.600000000000      15.911778437400      54.451103070000
       216    1       14.840000000000      23.255678437400      54.451103070000
       217    1       14.840000000000      15.911778437400      54.451103070000
       218    1       10.600000000000      23.255678437400      54.451103070000
       219    1        8.480000000000      29.375600000000      52.915031610000
       220    1       12.720000000000      22.031700000000      52.915031610000
       221    1       10.600000000000      18.359750000000      52.915031610000
       222    1       14.840000000000      25.703650000000      52.915031610000
       223    1       12.720000000000      19.583728437400      54.451103070000
       224    1        8.480000000000      26.927628437400      54.451103070000
       225    1       21.200000000000      29.375600000000      52.915031610000
       226    1       16.960000000000      22.031700000000      52.915031610000
       227    1       25.440000000000      19.583728437400      54.451103070000
       228    1       21.200000000000      26.927628437400      54.451103070000
       229    1       23.320000000000      18.359750000000      52.915031610000
       230    1       19.080000000000      25.703650000000      52.915031610000
       231    1       19.080000000000      15.911778437400      54.451103070000
       232    1       23.320000000000      23.255678437400      54.451103070000
       233    1       23.320000000000      15.911778437400      54.451103070000
       234    1       19.080000000000      23.255678437400      54.451103070000
       235    1       16.960000000000      29.375600000000      52.915031610000
       236    1       21.200000000000      22.031700000000      52.915031610000
       237    1       19.080000000000      18.359750000000      52.915031610000
       238    1       23.320000000000      25.703650000000      52.915031610000
       239    1       21.200000000000      19.583728437400      54.451103070000
       240    1       16.960000000000      26.927628437400      54.451103070000
       241    1       29.680000000000      29.375600000000      52.915031610000
       242    1       25.440000000000      22.031700000000      52.915031610000
       243    1       33.920000000000      19.583728437400      54.451103070000
       244    1       29.680000000000      26.927628437400      54.451103070000
       245    1       31.800000000000      18.359750000000      52.915031610000
       246    1       27.560000000000      25.703650000000      52.915031610000
       247    1       27.560000000000      15.911778437400      54.451103070000
       248    1       31.800000000000      23.255678437400      54.451103070000
       249    1       31.800000000000      15.911778437400      54.451103070000
       250    1       27.560000000000      23.255678437400      54.451103070000
       251    1       25.440000000000      29.375600000000      52.915031610000
       252    1       29.680000000000      22.031700000000      52.915031610000
       253    1       27.560000000000      18.359750000000      52.915031610000
       254    1       31.800000000000      25.703650000000      52.915031610000
       255    1       29.680000000000      19.583728437400      54.451103070000
       256    1       25.440000000000      26.927628437400      54.451103070000
       257    1       38.160000000000      29.375600000000      52.915031610000
       258    1       33.920000000000      22.031700000000      52.915031610000
       259    1       42.400000000000      19.583728437400      54.451103070000
       260    1       38.160000000000      26.927628437400      54.451103070000
       261    1       40.280000000000      18.359750000000      52.915031610000
       262    1       36.040000000000      25.703650000000      52.915031610000
       263    1       36.040000000000      15.911778437400      54.451103070000
       264    1       40.280000000000      23.255678437400      54.451103070000
       265    1       40.280000000000      15.911778437400      54.451103070000
       266    1       36.040000000000      23.255678437400      54.451103070000
       267    1       33.920000000000      29.375600000000      52.915031610000
       268    1       38.160000000000      22.031700000000      52.915031610000
       269    1       36.040000000000      18.359750000000      52.915031610000
       270    1       40.280000000000      25.703650000000      52.915031610000
       271    1       38.160000000000      19.583728437400      54.451103070000
       272    1       33.920000000000      26.927628437400      54.451103070000
       273    1       46.640000000000      29.375600000000      52.915031610000
       274    1       42.400000000000      22.031700000000      52.915031610000
       275    1       50.880000000000      19.583728437400      54.451103070000
       276    1       46.640000000000      26.927628437400      54.451103070000
       277    1       48.760000000000      18.359750000000      52.915031610000
       278    1       44.520000000000      25.703650000000      52.915031610000
       279    1       44.520000000000      15.911778437400      54.451103070000
       280    1       48.760000000000      23.255678437400      54.451103070000
       281    1       48.760000000000      15.911778437400      54.451103070000
       282    1       44.520000000000      23.255678437400      54.451103070000
       283    1       42.400000000000      29.375600000000      52.915031610000
       284    1       46.640000000000      22.031700000000      52.915031610000
       285    1       44.520000000000      18.359750000000      52.915031610000
       286    1       48.760000000000      25.703650000000      52.915031610000
       287    1       46.640000000000      19.583728437400      54.451103070000
       288    1       42.400000000000      26.927628437400      54.451103070000
       289    1       55.120000000000      29.375600000000      52.915031610000
       290    1       50.880000000000      22.031700000000      52.915031610000
       291    1       59.360000000000      19.583728437400      54.451103070000
       292    1       55.120000000000      26.927628437400      54.451103070000
       293    1       57.240000000000      18.359750000000      52.915031610000
       294    1       53.000000000000      25.703650000000      52.915031610000
       295    1       53.000000000000      15.911778437400      54.451103070000
       296    1       57.240000000000      23.255678437400      54.451103070000
       297    1       57.240000000000      15.911778437400      54.451103070000
       298    1       53.000000000000      23.255678437400      54.451103070000
       299    1       50.880000000000      29.375600000000      52.915031610000
       300    1       55.120000000000      22.031700000000      52.915031610000
       301    1       53.000000000000      18.359750000000      52.915031610000
       302    1       57.240000000000      25.703650000000      52.915031610000
       303    1       55.120000000000      19.583728437400      54.451103070000
       304    1       50.880000000000      26.927628437400      54.451103070000
       305    1       63.600000000000      29.375600000000      52.915031610000
       306    1       59.360000000000      22.031700000000      52.915031610000
       307    1       67.840000000000      19.583728437400      54.451103070000
       308    1       63.600000000000      26.927628437400      54.451103070000
       309    1       65.720000000000      18.359750000000      52.915031610000
       310    1       61.480000000000      25.703650000000      52.915031610000
       311    1       61.480000000000      15.911778437400      54.451103070000
       312    1       65.720000000000      23.255678437400      54.451103070000
       313    1       65.720000000000      15.911778437400      54.451103070000
       314    1       61.480000000000      23.255678437400      54.451103070000
       315    1       59.360000000000      29.375600000000      52.915031610000
       316    1       63.600000000000      22.031700000000      52.915031610000
       317    1       61.480000000000      18.359750000000      52.915031610000
       318    1       65.720000000000      25.703650000000      52.915031610000
       319    1       63.600000000000      19.583728437400      54.451103070000
       320    1       59.360000000000      26.927628437400      54.451103070000
       321    1       72.080000000000      29.375600000000      52.915031610000
       322    1       67.840000000000      22.031700000000      52.915031610000
       323    1       76.320000000000      19.583728437400      54.451103070000
       324    1       72.080000000000      26.927628437400      54.451103070000
       325    1       74.200000000000      18.359750000000      52.915031610000
       326    1       69.960000000000      25.703650000000      52.915031610000
       327    1       69.960000000000      15.911778437400      54.451103070000
       328    1       74.200000000000      23.255678437400      54.451103070000
       329    1       74.200000000000      15.911778437400      54.451103070000
       330    1       69.960000000000      23.255678437400      54.451103070000
       331    1       67.840000000000      29.375600000000      52.915031610000
       332    1       72.080000000000      22.031700000000      52.915031610000
       333    1       69.960000000000      18.359750000000      52.915031610000
       334    1       74.200000000000      25.703650000000      52.915031610000
       335    1       72.080000000000      19.583728437400      54.451103070000
       336    1       67.840000000000      26.927628437400      54.451103070000
       337    1       80.560000000000      29.375600000000      52.915031610000
       338    1       76.320000000000      22.031700000000      52.915031610000
       339    1       84.800000000000      19.583728437400      54.451103070000
       340    1       80.560000000000      26.927628437400      54.451103070000
       341    1       82.680000000000      18.359750000000      52.915031610000
       342    1       78.440000000000      25.703650000000      52.915031610000
       343    1       78.440000000000      15.911778437400      54.451103070000
       344    1       82.680000000000      23.255678437400      54.451103070000
       345    1       82.680000000000      15.911778437400      54.451103070000
       346    1       78.440000000000      23.255678437400      54.451103070000
       347    1       76.320000000000      29.375600000000      52.915031610000
       348    1       80.560000000000      22.031700000000      52.915031610000
       349    1       78.440000000000      18.359750000000      52.915031610000
       350    1       82.680000000000      25.703650000000      52.915031610000
       351    1       80.560000000000      19.583728437400      54.451103070000
       352    1       76.320000000000      26.927628437400      54.451103070000
       353    1       89.040000000000      29.375600000000      52.915031610000
       354    1       84.800000000000      22.031700000000      52.915031610000
       355    1       93.280000000000      19.583728437400      54.451103070000
       356    1       89.040000000000      26.927628437400      54.451103070000
       357    1       91.160000000000      18.359750000000      52.915031610000
       358    1       86.920000000000      25.703650000000      52.915031610000
       359    1       86.920000000000      15.911778437400      54.451103070000
       360    1       91.160000000000      23.255678437400      54.451103070000
       361    1       91.160000000000      15.911778437400      54.451103070000
       362    1       86.920000000000      23.255678437400      54.451103070000
       363    1       84.800000000000      29.375600000000      52.915031610000
       364    1       89.040000000000      22.031700000000      52.915031610000
       365    1       86.920000000000      18.359750000000      52.915031610000
       366    1       91.160000000000      25.703650000000      52.915031610000
       367    1       89.040000000000      19.583728437400      54.451103070000
       368    1       84.800000000000      26.927628437400      54.451103070000
       369    1       97.520000000000      29.375600000000      52.915031610000
       370    1       93.280000000000      22.031700000000      52.915031610000
       371    1      101.760000000000      19.583728437400      54.451103070000