 # O16 In16
  
        3840  atoms
           2  atom types
 
      0.000000000000     103.255500000000  xlo xhi
      0.000000000000      95.377600000000  ylo yhi
      0.000000000000      20.277700000000  zlo zhi
 
Masses
 
            1   15.99900000             # O
            2   114.81800000            # In
 
Atoms # atomic
 
         1    1        5.162623558600       0.994073036000       7.921402394200
         2    1        1.720422489900       6.955173036000       7.921402394200
         3    1        1.720773558600       0.994073036000       7.921402394200
         4    2        6.883596744500       1.987430740000       8.712192138800
         5    1        5.162272489900       6.955173036000       7.921402394200
         6    2        3.441402559500       7.948530740000       8.712192138800
         7    1        6.883376466100       3.974623036000       7.921402394200
         8    1        3.441175397400       9.935723036000       7.921402394200
         9    2        1.720622117200       4.968004584400      11.565507861200
        10    2        5.162121048500      10.929104584400      11.565507861200
        11    1        5.162692395600       2.980919588200      12.356297605800
        12    1        1.720498210600       8.942019588200      12.356297605800
        13    2        5.162499652000       4.967980740000       8.712192138800
        14    2        1.720298583300      10.929080740000       8.712192138800
        15    1        0.000096371800       0.000369588200      12.356297605800
        16    1        3.441595303100       5.961469588200      12.356297605800
        17    2        5.162472117200       4.968004584400      11.565507861200
        18    2        1.720271048500      10.929104584400      11.565507861200
        19    2        3.441719209700       1.987454584400      11.565507861200
        20    2        6.883218141000       7.948554584400      11.565507861200
        21    1        3.441946371800       0.000369588200      12.356297605800
        22    1        6.883445303100       5.961469588200      12.356297605800
        23    2        6.883569209700       1.987454584400      11.565507861200
        24    2        3.441368141000       7.948554584400      11.565507861200
        25    1        1.720842395600       2.980919588200      12.356297605800
        26    1        5.162348210600       8.942019588200      12.356297605800
        27    1        3.441526466100       3.974623036000       7.921402394200
        28    1        6.883025397400       9.935723036000       7.921402394200
        29    2        1.720649652000       4.967980740000       8.712192138800
        30    2        5.162148583300      10.929080740000       8.712192138800
        31    2        3.441746744500       1.987430740000       8.712192138800
        32    2        6.883252559500       7.948530740000       8.712192138800
        33    1       12.046323558600       0.994073036000       7.921402394200
        34    1        8.604122489900       6.955173036000       7.921402394200
        35    1        8.604473558600       0.994073036000       7.921402394200
        36    2       13.767296744500       1.987430740000       8.712192138800
        37    1       12.045972489900       6.955173036000       7.921402394200
        38    2       10.325102559500       7.948530740000       8.712192138800
        39    1       13.767076466100       3.974623036000       7.921402394200
        40    1       10.324875397400       9.935723036000       7.921402394200
        41    2        8.604322117200       4.968004584400      11.565507861200
        42    2       12.045821048500      10.929104584400      11.565507861200
        43    1       12.046392395600       2.980919588200      12.356297605800
        44    1        8.604198210600       8.942019588200      12.356297605800
        45    2       12.046199652000       4.967980740000       8.712192138800
        46    2        8.603998583300      10.929080740000       8.712192138800
        47    1        6.883796371800       0.000369588200      12.356297605800
        48    1       10.325295303100       5.961469588200      12.356297605800
        49    2       12.046172117200       4.968004584400      11.565507861200
        50    2        8.603971048500      10.929104584400      11.565507861200
        51    2       10.325419209700       1.987454584400      11.565507861200
        52    2       13.766918141000       7.948554584400      11.565507861200
        53    1       10.325646371800       0.000369588200      12.356297605800
        54    1       13.767145303100       5.961469588200      12.356297605800
        55    2       13.767269209700       1.987454584400      11.565507861200
        56    2       10.325068141000       7.948554584400      11.565507861200
        57    1        8.604542395600       2.980919588200      12.356297605800
        58    1       12.046048210600       8.942019588200      12.356297605800
        59    1       10.325226466100       3.974623036000       7.921402394200
        60    1       13.766725397400       9.935723036000       7.921402394200
        61    2        8.604349652000       4.967980740000       8.712192138800
        62    2       12.045848583300      10.929080740000       8.712192138800
        63    2       10.325446744500       1.987430740000       8.712192138800
        64    2       13.766952559500       7.948530740000       8.712192138800
        65    1       18.930023558600       0.994073036000       7.921402394200
        66    1       15.487822489900       6.955173036000       7.921402394200
        67    1       15.488173558600       0.994073036000       7.921402394200
        68    2       20.650996744500       1.987430740000       8.712192138800
        69    1       18.929672489900       6.955173036000       7.921402394200
        70    2       17.208802559500       7.948530740000       8.712192138800
        71    1       20.650776466100       3.974623036000       7.921402394200
        72    1       17.208575397400       9.935723036000       7.921402394200
        73    2       15.488022117200       4.968004584400      11.565507861200
        74    2       18.929521048500      10.929104584400      11.565507861200
        75    1       18.930092395600       2.980919588200      12.356297605800
        76    1       15.487898210600       8.942019588200      12.356297605800
        77    2       18.929899652000       4.967980740000       8.712192138800
        78    2       15.487698583300      10.929080740000       8.712192138800
        79    1       13.767496371800       0.000369588200      12.356297605800
        80    1       17.208995303100       5.961469588200      12.356297605800
        81    2       18.929872117200       4.968004584400      11.565507861200
        82    2       15.487671048500      10.929104584400      11.565507861200
        83    2       17.209119209700       1.987454584400      11.565507861200
        84    2       20.650618141000       7.948554584400      11.565507861200
        85    1       17.209346371800       0.000369588200      12.356297605800
        86    1       20.650845303100       5.961469588200      12.356297605800
        87    2       20.650969209700       1.987454584400      11.565507861200
        88    2       17.208768141000       7.948554584400      11.565507861200
        89    1       15.488242395600       2.980919588200      12.356297605800
        90    1       18.929748210600       8.942019588200      12.356297605800
        91    1       17.208926466100       3.974623036000       7.921402394200
        92    1       20.650425397400       9.935723036000       7.921402394200
        93    2       15.488049652000       4.967980740000       8.712192138800
        94    2       18.929548583300      10.929080740000       8.712192138800
        95    2       17.209146744500       1.987430740000       8.712192138800
        96    2       20.650652559500       7.948530740000       8.712192138800
        97    1       25.813723558600       0.994073036000       7.921402394200
        98    1       22.371522489900       6.955173036000       7.921402394200
        99    1       22.371873558600       0.994073036000       7.921402394200
       100    2       27.534696744500       1.987430740000       8.712192138800
       101    1       25.813372489900       6.955173036000       7.921402394200
       102    2       24.092502559500       7.948530740000       8.712192138800
       103    1       27.534476466100       3.974623036000       7.921402394200
       104    1       24.092275397400       9.935723036000       7.921402394200
       105    2       22.371722117200       4.968004584400      11.565507861200
       106    2       25.813221048500      10.929104584400      11.565507861200
       107    1       25.813792395600       2.980919588200      12.356297605800
       108    1       22.371598210600       8.942019588200      12.356297605800
       109    2       25.813599652000       4.967980740000       8.712192138800
       110    2       22.371398583300      10.929080740000       8.712192138800
       111    1       20.651196371800       0.000369588200      12.356297605800
       112    1       24.092695303100       5.961469588200      12.356297605800
       113    2       25.813572117200       4.968004584400      11.565507861200
       114    2       22.371371048500      10.929104584400      11.565507861200
       115    2       24.092819209700       1.987454584400      11.565507861200
       116    2       27.534318141000       7.948554584400      11.565507861200
       117    1       24.093046371800       0.000369588200      12.356297605800
       118    1       27.534545303100       5.961469588200      12.356297605800
       119    2       27.534669209700       1.987454584400      11.565507861200
       120    2       24.092468141000       7.948554584400      11.565507861200
       121    1       22.371942395600       2.980919588200      12.356297605800
       122    1       25.813448210600       8.942019588200      12.356297605800
       123    1       24.092626466100       3.974623036000       7.921402394200
       124    1       27.534125397400       9.935723036000       7.921402394200
       125    2       22.371749652000       4.967980740000       8.712192138800
       126    2       25.813248583300      10.929080740000       8.712192138800
       127    2       24.092846744500       1.987430740000       8.712192138800
       128    2       27.534352559500       7.948530740000       8.712192138800
       129    1       32.697423558600       0.994073036000       7.921402394200
       130    1       29.255222489900       6.955173036000       7.921402394200
       131    1       29.255573558600       0.994073036000       7.921402394200
       132    2       34.418396744500       1.987430740000       8.712192138800
       133    1       32.697072489900       6.955173036000       7.921402394200
       134    2       30.976202559500       7.948530740000       8.712192138800
       135    1       34.418176466100       3.974623036000       7.921402394200
       136    1       30.975975397400       9.935723036000       7.921402394200
       137    2       29.255422117200       4.968004584400      11.565507861200
       138    2       32.696921048500      10.929104584400      11.565507861200
       139    1       32.697492395600       2.980919588200      12.356297605800
       140    1       29.255298210600       8.942019588200      12.356297605800
       141    2       32.697299652000       4.967980740000       8.712192138800
       142    2       29.255098583300      10.929080740000       8.712192138800
       143    1       27.534896371800       0.000369588200      12.356297605800
       144    1       30.976395303100       5.961469588200      12.356297605800
       145    2       32.697272117200       4.968004584400      11.565507861200
       146    2       29.255071048500      10.929104584400      11.565507861200
       147    2       30.976519209700       1.987454584400      11.565507861200
       148    2       34.418018141000       7.948554584400      11.565507861200
       149    1       30.976746371800       0.000369588200      12.356297605800
       150    1       34.418245303100       5.961469588200      12.356297605800
       151    2       34.418369209700       1.987454584400      11.565507861200
       152    2       30.976168141000       7.948554584400      11.565507861200
       153    1       29.255642395600       2.980919588200      12.356297605800
       154    1       32.697148210600       8.942019588200      12.356297605800
       155    1       30.976326466100       3.974623036000       7.921402394200
       156    1       34.417825397400       9.935723036000       7.921402394200
       157    2       29.255449652000       4.967980740000       8.712192138800
       158    2       32.696948583300      10.929080740000       8.712192138800
       159    2       30.976546744500       1.987430740000       8.712192138800
       160    2       34.418052559500       7.948530740000       8.712192138800
       161    1       39.581123558600       0.994073036000       7.921402394200
       162    1       36.138922489900       6.955173036000       7.921402394200
       163    1       36.139273558600       0.994073036000       7.921402394200
       164    2       41.302096744500       1.987430740000       8.712192138800
       165    1       39.580772489900       6.955173036000       7.921402394200
       166    2       37.859902559500       7.948530740000       8.712192138800
       167    1       41.301876466100       3.974623036000       7.921402394200
       168    1       37.859675397400       9.935723036000       7.921402394200
       169    2       36.139122117200       4.968004584400      11.565507861200
       170    2       39.580621048500      10.929104584400      11.565507861200
       171    1       39.581192395600       2.980919588200      12.356297605800
       172    1       36.138998210600       8.942019588200      12.356297605800
       173    2       39.580999652000       4.967980740000       8.712192138800
       174    2       36.138798583300      10.929080740000       8.712192138800
       175    1       34.418596371800       0.000369588200      12.356297605800
       176    1       37.860095303100       5.961469588200      12.356297605800
       177    2       39.580972117200       4.968004584400      11.565507861200
       178    2       36.138771048500      10.929104584400      11.565507861200
       179    2       37.860219209700       1.987454584400      11.565507861200
       180    2       41.301718141000       7.948554584400      11.565507861200
       181    1       37.860446371800       0.000369588200      12.356297605800
       182    1       41.301945303100       5.961469588200      12.356297605800
       183    2       41.302069209700       1.987454584400      11.565507861200
       184    2       37.859868141000       7.948554584400      11.565507861200
       185    1       36.139342395600       2.980919588200      12.356297605800
       186    1       39.580848210600       8.942019588200      12.356297605800
       187    1       37.860026466100       3.974623036000       7.921402394200
       188    1       41.301525397400       9.935723036000       7.921402394200
       189    2       36.139149652000       4.967980740000       8.712192138800
       190    2       39.580648583300      10.929080740000       8.712192138800
       191    2       37.860246744500       1.987430740000       8.712192138800
       192    2       41.301752559500       7.948530740000       8.712192138800
       193    1       46.464823558600       0.994073036000       7.921402394200
       194    1       43.022622489900       6.955173036000       7.921402394200
       195    1       43.022973558600       0.994073036000       7.921402394200
       196    2       48.185796744500       1.987430740000       8.712192138800
       197    1       46.464472489900       6.955173036000       7.921402394200
       198    2       44.743602559500       7.948530740000       8.712192138800
       199    1       48.185576466100       3.974623036000       7.921402394200
       200    1       44.743375397400       9.935723036000       7.921402394200
       201    2       43.022822117200       4.968004584400      11.565507861200
       202    2       46.464321048500      10.929104584400      11.565507861200
       203    1       46.464892395600       2.980919588200      12.356297605800
       204    1       43.022698210600       8.942019588200      12.356297605800
       205    2       46.464699652000       4.967980740000       8.712192138800
       206    2       43.022498583300      10.929080740000       8.712192138800
       207    1       41.302296371800       0.000369588200      12.356297605800
       208    1       44.743795303100       5.961469588200      12.356297605800
       209    2       46.464672117200       4.968004584400      11.565507861200
       210    2       43.022471048500      10.929104584400      11.565507861200
       211    2       44.743919209700       1.987454584400      11.565507861200
       212    2       48.185418141000       7.948554584400      11.565507861200
       213    1       44.744146371800       0.000369588200      12.356297605800
       214    1       48.185645303100       5.961469588200      12.356297605800
       215    2       48.185769209700       1.987454584400      11.565507861200
       216    2       44.743568141000       7.948554584400      11.565507861200
       217    1       43.023042395600       2.980919588200      12.356297605800
       218    1       46.464548210600       8.942019588200      12.356297605800
       219    1       44.743726466100       3.974623036000       7.921402394200
       220    1       48.185225397400       9.935723036000       7.921402394200
       221    2       43.022849652000       4.967980740000       8.712192138800
       222    2       46.464348583300      10.929080740000       8.712192138800
       223    2       44.743946744500       1.987430740000       8.712192138800
       224    2       48.185452559500       7.948530740000       8.712192138800
       225    1       53.348523558600       0.994073036000       7.921402394200
       226    1       49.906322489900       6.955173036000       7.921402394200
       227    1       49.906673558600       0.994073036000       7.921402394200
       228    2       55.069496744500       1.987430740000       8.712192138800
       229    1       53.348172489900       6.955173036000       7.921402394200
       230    2       51.627302559500       7.948530740000       8.712192138800
       231    1       55.069276466100       3.974623036000       7.921402394200
       232    1       51.627075397400       9.935723036000       7.921402394200
       233    2       49.906522117200       4.968004584400      11.565507861200
       234    2       53.348021048500      10.929104584400      11.565507861200
       235    1       53.348592395600       2.980919588200      12.356297605800
       236    1       49.906398210600       8.942019588200      12.356297605800
       237    2       53.348399652000       4.967980740000       8.712192138800
       238    2       49.906198583300      10.929080740000       8.712192138800
       239    1       48.185996371800       0.000369588200      12.356297605800
       240    1       51.627495303100       5.961469588200      12.356297605800
       241    2       53.348372117200       4.968004584400      11.565507861200
       242    2       49.906171048500      10.929104584400      11.565507861200
       243    2       51.627619209700       1.987454584400      11.565507861200
       244    2       55.069118141000       7.948554584400      11.565507861200
       245    1       51.627846371800       0.000369588200      12.356297605800
       246    1       55.069345303100       5.961469588200      12.356297605800
       247    2       55.069469209700       1.987454584400      11.565507861200
       248    2       51.627268141000       7.948554584400      11.565507861200
       249    1       49.906742395600       2.980919588200      12.356297605800
       250    1       53.348248210600       8.942019588200      12.356297605800
       251    1       51.627426466100       3.974623036000       7.921402394200
       252    1       55.068925397400       9.935723036000       7.921402394200
       253    2       49.906549652000       4.967980740000       8.712192138800
       254    2       53.348048583300      10.929080740000       8.712192138800
       255    2       51.627646744500       1.987430740000       8.712192138800
       256    2       55.069152559500       7.948530740000       8.712192138800
       257    1       60.232223558600       0.994073036000       7.921402394200
       258    1       56.790022489900       6.955173036000       7.921402394200
       259    1       56.790373558600       0.994073036000       7.921402394200
       260    2       61.953196744500       1.987430740000       8.712192138800
       261    1       60.231872489900       6.955173036000       7.921402394200
       262    2       58.511002559500       7.948530740000       8.712192138800
       263    1       61.952976466100       3.974623036000       7.921402394200
       264    1       58.510775397400       9.935723036000       7.921402394200
       265    2       56.790222117200       4.968004584400      11.565507861200
       266    2       60.231721048500      10.929104584400      11.565507861200
       267    1       60.232292395600       2.980919588200      12.356297605800
       268    1       56.790098210600       8.942019588200      12.356297605800
       269    2       60.232099652000       4.967980740000       8.712192138800
       270    2       56.789898583300      10.929080740000       8.712192138800
       271    1       55.069696371800       0.000369588200      12.356297605800
       272    1       58.511195303100       5.961469588200      12.356297605800
       273    2       60.232072117200       4.968004584400      11.565507861200
       274    2       56.789871048500      10.929104584400      11.565507861200
       275    2       58.511319209700       1.987454584400      11.565507861200
       276    2       61.952818141000       7.948554584400      11.565507861200
       277    1       58.511546371800       0.000369588200      12.356297605800
       278    1       61.953045303100       5.961469588200      12.356297605800
       279    2       61.953169209700       1.987454584400      11.565507861200
       280    2       58.510968141000       7.948554584400      11.565507861200
       281    1       56.790442395600       2.980919588200      12.356297605800
       282    1       60.231948210600       8.942019588200      12.356297605800
       283    1       58.511126466100       3.974623036000       7.921402394200
       284    1       61.952625397400       9.935723036000       7.921402394200
       285    2       56.790249652000       4.967980740000       8.712192138800
       286    2       60.231748583300      10.929080740000       8.712192138800
       287    2       58.511346744500       1.987430740000       8.712192138800
       288    2       61.952852559500       7.948530740000       8.712192138800
       289    1       67.115923558600       0.994073036000       7.921402394200
       290    1       63.673722489900       6.955173036000       7.921402394200
       291    1       63.674073558600       0.994073036000       7.921402394200
       292    2       68.836896744500       1.987430740000       8.712192138800
       293    1       67.115572489900       6.955173036000       7.921402394200
       294    2       65.394702559500       7.948530740000       8.712192138800
       295    1       68.836676466100       3.974623036000       7.921402394200
       296    1       65.394475397400       9.935723036000       7.921402394200
       297    2       63.673922117200       4.968004584400      11.565507861200
       298    2       67.115421048500      10.929104584400      11.565507861200
       299    1       67.115992395600       2.980919588200      12.356297605800
       300    1       63.673798210600       8.942019588200      12.356297605800
       301    2       67.115799652000       4.967980740000       8.712192138800
       302    2       63.673598583300      10.929080740000       8.712192138800
       303    1       61.953396371800       0.000369588200      12.356297605800
       304    1       65.394895303100       5.961469588200      12.356297605800
       305    2       67.115772117200       4.968004584400      11.565507861200
       306    2       63.673571048500      10.929104584400      11.565507861200
       307    2       65.395019209700       1.987454584400      11.565507861200
       308    2       68.836518141000       7.948554584400      11.565507861200
       309    1       65.395246371800       0.000369588200      12.356297605800
       310    1       68.836745303100       5.961469588200      12.356297605800
       311    2       68.836869209700       1.987454584400      11.565507861200
       312    2       65.394668141000       7.948554584400      11.565507861200
       313    1       63.674142395600       2.980919588200      12.356297605800
       314    1       67.115648210600       8.942019588200      12.356297605800
       315    1       65.394826466100       3.974623036000       7.921402394200
       316    1       68.836325397400       9.935723036000       7.921402394200
       317    2       63.673949652000       4.967980740000       8.712192138800
       318    2       67.115448583300      10.929080740000       8.712192138800
       319    2       65.395046744500       1.987430740000       8.712192138800
       320    2       68.836552559500       7.948530740000       8.712192138800
       321    1       73.999623558600       0.994073036000       7.921402394200
       322    1       70.557422489900       6.955173036000       7.921402394200
       323    1       70.557773558600       0.994073036000       7.921402394200
       324    2       75.720596744500       1.987430740000       8.712192138800
       325    1       73.999272489900       6.955173036000       7.921402394200
       326    2       72.278402559500       7.948530740000       8.712192138800
       327    1       75.720376466100       3.974623036000       7.921402394200
       328    1       72.278175397400       9.935723036000       7.921402394200
       329    2       70.557622117200       4.968004584400      11.565507861200
       330    2       73.999121048500      10.929104584400      11.565507861200
       331    1       73.999692395600       2.980919588200      12.356297605800
       332    1       70.557498210600       8.942019588200      12.356297605800
       333    2       73.999499652000       4.967980740000       8.712192138800
       334    2       70.557298583300      10.929080740000       8.712192138800
       335    1       68.837096371800       0.000369588200      12.356297605800
       336    1       72.278595303100       5.961469588200      12.356297605800
       337    2       73.999472117200       4.968004584400      11.565507861200
       338    2       70.557271048500      10.929104584400      11.565507861200
       339    2       72.278719209700       1.987454584400      11.565507861200
       340    2       75.720218141000       7.948554584400      11.565507861200
       341    1       72.278946371800       0.000369588200      12.356297605800
       342    1       75.720445303100       5.961469588200      12.356297605800
       343    2       75.720569209700       1.987454584400      11.565507861200
       344    2       72.278368141000       7.948554584400      11.565507861200
       345    1       70.557842395600       2.980919588200      12.356297605800
       346    1       73.999348210600       8.942019588200      12.356297605800
       347    1       72.278526466100       3.974623036000       7.921402394200
       348    1       75.720025397400       9.935723036000       7.921402394200
       349    2       70.557649652000       4.967980740000       8.712192138800
       350    2       73.999148583300      10.929080740000       8.712192138800
       351    2       72.278746744500       1.987430740000       8.712192138800
       352    2       75.720252559500       7.948530740000       8.712192138800
       353    1       80.883323558600       0.994073036000       7.921402394200
       354    1       77.441122489900       6.955173036000       7.921402394200
       355    1       77.441473558600       0.994073036000       7.921402394200
       356    2       82.604296744500       1.987430740000       8.712192138800
       357    1       80.882972489900       6.955173036000       7.921402394200
       358    2       79.162102559500       7.948530740000       8.712192138800
       359    1       82.604076466100       3.974623036000       7.921402394200
       360    1       79.161875397400       9.935723036000       7.921402394200
       361    2       77.441322117200       4.968004584400      11.565507861200
       362    2       80.882821048500      10.929104584400      11.565507861200
       363    1       80.883392395600       2.980919588200      12.356297605800
       364    1       77.441198210600       8.942019588200      12.356297605800
       365    2       80.883199652000       4.967980740000       8.712192138800
       366    2       77.440998583300      10.929080740000       8.712192138800
       367    1       75.720796371800       0.000369588200      12.356297605800
       368    1       79.162295303100       5.961469588200      12.356297605800
       369    2       80.883172117200       4.968004584400      11.565507861200
       370    2       77.440971048500      10.929104584400      11.565507861200