 # In16 S16
  
        2912  atoms
           2  atom types
 
      0.000000000000     101.907000000000  xlo xhi
      0.000000000000      95.042500000000  ylo yhi
      0.000000000000      20.167400000000  zlo zhi
 
Masses
 
            1   114.81800000            # In
            2   32.06000000             # S
 
Atoms # atomic
 
         1    1        1.959648093000       5.657852870000       8.674805436000
         2    1        3.919398093000       2.263477870000       8.674805436000
         3    1        3.919601907000       2.263274207500      11.492594564000
         4    2        7.838890254000       0.000203662500      12.667406116200
         5    1        0.000101907000       9.052024207500      11.492594564000
         6    1        5.879148093000      12.446602870000       8.674805436000
         7    1        7.838898093000       9.052227870000       8.674805436000
         8    2        3.919390254000       6.788953662500      12.667406116200
         9    1        7.838898093000       2.263477870000       8.674805436000
        10    1        3.919398093000       9.052227870000       8.674805436000
        11    2        3.919609746000       4.525869540000       7.499993883800
        12    2        0.000109746000      11.314619540000       7.499993883800
        13    1        1.959851907000       5.657649207500      11.492594564000
        14    2        5.879359746000       1.131494540000       7.499993883800
        15    2        5.879140254000       3.394578662500      12.667406116200
        16    2        1.959859746000       7.920244540000       7.499993883800
        17    2        1.959640254000      10.183328662500      12.667406116200
        18    1        5.879351907000      12.446399207500      11.492594564000
        19    1        5.879351907000       5.657649207500      11.492594564000
        20    1        1.959851907000      12.446399207500      11.492594564000
        21    2        1.959859746000       1.131494540000       7.499993883800
        22    2        5.879359746000       7.920244540000       7.499993883800
        23    1        5.879148093000       5.657852870000       8.674805436000
        24    1        1.959648093000      12.446602870000       8.674805436000
        25    2        1.959640254000       3.394578662500      12.667406116200
        26    2        5.879140254000      10.183328662500      12.667406116200
        27    1        0.000101907000       2.263274207500      11.492594564000
        28    1        3.919601907000       9.052024207500      11.492594564000
        29    2        3.919390254000       0.000203662500      12.667406116200
        30    2        7.838890254000       6.788953662500      12.667406116200
        31    2        0.000109746000       4.525869540000       7.499993883800
        32    2        3.919609746000      11.314619540000       7.499993883800
        33    1        9.798648093000       5.657852870000       8.674805436000
        34    1       11.758398093000       2.263477870000       8.674805436000
        35    1       11.758601907000       2.263274207500      11.492594564000
        36    2       15.677890254000       0.000203662500      12.667406116200
        37    1        7.839101907000       9.052024207500      11.492594564000
        38    1       13.718148093000      12.446602870000       8.674805436000
        39    1       15.677898093000       9.052227870000       8.674805436000
        40    2       11.758390254000       6.788953662500      12.667406116200
        41    1       15.677898093000       2.263477870000       8.674805436000
        42    1       11.758398093000       9.052227870000       8.674805436000
        43    2       11.758609746000       4.525869540000       7.499993883800
        44    2        7.839109746000      11.314619540000       7.499993883800
        45    1        9.798851907000       5.657649207500      11.492594564000
        46    2       13.718359746000       1.131494540000       7.499993883800
        47    2       13.718140254000       3.394578662500      12.667406116200
        48    2        9.798859746000       7.920244540000       7.499993883800
        49    2        9.798640254000      10.183328662500      12.667406116200
        50    1       13.718351907000      12.446399207500      11.492594564000
        51    1       13.718351907000       5.657649207500      11.492594564000
        52    1        9.798851907000      12.446399207500      11.492594564000
        53    2        9.798859746000       1.131494540000       7.499993883800
        54    2       13.718359746000       7.920244540000       7.499993883800
        55    1       13.718148093000       5.657852870000       8.674805436000
        56    1        9.798648093000      12.446602870000       8.674805436000
        57    2        9.798640254000       3.394578662500      12.667406116200
        58    2       13.718140254000      10.183328662500      12.667406116200
        59    1        7.839101907000       2.263274207500      11.492594564000
        60    1       11.758601907000       9.052024207500      11.492594564000
        61    2       11.758390254000       0.000203662500      12.667406116200
        62    2       15.677890254000       6.788953662500      12.667406116200
        63    2        7.839109746000       4.525869540000       7.499993883800
        64    2       11.758609746000      11.314619540000       7.499993883800
        65    1       17.637648093000       5.657852870000       8.674805436000
        66    1       19.597398093000       2.263477870000       8.674805436000
        67    1       19.597601907000       2.263274207500      11.492594564000
        68    2       23.516890254000       0.000203662500      12.667406116200
        69    1       15.678101907000       9.052024207500      11.492594564000
        70    1       21.557148093000      12.446602870000       8.674805436000
        71    1       23.516898093000       9.052227870000       8.674805436000
        72    2       19.597390254000       6.788953662500      12.667406116200
        73    1       23.516898093000       2.263477870000       8.674805436000
        74    1       19.597398093000       9.052227870000       8.674805436000
        75    2       19.597609746000       4.525869540000       7.499993883800
        76    2       15.678109746000      11.314619540000       7.499993883800
        77    1       17.637851907000       5.657649207500      11.492594564000
        78    2       21.557359746000       1.131494540000       7.499993883800
        79    2       21.557140254000       3.394578662500      12.667406116200
        80    2       17.637859746000       7.920244540000       7.499993883800
        81    2       17.637640254000      10.183328662500      12.667406116200
        82    1       21.557351907000      12.446399207500      11.492594564000
        83    1       21.557351907000       5.657649207500      11.492594564000
        84    1       17.637851907000      12.446399207500      11.492594564000
        85    2       17.637859746000       1.131494540000       7.499993883800
        86    2       21.557359746000       7.920244540000       7.499993883800
        87    1       21.557148093000       5.657852870000       8.674805436000
        88    1       17.637648093000      12.446602870000       8.674805436000
        89    2       17.637640254000       3.394578662500      12.667406116200
        90    2       21.557140254000      10.183328662500      12.667406116200
        91    1       15.678101907000       2.263274207500      11.492594564000
        92    1       19.597601907000       9.052024207500      11.492594564000
        93    2       19.597390254000       0.000203662500      12.667406116200
        94    2       23.516890254000       6.788953662500      12.667406116200
        95    2       15.678109746000       4.525869540000       7.499993883800
        96    2       19.597609746000      11.314619540000       7.499993883800
        97    1       25.476648093000       5.657852870000       8.674805436000
        98    1       27.436398093000       2.263477870000       8.674805436000
        99    1       27.436601907000       2.263274207500      11.492594564000
       100    2       31.355890254000       0.000203662500      12.667406116200
       101    1       23.517101907000       9.052024207500      11.492594564000
       102    1       29.396148093000      12.446602870000       8.674805436000
       103    1       31.355898093000       9.052227870000       8.674805436000
       104    2       27.436390254000       6.788953662500      12.667406116200
       105    1       31.355898093000       2.263477870000       8.674805436000
       106    1       27.436398093000       9.052227870000       8.674805436000
       107    2       27.436609746000       4.525869540000       7.499993883800
       108    2       23.517109746000      11.314619540000       7.499993883800
       109    1       25.476851907000       5.657649207500      11.492594564000
       110    2       29.396359746000       1.131494540000       7.499993883800
       111    2       29.396140254000       3.394578662500      12.667406116200
       112    2       25.476859746000       7.920244540000       7.499993883800
       113    2       25.476640254000      10.183328662500      12.667406116200
       114    1       29.396351907000      12.446399207500      11.492594564000
       115    1       29.396351907000       5.657649207500      11.492594564000
       116    1       25.476851907000      12.446399207500      11.492594564000
       117    2       25.476859746000       1.131494540000       7.499993883800
       118    2       29.396359746000       7.920244540000       7.499993883800
       119    1       29.396148093000       5.657852870000       8.674805436000
       120    1       25.476648093000      12.446602870000       8.674805436000
       121    2       25.476640254000       3.394578662500      12.667406116200
       122    2       29.396140254000      10.183328662500      12.667406116200
       123    1       23.517101907000       2.263274207500      11.492594564000
       124    1       27.436601907000       9.052024207500      11.492594564000
       125    2       27.436390254000       0.000203662500      12.667406116200
       126    2       31.355890254000       6.788953662500      12.667406116200
       127    2       23.517109746000       4.525869540000       7.499993883800
       128    2       27.436609746000      11.314619540000       7.499993883800
       129    1       33.315648093000       5.657852870000       8.674805436000
       130    1       35.275398093000       2.263477870000       8.674805436000
       131    1       35.275601907000       2.263274207500      11.492594564000
       132    2       39.194890254000       0.000203662500      12.667406116200
       133    1       31.356101907000       9.052024207500      11.492594564000
       134    1       37.235148093000      12.446602870000       8.674805436000
       135    1       39.194898093000       9.052227870000       8.674805436000
       136    2       35.275390254000       6.788953662500      12.667406116200
       137    1       39.194898093000       2.263477870000       8.674805436000
       138    1       35.275398093000       9.052227870000       8.674805436000
       139    2       35.275609746000       4.525869540000       7.499993883800
       140    2       31.356109746000      11.314619540000       7.499993883800
       141    1       33.315851907000       5.657649207500      11.492594564000
       142    2       37.235359746000       1.131494540000       7.499993883800
       143    2       37.235140254000       3.394578662500      12.667406116200
       144    2       33.315859746000       7.920244540000       7.499993883800
       145    2       33.315640254000      10.183328662500      12.667406116200
       146    1       37.235351907000      12.446399207500      11.492594564000
       147    1       37.235351907000       5.657649207500      11.492594564000
       148    1       33.315851907000      12.446399207500      11.492594564000
       149    2       33.315859746000       1.131494540000       7.499993883800
       150    2       37.235359746000       7.920244540000       7.499993883800
       151    1       37.235148093000       5.657852870000       8.674805436000
       152    1       33.315648093000      12.446602870000       8.674805436000
       153    2       33.315640254000       3.394578662500      12.667406116200
       154    2       37.235140254000      10.183328662500      12.667406116200
       155    1       31.356101907000       2.263274207500      11.492594564000
       156    1       35.275601907000       9.052024207500      11.492594564000
       157    2       35.275390254000       0.000203662500      12.667406116200
       158    2       39.194890254000       6.788953662500      12.667406116200
       159    2       31.356109746000       4.525869540000       7.499993883800
       160    2       35.275609746000      11.314619540000       7.499993883800
       161    1       41.154648093000       5.657852870000       8.674805436000
       162    1       43.114398093000       2.263477870000       8.674805436000
       163    1       43.114601907000       2.263274207500      11.492594564000
       164    2       47.033890254000       0.000203662500      12.667406116200
       165    1       39.195101907000       9.052024207500      11.492594564000
       166    1       45.074148093000      12.446602870000       8.674805436000
       167    1       47.033898093000       9.052227870000       8.674805436000
       168    2       43.114390254000       6.788953662500      12.667406116200
       169    1       47.033898093000       2.263477870000       8.674805436000
       170    1       43.114398093000       9.052227870000       8.674805436000
       171    2       43.114609746000       4.525869540000       7.499993883800
       172    2       39.195109746000      11.314619540000       7.499993883800
       173    1       41.154851907000       5.657649207500      11.492594564000
       174    2       45.074359746000       1.131494540000       7.499993883800
       175    2       45.074140254000       3.394578662500      12.667406116200
       176    2       41.154859746000       7.920244540000       7.499993883800
       177    2       41.154640254000      10.183328662500      12.667406116200
       178    1       45.074351907000      12.446399207500      11.492594564000
       179    1       45.074351907000       5.657649207500      11.492594564000
       180    1       41.154851907000      12.446399207500      11.492594564000
       181    2       41.154859746000       1.131494540000       7.499993883800
       182    2       45.074359746000       7.920244540000       7.499993883800
       183    1       45.074148093000       5.657852870000       8.674805436000
       184    1       41.154648093000      12.446602870000       8.674805436000
       185    2       41.154640254000       3.394578662500      12.667406116200
       186    2       45.074140254000      10.183328662500      12.667406116200
       187    1       39.195101907000       2.263274207500      11.492594564000
       188    1       43.114601907000       9.052024207500      11.492594564000
       189    2       43.114390254000       0.000203662500      12.667406116200
       190    2       47.033890254000       6.788953662500      12.667406116200
       191    2       39.195109746000       4.525869540000       7.499993883800
       192    2       43.114609746000      11.314619540000       7.499993883800
       193    1       48.993648093000       5.657852870000       8.674805436000
       194    1       50.953398093000       2.263477870000       8.674805436000
       195    1       50.953601907000       2.263274207500      11.492594564000
       196    2       54.872890254000       0.000203662500      12.667406116200
       197    1       47.034101907000       9.052024207500      11.492594564000
       198    1       52.913148093000      12.446602870000       8.674805436000
       199    1       54.872898093000       9.052227870000       8.674805436000
       200    2       50.953390254000       6.788953662500      12.667406116200
       201    1       54.872898093000       2.263477870000       8.674805436000
       202    1       50.953398093000       9.052227870000       8.674805436000
       203    2       50.953609746000       4.525869540000       7.499993883800
       204    2       47.034109746000      11.314619540000       7.499993883800
       205    1       48.993851907000       5.657649207500      11.492594564000
       206    2       52.913359746000       1.131494540000       7.499993883800
       207    2       52.913140254000       3.394578662500      12.667406116200
       208    2       48.993859746000       7.920244540000       7.499993883800
       209    2       48.993640254000      10.183328662500      12.667406116200
       210    1       52.913351907000      12.446399207500      11.492594564000
       211    1       52.913351907000       5.657649207500      11.492594564000
       212    1       48.993851907000      12.446399207500      11.492594564000
       213    2       48.993859746000       1.131494540000       7.499993883800
       214    2       52.913359746000       7.920244540000       7.499993883800
       215    1       52.913148093000       5.657852870000       8.674805436000
       216    1       48.993648093000      12.446602870000       8.674805436000
       217    2       48.993640254000       3.394578662500      12.667406116200
       218    2       52.913140254000      10.183328662500      12.667406116200
       219    1       47.034101907000       2.263274207500      11.492594564000
       220    1       50.953601907000       9.052024207500      11.492594564000
       221    2       50.953390254000       0.000203662500      12.667406116200
       222    2       54.872890254000       6.788953662500      12.667406116200
       223    2       47.034109746000       4.525869540000       7.499993883800
       224    2       50.953609746000      11.314619540000       7.499993883800
       225    1       56.832648093000       5.657852870000       8.674805436000
       226    1       58.792398093000       2.263477870000       8.674805436000
       227    1       58.792601907000       2.263274207500      11.492594564000
       228    2       62.711890254000       0.000203662500      12.667406116200
       229    1       54.873101907000       9.052024207500      11.492594564000
       230    1       60.752148093000      12.446602870000       8.674805436000
       231    1       62.711898093000       9.052227870000       8.674805436000
       232    2       58.792390254000       6.788953662500      12.667406116200
       233    1       62.711898093000       2.263477870000       8.674805436000
       234    1       58.792398093000       9.052227870000       8.674805436000
       235    2       58.792609746000       4.525869540000       7.499993883800
       236    2       54.873109746000      11.314619540000       7.499993883800
       237    1       56.832851907000       5.657649207500      11.492594564000
       238    2       60.752359746000       1.131494540000       7.499993883800
       239    2       60.752140254000       3.394578662500      12.667406116200
       240    2       56.832859746000       7.920244540000       7.499993883800
       241    2       56.832640254000      10.183328662500      12.667406116200
       242    1       60.752351907000      12.446399207500      11.492594564000
       243    1       60.752351907000       5.657649207500      11.492594564000
       244    1       56.832851907000      12.446399207500      11.492594564000
       245    2       56.832859746000       1.131494540000       7.499993883800
       246    2       60.752359746000       7.920244540000       7.499993883800
       247    1       60.752148093000       5.657852870000       8.674805436000
       248    1       56.832648093000      12.446602870000       8.674805436000
       249    2       56.832640254000       3.394578662500      12.667406116200
       250    2       60.752140254000      10.183328662500      12.667406116200
       251    1       54.873101907000       2.263274207500      11.492594564000
       252    1       58.792601907000       9.052024207500      11.492594564000
       253    2       58.792390254000       0.000203662500      12.667406116200
       254    2       62.711890254000       6.788953662500      12.667406116200
       255    2       54.873109746000       4.525869540000       7.499993883800
       256    2       58.792609746000      11.314619540000       7.499993883800
       257    1       64.671648093000       5.657852870000       8.674805436000
       258    1       66.631398093000       2.263477870000       8.674805436000
       259    1       66.631601907000       2.263274207500      11.492594564000
       260    2       70.550890254000       0.000203662500      12.667406116200
       261    1       62.712101907000       9.052024207500      11.492594564000
       262    1       68.591148093000      12.446602870000       8.674805436000
       263    1       70.550898093000       9.052227870000       8.674805436000
       264    2       66.631390254000       6.788953662500      12.667406116200
       265    1       70.550898093000       2.263477870000       8.674805436000
       266    1       66.631398093000       9.052227870000       8.674805436000
       267    2       66.631609746000       4.525869540000       7.499993883800
       268    2       62.712109746000      11.314619540000       7.499993883800
       269    1       64.671851907000       5.657649207500      11.492594564000
       270    2       68.591359746000       1.131494540000       7.499993883800
       271    2       68.591140254000       3.394578662500      12.667406116200
       272    2       64.671859746000       7.920244540000       7.499993883800
       273    2       64.671640254000      10.183328662500      12.667406116200
       274    1       68.591351907000      12.446399207500      11.492594564000
       275    1       68.591351907000       5.657649207500      11.492594564000
       276    1       64.671851907000      12.446399207500      11.492594564000
       277    2       64.671859746000       1.131494540000       7.499993883800
       278    2       68.591359746000       7.920244540000       7.499993883800
       279    1       68.591148093000       5.657852870000       8.674805436000
       280    1       64.671648093000      12.446602870000       8.674805436000
       281    2       64.671640254000       3.394578662500      12.667406116200
       282    2       68.591140254000      10.183328662500      12.667406116200
       283    1       62.712101907000       2.263274207500      11.492594564000
       284    1       66.631601907000       9.052024207500      11.492594564000
       285    2       66.631390254000       0.000203662500      12.667406116200
       286    2       70.550890254000       6.788953662500      12.667406116200
       287    2       62.712109746000       4.525869540000       7.499993883800
       288    2       66.631609746000      11.314619540000       7.499993883800
       289    1       72.510648093000       5.657852870000       8.674805436000
       290    1       74.470398093000       2.263477870000       8.674805436000
       291    1       74.470601907000       2.263274207500      11.492594564000
       292    2       78.389890254000       0.000203662500      12.667406116200
       293    1       70.551101907000       9.052024207500      11.492594564000
       294    1       76.430148093000      12.446602870000       8.674805436000
       295    1       78.389898093000       9.052227870000       8.674805436000
       296    2       74.470390254000       6.788953662500      12.667406116200
       297    1       78.389898093000       2.263477870000       8.674805436000
       298    1       74.470398093000       9.052227870000       8.674805436000
       299    2       74.470609746000       4.525869540000       7.499993883800
       300    2       70.551109746000      11.314619540000       7.499993883800
       301    1       72.510851907000       5.657649207500      11.492594564000
       302    2       76.430359746000       1.131494540000       7.499993883800
       303    2       76.430140254000       3.394578662500      12.667406116200
       304    2       72.510859746000       7.920244540000       7.499993883800
       305    2       72.510640254000      10.183328662500      12.667406116200
       306    1       76.430351907000      12.446399207500      11.492594564000
       307    1       76.430351907000       5.657649207500      11.492594564000
       308    1       72.510851907000      12.446399207500      11.492594564000
       309    2       72.510859746000       1.131494540000       7.499993883800
       310    2       76.430359746000       7.920244540000       7.499993883800
       311    1       76.430148093000       5.657852870000       8.674805436000
       312    1       72.510648093000      12.446602870000       8.674805436000
       313    2       72.510640254000       3.394578662500      12.667406116200
       314    2       76.430140254000      10.183328662500      12.667406116200
       315    1       70.551101907000       2.263274207500      11.492594564000
       316    1       74.470601907000       9.052024207500      11.492594564000
       317    2       74.470390254000       0.000203662500      12.667406116200
       318    2       78.389890254000       6.788953662500      12.667406116200
       319    2       70.551109746000       4.525869540000       7.499993883800
       320    2       74.470609746000      11.314619540000       7.499993883800
       321    1       80.349648093000       5.657852870000       8.674805436000
       322    1       82.309398093000       2.263477870000       8.674805436000
       323    1       82.309601907000       2.263274207500      11.492594564000
       324    2       86.228890254000       0.000203662500      12.667406116200
       325    1       78.390101907000       9.052024207500      11.492594564000
       326    1       84.269148093000      12.446602870000       8.674805436000
       327    1       86.228898093000       9.052227870000       8.674805436000
       328    2       82.309390254000       6.788953662500      12.667406116200
       329    1       86.228898093000       2.263477870000       8.674805436000
       330    1       82.309398093000       9.052227870000       8.674805436000
       331    2       82.309609746000       4.525869540000       7.499993883800
       332    2       78.390109746000      11.314619540000       7.499993883800
       333    1       80.349851907000       5.657649207500      11.492594564000
       334    2       84.269359746000       1.131494540000       7.499993883800
       335    2       84.269140254000       3.394578662500      12.667406116200
       336    2       80.349859746000       7.920244540000       7.499993883800
       337    2       80.349640254000      10.183328662500      12.667406116200
       338    1       84.269351907000      12.446399207500      11.492594564000
       339    1       84.269351907000       5.657649207500      11.492594564000
       340    1       80.349851907000      12.446399207500      11.492594564000
       341    2       80.349859746000       1.131494540000       7.499993883800
       342    2       84.269359746000       7.920244540000       7.499993883800
       343    1       84.269148093000       5.657852870000       8.674805436000
       344    1       80.349648093000      12.446602870000       8.674805436000
       345    2       80.349640254000       3.394578662500      12.667406116200
       346    2       84.269140254000      10.183328662500      12.667406116200
       347    1       78.390101907000       2.263274207500      11.492594564000
       348    1       82.309601907000       9.052024207500      11.492594564000
       349    2       82.309390254000       0.000203662500      12.667406116200
       350    2       86.228890254000       6.788953662500      12.667406116200
       351    2       78.390109746000       4.525869540000       7.499993883800
       352    2       82.309609746000      11.314619540000       7.499993883800
       353    1       88.188648093000       5.657852870000       8.674805436000
       354    1       90.148398093000       2.263477870000       8.674805436000
       355    1       90.148601907000       2.263274207500      11.492594564000
       356    2       94.067890254000       0.000203662500      12.667406116200
       357    1       86.229101907000       9.052024207500      11.492594564000
       358    1       92.108148093000      12.446602870000       8.674805436000
       359    1       94.067898093000       9.052227870000       8.674805436000
       360    2       90.148390254000       6.788953662500      12.667406116200
       361    1       94.067898093000       2.263477870000       8.674805436000
       362    1       90.148398093000       9.052227870000       8.674805436000
       363    2       90.148609746000       4.525869540000       7.499993883800
       364    2       86.229109746000      11.314619540000       7.499993883800
       365    1       88.188851907000       5.657649207500      11.492594564000
       366    2       92.108359746000       1.131494540000       7.499993883800
       367    2       92.108140254000       3.394578662500      12.667406116200
       368    2       88.188859746000       7.920244540000       7.499993883800
       369    2       88.188640254000      10.183328662500      12.667406116200
       370    1       92.108351907000      12.446399207500      11.492594564000