 # Se16 In16
  
        2688  atoms
           2  atom types
 
      0.000000000000      98.032800000000  xlo xhi
      0.000000000000      99.048600000000  ylo yhi
      0.000000000000      20.355700000000  zlo zhi
 
Masses
 
            1   78.96000000             # Se
            2   114.81800000            # In
 
Atoms # atomic
 
         1    1        2.042268306000       3.537648097200      12.855703402100
         2    1        4.084781694000       4.716666032400       7.499996597900
         3    1        6.126968306000      10.612548097200      12.855703402100
         4    1        0.000081694000      11.791566032400       7.499996597900
         5    2        6.126976475400       5.896377307800       8.770395834900
         6    1        0.000081694000       4.716666032400       7.499996597900
         7    2        2.042276475400      12.971277307800       8.770395834900
         8    2        2.042423524600       5.896165060800      11.585304165100
         9    1        4.084781694000      11.791566032400       7.499996597900
        10    2        4.084626475400       2.358927307800       8.770395834900
        11    1        6.126968306000       3.537648097200      12.855703402100
        12    2        6.127123524600      12.971065060800      11.585304165100
        13    2        6.127123524600       5.896165060800      11.585304165100
        14    1        2.042268306000      10.612548097200      12.855703402100
        15    2        8.169326475400       9.433827307800       8.770395834900
        16    2        2.042423524600      12.971065060800      11.585304165100
        17    1        8.169318306000       0.000198097200      12.855703402100
        18    1        4.084618306000       7.075098097200      12.855703402100
        19    2        0.000073524600       2.358715060800      11.585304165100
        20    2        4.084773524600       9.433615060800      11.585304165100
        21    2        4.084773524600       2.358715060800      11.585304165100
        22    2        0.000073524600       9.433615060800      11.585304165100
        23    1        2.042431694000       1.179216032400       7.499996597900
        24    1        4.084618306000       0.000198097200      12.855703402100
        25    2        8.169326475400       2.358927307800       8.770395834900
        26    1        6.127131694000       8.254116032400       7.499996597900
        27    2        4.084626475400       9.433827307800       8.770395834900
        28    1        8.169318306000       7.075098097200      12.855703402100
        29    2        2.042276475400       5.896377307800       8.770395834900
        30    2        6.126976475400      12.971277307800       8.770395834900
        31    1        6.127131694000       1.179216032400       7.499996597900
        32    1        2.042431694000       8.254116032400       7.499996597900
        33    1       10.211668306000       3.537648097200      12.855703402100
        34    1       12.254181694000       4.716666032400       7.499996597900
        35    1       14.296368306000      10.612548097200      12.855703402100
        36    1        8.169481694000      11.791566032400       7.499996597900
        37    2       14.296376475400       5.896377307800       8.770395834900
        38    1        8.169481694000       4.716666032400       7.499996597900
        39    2       10.211676475400      12.971277307800       8.770395834900
        40    2       10.211823524600       5.896165060800      11.585304165100
        41    1       12.254181694000      11.791566032400       7.499996597900
        42    2       12.254026475400       2.358927307800       8.770395834900
        43    1       14.296368306000       3.537648097200      12.855703402100
        44    2       14.296523524600      12.971065060800      11.585304165100
        45    2       14.296523524600       5.896165060800      11.585304165100
        46    1       10.211668306000      10.612548097200      12.855703402100
        47    2       16.338726475400       9.433827307800       8.770395834900
        48    2       10.211823524600      12.971065060800      11.585304165100
        49    1       16.338718306000       0.000198097200      12.855703402100
        50    1       12.254018306000       7.075098097200      12.855703402100
        51    2        8.169473524600       2.358715060800      11.585304165100
        52    2       12.254173524600       9.433615060800      11.585304165100
        53    2       12.254173524600       2.358715060800      11.585304165100
        54    2        8.169473524600       9.433615060800      11.585304165100
        55    1       10.211831694000       1.179216032400       7.499996597900
        56    1       12.254018306000       0.000198097200      12.855703402100
        57    2       16.338726475400       2.358927307800       8.770395834900
        58    1       14.296531694000       8.254116032400       7.499996597900
        59    2       12.254026475400       9.433827307800       8.770395834900
        60    1       16.338718306000       7.075098097200      12.855703402100
        61    2       10.211676475400       5.896377307800       8.770395834900
        62    2       14.296376475400      12.971277307800       8.770395834900
        63    1       14.296531694000       1.179216032400       7.499996597900
        64    1       10.211831694000       8.254116032400       7.499996597900
        65    1       18.381068306000       3.537648097200      12.855703402100
        66    1       20.423581694000       4.716666032400       7.499996597900
        67    1       22.465768306000      10.612548097200      12.855703402100
        68    1       16.338881694000      11.791566032400       7.499996597900
        69    2       22.465776475400       5.896377307800       8.770395834900
        70    1       16.338881694000       4.716666032400       7.499996597900
        71    2       18.381076475400      12.971277307800       8.770395834900
        72    2       18.381223524600       5.896165060800      11.585304165100
        73    1       20.423581694000      11.791566032400       7.499996597900
        74    2       20.423426475400       2.358927307800       8.770395834900
        75    1       22.465768306000       3.537648097200      12.855703402100
        76    2       22.465923524600      12.971065060800      11.585304165100
        77    2       22.465923524600       5.896165060800      11.585304165100
        78    1       18.381068306000      10.612548097200      12.855703402100
        79    2       24.508126475400       9.433827307800       8.770395834900
        80    2       18.381223524600      12.971065060800      11.585304165100
        81    1       24.508118306000       0.000198097200      12.855703402100
        82    1       20.423418306000       7.075098097200      12.855703402100
        83    2       16.338873524600       2.358715060800      11.585304165100
        84    2       20.423573524600       9.433615060800      11.585304165100
        85    2       20.423573524600       2.358715060800      11.585304165100
        86    2       16.338873524600       9.433615060800      11.585304165100
        87    1       18.381231694000       1.179216032400       7.499996597900
        88    1       20.423418306000       0.000198097200      12.855703402100
        89    2       24.508126475400       2.358927307800       8.770395834900
        90    1       22.465931694000       8.254116032400       7.499996597900
        91    2       20.423426475400       9.433827307800       8.770395834900
        92    1       24.508118306000       7.075098097200      12.855703402100
        93    2       18.381076475400       5.896377307800       8.770395834900
        94    2       22.465776475400      12.971277307800       8.770395834900
        95    1       22.465931694000       1.179216032400       7.499996597900
        96    1       18.381231694000       8.254116032400       7.499996597900
        97    1       26.550468306000       3.537648097200      12.855703402100
        98    1       28.592981694000       4.716666032400       7.499996597900
        99    1       30.635168306000      10.612548097200      12.855703402100
       100    1       24.508281694000      11.791566032400       7.499996597900
       101    2       30.635176475400       5.896377307800       8.770395834900
       102    1       24.508281694000       4.716666032400       7.499996597900
       103    2       26.550476475400      12.971277307800       8.770395834900
       104    2       26.550623524600       5.896165060800      11.585304165100
       105    1       28.592981694000      11.791566032400       7.499996597900
       106    2       28.592826475400       2.358927307800       8.770395834900
       107    1       30.635168306000       3.537648097200      12.855703402100
       108    2       30.635323524600      12.971065060800      11.585304165100
       109    2       30.635323524600       5.896165060800      11.585304165100
       110    1       26.550468306000      10.612548097200      12.855703402100
       111    2       32.677526475400       9.433827307800       8.770395834900
       112    2       26.550623524600      12.971065060800      11.585304165100
       113    1       32.677518306000       0.000198097200      12.855703402100
       114    1       28.592818306000       7.075098097200      12.855703402100
       115    2       24.508273524600       2.358715060800      11.585304165100
       116    2       28.592973524600       9.433615060800      11.585304165100
       117    2       28.592973524600       2.358715060800      11.585304165100
       118    2       24.508273524600       9.433615060800      11.585304165100
       119    1       26.550631694000       1.179216032400       7.499996597900
       120    1       28.592818306000       0.000198097200      12.855703402100
       121    2       32.677526475400       2.358927307800       8.770395834900
       122    1       30.635331694000       8.254116032400       7.499996597900
       123    2       28.592826475400       9.433827307800       8.770395834900
       124    1       32.677518306000       7.075098097200      12.855703402100
       125    2       26.550476475400       5.896377307800       8.770395834900
       126    2       30.635176475400      12.971277307800       8.770395834900
       127    1       30.635331694000       1.179216032400       7.499996597900
       128    1       26.550631694000       8.254116032400       7.499996597900
       129    1       34.719868306000       3.537648097200      12.855703402100
       130    1       36.762381694000       4.716666032400       7.499996597900
       131    1       38.804568306000      10.612548097200      12.855703402100
       132    1       32.677681694000      11.791566032400       7.499996597900
       133    2       38.804576475400       5.896377307800       8.770395834900
       134    1       32.677681694000       4.716666032400       7.499996597900
       135    2       34.719876475400      12.971277307800       8.770395834900
       136    2       34.720023524600       5.896165060800      11.585304165100
       137    1       36.762381694000      11.791566032400       7.499996597900
       138    2       36.762226475400       2.358927307800       8.770395834900
       139    1       38.804568306000       3.537648097200      12.855703402100
       140    2       38.804723524600      12.971065060800      11.585304165100
       141    2       38.804723524600       5.896165060800      11.585304165100
       142    1       34.719868306000      10.612548097200      12.855703402100
       143    2       40.846926475400       9.433827307800       8.770395834900
       144    2       34.720023524600      12.971065060800      11.585304165100
       145    1       40.846918306000       0.000198097200      12.855703402100
       146    1       36.762218306000       7.075098097200      12.855703402100
       147    2       32.677673524600       2.358715060800      11.585304165100
       148    2       36.762373524600       9.433615060800      11.585304165100
       149    2       36.762373524600       2.358715060800      11.585304165100
       150    2       32.677673524600       9.433615060800      11.585304165100
       151    1       34.720031694000       1.179216032400       7.499996597900
       152    1       36.762218306000       0.000198097200      12.855703402100
       153    2       40.846926475400       2.358927307800       8.770395834900
       154    1       38.804731694000       8.254116032400       7.499996597900
       155    2       36.762226475400       9.433827307800       8.770395834900
       156    1       40.846918306000       7.075098097200      12.855703402100
       157    2       34.719876475400       5.896377307800       8.770395834900
       158    2       38.804576475400      12.971277307800       8.770395834900
       159    1       38.804731694000       1.179216032400       7.499996597900
       160    1       34.720031694000       8.254116032400       7.499996597900
       161    1       42.889268306000       3.537648097200      12.855703402100
       162    1       44.931781694000       4.716666032400       7.499996597900
       163    1       46.973968306000      10.612548097200      12.855703402100
       164    1       40.847081694000      11.791566032400       7.499996597900
       165    2       46.973976475400       5.896377307800       8.770395834900
       166    1       40.847081694000       4.716666032400       7.499996597900
       167    2       42.889276475400      12.971277307800       8.770395834900
       168    2       42.889423524600       5.896165060800      11.585304165100
       169    1       44.931781694000      11.791566032400       7.499996597900
       170    2       44.931626475400       2.358927307800       8.770395834900
       171    1       46.973968306000       3.537648097200      12.855703402100
       172    2       46.974123524600      12.971065060800      11.585304165100
       173    2       46.974123524600       5.896165060800      11.585304165100
       174    1       42.889268306000      10.612548097200      12.855703402100
       175    2       49.016326475400       9.433827307800       8.770395834900
       176    2       42.889423524600      12.971065060800      11.585304165100
       177    1       49.016318306000       0.000198097200      12.855703402100
       178    1       44.931618306000       7.075098097200      12.855703402100
       179    2       40.847073524600       2.358715060800      11.585304165100
       180    2       44.931773524600       9.433615060800      11.585304165100
       181    2       44.931773524600       2.358715060800      11.585304165100
       182    2       40.847073524600       9.433615060800      11.585304165100
       183    1       42.889431694000       1.179216032400       7.499996597900
       184    1       44.931618306000       0.000198097200      12.855703402100
       185    2       49.016326475400       2.358927307800       8.770395834900
       186    1       46.974131694000       8.254116032400       7.499996597900
       187    2       44.931626475400       9.433827307800       8.770395834900
       188    1       49.016318306000       7.075098097200      12.855703402100
       189    2       42.889276475400       5.896377307800       8.770395834900
       190    2       46.973976475400      12.971277307800       8.770395834900
       191    1       46.974131694000       1.179216032400       7.499996597900
       192    1       42.889431694000       8.254116032400       7.499996597900
       193    1       51.058668306000       3.537648097200      12.855703402100
       194    1       53.101181694000       4.716666032400       7.499996597900
       195    1       55.143368306000      10.612548097200      12.855703402100
       196    1       49.016481694000      11.791566032400       7.499996597900
       197    2       55.143376475400       5.896377307800       8.770395834900
       198    1       49.016481694000       4.716666032400       7.499996597900
       199    2       51.058676475400      12.971277307800       8.770395834900
       200    2       51.058823524600       5.896165060800      11.585304165100
       201    1       53.101181694000      11.791566032400       7.499996597900
       202    2       53.101026475400       2.358927307800       8.770395834900
       203    1       55.143368306000       3.537648097200      12.855703402100
       204    2       55.143523524600      12.971065060800      11.585304165100
       205    2       55.143523524600       5.896165060800      11.585304165100
       206    1       51.058668306000      10.612548097200      12.855703402100
       207    2       57.185726475400       9.433827307800       8.770395834900
       208    2       51.058823524600      12.971065060800      11.585304165100
       209    1       57.185718306000       0.000198097200      12.855703402100
       210    1       53.101018306000       7.075098097200      12.855703402100
       211    2       49.016473524600       2.358715060800      11.585304165100
       212    2       53.101173524600       9.433615060800      11.585304165100
       213    2       53.101173524600       2.358715060800      11.585304165100
       214    2       49.016473524600       9.433615060800      11.585304165100
       215    1       51.058831694000       1.179216032400       7.499996597900
       216    1       53.101018306000       0.000198097200      12.855703402100
       217    2       57.185726475400       2.358927307800       8.770395834900
       218    1       55.143531694000       8.254116032400       7.499996597900
       219    2       53.101026475400       9.433827307800       8.770395834900
       220    1       57.185718306000       7.075098097200      12.855703402100
       221    2       51.058676475400       5.896377307800       8.770395834900
       222    2       55.143376475400      12.971277307800       8.770395834900
       223    1       55.143531694000       1.179216032400       7.499996597900
       224    1       51.058831694000       8.254116032400       7.499996597900
       225    1       59.228068306000       3.537648097200      12.855703402100
       226    1       61.270581694000       4.716666032400       7.499996597900
       227    1       63.312768306000      10.612548097200      12.855703402100
       228    1       57.185881694000      11.791566032400       7.499996597900
       229    2       63.312776475400       5.896377307800       8.770395834900
       230    1       57.185881694000       4.716666032400       7.499996597900
       231    2       59.228076475400      12.971277307800       8.770395834900
       232    2       59.228223524600       5.896165060800      11.585304165100
       233    1       61.270581694000      11.791566032400       7.499996597900
       234    2       61.270426475400       2.358927307800       8.770395834900
       235    1       63.312768306000       3.537648097200      12.855703402100
       236    2       63.312923524600      12.971065060800      11.585304165100
       237    2       63.312923524600       5.896165060800      11.585304165100
       238    1       59.228068306000      10.612548097200      12.855703402100
       239    2       65.355126475400       9.433827307800       8.770395834900
       240    2       59.228223524600      12.971065060800      11.585304165100
       241    1       65.355118306000       0.000198097200      12.855703402100
       242    1       61.270418306000       7.075098097200      12.855703402100
       243    2       57.185873524600       2.358715060800      11.585304165100
       244    2       61.270573524600       9.433615060800      11.585304165100
       245    2       61.270573524600       2.358715060800      11.585304165100
       246    2       57.185873524600       9.433615060800      11.585304165100
       247    1       59.228231694000       1.179216032400       7.499996597900
       248    1       61.270418306000       0.000198097200      12.855703402100
       249    2       65.355126475400       2.358927307800       8.770395834900
       250    1       63.312931694000       8.254116032400       7.499996597900
       251    2       61.270426475400       9.433827307800       8.770395834900
       252    1       65.355118306000       7.075098097200      12.855703402100
       253    2       59.228076475400       5.896377307800       8.770395834900
       254    2       63.312776475400      12.971277307800       8.770395834900
       255    1       63.312931694000       1.179216032400       7.499996597900
       256    1       59.228231694000       8.254116032400       7.499996597900
       257    1       67.397468306000       3.537648097200      12.855703402100
       258    1       69.439981694000       4.716666032400       7.499996597900
       259    1       71.482168306000      10.612548097200      12.855703402100
       260    1       65.355281694000      11.791566032400       7.499996597900
       261    2       71.482176475400       5.896377307800       8.770395834900
       262    1       65.355281694000       4.716666032400       7.499996597900
       263    2       67.397476475400      12.971277307800       8.770395834900
       264    2       67.397623524600       5.896165060800      11.585304165100
       265    1       69.439981694000      11.791566032400       7.499996597900
       266    2       69.439826475400       2.358927307800       8.770395834900
       267    1       71.482168306000       3.537648097200      12.855703402100
       268    2       71.482323524600      12.971065060800      11.585304165100
       269    2       71.482323524600       5.896165060800      11.585304165100
       270    1       67.397468306000      10.612548097200      12.855703402100
       271    2       73.524526475400       9.433827307800       8.770395834900
       272    2       67.397623524600      12.971065060800      11.585304165100
       273    1       73.524518306000       0.000198097200      12.855703402100
       274    1       69.439818306000       7.075098097200      12.855703402100
       275    2       65.355273524600       2.358715060800      11.585304165100
       276    2       69.439973524600       9.433615060800      11.585304165100
       277    2       69.439973524600       2.358715060800      11.585304165100
       278    2       65.355273524600       9.433615060800      11.585304165100
       279    1       67.397631694000       1.179216032400       7.499996597900
       280    1       69.439818306000       0.000198097200      12.855703402100
       281    2       73.524526475400       2.358927307800       8.770395834900
       282    1       71.482331694000       8.254116032400       7.499996597900
       283    2       69.439826475400       9.433827307800       8.770395834900
       284    1       73.524518306000       7.075098097200      12.855703402100
       285    2       67.397476475400       5.896377307800       8.770395834900
       286    2       71.482176475400      12.971277307800       8.770395834900
       287    1       71.482331694000       1.179216032400       7.499996597900
       288    1       67.397631694000       8.254116032400       7.499996597900
       289    1       75.566868306000       3.537648097200      12.855703402100
       290    1       77.609381694000       4.716666032400       7.499996597900
       291    1       79.651568306000      10.612548097200      12.855703402100
       292    1       73.524681694000      11.791566032400       7.499996597900
       293    2       79.651576475400       5.896377307800       8.770395834900
       294    1       73.524681694000       4.716666032400       7.499996597900
       295    2       75.566876475400      12.971277307800       8.770395834900
       296    2       75.567023524600       5.896165060800      11.585304165100
       297    1       77.609381694000      11.791566032400       7.499996597900
       298    2       77.609226475400       2.358927307800       8.770395834900
       299    1       79.651568306000       3.537648097200      12.855703402100
       300    2       79.651723524600      12.971065060800      11.585304165100
       301    2       79.651723524600       5.896165060800      11.585304165100
       302    1       75.566868306000      10.612548097200      12.855703402100
       303    2       81.693926475400       9.433827307800       8.770395834900
       304    2       75.567023524600      12.971065060800      11.585304165100
       305    1       81.693918306000       0.000198097200      12.855703402100
       306    1       77.609218306000       7.075098097200      12.855703402100
       307    2       73.524673524600       2.358715060800      11.585304165100
       308    2       77.609373524600       9.433615060800      11.585304165100
       309    2       77.609373524600       2.358715060800      11.585304165100
       310    2       73.524673524600       9.433615060800      11.585304165100
       311    1       75.567031694000       1.179216032400       7.499996597900
       312    1       77.609218306000       0.000198097200      12.855703402100
       313    2       81.693926475400       2.358927307800       8.770395834900
       314    1       79.651731694000       8.254116032400       7.499996597900
       315    2       77.609226475400       9.433827307800       8.770395834900
       316    1       81.693918306000       7.075098097200      12.855703402100
       317    2       75.566876475400       5.896377307800       8.770395834900
       318    2       79.651576475400      12.971277307800       8.770395834900
       319    1       79.651731694000       1.179216032400       7.499996597900
       320    1       75.567031694000       8.254116032400       7.499996597900
       321    1       83.736268306000       3.537648097200      12.855703402100
       322    1       85.778781694000       4.716666032400       7.499996597900
       323    1       87.820968306000      10.612548097200      12.855703402100
       324    1       81.694081694000      11.791566032400       7.499996597900
       325    2       87.820976475400       5.896377307800       8.770395834900
       326    1       81.694081694000       4.716666032400       7.499996597900
       327    2       83.736276475400      12.971277307800       8.770395834900
       328    2       83.736423524600       5.896165060800      11.585304165100
       329    1       85.778781694000      11.791566032400       7.499996597900
       330    2       85.778626475400       2.358927307800       8.770395834900
       331    1       87.820968306000       3.537648097200      12.855703402100
       332    2       87.821123524600      12.971065060800      11.585304165100
       333    2       87.821123524600       5.896165060800      11.585304165100
       334    1       83.736268306000      10.612548097200      12.855703402100
       335    2       89.863326475400       9.433827307800       8.770395834900
       336    2       83.736423524600      12.971065060800      11.585304165100
       337    1       89.863318306000       0.000198097200      12.855703402100
       338    1       85.778618306000       7.075098097200      12.855703402100
       339    2       81.694073524600       2.358715060800      11.585304165100
       340    2       85.778773524600       9.433615060800      11.585304165100
       341    2       85.778773524600       2.358715060800      11.585304165100
       342    2       81.694073524600       9.433615060800      11.585304165100
       343    1       83.736431694000       1.179216032400       7.499996597900
       344    1       85.778618306000       0.000198097200      12.855703402100
       345    2       89.863326475400       2.358927307800       8.770395834900
       346    1       87.821131694000       8.254116032400       7.499996597900
       347    2       85.778626475400       9.433827307800       8.770395834900
       348    1       89.863318306000       7.075098097200      12.855703402100
       349    2       83.736276475400       5.896377307800       8.770395834900
       350    2       87.820976475400      12.971277307800       8.770395834900
       351    1       87.821131694000       1.179216032400       7.499996597900
       352    1       83.736431694000       8.254116032400       7.499996597900
       353    1       91.905668306000       3.537648097200      12.855703402100
       354    1       93.948181694000       4.716666032400       7.499996597900
       355    1       95.990368306000      10.612548097200      12.855703402100
       356    1       89.863481694000      11.791566032400       7.499996597900
       357    2       95.990376475400       5.896377307800       8.770395834900
       358    1       89.863481694000       4.716666032400       7.499996597900
       359    2       91.905676475400      12.971277307800       8.770395834900
       360    2       91.905823524600       5.896165060800      11.585304165100
       361    1       93.948181694000      11.791566032400       7.499996597900
       362    2       93.948026475400       2.358927307800       8.770395834900
       363    1       95.990368306000       3.537648097200      12.855703402100
       364    2       95.990523524600      12.971065060800      11.585304165100
       365    2       95.990523524600       5.896165060800      11.585304165100
       366    1       91.905668306000      10.612548097200      12.855703402100
       367    2       98.032726475400       9.433827307800       8.770395834900
       368    2       91.905823524600      12.971065060800      11.585304165100
       369    1       98.032718306000       0.000198097200      12.855703402100
       370    1       93.948018306000       7.075098097200      12.855703402100