 # As16
  
        2240  atoms
           1  atom types
 
      0.000000000000     103.140800000000  xlo xhi
      0.000000000000      95.513000000000  ylo yhi
      0.000000000000      17.420000000000  zlo zhi
 
Masses
 
            1   74.92160000             # As
 
Atoms # atomic
 
         1    1        7.367200000000       0.056047028400       9.909401840000
         2    1        7.367200000000       4.146524971600       7.510598160000
         3    1        1.841800000000       2.443872028400       7.510598160000
         4    1        1.841800000000       1.758699971600       9.909401840000
         5    1        3.683600000000       0.056047028400       9.909401840000
         6    1        3.683600000000       4.146524971600       7.510598160000
         7    1        5.525400000000       2.443872028400       7.510598160000
         8    1        5.525400000000       1.758699971600       9.909401840000
         9    1        7.367200000000       4.831697028400       9.909401840000
        10    1        0.000000000000       8.922174971600       7.510598160000
        11    1        1.841800000000       7.219522028400       7.510598160000
        12    1        1.841800000000       6.534349971600       9.909401840000
        13    1        3.683600000000       4.831697028400       9.909401840000
        14    1        3.683600000000       8.922174971600       7.510598160000
        15    1        5.525400000000       7.219522028400       7.510598160000
        16    1        5.525400000000       6.534349971600       9.909401840000
        17    1       14.734400000000       0.056047028400       9.909401840000
        18    1       14.734400000000       4.146524971600       7.510598160000
        19    1        9.209000000000       2.443872028400       7.510598160000
        20    1        9.209000000000       1.758699971600       9.909401840000
        21    1       11.050800000000       0.056047028400       9.909401840000
        22    1       11.050800000000       4.146524971600       7.510598160000
        23    1       12.892600000000       2.443872028400       7.510598160000
        24    1       12.892600000000       1.758699971600       9.909401840000
        25    1       14.734400000000       4.831697028400       9.909401840000
        26    1        7.367200000000       8.922174971600       7.510598160000
        27    1        9.209000000000       7.219522028400       7.510598160000
        28    1        9.209000000000       6.534349971600       9.909401840000
        29    1       11.050800000000       4.831697028400       9.909401840000
        30    1       11.050800000000       8.922174971600       7.510598160000
        31    1       12.892600000000       7.219522028400       7.510598160000
        32    1       12.892600000000       6.534349971600       9.909401840000
        33    1       22.101600000000       0.056047028400       9.909401840000
        34    1       22.101600000000       4.146524971600       7.510598160000
        35    1       16.576200000000       2.443872028400       7.510598160000
        36    1       16.576200000000       1.758699971600       9.909401840000
        37    1       18.418000000000       0.056047028400       9.909401840000
        38    1       18.418000000000       4.146524971600       7.510598160000
        39    1       20.259800000000       2.443872028400       7.510598160000
        40    1       20.259800000000       1.758699971600       9.909401840000
        41    1       22.101600000000       4.831697028400       9.909401840000
        42    1       14.734400000000       8.922174971600       7.510598160000
        43    1       16.576200000000       7.219522028400       7.510598160000
        44    1       16.576200000000       6.534349971600       9.909401840000
        45    1       18.418000000000       4.831697028400       9.909401840000
        46    1       18.418000000000       8.922174971600       7.510598160000
        47    1       20.259800000000       7.219522028400       7.510598160000
        48    1       20.259800000000       6.534349971600       9.909401840000
        49    1       29.468800000000       0.056047028400       9.909401840000
        50    1       29.468800000000       4.146524971600       7.510598160000
        51    1       23.943400000000       2.443872028400       7.510598160000
        52    1       23.943400000000       1.758699971600       9.909401840000
        53    1       25.785200000000       0.056047028400       9.909401840000
        54    1       25.785200000000       4.146524971600       7.510598160000
        55    1       27.627000000000       2.443872028400       7.510598160000
        56    1       27.627000000000       1.758699971600       9.909401840000
        57    1       29.468800000000       4.831697028400       9.909401840000
        58    1       22.101600000000       8.922174971600       7.510598160000
        59    1       23.943400000000       7.219522028400       7.510598160000
        60    1       23.943400000000       6.534349971600       9.909401840000
        61    1       25.785200000000       4.831697028400       9.909401840000
        62    1       25.785200000000       8.922174971600       7.510598160000
        63    1       27.627000000000       7.219522028400       7.510598160000
        64    1       27.627000000000       6.534349971600       9.909401840000
        65    1       36.836000000000       0.056047028400       9.909401840000
        66    1       36.836000000000       4.146524971600       7.510598160000
        67    1       31.310600000000       2.443872028400       7.510598160000
        68    1       31.310600000000       1.758699971600       9.909401840000
        69    1       33.152400000000       0.056047028400       9.909401840000
        70    1       33.152400000000       4.146524971600       7.510598160000
        71    1       34.994200000000       2.443872028400       7.510598160000
        72    1       34.994200000000       1.758699971600       9.909401840000
        73    1       36.836000000000       4.831697028400       9.909401840000
        74    1       29.468800000000       8.922174971600       7.510598160000
        75    1       31.310600000000       7.219522028400       7.510598160000
        76    1       31.310600000000       6.534349971600       9.909401840000
        77    1       33.152400000000       4.831697028400       9.909401840000
        78    1       33.152400000000       8.922174971600       7.510598160000
        79    1       34.994200000000       7.219522028400       7.510598160000
        80    1       34.994200000000       6.534349971600       9.909401840000
        81    1       44.203200000000       0.056047028400       9.909401840000
        82    1       44.203200000000       4.146524971600       7.510598160000
        83    1       38.677800000000       2.443872028400       7.510598160000
        84    1       38.677800000000       1.758699971600       9.909401840000
        85    1       40.519600000000       0.056047028400       9.909401840000
        86    1       40.519600000000       4.146524971600       7.510598160000
        87    1       42.361400000000       2.443872028400       7.510598160000
        88    1       42.361400000000       1.758699971600       9.909401840000
        89    1       44.203200000000       4.831697028400       9.909401840000
        90    1       36.836000000000       8.922174971600       7.510598160000
        91    1       38.677800000000       7.219522028400       7.510598160000
        92    1       38.677800000000       6.534349971600       9.909401840000
        93    1       40.519600000000       4.831697028400       9.909401840000
        94    1       40.519600000000       8.922174971600       7.510598160000
        95    1       42.361400000000       7.219522028400       7.510598160000
        96    1       42.361400000000       6.534349971600       9.909401840000
        97    1       51.570400000000       0.056047028400       9.909401840000
        98    1       51.570400000000       4.146524971600       7.510598160000
        99    1       46.045000000000       2.443872028400       7.510598160000
       100    1       46.045000000000       1.758699971600       9.909401840000
       101    1       47.886800000000       0.056047028400       9.909401840000
       102    1       47.886800000000       4.146524971600       7.510598160000
       103    1       49.728600000000       2.443872028400       7.510598160000
       104    1       49.728600000000       1.758699971600       9.909401840000
       105    1       51.570400000000       4.831697028400       9.909401840000
       106    1       44.203200000000       8.922174971600       7.510598160000
       107    1       46.045000000000       7.219522028400       7.510598160000
       108    1       46.045000000000       6.534349971600       9.909401840000
       109    1       47.886800000000       4.831697028400       9.909401840000
       110    1       47.886800000000       8.922174971600       7.510598160000
       111    1       49.728600000000       7.219522028400       7.510598160000
       112    1       49.728600000000       6.534349971600       9.909401840000
       113    1       58.937600000000       0.056047028400       9.909401840000
       114    1       58.937600000000       4.146524971600       7.510598160000
       115    1       53.412200000000       2.443872028400       7.510598160000
       116    1       53.412200000000       1.758699971600       9.909401840000
       117    1       55.254000000000       0.056047028400       9.909401840000
       118    1       55.254000000000       4.146524971600       7.510598160000
       119    1       57.095800000000       2.443872028400       7.510598160000
       120    1       57.095800000000       1.758699971600       9.909401840000
       121    1       58.937600000000       4.831697028400       9.909401840000
       122    1       51.570400000000       8.922174971600       7.510598160000
       123    1       53.412200000000       7.219522028400       7.510598160000
       124    1       53.412200000000       6.534349971600       9.909401840000
       125    1       55.254000000000       4.831697028400       9.909401840000
       126    1       55.254000000000       8.922174971600       7.510598160000
       127    1       57.095800000000       7.219522028400       7.510598160000
       128    1       57.095800000000       6.534349971600       9.909401840000
       129    1       66.304800000000       0.056047028400       9.909401840000
       130    1       66.304800000000       4.146524971600       7.510598160000
       131    1       60.779400000000       2.443872028400       7.510598160000
       132    1       60.779400000000       1.758699971600       9.909401840000
       133    1       62.621200000000       0.056047028400       9.909401840000
       134    1       62.621200000000       4.146524971600       7.510598160000
       135    1       64.463000000000       2.443872028400       7.510598160000
       136    1       64.463000000000       1.758699971600       9.909401840000
       137    1       66.304800000000       4.831697028400       9.909401840000
       138    1       58.937600000000       8.922174971600       7.510598160000
       139    1       60.779400000000       7.219522028400       7.510598160000
       140    1       60.779400000000       6.534349971600       9.909401840000
       141    1       62.621200000000       4.831697028400       9.909401840000
       142    1       62.621200000000       8.922174971600       7.510598160000
       143    1       64.463000000000       7.219522028400       7.510598160000
       144    1       64.463000000000       6.534349971600       9.909401840000
       145    1       73.672000000000       0.056047028400       9.909401840000
       146    1       73.672000000000       4.146524971600       7.510598160000
       147    1       68.146600000000       2.443872028400       7.510598160000
       148    1       68.146600000000       1.758699971600       9.909401840000
       149    1       69.988400000000       0.056047028400       9.909401840000
       150    1       69.988400000000       4.146524971600       7.510598160000
       151    1       71.830200000000       2.443872028400       7.510598160000
       152    1       71.830200000000       1.758699971600       9.909401840000
       153    1       73.672000000000       4.831697028400       9.909401840000
       154    1       66.304800000000       8.922174971600       7.510598160000
       155    1       68.146600000000       7.219522028400       7.510598160000
       156    1       68.146600000000       6.534349971600       9.909401840000
       157    1       69.988400000000       4.831697028400       9.909401840000
       158    1       69.988400000000       8.922174971600       7.510598160000
       159    1       71.830200000000       7.219522028400       7.510598160000
       160    1       71.830200000000       6.534349971600       9.909401840000
       161    1       81.039200000000       0.056047028400       9.909401840000
       162    1       81.039200000000       4.146524971600       7.510598160000
       163    1       75.513800000000       2.443872028400       7.510598160000
       164    1       75.513800000000       1.758699971600       9.909401840000
       165    1       77.355600000000       0.056047028400       9.909401840000
       166    1       77.355600000000       4.146524971600       7.510598160000
       167    1       79.197400000000       2.443872028400       7.510598160000
       168    1       79.197400000000       1.758699971600       9.909401840000
       169    1       81.039200000000       4.831697028400       9.909401840000
       170    1       73.672000000000       8.922174971600       7.510598160000
       171    1       75.513800000000       7.219522028400       7.510598160000
       172    1       75.513800000000       6.534349971600       9.909401840000
       173    1       77.355600000000       4.831697028400       9.909401840000
       174    1       77.355600000000       8.922174971600       7.510598160000
       175    1       79.197400000000       7.219522028400       7.510598160000
       176    1       79.197400000000       6.534349971600       9.909401840000
       177    1       88.406400000000       0.056047028400       9.909401840000
       178    1       88.406400000000       4.146524971600       7.510598160000
       179    1       82.881000000000       2.443872028400       7.510598160000
       180    1       82.881000000000       1.758699971600       9.909401840000
       181    1       84.722800000000       0.056047028400       9.909401840000
       182    1       84.722800000000       4.146524971600       7.510598160000
       183    1       86.564600000000       2.443872028400       7.510598160000
       184    1       86.564600000000       1.758699971600       9.909401840000
       185    1       88.406400000000       4.831697028400       9.909401840000
       186    1       81.039200000000       8.922174971600       7.510598160000
       187    1       82.881000000000       7.219522028400       7.510598160000
       188    1       82.881000000000       6.534349971600       9.909401840000
       189    1       84.722800000000       4.831697028400       9.909401840000
       190    1       84.722800000000       8.922174971600       7.510598160000
       191    1       86.564600000000       7.219522028400       7.510598160000
       192    1       86.564600000000       6.534349971600       9.909401840000
       193    1       95.773600000000       0.056047028400       9.909401840000
       194    1       95.773600000000       4.146524971600       7.510598160000
       195    1       90.248200000000       2.443872028400       7.510598160000
       196    1       90.248200000000       1.758699971600       9.909401840000
       197    1       92.090000000000       0.056047028400       9.909401840000
       198    1       92.090000000000       4.146524971600       7.510598160000
       199    1       93.931800000000       2.443872028400       7.510598160000
       200    1       93.931800000000       1.758699971600       9.909401840000
       201    1       95.773600000000       4.831697028400       9.909401840000
       202    1       88.406400000000       8.922174971600       7.510598160000
       203    1       90.248200000000       7.219522028400       7.510598160000
       204    1       90.248200000000       6.534349971600       9.909401840000
       205    1       92.090000000000       4.831697028400       9.909401840000
       206    1       92.090000000000       8.922174971600       7.510598160000
       207    1       93.931800000000       7.219522028400       7.510598160000
       208    1       93.931800000000       6.534349971600       9.909401840000
       209    1      103.140800000000       0.056047028400       9.909401840000
       210    1      103.140800000000       4.146524971600       7.510598160000
       211    1       97.615400000000       2.443872028400       7.510598160000
       212    1       97.615400000000       1.758699971600       9.909401840000
       213    1       99.457200000000       0.056047028400       9.909401840000
       214    1       99.457200000000       4.146524971600       7.510598160000
       215    1      101.299000000000       2.443872028400       7.510598160000
       216    1      101.299000000000       1.758699971600       9.909401840000
       217    1      103.140800000000       4.831697028400       9.909401840000
       218    1       95.773600000000       8.922174971600       7.510598160000
       219    1       97.615400000000       7.219522028400       7.510598160000
       220    1       97.615400000000       6.534349971600       9.909401840000
       221    1       99.457200000000       4.831697028400       9.909401840000
       222    1       99.457200000000       8.922174971600       7.510598160000
       223    1      101.299000000000       7.219522028400       7.510598160000
       224    1      101.299000000000       6.534349971600       9.909401840000
       225    1        7.367200000000       9.607347028400       9.909401840000
       226    1        7.367200000000      13.697824971600       7.510598160000
       227    1        1.841800000000      11.995172028400       7.510598160000
       228    1        1.841800000000      11.309999971600       9.909401840000
       229    1        3.683600000000       9.607347028400       9.909401840000
       230    1        3.683600000000      13.697824971600       7.510598160000
       231    1        5.525400000000      11.995172028400       7.510598160000
       232    1        5.525400000000      11.309999971600       9.909401840000
       233    1        7.367200000000      14.382997028400       9.909401840000
       234    1        0.000000000000      18.473474971600       7.510598160000
       235    1        1.841800000000      16.770822028400       7.510598160000
       236    1        1.841800000000      16.085649971600       9.909401840000
       237    1        3.683600000000      14.382997028400       9.909401840000
       238    1        3.683600000000      18.473474971600       7.510598160000
       239    1        5.525400000000      16.770822028400       7.510598160000
       240    1        5.525400000000      16.085649971600       9.909401840000
       241    1       14.734400000000       9.607347028400       9.909401840000
       242    1       14.734400000000      13.697824971600       7.510598160000
       243    1        9.209000000000      11.995172028400       7.510598160000
       244    1        9.209000000000      11.309999971600       9.909401840000
       245    1       11.050800000000       9.607347028400       9.909401840000
       246    1       11.050800000000      13.697824971600       7.510598160000
       247    1       12.892600000000      11.995172028400       7.510598160000
       248    1       12.892600000000      11.309999971600       9.909401840000
       249    1       14.734400000000      14.382997028400       9.909401840000
       250    1        7.367200000000      18.473474971600       7.510598160000
       251    1        9.209000000000      16.770822028400       7.510598160000
       252    1        9.209000000000      16.085649971600       9.909401840000
       253    1       11.050800000000      14.382997028400       9.909401840000
       254    1       11.050800000000      18.473474971600       7.510598160000
       255    1       12.892600000000      16.770822028400       7.510598160000
       256    1       12.892600000000      16.085649971600       9.909401840000
       257    1       22.101600000000       9.607347028400       9.909401840000
       258    1       22.101600000000      13.697824971600       7.510598160000
       259    1       16.576200000000      11.995172028400       7.510598160000
       260    1       16.576200000000      11.309999971600       9.909401840000
       261    1       18.418000000000       9.607347028400       9.909401840000
       262    1       18.418000000000      13.697824971600       7.510598160000
       263    1       20.259800000000      11.995172028400       7.510598160000
       264    1       20.259800000000      11.309999971600       9.909401840000
       265    1       22.101600000000      14.382997028400       9.909401840000
       266    1       14.734400000000      18.473474971600       7.510598160000
       267    1       16.576200000000      16.770822028400       7.510598160000
       268    1       16.576200000000      16.085649971600       9.909401840000
       269    1       18.418000000000      14.382997028400       9.909401840000
       270    1       18.418000000000      18.473474971600       7.510598160000
       271    1       20.259800000000      16.770822028400       7.510598160000
       272    1       20.259800000000      16.085649971600       9.909401840000
       273    1       29.468800000000       9.607347028400       9.909401840000
       274    1       29.468800000000      13.697824971600       7.510598160000
       275    1       23.943400000000      11.995172028400       7.510598160000
       276    1       23.943400000000      11.309999971600       9.909401840000
       277    1       25.785200000000       9.607347028400       9.909401840000
       278    1       25.785200000000      13.697824971600       7.510598160000
       279    1       27.627000000000      11.995172028400       7.510598160000
       280    1       27.627000000000      11.309999971600       9.909401840000
       281    1       29.468800000000      14.382997028400       9.909401840000
       282    1       22.101600000000      18.473474971600       7.510598160000
       283    1       23.943400000000      16.770822028400       7.510598160000
       284    1       23.943400000000      16.085649971600       9.909401840000
       285    1       25.785200000000      14.382997028400       9.909401840000
       286    1       25.785200000000      18.473474971600       7.510598160000
       287    1       27.627000000000      16.770822028400       7.510598160000
       288    1       27.627000000000      16.085649971600       9.909401840000
       289    1       36.836000000000       9.607347028400       9.909401840000
       290    1       36.836000000000      13.697824971600       7.510598160000
       291    1       31.310600000000      11.995172028400       7.510598160000
       292    1       31.310600000000      11.309999971600       9.909401840000
       293    1       33.152400000000       9.607347028400       9.909401840000
       294    1       33.152400000000      13.697824971600       7.510598160000
       295    1       34.994200000000      11.995172028400       7.510598160000
       296    1       34.994200000000      11.309999971600       9.909401840000
       297    1       36.836000000000      14.382997028400       9.909401840000
       298    1       29.468800000000      18.473474971600       7.510598160000
       299    1       31.310600000000      16.770822028400       7.510598160000
       300    1       31.310600000000      16.085649971600       9.909401840000
       301    1       33.152400000000      14.382997028400       9.909401840000
       302    1       33.152400000000      18.473474971600       7.510598160000
       303    1       34.994200000000      16.770822028400       7.510598160000
       304    1       34.994200000000      16.085649971600       9.909401840000
       305    1       44.203200000000       9.607347028400       9.909401840000
       306    1       44.203200000000      13.697824971600       7.510598160000
       307    1       38.677800000000      11.995172028400       7.510598160000
       308    1       38.677800000000      11.309999971600       9.909401840000
       309    1       40.519600000000       9.607347028400       9.909401840000
       310    1       40.519600000000      13.697824971600       7.510598160000
       311    1       42.361400000000      11.995172028400       7.510598160000
       312    1       42.361400000000      11.309999971600       9.909401840000
       313    1       44.203200000000      14.382997028400       9.909401840000
       314    1       36.836000000000      18.473474971600       7.510598160000
       315    1       38.677800000000      16.770822028400       7.510598160000
       316    1       38.677800000000      16.085649971600       9.909401840000
       317    1       40.519600000000      14.382997028400       9.909401840000
       318    1       40.519600000000      18.473474971600       7.510598160000
       319    1       42.361400000000      16.770822028400       7.510598160000
       320    1       42.361400000000      16.085649971600       9.909401840000
       321    1       51.570400000000       9.607347028400       9.909401840000
       322    1       51.570400000000      13.697824971600       7.510598160000
       323    1       46.045000000000      11.995172028400       7.510598160000
       324    1       46.045000000000      11.309999971600       9.909401840000
       325    1       47.886800000000       9.607347028400       9.909401840000
       326    1       47.886800000000      13.697824971600       7.510598160000
       327    1       49.728600000000      11.995172028400       7.510598160000
       328    1       49.728600000000      11.309999971600       9.909401840000
       329    1       51.570400000000      14.382997028400       9.909401840000
       330    1       44.203200000000      18.473474971600       7.510598160000
       331    1       46.045000000000      16.770822028400       7.510598160000
       332    1       46.045000000000      16.085649971600       9.909401840000
       333    1       47.886800000000      14.382997028400       9.909401840000
       334    1       47.886800000000      18.473474971600       7.510598160000
       335    1       49.728600000000      16.770822028400       7.510598160000
       336    1       49.728600000000      16.085649971600       9.909401840000
       337    1       58.937600000000       9.607347028400       9.909401840000
       338    1       58.937600000000      13.697824971600       7.510598160000
       339    1       53.412200000000      11.995172028400       7.510598160000
       340    1       53.412200000000      11.309999971600       9.909401840000
       341    1       55.254000000000       9.607347028400       9.909401840000
       342    1       55.254000000000      13.697824971600       7.510598160000
       343    1       57.095800000000      11.995172028400       7.510598160000
       344    1       57.095800000000      11.309999971600       9.909401840000
       345    1       58.937600000000      14.382997028400       9.909401840000
       346    1       51.570400000000      18.473474971600       7.510598160000
       347    1       53.412200000000      16.770822028400       7.510598160000
       348    1       53.412200000000      16.085649971600       9.909401840000
       349    1       55.254000000000      14.382997028400       9.909401840000
       350    1       55.254000000000      18.473474971600       7.510598160000
       351    1       57.095800000000      16.770822028400       7.510598160000
       352    1       57.095800000000      16.085649971600       9.909401840000
       353    1       66.304800000000       9.607347028400       9.909401840000
       354    1       66.304800000000      13.697824971600       7.510598160000
       355    1       60.779400000000      11.995172028400       7.510598160000
       356    1       60.779400000000      11.309999971600       9.909401840000
       357    1       62.621200000000       9.607347028400       9.909401840000
       358    1       62.621200000000      13.697824971600       7.510598160000
       359    1       64.463000000000      11.995172028400       7.510598160000
       360    1       64.463000000000      11.309999971600       9.909401840000
       361    1       66.304800000000      14.382997028400       9.909401840000
       362    1       58.937600000000      18.473474971600       7.510598160000
       363    1       60.779400000000      16.770822028400       7.510598160000
       364    1       60.779400000000      16.085649971600       9.909401840000
       365    1       62.621200000000      14.382997028400       9.909401840000
       366    1       62.621200000000      18.473474971600       7.510598160000
       367    1       64.463000000000      16.770822028400       7.510598160000
       368    1       64.463000000000      16.085649971600       9.909401840000
       369    1       73.672000000000       9.607347028400       9.909401840000
       370    1       73.672000000000      13.697824971600       7.510598160000
       371    1       68.146600000000      11.995172028400       7.510598160000