 # C8 Te8
  
        3120  atoms
           2  atom types
 
      0.000000000000     101.114000000000  xlo xhi
      0.000000000000     101.700000000000  ylo yhi
      0.000000000000     105.000000000000  zlo zhi
 
Masses
 
            1   12.01100000             # C
            2   127.60000000            # Te
 
Atoms # atomic
 
         1    1        0.100001746000       0.099998220000      51.606345000000
         2    2        1.028103818000       0.099998220000      53.393655000000
         3    1        2.249498714000       1.617002880000      53.164650000000
         4    2        3.177600786000       1.617002880000      51.377235000000
         5    1        3.989001746000       0.099998220000      51.606345000000
         6    2        4.917103818000       0.099998220000      53.393655000000
         7    1        6.138498714000       1.617002880000      53.164650000000
         8    2        7.066600786000       1.617002880000      51.377235000000
         9    1        0.100001746000       3.489998220000      51.606345000000
        10    2        1.028103818000       3.489998220000      53.393655000000
        11    1        2.249498714000       5.007002880000      53.164650000000
        12    2        3.177600786000       5.007002880000      51.377235000000
        13    1        3.989001746000       3.489998220000      51.606345000000
        14    2        4.917103818000       3.489998220000      53.393655000000
        15    1        6.138498714000       5.007002880000      53.164650000000
        16    2        7.066600786000       5.007002880000      51.377235000000
        17    1        7.878001746000       0.099998220000      51.606345000000
        18    2        8.806103818000       0.099998220000      53.393655000000
        19    1       10.027498714000       1.617002880000      53.164650000000
        20    2       10.955600786000       1.617002880000      51.377235000000
        21    1       11.767001746000       0.099998220000      51.606345000000
        22    2       12.695103818000       0.099998220000      53.393655000000
        23    1       13.916498714000       1.617002880000      53.164650000000
        24    2       14.844600786000       1.617002880000      51.377235000000
        25    1        7.878001746000       3.489998220000      51.606345000000
        26    2        8.806103818000       3.489998220000      53.393655000000
        27    1       10.027498714000       5.007002880000      53.164650000000
        28    2       10.955600786000       5.007002880000      51.377235000000
        29    1       11.767001746000       3.489998220000      51.606345000000
        30    2       12.695103818000       3.489998220000      53.393655000000
        31    1       13.916498714000       5.007002880000      53.164650000000
        32    2       14.844600786000       5.007002880000      51.377235000000
        33    1       15.656001746000       0.099998220000      51.606345000000
        34    2       16.584103818000       0.099998220000      53.393655000000
        35    1       17.805498714000       1.617002880000      53.164650000000
        36    2       18.733600786000       1.617002880000      51.377235000000
        37    1       19.545001746000       0.099998220000      51.606345000000
        38    2       20.473103818000       0.099998220000      53.393655000000
        39    1       21.694498714000       1.617002880000      53.164650000000
        40    2       22.622600786000       1.617002880000      51.377235000000
        41    1       15.656001746000       3.489998220000      51.606345000000
        42    2       16.584103818000       3.489998220000      53.393655000000
        43    1       17.805498714000       5.007002880000      53.164650000000
        44    2       18.733600786000       5.007002880000      51.377235000000
        45    1       19.545001746000       3.489998220000      51.606345000000
        46    2       20.473103818000       3.489998220000      53.393655000000
        47    1       21.694498714000       5.007002880000      53.164650000000
        48    2       22.622600786000       5.007002880000      51.377235000000
        49    1       23.434001746000       0.099998220000      51.606345000000
        50    2       24.362103818000       0.099998220000      53.393655000000
        51    1       25.583498714000       1.617002880000      53.164650000000
        52    2       26.511600786000       1.617002880000      51.377235000000
        53    1       27.323001746000       0.099998220000      51.606345000000
        54    2       28.251103818000       0.099998220000      53.393655000000
        55    1       29.472498714000       1.617002880000      53.164650000000
        56    2       30.400600786000       1.617002880000      51.377235000000
        57    1       23.434001746000       3.489998220000      51.606345000000
        58    2       24.362103818000       3.489998220000      53.393655000000
        59    1       25.583498714000       5.007002880000      53.164650000000
        60    2       26.511600786000       5.007002880000      51.377235000000
        61    1       27.323001746000       3.489998220000      51.606345000000
        62    2       28.251103818000       3.489998220000      53.393655000000
        63    1       29.472498714000       5.007002880000      53.164650000000
        64    2       30.400600786000       5.007002880000      51.377235000000
        65    1       31.212001746000       0.099998220000      51.606345000000
        66    2       32.140103818000       0.099998220000      53.393655000000
        67    1       33.361498714000       1.617002880000      53.164650000000
        68    2       34.289600786000       1.617002880000      51.377235000000
        69    1       35.101001746000       0.099998220000      51.606345000000
        70    2       36.029103818000       0.099998220000      53.393655000000
        71    1       37.250498714000       1.617002880000      53.164650000000
        72    2       38.178600786000       1.617002880000      51.377235000000
        73    1       31.212001746000       3.489998220000      51.606345000000
        74    2       32.140103818000       3.489998220000      53.393655000000
        75    1       33.361498714000       5.007002880000      53.164650000000
        76    2       34.289600786000       5.007002880000      51.377235000000
        77    1       35.101001746000       3.489998220000      51.606345000000
        78    2       36.029103818000       3.489998220000      53.393655000000
        79    1       37.250498714000       5.007002880000      53.164650000000
        80    2       38.178600786000       5.007002880000      51.377235000000
        81    1       38.990001746000       0.099998220000      51.606345000000
        82    2       39.918103818000       0.099998220000      53.393655000000
        83    1       41.139498714000       1.617002880000      53.164650000000
        84    2       42.067600786000       1.617002880000      51.377235000000
        85    1       42.879001746000       0.099998220000      51.606345000000
        86    2       43.807103818000       0.099998220000      53.393655000000
        87    1       45.028498714000       1.617002880000      53.164650000000
        88    2       45.956600786000       1.617002880000      51.377235000000
        89    1       38.990001746000       3.489998220000      51.606345000000
        90    2       39.918103818000       3.489998220000      53.393655000000
        91    1       41.139498714000       5.007002880000      53.164650000000
        92    2       42.067600786000       5.007002880000      51.377235000000
        93    1       42.879001746000       3.489998220000      51.606345000000
        94    2       43.807103818000       3.489998220000      53.393655000000
        95    1       45.028498714000       5.007002880000      53.164650000000
        96    2       45.956600786000       5.007002880000      51.377235000000
        97    1       46.768001746000       0.099998220000      51.606345000000
        98    2       47.696103818000       0.099998220000      53.393655000000
        99    1       48.917498714000       1.617002880000      53.164650000000
       100    2       49.845600786000       1.617002880000      51.377235000000
       101    1       50.657001746000       0.099998220000      51.606345000000
       102    2       51.585103818000       0.099998220000      53.393655000000
       103    1       52.806498714000       1.617002880000      53.164650000000
       104    2       53.734600786000       1.617002880000      51.377235000000
       105    1       46.768001746000       3.489998220000      51.606345000000
       106    2       47.696103818000       3.489998220000      53.393655000000
       107    1       48.917498714000       5.007002880000      53.164650000000
       108    2       49.845600786000       5.007002880000      51.377235000000
       109    1       50.657001746000       3.489998220000      51.606345000000
       110    2       51.585103818000       3.489998220000      53.393655000000
       111    1       52.806498714000       5.007002880000      53.164650000000
       112    2       53.734600786000       5.007002880000      51.377235000000
       113    1       54.546001746000       0.099998220000      51.606345000000
       114    2       55.474103818000       0.099998220000      53.393655000000
       115    1       56.695498714000       1.617002880000      53.164650000000
       116    2       57.623600786000       1.617002880000      51.377235000000
       117    1       58.435001746000       0.099998220000      51.606345000000
       118    2       59.363103818000       0.099998220000      53.393655000000
       119    1       60.584498714000       1.617002880000      53.164650000000
       120    2       61.512600786000       1.617002880000      51.377235000000
       121    1       54.546001746000       3.489998220000      51.606345000000
       122    2       55.474103818000       3.489998220000      53.393655000000
       123    1       56.695498714000       5.007002880000      53.164650000000
       124    2       57.623600786000       5.007002880000      51.377235000000
       125    1       58.435001746000       3.489998220000      51.606345000000
       126    2       59.363103818000       3.489998220000      53.393655000000
       127    1       60.584498714000       5.007002880000      53.164650000000
       128    2       61.512600786000       5.007002880000      51.377235000000
       129    1       62.324001746000       0.099998220000      51.606345000000
       130    2       63.252103818000       0.099998220000      53.393655000000
       131    1       64.473498714000       1.617002880000      53.164650000000
       132    2       65.401600786000       1.617002880000      51.377235000000
       133    1       66.213001746000       0.099998220000      51.606345000000
       134    2       67.141103818000       0.099998220000      53.393655000000
       135    1       68.362498714000       1.617002880000      53.164650000000
       136    2       69.290600786000       1.617002880000      51.377235000000
       137    1       62.324001746000       3.489998220000      51.606345000000
       138    2       63.252103818000       3.489998220000      53.393655000000
       139    1       64.473498714000       5.007002880000      53.164650000000
       140    2       65.401600786000       5.007002880000      51.377235000000
       141    1       66.213001746000       3.489998220000      51.606345000000
       142    2       67.141103818000       3.489998220000      53.393655000000
       143    1       68.362498714000       5.007002880000      53.164650000000
       144    2       69.290600786000       5.007002880000      51.377235000000
       145    1       70.102001746000       0.099998220000      51.606345000000
       146    2       71.030103818000       0.099998220000      53.393655000000
       147    1       72.251498714000       1.617002880000      53.164650000000
       148    2       73.179600786000       1.617002880000      51.377235000000
       149    1       73.991001746000       0.099998220000      51.606345000000
       150    2       74.919103818000       0.099998220000      53.393655000000
       151    1       76.140498714000       1.617002880000      53.164650000000
       152    2       77.068600786000       1.617002880000      51.377235000000
       153    1       70.102001746000       3.489998220000      51.606345000000
       154    2       71.030103818000       3.489998220000      53.393655000000
       155    1       72.251498714000       5.007002880000      53.164650000000
       156    2       73.179600786000       5.007002880000      51.377235000000
       157    1       73.991001746000       3.489998220000      51.606345000000
       158    2       74.919103818000       3.489998220000      53.393655000000
       159    1       76.140498714000       5.007002880000      53.164650000000
       160    2       77.068600786000       5.007002880000      51.377235000000
       161    1       77.880001746000       0.099998220000      51.606345000000
       162    2       78.808103818000       0.099998220000      53.393655000000
       163    1       80.029498714000       1.617002880000      53.164650000000
       164    2       80.957600786000       1.617002880000      51.377235000000
       165    1       81.769001746000       0.099998220000      51.606345000000
       166    2       82.697103818000       0.099998220000      53.393655000000
       167    1       83.918498714000       1.617002880000      53.164650000000
       168    2       84.846600786000       1.617002880000      51.377235000000
       169    1       77.880001746000       3.489998220000      51.606345000000
       170    2       78.808103818000       3.489998220000      53.393655000000
       171    1       80.029498714000       5.007002880000      53.164650000000
       172    2       80.957600786000       5.007002880000      51.377235000000
       173    1       81.769001746000       3.489998220000      51.606345000000
       174    2       82.697103818000       3.489998220000      53.393655000000
       175    1       83.918498714000       5.007002880000      53.164650000000
       176    2       84.846600786000       5.007002880000      51.377235000000
       177    1       85.658001746000       0.099998220000      51.606345000000
       178    2       86.586103818000       0.099998220000      53.393655000000
       179    1       87.807498714000       1.617002880000      53.164650000000
       180    2       88.735600786000       1.617002880000      51.377235000000
       181    1       89.547001746000       0.099998220000      51.606345000000
       182    2       90.475103818000       0.099998220000      53.393655000000
       183    1       91.696498714000       1.617002880000      53.164650000000
       184    2       92.624600786000       1.617002880000      51.377235000000
       185    1       85.658001746000       3.489998220000      51.606345000000
       186    2       86.586103818000       3.489998220000      53.393655000000
       187    1       87.807498714000       5.007002880000      53.164650000000
       188    2       88.735600786000       5.007002880000      51.377235000000
       189    1       89.547001746000       3.489998220000      51.606345000000
       190    2       90.475103818000       3.489998220000      53.393655000000
       191    1       91.696498714000       5.007002880000      53.164650000000
       192    2       92.624600786000       5.007002880000      51.377235000000
       193    1       93.436001746000       0.099998220000      51.606345000000
       194    2       94.364103818000       0.099998220000      53.393655000000
       195    1       95.585498714000       1.617002880000      53.164650000000
       196    2       96.513600786000       1.617002880000      51.377235000000
       197    1       97.325001746000       0.099998220000      51.606345000000
       198    2       98.253103818000       0.099998220000      53.393655000000
       199    1       99.474498714000       1.617002880000      53.164650000000
       200    2      100.402600786000       1.617002880000      51.377235000000
       201    1       93.436001746000       3.489998220000      51.606345000000
       202    2       94.364103818000       3.489998220000      53.393655000000
       203    1       95.585498714000       5.007002880000      53.164650000000
       204    2       96.513600786000       5.007002880000      51.377235000000
       205    1       97.325001746000       3.489998220000      51.606345000000
       206    2       98.253103818000       3.489998220000      53.393655000000
       207    1       99.474498714000       5.007002880000      53.164650000000
       208    2      100.402600786000       5.007002880000      51.377235000000
       209    1        0.100001746000       6.879998220000      51.606345000000
       210    2        1.028103818000       6.879998220000      53.393655000000
       211    1        2.249498714000       8.397002880000      53.164650000000
       212    2        3.177600786000       8.397002880000      51.377235000000
       213    1        3.989001746000       6.879998220000      51.606345000000
       214    2        4.917103818000       6.879998220000      53.393655000000
       215    1        6.138498714000       8.397002880000      53.164650000000
       216    2        7.066600786000       8.397002880000      51.377235000000
       217    1        0.100001746000      10.269998220000      51.606345000000
       218    2        1.028103818000      10.269998220000      53.393655000000
       219    1        2.249498714000      11.787002880000      53.164650000000
       220    2        3.177600786000      11.787002880000      51.377235000000
       221    1        3.989001746000      10.269998220000      51.606345000000
       222    2        4.917103818000      10.269998220000      53.393655000000
       223    1        6.138498714000      11.787002880000      53.164650000000
       224    2        7.066600786000      11.787002880000      51.377235000000
       225    1        7.878001746000       6.879998220000      51.606345000000
       226    2        8.806103818000       6.879998220000      53.393655000000
       227    1       10.027498714000       8.397002880000      53.164650000000
       228    2       10.955600786000       8.397002880000      51.377235000000
       229    1       11.767001746000       6.879998220000      51.606345000000
       230    2       12.695103818000       6.879998220000      53.393655000000
       231    1       13.916498714000       8.397002880000      53.164650000000
       232    2       14.844600786000       8.397002880000      51.377235000000
       233    1        7.878001746000      10.269998220000      51.606345000000
       234    2        8.806103818000      10.269998220000      53.393655000000
       235    1       10.027498714000      11.787002880000      53.164650000000
       236    2       10.955600786000      11.787002880000      51.377235000000
       237    1       11.767001746000      10.269998220000      51.606345000000
       238    2       12.695103818000      10.269998220000      53.393655000000
       239    1       13.916498714000      11.787002880000      53.164650000000
       240    2       14.844600786000      11.787002880000      51.377235000000
       241    1       15.656001746000       6.879998220000      51.606345000000
       242    2       16.584103818000       6.879998220000      53.393655000000
       243    1       17.805498714000       8.397002880000      53.164650000000
       244    2       18.733600786000       8.397002880000      51.377235000000
       245    1       19.545001746000       6.879998220000      51.606345000000
       246    2       20.473103818000       6.879998220000      53.393655000000
       247    1       21.694498714000       8.397002880000      53.164650000000
       248    2       22.622600786000       8.397002880000      51.377235000000
       249    1       15.656001746000      10.269998220000      51.606345000000
       250    2       16.584103818000      10.269998220000      53.393655000000
       251    1       17.805498714000      11.787002880000      53.164650000000
       252    2       18.733600786000      11.787002880000      51.377235000000
       253    1       19.545001746000      10.269998220000      51.606345000000
       254    2       20.473103818000      10.269998220000      53.393655000000
       255    1       21.694498714000      11.787002880000      53.164650000000
       256    2       22.622600786000      11.787002880000      51.377235000000
       257    1       23.434001746000       6.879998220000      51.606345000000
       258    2       24.362103818000       6.879998220000      53.393655000000
       259    1       25.583498714000       8.397002880000      53.164650000000
       260    2       26.511600786000       8.397002880000      51.377235000000
       261    1       27.323001746000       6.879998220000      51.606345000000
       262    2       28.251103818000       6.879998220000      53.393655000000
       263    1       29.472498714000       8.397002880000      53.164650000000
       264    2       30.400600786000       8.397002880000      51.377235000000
       265    1       23.434001746000      10.269998220000      51.606345000000
       266    2       24.362103818000      10.269998220000      53.393655000000
       267    1       25.583498714000      11.787002880000      53.164650000000
       268    2       26.511600786000      11.787002880000      51.377235000000
       269    1       27.323001746000      10.269998220000      51.606345000000
       270    2       28.251103818000      10.269998220000      53.393655000000
       271    1       29.472498714000      11.787002880000      53.164650000000
       272    2       30.400600786000      11.787002880000      51.377235000000
       273    1       31.212001746000       6.879998220000      51.606345000000
       274    2       32.140103818000       6.879998220000      53.393655000000
       275    1       33.361498714000       8.397002880000      53.164650000000
       276    2       34.289600786000       8.397002880000      51.377235000000
       277    1       35.101001746000       6.879998220000      51.606345000000
       278    2       36.029103818000       6.879998220000      53.393655000000
       279    1       37.250498714000       8.397002880000      53.164650000000
       280    2       38.178600786000       8.397002880000      51.377235000000
       281    1       31.212001746000      10.269998220000      51.606345000000
       282    2       32.140103818000      10.269998220000      53.393655000000
       283    1       33.361498714000      11.787002880000      53.164650000000
       284    2       34.289600786000      11.787002880000      51.377235000000
       285    1       35.101001746000      10.269998220000      51.606345000000
       286    2       36.029103818000      10.269998220000      53.393655000000
       287    1       37.250498714000      11.787002880000      53.164650000000
       288    2       38.178600786000      11.787002880000      51.377235000000
       289    1       38.990001746000       6.879998220000      51.606345000000
       290    2       39.918103818000       6.879998220000      53.393655000000
       291    1       41.139498714000       8.397002880000      53.164650000000
       292    2       42.067600786000       8.397002880000      51.377235000000
       293    1       42.879001746000       6.879998220000      51.606345000000
       294    2       43.807103818000       6.879998220000      53.393655000000
       295    1       45.028498714000       8.397002880000      53.164650000000
       296    2       45.956600786000       8.397002880000      51.377235000000
       297    1       38.990001746000      10.269998220000      51.606345000000
       298    2       39.918103818000      10.269998220000      53.393655000000
       299    1       41.139498714000      11.787002880000      53.164650000000
       300    2       42.067600786000      11.787002880000      51.377235000000
       301    1       42.879001746000      10.269998220000      51.606345000000
       302    2       43.807103818000      10.269998220000      53.393655000000
       303    1       45.028498714000      11.787002880000      53.164650000000
       304    2       45.956600786000      11.787002880000      51.377235000000
       305    1       46.768001746000       6.879998220000      51.606345000000
       306    2       47.696103818000       6.879998220000      53.393655000000
       307    1       48.917498714000       8.397002880000      53.164650000000
       308    2       49.845600786000       8.397002880000      51.377235000000
       309    1       50.657001746000       6.879998220000      51.606345000000
       310    2       51.585103818000       6.879998220000      53.393655000000
       311    1       52.806498714000       8.397002880000      53.164650000000
       312    2       53.734600786000       8.397002880000      51.377235000000
       313    1       46.768001746000      10.269998220000      51.606345000000
       314    2       47.696103818000      10.269998220000      53.393655000000
       315    1       48.917498714000      11.787002880000      53.164650000000
       316    2       49.845600786000      11.787002880000      51.377235000000
       317    1       50.657001746000      10.269998220000      51.606345000000
       318    2       51.585103818000      10.269998220000      53.393655000000
       319    1       52.806498714000      11.787002880000      53.164650000000
       320    2       53.734600786000      11.787002880000      51.377235000000
       321    1       54.546001746000       6.879998220000      51.606345000000
       322    2       55.474103818000       6.879998220000      53.393655000000
       323    1       56.695498714000       8.397002880000      53.164650000000
       324    2       57.623600786000       8.397002880000      51.377235000000
       325    1       58.435001746000       6.879998220000      51.606345000000
       326    2       59.363103818000       6.879998220000      53.393655000000
       327    1       60.584498714000       8.397002880000      53.164650000000
       328    2       61.512600786000       8.397002880000      51.377235000000
       329    1       54.546001746000      10.269998220000      51.606345000000
       330    2       55.474103818000      10.269998220000      53.393655000000
       331    1       56.695498714000      11.787002880000      53.164650000000
       332    2       57.623600786000      11.787002880000      51.377235000000
       333    1       58.435001746000      10.269998220000      51.606345000000
       334    2       59.363103818000      10.269998220000      53.393655000000
       335    1       60.584498714000      11.787002880000      53.164650000000
       336    2       61.512600786000      11.787002880000      51.377235000000
       337    1       62.324001746000       6.879998220000      51.606345000000
       338    2       63.252103818000       6.879998220000      53.393655000000
       339    1       64.473498714000       8.397002880000      53.164650000000
       340    2       65.401600786000       8.397002880000      51.377235000000
       341    1       66.213001746000       6.879998220000      51.606345000000
       342    2       67.141103818000       6.879998220000      53.393655000000
       343    1       68.362498714000       8.397002880000      53.164650000000
       344    2       69.290600786000       8.397002880000      51.377235000000
       345    1       62.324001746000      10.269998220000      51.606345000000
       346    2       63.252103818000      10.269998220000      53.393655000000
       347    1       64.473498714000      11.787002880000      53.164650000000
       348    2       65.401600786000      11.787002880000      51.377235000000
       349    1       66.213001746000      10.269998220000      51.606345000000
       350    2       67.141103818000      10.269998220000      53.393655000000
       351    1       68.362498714000      11.787002880000      53.164650000000
       352    2       69.290600786000      11.787002880000      51.377235000000
       353    1       70.102001746000       6.879998220000      51.606345000000
       354    2       71.030103818000       6.879998220000      53.393655000000
       355    1       72.251498714000       8.397002880000      53.164650000000
       356    2       73.179600786000       8.397002880000      51.377235000000
       357    1       73.991001746000       6.879998220000      51.606345000000
       358    2       74.919103818000       6.879998220000      53.393655000000
       359    1       76.140498714000       8.397002880000      53.164650000000
       360    2       77.068600786000       8.397002880000      51.377235000000
       361    1       70.102001746000      10.269998220000      51.606345000000
       362    2       71.030103818000      10.269998220000      53.393655000000
       363    1       72.251498714000      11.787002880000      53.164650000000
       364    2       73.179600786000      11.787002880000      51.377235000000
       365    1       73.991001746000      10.269998220000      51.606345000000
       366    2       74.919103818000      10.269998220000      53.393655000000
       367    1       76.140498714000      11.787002880000      53.164650000000
       368    2       77.068600786000      11.787002880000      51.377235000000
       369    1       77.880001746000       6.879998220000      51.606345000000
       370    2       78.808103818000       6.879998220000      53.393655000000