 # Ge8 O8
  
        2992  atoms
           2  atom types
 
      0.000000000000     102.645400000000  xlo xhi
      0.000000000000     102.042500000000  ylo yhi
      0.000000000000      32.150000000000  zlo zhi
 
Masses
 
            1   72.63000000             # Ge
            2   15.99900000             # O
 
Atoms # atomic
 
         1    1        0.087407223800       6.002500000000      17.193498500000
         2    2        1.082610365200       1.500625000000      16.402544200000
         3    1        2.420257223800       1.500625000000      14.956501500000
         4    2        3.415460365200       0.000000000000      15.747455800000
         5    1        4.753107223800       6.002500000000      17.193498500000
         6    2        5.748310365200       1.500625000000      16.402544200000
         7    1        7.085957223800       1.500625000000      14.956501500000
         8    2        8.081160365200       0.000000000000      15.747455800000
         9    1        0.087407223800       3.001250000000      17.193498500000
        10    2        1.082610365200       4.501875000000      16.402544200000
        11    1        2.420257223800       4.501875000000      14.956501500000
        12    2        3.415460365200       3.001250000000      15.747455800000
        13    1        4.753107223800       3.001250000000      17.193498500000
        14    2        5.748310365200       4.501875000000      16.402544200000
        15    1        7.085957223800       4.501875000000      14.956501500000
        16    2        8.081160365200       3.001250000000      15.747455800000
        17    1        9.418807223800       6.002500000000      17.193498500000
        18    2       10.414010365200       1.500625000000      16.402544200000
        19    1       11.751657223800       1.500625000000      14.956501500000
        20    2       12.746860365200       0.000000000000      15.747455800000
        21    1       14.084507223800       6.002500000000      17.193498500000
        22    2       15.079710365200       1.500625000000      16.402544200000
        23    1       16.417357223800       1.500625000000      14.956501500000
        24    2       17.412560365200       0.000000000000      15.747455800000
        25    1        9.418807223800       3.001250000000      17.193498500000
        26    2       10.414010365200       4.501875000000      16.402544200000
        27    1       11.751657223800       4.501875000000      14.956501500000
        28    2       12.746860365200       3.001250000000      15.747455800000
        29    1       14.084507223800       3.001250000000      17.193498500000
        30    2       15.079710365200       4.501875000000      16.402544200000
        31    1       16.417357223800       4.501875000000      14.956501500000
        32    2       17.412560365200       3.001250000000      15.747455800000
        33    1       18.750207223800       6.002500000000      17.193498500000
        34    2       19.745410365200       1.500625000000      16.402544200000
        35    1       21.083057223800       1.500625000000      14.956501500000
        36    2       22.078260365200       0.000000000000      15.747455800000
        37    1       23.415907223800       6.002500000000      17.193498500000
        38    2       24.411110365200       1.500625000000      16.402544200000
        39    1       25.748757223800       1.500625000000      14.956501500000
        40    2       26.743960365200       0.000000000000      15.747455800000
        41    1       18.750207223800       3.001250000000      17.193498500000
        42    2       19.745410365200       4.501875000000      16.402544200000
        43    1       21.083057223800       4.501875000000      14.956501500000
        44    2       22.078260365200       3.001250000000      15.747455800000
        45    1       23.415907223800       3.001250000000      17.193498500000
        46    2       24.411110365200       4.501875000000      16.402544200000
        47    1       25.748757223800       4.501875000000      14.956501500000
        48    2       26.743960365200       3.001250000000      15.747455800000
        49    1       28.081607223800       6.002500000000      17.193498500000
        50    2       29.076810365200       1.500625000000      16.402544200000
        51    1       30.414457223800       1.500625000000      14.956501500000
        52    2       31.409660365200       0.000000000000      15.747455800000
        53    1       32.747307223800       6.002500000000      17.193498500000
        54    2       33.742510365200       1.500625000000      16.402544200000
        55    1       35.080157223800       1.500625000000      14.956501500000
        56    2       36.075360365200       0.000000000000      15.747455800000
        57    1       28.081607223800       3.001250000000      17.193498500000
        58    2       29.076810365200       4.501875000000      16.402544200000
        59    1       30.414457223800       4.501875000000      14.956501500000
        60    2       31.409660365200       3.001250000000      15.747455800000
        61    1       32.747307223800       3.001250000000      17.193498500000
        62    2       33.742510365200       4.501875000000      16.402544200000
        63    1       35.080157223800       4.501875000000      14.956501500000
        64    2       36.075360365200       3.001250000000      15.747455800000
        65    1       37.413007223800       6.002500000000      17.193498500000
        66    2       38.408210365200       1.500625000000      16.402544200000
        67    1       39.745857223800       1.500625000000      14.956501500000
        68    2       40.741060365200       0.000000000000      15.747455800000
        69    1       42.078707223800       6.002500000000      17.193498500000
        70    2       43.073910365200       1.500625000000      16.402544200000
        71    1       44.411557223800       1.500625000000      14.956501500000
        72    2       45.406760365200       0.000000000000      15.747455800000
        73    1       37.413007223800       3.001250000000      17.193498500000
        74    2       38.408210365200       4.501875000000      16.402544200000
        75    1       39.745857223800       4.501875000000      14.956501500000
        76    2       40.741060365200       3.001250000000      15.747455800000
        77    1       42.078707223800       3.001250000000      17.193498500000
        78    2       43.073910365200       4.501875000000      16.402544200000
        79    1       44.411557223800       4.501875000000      14.956501500000
        80    2       45.406760365200       3.001250000000      15.747455800000
        81    1       46.744407223800       6.002500000000      17.193498500000
        82    2       47.739610365200       1.500625000000      16.402544200000
        83    1       49.077257223800       1.500625000000      14.956501500000
        84    2       50.072460365200       0.000000000000      15.747455800000
        85    1       51.410107223800       6.002500000000      17.193498500000
        86    2       52.405310365200       1.500625000000      16.402544200000
        87    1       53.742957223800       1.500625000000      14.956501500000
        88    2       54.738160365200       0.000000000000      15.747455800000
        89    1       46.744407223800       3.001250000000      17.193498500000
        90    2       47.739610365200       4.501875000000      16.402544200000
        91    1       49.077257223800       4.501875000000      14.956501500000
        92    2       50.072460365200       3.001250000000      15.747455800000
        93    1       51.410107223800       3.001250000000      17.193498500000
        94    2       52.405310365200       4.501875000000      16.402544200000
        95    1       53.742957223800       4.501875000000      14.956501500000
        96    2       54.738160365200       3.001250000000      15.747455800000
        97    1       56.075807223800       6.002500000000      17.193498500000
        98    2       57.071010365200       1.500625000000      16.402544200000
        99    1       58.408657223800       1.500625000000      14.956501500000
       100    2       59.403860365200       0.000000000000      15.747455800000
       101    1       60.741507223800       6.002500000000      17.193498500000
       102    2       61.736710365200       1.500625000000      16.402544200000
       103    1       63.074357223800       1.500625000000      14.956501500000
       104    2       64.069560365200       0.000000000000      15.747455800000
       105    1       56.075807223800       3.001250000000      17.193498500000
       106    2       57.071010365200       4.501875000000      16.402544200000
       107    1       58.408657223800       4.501875000000      14.956501500000
       108    2       59.403860365200       3.001250000000      15.747455800000
       109    1       60.741507223800       3.001250000000      17.193498500000
       110    2       61.736710365200       4.501875000000      16.402544200000
       111    1       63.074357223800       4.501875000000      14.956501500000
       112    2       64.069560365200       3.001250000000      15.747455800000
       113    1       65.407207223800       6.002500000000      17.193498500000
       114    2       66.402410365200       1.500625000000      16.402544200000
       115    1       67.740057223800       1.500625000000      14.956501500000
       116    2       68.735260365200       0.000000000000      15.747455800000
       117    1       70.072907223800       6.002500000000      17.193498500000
       118    2       71.068110365200       1.500625000000      16.402544200000
       119    1       72.405757223800       1.500625000000      14.956501500000
       120    2       73.400960365200       0.000000000000      15.747455800000
       121    1       65.407207223800       3.001250000000      17.193498500000
       122    2       66.402410365200       4.501875000000      16.402544200000
       123    1       67.740057223800       4.501875000000      14.956501500000
       124    2       68.735260365200       3.001250000000      15.747455800000
       125    1       70.072907223800       3.001250000000      17.193498500000
       126    2       71.068110365200       4.501875000000      16.402544200000
       127    1       72.405757223800       4.501875000000      14.956501500000
       128    2       73.400960365200       3.001250000000      15.747455800000
       129    1       74.738607223800       6.002500000000      17.193498500000
       130    2       75.733810365200       1.500625000000      16.402544200000
       131    1       77.071457223800       1.500625000000      14.956501500000
       132    2       78.066660365200       0.000000000000      15.747455800000
       133    1       79.404307223800       6.002500000000      17.193498500000
       134    2       80.399510365200       1.500625000000      16.402544200000
       135    1       81.737157223800       1.500625000000      14.956501500000
       136    2       82.732360365200       0.000000000000      15.747455800000
       137    1       74.738607223800       3.001250000000      17.193498500000
       138    2       75.733810365200       4.501875000000      16.402544200000
       139    1       77.071457223800       4.501875000000      14.956501500000
       140    2       78.066660365200       3.001250000000      15.747455800000
       141    1       79.404307223800       3.001250000000      17.193498500000
       142    2       80.399510365200       4.501875000000      16.402544200000
       143    1       81.737157223800       4.501875000000      14.956501500000
       144    2       82.732360365200       3.001250000000      15.747455800000
       145    1       84.070007223800       6.002500000000      17.193498500000
       146    2       85.065210365200       1.500625000000      16.402544200000
       147    1       86.402857223800       1.500625000000      14.956501500000
       148    2       87.398060365200       0.000000000000      15.747455800000
       149    1       88.735707223800       6.002500000000      17.193498500000
       150    2       89.730910365200       1.500625000000      16.402544200000
       151    1       91.068557223800       1.500625000000      14.956501500000
       152    2       92.063760365200       0.000000000000      15.747455800000
       153    1       84.070007223800       3.001250000000      17.193498500000
       154    2       85.065210365200       4.501875000000      16.402544200000
       155    1       86.402857223800       4.501875000000      14.956501500000
       156    2       87.398060365200       3.001250000000      15.747455800000
       157    1       88.735707223800       3.001250000000      17.193498500000
       158    2       89.730910365200       4.501875000000      16.402544200000
       159    1       91.068557223800       4.501875000000      14.956501500000
       160    2       92.063760365200       3.001250000000      15.747455800000
       161    1       93.401407223800       6.002500000000      17.193498500000
       162    2       94.396610365200       1.500625000000      16.402544200000
       163    1       95.734257223800       1.500625000000      14.956501500000
       164    2       96.729460365200       0.000000000000      15.747455800000
       165    1       98.067107223800       6.002500000000      17.193498500000
       166    2       99.062310365200       1.500625000000      16.402544200000
       167    1      100.399957223800       1.500625000000      14.956501500000
       168    2      101.395160365200       0.000000000000      15.747455800000
       169    1       93.401407223800       3.001250000000      17.193498500000
       170    2       94.396610365200       4.501875000000      16.402544200000
       171    1       95.734257223800       4.501875000000      14.956501500000
       172    2       96.729460365200       3.001250000000      15.747455800000
       173    1       98.067107223800       3.001250000000      17.193498500000
       174    2       99.062310365200       4.501875000000      16.402544200000
       175    1      100.399957223800       4.501875000000      14.956501500000
       176    2      101.395160365200       3.001250000000      15.747455800000
       177    1        0.087407223800      12.005000000000      17.193498500000
       178    2        1.082610365200       7.503125000000      16.402544200000
       179    1        2.420257223800       7.503125000000      14.956501500000
       180    2        3.415460365200       6.002500000000      15.747455800000
       181    1        4.753107223800      12.005000000000      17.193498500000
       182    2        5.748310365200       7.503125000000      16.402544200000
       183    1        7.085957223800       7.503125000000      14.956501500000
       184    2        8.081160365200       6.002500000000      15.747455800000
       185    1        0.087407223800       9.003750000000      17.193498500000
       186    2        1.082610365200      10.504375000000      16.402544200000
       187    1        2.420257223800      10.504375000000      14.956501500000
       188    2        3.415460365200       9.003750000000      15.747455800000
       189    1        4.753107223800       9.003750000000      17.193498500000
       190    2        5.748310365200      10.504375000000      16.402544200000
       191    1        7.085957223800      10.504375000000      14.956501500000
       192    2        8.081160365200       9.003750000000      15.747455800000
       193    1        9.418807223800      12.005000000000      17.193498500000
       194    2       10.414010365200       7.503125000000      16.402544200000
       195    1       11.751657223800       7.503125000000      14.956501500000
       196    2       12.746860365200       6.002500000000      15.747455800000
       197    1       14.084507223800      12.005000000000      17.193498500000
       198    2       15.079710365200       7.503125000000      16.402544200000
       199    1       16.417357223800       7.503125000000      14.956501500000
       200    2       17.412560365200       6.002500000000      15.747455800000
       201    1        9.418807223800       9.003750000000      17.193498500000
       202    2       10.414010365200      10.504375000000      16.402544200000
       203    1       11.751657223800      10.504375000000      14.956501500000
       204    2       12.746860365200       9.003750000000      15.747455800000
       205    1       14.084507223800       9.003750000000      17.193498500000
       206    2       15.079710365200      10.504375000000      16.402544200000
       207    1       16.417357223800      10.504375000000      14.956501500000
       208    2       17.412560365200       9.003750000000      15.747455800000
       209    1       18.750207223800      12.005000000000      17.193498500000
       210    2       19.745410365200       7.503125000000      16.402544200000
       211    1       21.083057223800       7.503125000000      14.956501500000
       212    2       22.078260365200       6.002500000000      15.747455800000
       213    1       23.415907223800      12.005000000000      17.193498500000
       214    2       24.411110365200       7.503125000000      16.402544200000
       215    1       25.748757223800       7.503125000000      14.956501500000
       216    2       26.743960365200       6.002500000000      15.747455800000
       217    1       18.750207223800       9.003750000000      17.193498500000
       218    2       19.745410365200      10.504375000000      16.402544200000
       219    1       21.083057223800      10.504375000000      14.956501500000
       220    2       22.078260365200       9.003750000000      15.747455800000
       221    1       23.415907223800       9.003750000000      17.193498500000
       222    2       24.411110365200      10.504375000000      16.402544200000
       223    1       25.748757223800      10.504375000000      14.956501500000
       224    2       26.743960365200       9.003750000000      15.747455800000
       225    1       28.081607223800      12.005000000000      17.193498500000
       226    2       29.076810365200       7.503125000000      16.402544200000
       227    1       30.414457223800       7.503125000000      14.956501500000
       228    2       31.409660365200       6.002500000000      15.747455800000
       229    1       32.747307223800      12.005000000000      17.193498500000
       230    2       33.742510365200       7.503125000000      16.402544200000
       231    1       35.080157223800       7.503125000000      14.956501500000
       232    2       36.075360365200       6.002500000000      15.747455800000
       233    1       28.081607223800       9.003750000000      17.193498500000
       234    2       29.076810365200      10.504375000000      16.402544200000
       235    1       30.414457223800      10.504375000000      14.956501500000
       236    2       31.409660365200       9.003750000000      15.747455800000
       237    1       32.747307223800       9.003750000000      17.193498500000
       238    2       33.742510365200      10.504375000000      16.402544200000
       239    1       35.080157223800      10.504375000000      14.956501500000
       240    2       36.075360365200       9.003750000000      15.747455800000
       241    1       37.413007223800      12.005000000000      17.193498500000
       242    2       38.408210365200       7.503125000000      16.402544200000
       243    1       39.745857223800       7.503125000000      14.956501500000
       244    2       40.741060365200       6.002500000000      15.747455800000
       245    1       42.078707223800      12.005000000000      17.193498500000
       246    2       43.073910365200       7.503125000000      16.402544200000
       247    1       44.411557223800       7.503125000000      14.956501500000
       248    2       45.406760365200       6.002500000000      15.747455800000
       249    1       37.413007223800       9.003750000000      17.193498500000
       250    2       38.408210365200      10.504375000000      16.402544200000
       251    1       39.745857223800      10.504375000000      14.956501500000
       252    2       40.741060365200       9.003750000000      15.747455800000
       253    1       42.078707223800       9.003750000000      17.193498500000
       254    2       43.073910365200      10.504375000000      16.402544200000
       255    1       44.411557223800      10.504375000000      14.956501500000
       256    2       45.406760365200       9.003750000000      15.747455800000
       257    1       46.744407223800      12.005000000000      17.193498500000
       258    2       47.739610365200       7.503125000000      16.402544200000
       259    1       49.077257223800       7.503125000000      14.956501500000
       260    2       50.072460365200       6.002500000000      15.747455800000
       261    1       51.410107223800      12.005000000000      17.193498500000
       262    2       52.405310365200       7.503125000000      16.402544200000
       263    1       53.742957223800       7.503125000000      14.956501500000
       264    2       54.738160365200       6.002500000000      15.747455800000
       265    1       46.744407223800       9.003750000000      17.193498500000
       266    2       47.739610365200      10.504375000000      16.402544200000
       267    1       49.077257223800      10.504375000000      14.956501500000
       268    2       50.072460365200       9.003750000000      15.747455800000
       269    1       51.410107223800       9.003750000000      17.193498500000
       270    2       52.405310365200      10.504375000000      16.402544200000
       271    1       53.742957223800      10.504375000000      14.956501500000
       272    2       54.738160365200       9.003750000000      15.747455800000
       273    1       56.075807223800      12.005000000000      17.193498500000
       274    2       57.071010365200       7.503125000000      16.402544200000
       275    1       58.408657223800       7.503125000000      14.956501500000
       276    2       59.403860365200       6.002500000000      15.747455800000
       277    1       60.741507223800      12.005000000000      17.193498500000
       278    2       61.736710365200       7.503125000000      16.402544200000
       279    1       63.074357223800       7.503125000000      14.956501500000
       280    2       64.069560365200       6.002500000000      15.747455800000
       281    1       56.075807223800       9.003750000000      17.193498500000
       282    2       57.071010365200      10.504375000000      16.402544200000
       283    1       58.408657223800      10.504375000000      14.956501500000
       284    2       59.403860365200       9.003750000000      15.747455800000
       285    1       60.741507223800       9.003750000000      17.193498500000
       286    2       61.736710365200      10.504375000000      16.402544200000
       287    1       63.074357223800      10.504375000000      14.956501500000
       288    2       64.069560365200       9.003750000000      15.747455800000
       289    1       65.407207223800      12.005000000000      17.193498500000
       290    2       66.402410365200       7.503125000000      16.402544200000
       291    1       67.740057223800       7.503125000000      14.956501500000
       292    2       68.735260365200       6.002500000000      15.747455800000
       293    1       70.072907223800      12.005000000000      17.193498500000
       294    2       71.068110365200       7.503125000000      16.402544200000
       295    1       72.405757223800       7.503125000000      14.956501500000
       296    2       73.400960365200       6.002500000000      15.747455800000
       297    1       65.407207223800       9.003750000000      17.193498500000
       298    2       66.402410365200      10.504375000000      16.402544200000
       299    1       67.740057223800      10.504375000000      14.956501500000
       300    2       68.735260365200       9.003750000000      15.747455800000
       301    1       70.072907223800       9.003750000000      17.193498500000
       302    2       71.068110365200      10.504375000000      16.402544200000
       303    1       72.405757223800      10.504375000000      14.956501500000
       304    2       73.400960365200       9.003750000000      15.747455800000
       305    1       74.738607223800      12.005000000000      17.193498500000
       306    2       75.733810365200       7.503125000000      16.402544200000
       307    1       77.071457223800       7.503125000000      14.956501500000
       308    2       78.066660365200       6.002500000000      15.747455800000
       309    1       79.404307223800      12.005000000000      17.193498500000
       310    2       80.399510365200       7.503125000000      16.402544200000
       311    1       81.737157223800       7.503125000000      14.956501500000
       312    2       82.732360365200       6.002500000000      15.747455800000
       313    1       74.738607223800       9.003750000000      17.193498500000
       314    2       75.733810365200      10.504375000000      16.402544200000
       315    1       77.071457223800      10.504375000000      14.956501500000
       316    2       78.066660365200       9.003750000000      15.747455800000
       317    1       79.404307223800       9.003750000000      17.193498500000
       318    2       80.399510365200      10.504375000000      16.402544200000
       319    1       81.737157223800      10.504375000000      14.956501500000
       320    2       82.732360365200       9.003750000000      15.747455800000
       321    1       84.070007223800      12.005000000000      17.193498500000
       322    2       85.065210365200       7.503125000000      16.402544200000
       323    1       86.402857223800       7.503125000000      14.956501500000
       324    2       87.398060365200       6.002500000000      15.747455800000
       325    1       88.735707223800      12.005000000000      17.193498500000
       326    2       89.730910365200       7.503125000000      16.402544200000
       327    1       91.068557223800       7.503125000000      14.956501500000
       328    2       92.063760365200       6.002500000000      15.747455800000
       329    1       84.070007223800       9.003750000000      17.193498500000
       330    2       85.065210365200      10.504375000000      16.402544200000
       331    1       86.402857223800      10.504375000000      14.956501500000
       332    2       87.398060365200       9.003750000000      15.747455800000
       333    1       88.735707223800       9.003750000000      17.193498500000
       334    2       89.730910365200      10.504375000000      16.402544200000
       335    1       91.068557223800      10.504375000000      14.956501500000
       336    2       92.063760365200       9.003750000000      15.747455800000
       337    1       93.401407223800      12.005000000000      17.193498500000
       338    2       94.396610365200       7.503125000000      16.402544200000
       339    1       95.734257223800       7.503125000000      14.956501500000
       340    2       96.729460365200       6.002500000000      15.747455800000
       341    1       98.067107223800      12.005000000000      17.193498500000
       342    2       99.062310365200       7.503125000000      16.402544200000
       343    1      100.399957223800       7.503125000000      14.956501500000
       344    2      101.395160365200       6.002500000000      15.747455800000
       345    1       93.401407223800       9.003750000000      17.193498500000
       346    2       94.396610365200      10.504375000000      16.402544200000
       347    1       95.734257223800      10.504375000000      14.956501500000
       348    2       96.729460365200       9.003750000000      15.747455800000
       349    1       98.067107223800       9.003750000000      17.193498500000
       350    2       99.062310365200      10.504375000000      16.402544200000
       351    1      100.399957223800      10.504375000000      14.956501500000
       352    2      101.395160365200       9.003750000000      15.747455800000
       353    1        0.087407223800      18.007500000000      17.193498500000
       354    2        1.082610365200      13.505625000000      16.402544200000
       355    1        2.420257223800      13.505625000000      14.956501500000
       356    2        3.415460365200      12.005000000000      15.747455800000
       357    1        4.753107223800      18.007500000000      17.193498500000
       358    2        5.748310365200      13.505625000000      16.402544200000
       359    1        7.085957223800      13.505625000000      14.956501500000
       360    2        8.081160365200      12.005000000000      15.747455800000
       361    1        0.087407223800      15.006250000000      17.193498500000
       362    2        1.082610365200      16.506875000000      16.402544200000
       363    1        2.420257223800      16.506875000000      14.956501500000
       364    2        3.415460365200      15.006250000000      15.747455800000
       365    1        4.753107223800      15.006250000000      17.193498500000
       366    2        5.748310365200      16.506875000000      16.402544200000
       367    1        7.085957223800      16.506875000000      14.956501500000
       368    2        8.081160365200      15.006250000000      15.747455800000
       369    1        9.418807223800      18.007500000000      17.193498500000
       370    2       10.414010365200      13.505625000000      16.402544200000