 # Te8 Ge8
  
        2112  atoms
           2  atom types
 
      0.000000000000      96.265400000000  xlo xhi
      0.000000000000     101.515200000000  ylo yhi
      0.000000000000      17.109800000000  zlo zhi
 
Masses
 
            1   127.60000000            # Te
            2   72.63000000             # Ge
 
Atoms # atomic
 
         1    1        0.290922790200       4.229444696800       7.036559238200
         2    1        2.478816547200       2.114510858400      10.073052554000
         3    2        0.560194616800       4.229444696800       9.755836862000
         4    2        2.748088373800       2.114510858400       7.353723600800
         5    1        4.666622790200       4.229444696800       7.036559238200
         6    1        6.854516547200       2.114510858400      10.073052554000
         7    2        4.935894616800       4.229444696800       9.755836862000
         8    2        7.123788373800       2.114510858400       7.353723600800
         9    1        0.290922790200       8.459244696800       7.036559238200
        10    1        2.478816547200       6.344310858400      10.073052554000
        11    2        0.560194616800       8.459244696800       9.755836862000
        12    2        2.748088373800       6.344310858400       7.353723600800
        13    1        4.666622790200       8.459244696800       7.036559238200
        14    1        6.854516547200       6.344310858400      10.073052554000
        15    2        4.935894616800       8.459244696800       9.755836862000
        16    2        7.123788373800       6.344310858400       7.353723600800
        17    1        9.042322790200       4.229444696800       7.036559238200
        18    1       11.230216547200       2.114510858400      10.073052554000
        19    2        9.311594616800       4.229444696800       9.755836862000
        20    2       11.499488373800       2.114510858400       7.353723600800
        21    1       13.418022790200       4.229444696800       7.036559238200
        22    1       15.605916547200       2.114510858400      10.073052554000
        23    2       13.687294616800       4.229444696800       9.755836862000
        24    2       15.875188373800       2.114510858400       7.353723600800
        25    1        9.042322790200       8.459244696800       7.036559238200
        26    1       11.230216547200       6.344310858400      10.073052554000
        27    2        9.311594616800       8.459244696800       9.755836862000
        28    2       11.499488373800       6.344310858400       7.353723600800
        29    1       13.418022790200       8.459244696800       7.036559238200
        30    1       15.605916547200       6.344310858400      10.073052554000
        31    2       13.687294616800       8.459244696800       9.755836862000
        32    2       15.875188373800       6.344310858400       7.353723600800
        33    1       17.793722790200       4.229444696800       7.036559238200
        34    1       19.981616547200       2.114510858400      10.073052554000
        35    2       18.062994616800       4.229444696800       9.755836862000
        36    2       20.250888373800       2.114510858400       7.353723600800
        37    1       22.169422790200       4.229444696800       7.036559238200
        38    1       24.357316547200       2.114510858400      10.073052554000
        39    2       22.438694616800       4.229444696800       9.755836862000
        40    2       24.626588373800       2.114510858400       7.353723600800
        41    1       17.793722790200       8.459244696800       7.036559238200
        42    1       19.981616547200       6.344310858400      10.073052554000
        43    2       18.062994616800       8.459244696800       9.755836862000
        44    2       20.250888373800       6.344310858400       7.353723600800
        45    1       22.169422790200       8.459244696800       7.036559238200
        46    1       24.357316547200       6.344310858400      10.073052554000
        47    2       22.438694616800       8.459244696800       9.755836862000
        48    2       24.626588373800       6.344310858400       7.353723600800
        49    1       26.545122790200       4.229444696800       7.036559238200
        50    1       28.733016547200       2.114510858400      10.073052554000
        51    2       26.814394616800       4.229444696800       9.755836862000
        52    2       29.002288373800       2.114510858400       7.353723600800
        53    1       30.920822790200       4.229444696800       7.036559238200
        54    1       33.108716547200       2.114510858400      10.073052554000
        55    2       31.190094616800       4.229444696800       9.755836862000
        56    2       33.377988373800       2.114510858400       7.353723600800
        57    1       26.545122790200       8.459244696800       7.036559238200
        58    1       28.733016547200       6.344310858400      10.073052554000
        59    2       26.814394616800       8.459244696800       9.755836862000
        60    2       29.002288373800       6.344310858400       7.353723600800
        61    1       30.920822790200       8.459244696800       7.036559238200
        62    1       33.108716547200       6.344310858400      10.073052554000
        63    2       31.190094616800       8.459244696800       9.755836862000
        64    2       33.377988373800       6.344310858400       7.353723600800
        65    1       35.296522790200       4.229444696800       7.036559238200
        66    1       37.484416547200       2.114510858400      10.073052554000
        67    2       35.565794616800       4.229444696800       9.755836862000
        68    2       37.753688373800       2.114510858400       7.353723600800
        69    1       39.672222790200       4.229444696800       7.036559238200
        70    1       41.860116547200       2.114510858400      10.073052554000
        71    2       39.941494616800       4.229444696800       9.755836862000
        72    2       42.129388373800       2.114510858400       7.353723600800
        73    1       35.296522790200       8.459244696800       7.036559238200
        74    1       37.484416547200       6.344310858400      10.073052554000
        75    2       35.565794616800       8.459244696800       9.755836862000
        76    2       37.753688373800       6.344310858400       7.353723600800
        77    1       39.672222790200       8.459244696800       7.036559238200
        78    1       41.860116547200       6.344310858400      10.073052554000
        79    2       39.941494616800       8.459244696800       9.755836862000
        80    2       42.129388373800       6.344310858400       7.353723600800
        81    1       44.047922790200       4.229444696800       7.036559238200
        82    1       46.235816547200       2.114510858400      10.073052554000
        83    2       44.317194616800       4.229444696800       9.755836862000
        84    2       46.505088373800       2.114510858400       7.353723600800
        85    1       48.423622790200       4.229444696800       7.036559238200
        86    1       50.611516547200       2.114510858400      10.073052554000
        87    2       48.692894616800       4.229444696800       9.755836862000
        88    2       50.880788373800       2.114510858400       7.353723600800
        89    1       44.047922790200       8.459244696800       7.036559238200
        90    1       46.235816547200       6.344310858400      10.073052554000
        91    2       44.317194616800       8.459244696800       9.755836862000
        92    2       46.505088373800       6.344310858400       7.353723600800
        93    1       48.423622790200       8.459244696800       7.036559238200
        94    1       50.611516547200       6.344310858400      10.073052554000
        95    2       48.692894616800       8.459244696800       9.755836862000
        96    2       50.880788373800       6.344310858400       7.353723600800
        97    1       52.799322790200       4.229444696800       7.036559238200
        98    1       54.987216547200       2.114510858400      10.073052554000
        99    2       53.068594616800       4.229444696800       9.755836862000
       100    2       55.256488373800       2.114510858400       7.353723600800
       101    1       57.175022790200       4.229444696800       7.036559238200
       102    1       59.362916547200       2.114510858400      10.073052554000
       103    2       57.444294616800       4.229444696800       9.755836862000
       104    2       59.632188373800       2.114510858400       7.353723600800
       105    1       52.799322790200       8.459244696800       7.036559238200
       106    1       54.987216547200       6.344310858400      10.073052554000
       107    2       53.068594616800       8.459244696800       9.755836862000
       108    2       55.256488373800       6.344310858400       7.353723600800
       109    1       57.175022790200       8.459244696800       7.036559238200
       110    1       59.362916547200       6.344310858400      10.073052554000
       111    2       57.444294616800       8.459244696800       9.755836862000
       112    2       59.632188373800       6.344310858400       7.353723600800
       113    1       61.550722790200       4.229444696800       7.036559238200
       114    1       63.738616547200       2.114510858400      10.073052554000
       115    2       61.819994616800       4.229444696800       9.755836862000
       116    2       64.007888373800       2.114510858400       7.353723600800
       117    1       65.926422790200       4.229444696800       7.036559238200
       118    1       68.114316547200       2.114510858400      10.073052554000
       119    2       66.195694616800       4.229444696800       9.755836862000
       120    2       68.383588373800       2.114510858400       7.353723600800
       121    1       61.550722790200       8.459244696800       7.036559238200
       122    1       63.738616547200       6.344310858400      10.073052554000
       123    2       61.819994616800       8.459244696800       9.755836862000
       124    2       64.007888373800       6.344310858400       7.353723600800
       125    1       65.926422790200       8.459244696800       7.036559238200
       126    1       68.114316547200       6.344310858400      10.073052554000
       127    2       66.195694616800       8.459244696800       9.755836862000
       128    2       68.383588373800       6.344310858400       7.353723600800
       129    1       70.302122790200       4.229444696800       7.036559238200
       130    1       72.490016547200       2.114510858400      10.073052554000
       131    2       70.571394616800       4.229444696800       9.755836862000
       132    2       72.759288373800       2.114510858400       7.353723600800
       133    1       74.677822790200       4.229444696800       7.036559238200
       134    1       76.865716547200       2.114510858400      10.073052554000
       135    2       74.947094616800       4.229444696800       9.755836862000
       136    2       77.134988373800       2.114510858400       7.353723600800
       137    1       70.302122790200       8.459244696800       7.036559238200
       138    1       72.490016547200       6.344310858400      10.073052554000
       139    2       70.571394616800       8.459244696800       9.755836862000
       140    2       72.759288373800       6.344310858400       7.353723600800
       141    1       74.677822790200       8.459244696800       7.036559238200
       142    1       76.865716547200       6.344310858400      10.073052554000
       143    2       74.947094616800       8.459244696800       9.755836862000
       144    2       77.134988373800       6.344310858400       7.353723600800
       145    1       79.053522790200       4.229444696800       7.036559238200
       146    1       81.241416547200       2.114510858400      10.073052554000
       147    2       79.322794616800       4.229444696800       9.755836862000
       148    2       81.510688373800       2.114510858400       7.353723600800
       149    1       83.429222790200       4.229444696800       7.036559238200
       150    1       85.617116547200       2.114510858400      10.073052554000
       151    2       83.698494616800       4.229444696800       9.755836862000
       152    2       85.886388373800       2.114510858400       7.353723600800
       153    1       79.053522790200       8.459244696800       7.036559238200
       154    1       81.241416547200       6.344310858400      10.073052554000
       155    2       79.322794616800       8.459244696800       9.755836862000
       156    2       81.510688373800       6.344310858400       7.353723600800
       157    1       83.429222790200       8.459244696800       7.036559238200
       158    1       85.617116547200       6.344310858400      10.073052554000
       159    2       83.698494616800       8.459244696800       9.755836862000
       160    2       85.886388373800       6.344310858400       7.353723600800
       161    1       87.804922790200       4.229444696800       7.036559238200
       162    1       89.992816547200       2.114510858400      10.073052554000
       163    2       88.074194616800       4.229444696800       9.755836862000
       164    2       90.262088373800       2.114510858400       7.353723600800
       165    1       92.180622790200       4.229444696800       7.036559238200
       166    1       94.368516547200       2.114510858400      10.073052554000
       167    2       92.449894616800       4.229444696800       9.755836862000
       168    2       94.637788373800       2.114510858400       7.353723600800
       169    1       87.804922790200       8.459244696800       7.036559238200
       170    1       89.992816547200       6.344310858400      10.073052554000
       171    2       88.074194616800       8.459244696800       9.755836862000
       172    2       90.262088373800       6.344310858400       7.353723600800
       173    1       92.180622790200       8.459244696800       7.036559238200
       174    1       94.368516547200       6.344310858400      10.073052554000
       175    2       92.449894616800       8.459244696800       9.755836862000
       176    2       94.637788373800       6.344310858400       7.353723600800
       177    1        0.290922790200      12.689044696800       7.036559238200
       178    1        2.478816547200      10.574110858400      10.073052554000
       179    2        0.560194616800      12.689044696800       9.755836862000
       180    2        2.748088373800      10.574110858400       7.353723600800
       181    1        4.666622790200      12.689044696800       7.036559238200
       182    1        6.854516547200      10.574110858400      10.073052554000
       183    2        4.935894616800      12.689044696800       9.755836862000
       184    2        7.123788373800      10.574110858400       7.353723600800
       185    1        0.290922790200      16.918844696800       7.036559238200
       186    1        2.478816547200      14.803910858400      10.073052554000
       187    2        0.560194616800      16.918844696800       9.755836862000
       188    2        2.748088373800      14.803910858400       7.353723600800
       189    1        4.666622790200      16.918844696800       7.036559238200
       190    1        6.854516547200      14.803910858400      10.073052554000
       191    2        4.935894616800      16.918844696800       9.755836862000
       192    2        7.123788373800      14.803910858400       7.353723600800
       193    1        9.042322790200      12.689044696800       7.036559238200
       194    1       11.230216547200      10.574110858400      10.073052554000
       195    2        9.311594616800      12.689044696800       9.755836862000
       196    2       11.499488373800      10.574110858400       7.353723600800
       197    1       13.418022790200      12.689044696800       7.036559238200
       198    1       15.605916547200      10.574110858400      10.073052554000
       199    2       13.687294616800      12.689044696800       9.755836862000
       200    2       15.875188373800      10.574110858400       7.353723600800
       201    1        9.042322790200      16.918844696800       7.036559238200
       202    1       11.230216547200      14.803910858400      10.073052554000
       203    2        9.311594616800      16.918844696800       9.755836862000
       204    2       11.499488373800      14.803910858400       7.353723600800
       205    1       13.418022790200      16.918844696800       7.036559238200
       206    1       15.605916547200      14.803910858400      10.073052554000
       207    2       13.687294616800      16.918844696800       9.755836862000
       208    2       15.875188373800      14.803910858400       7.353723600800
       209    1       17.793722790200      12.689044696800       7.036559238200
       210    1       19.981616547200      10.574110858400      10.073052554000
       211    2       18.062994616800      12.689044696800       9.755836862000
       212    2       20.250888373800      10.574110858400       7.353723600800
       213    1       22.169422790200      12.689044696800       7.036559238200
       214    1       24.357316547200      10.574110858400      10.073052554000
       215    2       22.438694616800      12.689044696800       9.755836862000
       216    2       24.626588373800      10.574110858400       7.353723600800
       217    1       17.793722790200      16.918844696800       7.036559238200
       218    1       19.981616547200      14.803910858400      10.073052554000
       219    2       18.062994616800      16.918844696800       9.755836862000
       220    2       20.250888373800      14.803910858400       7.353723600800
       221    1       22.169422790200      16.918844696800       7.036559238200
       222    1       24.357316547200      14.803910858400      10.073052554000
       223    2       22.438694616800      16.918844696800       9.755836862000
       224    2       24.626588373800      14.803910858400       7.353723600800
       225    1       26.545122790200      12.689044696800       7.036559238200
       226    1       28.733016547200      10.574110858400      10.073052554000
       227    2       26.814394616800      12.689044696800       9.755836862000
       228    2       29.002288373800      10.574110858400       7.353723600800
       229    1       30.920822790200      12.689044696800       7.036559238200
       230    1       33.108716547200      10.574110858400      10.073052554000
       231    2       31.190094616800      12.689044696800       9.755836862000
       232    2       33.377988373800      10.574110858400       7.353723600800
       233    1       26.545122790200      16.918844696800       7.036559238200
       234    1       28.733016547200      14.803910858400      10.073052554000
       235    2       26.814394616800      16.918844696800       9.755836862000
       236    2       29.002288373800      14.803910858400       7.353723600800
       237    1       30.920822790200      16.918844696800       7.036559238200
       238    1       33.108716547200      14.803910858400      10.073052554000
       239    2       31.190094616800      16.918844696800       9.755836862000
       240    2       33.377988373800      14.803910858400       7.353723600800
       241    1       35.296522790200      12.689044696800       7.036559238200
       242    1       37.484416547200      10.574110858400      10.073052554000
       243    2       35.565794616800      12.689044696800       9.755836862000
       244    2       37.753688373800      10.574110858400       7.353723600800
       245    1       39.672222790200      12.689044696800       7.036559238200
       246    1       41.860116547200      10.574110858400      10.073052554000
       247    2       39.941494616800      12.689044696800       9.755836862000
       248    2       42.129388373800      10.574110858400       7.353723600800
       249    1       35.296522790200      16.918844696800       7.036559238200
       250    1       37.484416547200      14.803910858400      10.073052554000
       251    2       35.565794616800      16.918844696800       9.755836862000
       252    2       37.753688373800      14.803910858400       7.353723600800
       253    1       39.672222790200      16.918844696800       7.036559238200
       254    1       41.860116547200      14.803910858400      10.073052554000
       255    2       39.941494616800      16.918844696800       9.755836862000
       256    2       42.129388373800      14.803910858400       7.353723600800
       257    1       44.047922790200      12.689044696800       7.036559238200
       258    1       46.235816547200      10.574110858400      10.073052554000
       259    2       44.317194616800      12.689044696800       9.755836862000
       260    2       46.505088373800      10.574110858400       7.353723600800
       261    1       48.423622790200      12.689044696800       7.036559238200
       262    1       50.611516547200      10.574110858400      10.073052554000
       263    2       48.692894616800      12.689044696800       9.755836862000
       264    2       50.880788373800      10.574110858400       7.353723600800
       265    1       44.047922790200      16.918844696800       7.036559238200
       266    1       46.235816547200      14.803910858400      10.073052554000
       267    2       44.317194616800      16.918844696800       9.755836862000
       268    2       46.505088373800      14.803910858400       7.353723600800
       269    1       48.423622790200      16.918844696800       7.036559238200
       270    1       50.611516547200      14.803910858400      10.073052554000
       271    2       48.692894616800      16.918844696800       9.755836862000
       272    2       50.880788373800      14.803910858400       7.353723600800
       273    1       52.799322790200      12.689044696800       7.036559238200
       274    1       54.987216547200      10.574110858400      10.073052554000
       275    2       53.068594616800      12.689044696800       9.755836862000
       276    2       55.256488373800      10.574110858400       7.353723600800
       277    1       57.175022790200      12.689044696800       7.036559238200
       278    1       59.362916547200      10.574110858400      10.073052554000
       279    2       57.444294616800      12.689044696800       9.755836862000
       280    2       59.632188373800      10.574110858400       7.353723600800
       281    1       52.799322790200      16.918844696800       7.036559238200
       282    1       54.987216547200      14.803910858400      10.073052554000
       283    2       53.068594616800      16.918844696800       9.755836862000
       284    2       55.256488373800      14.803910858400       7.353723600800
       285    1       57.175022790200      16.918844696800       7.036559238200
       286    1       59.362916547200      14.803910858400      10.073052554000
       287    2       57.444294616800      16.918844696800       9.755836862000
       288    2       59.632188373800      14.803910858400       7.353723600800
       289    1       61.550722790200      12.689044696800       7.036559238200
       290    1       63.738616547200      10.574110858400      10.073052554000
       291    2       61.819994616800      12.689044696800       9.755836862000
       292    2       64.007888373800      10.574110858400       7.353723600800
       293    1       65.926422790200      12.689044696800       7.036559238200
       294    1       68.114316547200      10.574110858400      10.073052554000
       295    2       66.195694616800      12.689044696800       9.755836862000
       296    2       68.383588373800      10.574110858400       7.353723600800
       297    1       61.550722790200      16.918844696800       7.036559238200
       298    1       63.738616547200      14.803910858400      10.073052554000
       299    2       61.819994616800      16.918844696800       9.755836862000
       300    2       64.007888373800      14.803910858400       7.353723600800
       301    1       65.926422790200      16.918844696800       7.036559238200
       302    1       68.114316547200      14.803910858400      10.073052554000
       303    2       66.195694616800      16.918844696800       9.755836862000
       304    2       68.383588373800      14.803910858400       7.353723600800
       305    1       70.302122790200      12.689044696800       7.036559238200
       306    1       72.490016547200      10.574110858400      10.073052554000
       307    2       70.571394616800      12.689044696800       9.755836862000
       308    2       72.759288373800      10.574110858400       7.353723600800
       309    1       74.677822790200      12.689044696800       7.036559238200
       310    1       76.865716547200      10.574110858400      10.073052554000
       311    2       74.947094616800      12.689044696800       9.755836862000
       312    2       77.134988373800      10.574110858400       7.353723600800
       313    1       70.302122790200      16.918844696800       7.036559238200
       314    1       72.490016547200      14.803910858400      10.073052554000
       315    2       70.571394616800      16.918844696800       9.755836862000
       316    2       72.759288373800      14.803910858400       7.353723600800
       317    1       74.677822790200      16.918844696800       7.036559238200
       318    1       76.865716547200      14.803910858400      10.073052554000
       319    2       74.947094616800      16.918844696800       9.755836862000
       320    2       77.134988373800      14.803910858400       7.353723600800
       321    1       79.053522790200      12.689044696800       7.036559238200
       322    1       81.241416547200      10.574110858400      10.073052554000
       323    2       79.322794616800      12.689044696800       9.755836862000
       324    2       81.510688373800      10.574110858400       7.353723600800
       325    1       83.429222790200      12.689044696800       7.036559238200
       326    1       85.617116547200      10.574110858400      10.073052554000
       327    2       83.698494616800      12.689044696800       9.755836862000
       328    2       85.886388373800      10.574110858400       7.353723600800
       329    1       79.053522790200      16.918844696800       7.036559238200
       330    1       81.241416547200      14.803910858400      10.073052554000
       331    2       79.322794616800      16.918844696800       9.755836862000
       332    2       81.510688373800      14.803910858400       7.353723600800
       333    1       83.429222790200      16.918844696800       7.036559238200
       334    1       85.617116547200      14.803910858400      10.073052554000
       335    2       83.698494616800      16.918844696800       9.755836862000
       336    2       85.886388373800      14.803910858400       7.353723600800
       337    1       87.804922790200      12.689044696800       7.036559238200
       338    1       89.992816547200      10.574110858400      10.073052554000
       339    2       88.074194616800      12.689044696800       9.755836862000
       340    2       90.262088373800      10.574110858400       7.353723600800
       341    1       92.180622790200      12.689044696800       7.036559238200
       342    1       94.368516547200      10.574110858400      10.073052554000
       343    2       92.449894616800      12.689044696800       9.755836862000
       344    2       94.637788373800      10.574110858400       7.353723600800
       345    1       87.804922790200      16.918844696800       7.036559238200
       346    1       89.992816547200      14.803910858400      10.073052554000
       347    2       88.074194616800      16.918844696800       9.755836862000
       348    2       90.262088373800      14.803910858400       7.353723600800
       349    1       92.180622790200      16.918844696800       7.036559238200
       350    1       94.368516547200      14.803910858400      10.073052554000
       351    2       92.449894616800      16.918844696800       9.755836862000
       352    2       94.637788373800      14.803910858400       7.353723600800
       353    1        0.290922790200      21.148644696800       7.036559238200
       354    1        2.478816547200      19.033710858400      10.073052554000
       355    2        0.560194616800      21.148644696800       9.755836862000
       356    2        2.748088373800      19.033710858400       7.353723600800
       357    1        4.666622790200      21.148644696800       7.036559238200
       358    1        6.854516547200      19.033710858400      10.073052554000
       359    2        4.935894616800      21.148644696800       9.755836862000
       360    2        7.123788373800      19.033710858400       7.353723600800
       361    1        0.290922790200      25.378444696800       7.036559238200
       362    1        2.478816547200      23.263510858400      10.073052554000
       363    2        0.560194616800      25.378444696800       9.755836862000
       364    2        2.748088373800      23.263510858400       7.353723600800
       365    1        4.666622790200      25.378444696800       7.036559238200
       366    1        6.854516547200      23.263510858400      10.073052554000
       367    2        4.935894616800      25.378444696800       9.755836862000
       368    2        7.123788373800      23.263510858400       7.353723600800
       369    1        9.042322790200      21.148644696800       7.036559238200
       370    1       11.230216547200      19.033710858400      10.073052554000