 # Te8 Si8
  
        2304  atoms
           2  atom types
 
      0.000000000000     102.853200000000  xlo xhi
      0.000000000000      98.566800000000  ylo yhi
      0.000000000000      17.109800000000  zlo zhi
 
Masses
 
            1   127.60000000            # Te
            2   28.08500000             # Si
 
Atoms # atomic
 
         1    1        0.266141226100       4.106596802300       7.098086079000
         2    1        2.408967652700       2.053105374500      10.011713921000
         3    2        0.569875296800       4.106596802300       9.720967089600
         4    2        2.712684581200       2.053105374500       7.388832910400
         5    1        4.551691226100       4.106596802300       7.098086079000
         6    1        6.694517652700       2.053105374500      10.011713921000
         7    2        4.855425296800       4.106596802300       9.720967089600
         8    2        6.998234581200       2.053105374500       7.388832910400
         9    1        0.266141226100       8.213546802300       7.098086079000
        10    1        2.408967652700       6.160055374500      10.011713921000
        11    2        0.569875296800       8.213546802300       9.720967089600
        12    2        2.712684581200       6.160055374500       7.388832910400
        13    1        4.551691226100       8.213546802300       7.098086079000
        14    1        6.694517652700       6.160055374500      10.011713921000
        15    2        4.855425296800       8.213546802300       9.720967089600
        16    2        6.998234581200       6.160055374500       7.388832910400
        17    1        8.837241226100       4.106596802300       7.098086079000
        18    1       10.980067652700       2.053105374500      10.011713921000
        19    2        9.140975296800       4.106596802300       9.720967089600
        20    2       11.283784581200       2.053105374500       7.388832910400
        21    1       13.122791226100       4.106596802300       7.098086079000
        22    1       15.265617652700       2.053105374500      10.011713921000
        23    2       13.426525296800       4.106596802300       9.720967089600
        24    2       15.569334581200       2.053105374500       7.388832910400
        25    1        8.837241226100       8.213546802300       7.098086079000
        26    1       10.980067652700       6.160055374500      10.011713921000
        27    2        9.140975296800       8.213546802300       9.720967089600
        28    2       11.283784581200       6.160055374500       7.388832910400
        29    1       13.122791226100       8.213546802300       7.098086079000
        30    1       15.265617652700       6.160055374500      10.011713921000
        31    2       13.426525296800       8.213546802300       9.720967089600
        32    2       15.569334581200       6.160055374500       7.388832910400
        33    1       17.408341226100       4.106596802300       7.098086079000
        34    1       19.551167652700       2.053105374500      10.011713921000
        35    2       17.712075296800       4.106596802300       9.720967089600
        36    2       19.854884581200       2.053105374500       7.388832910400
        37    1       21.693891226100       4.106596802300       7.098086079000
        38    1       23.836717652700       2.053105374500      10.011713921000
        39    2       21.997625296800       4.106596802300       9.720967089600
        40    2       24.140434581200       2.053105374500       7.388832910400
        41    1       17.408341226100       8.213546802300       7.098086079000
        42    1       19.551167652700       6.160055374500      10.011713921000
        43    2       17.712075296800       8.213546802300       9.720967089600
        44    2       19.854884581200       6.160055374500       7.388832910400
        45    1       21.693891226100       8.213546802300       7.098086079000
        46    1       23.836717652700       6.160055374500      10.011713921000
        47    2       21.997625296800       8.213546802300       9.720967089600
        48    2       24.140434581200       6.160055374500       7.388832910400
        49    1       25.979441226100       4.106596802300       7.098086079000
        50    1       28.122267652700       2.053105374500      10.011713921000
        51    2       26.283175296800       4.106596802300       9.720967089600
        52    2       28.425984581200       2.053105374500       7.388832910400
        53    1       30.264991226100       4.106596802300       7.098086079000
        54    1       32.407817652700       2.053105374500      10.011713921000
        55    2       30.568725296800       4.106596802300       9.720967089600
        56    2       32.711534581200       2.053105374500       7.388832910400
        57    1       25.979441226100       8.213546802300       7.098086079000
        58    1       28.122267652700       6.160055374500      10.011713921000
        59    2       26.283175296800       8.213546802300       9.720967089600
        60    2       28.425984581200       6.160055374500       7.388832910400
        61    1       30.264991226100       8.213546802300       7.098086079000
        62    1       32.407817652700       6.160055374500      10.011713921000
        63    2       30.568725296800       8.213546802300       9.720967089600
        64    2       32.711534581200       6.160055374500       7.388832910400
        65    1       34.550541226100       4.106596802300       7.098086079000
        66    1       36.693367652700       2.053105374500      10.011713921000
        67    2       34.854275296800       4.106596802300       9.720967089600
        68    2       36.997084581200       2.053105374500       7.388832910400
        69    1       38.836091226100       4.106596802300       7.098086079000
        70    1       40.978917652700       2.053105374500      10.011713921000
        71    2       39.139825296800       4.106596802300       9.720967089600
        72    2       41.282634581200       2.053105374500       7.388832910400
        73    1       34.550541226100       8.213546802300       7.098086079000
        74    1       36.693367652700       6.160055374500      10.011713921000
        75    2       34.854275296800       8.213546802300       9.720967089600
        76    2       36.997084581200       6.160055374500       7.388832910400
        77    1       38.836091226100       8.213546802300       7.098086079000
        78    1       40.978917652700       6.160055374500      10.011713921000
        79    2       39.139825296800       8.213546802300       9.720967089600
        80    2       41.282634581200       6.160055374500       7.388832910400
        81    1       43.121641226100       4.106596802300       7.098086079000
        82    1       45.264467652700       2.053105374500      10.011713921000
        83    2       43.425375296800       4.106596802300       9.720967089600
        84    2       45.568184581200       2.053105374500       7.388832910400
        85    1       47.407191226100       4.106596802300       7.098086079000
        86    1       49.550017652700       2.053105374500      10.011713921000
        87    2       47.710925296800       4.106596802300       9.720967089600
        88    2       49.853734581200       2.053105374500       7.388832910400
        89    1       43.121641226100       8.213546802300       7.098086079000
        90    1       45.264467652700       6.160055374500      10.011713921000
        91    2       43.425375296800       8.213546802300       9.720967089600
        92    2       45.568184581200       6.160055374500       7.388832910400
        93    1       47.407191226100       8.213546802300       7.098086079000
        94    1       49.550017652700       6.160055374500      10.011713921000
        95    2       47.710925296800       8.213546802300       9.720967089600
        96    2       49.853734581200       6.160055374500       7.388832910400
        97    1       51.692741226100       4.106596802300       7.098086079000
        98    1       53.835567652700       2.053105374500      10.011713921000
        99    2       51.996475296800       4.106596802300       9.720967089600
       100    2       54.139284581200       2.053105374500       7.388832910400
       101    1       55.978291226100       4.106596802300       7.098086079000
       102    1       58.121117652700       2.053105374500      10.011713921000
       103    2       56.282025296800       4.106596802300       9.720967089600
       104    2       58.424834581200       2.053105374500       7.388832910400
       105    1       51.692741226100       8.213546802300       7.098086079000
       106    1       53.835567652700       6.160055374500      10.011713921000
       107    2       51.996475296800       8.213546802300       9.720967089600
       108    2       54.139284581200       6.160055374500       7.388832910400
       109    1       55.978291226100       8.213546802300       7.098086079000
       110    1       58.121117652700       6.160055374500      10.011713921000
       111    2       56.282025296800       8.213546802300       9.720967089600
       112    2       58.424834581200       6.160055374500       7.388832910400
       113    1       60.263841226100       4.106596802300       7.098086079000
       114    1       62.406667652700       2.053105374500      10.011713921000
       115    2       60.567575296800       4.106596802300       9.720967089600
       116    2       62.710384581200       2.053105374500       7.388832910400
       117    1       64.549391226100       4.106596802300       7.098086079000
       118    1       66.692217652700       2.053105374500      10.011713921000
       119    2       64.853125296800       4.106596802300       9.720967089600
       120    2       66.995934581200       2.053105374500       7.388832910400
       121    1       60.263841226100       8.213546802300       7.098086079000
       122    1       62.406667652700       6.160055374500      10.011713921000
       123    2       60.567575296800       8.213546802300       9.720967089600
       124    2       62.710384581200       6.160055374500       7.388832910400
       125    1       64.549391226100       8.213546802300       7.098086079000
       126    1       66.692217652700       6.160055374500      10.011713921000
       127    2       64.853125296800       8.213546802300       9.720967089600
       128    2       66.995934581200       6.160055374500       7.388832910400
       129    1       68.834941226100       4.106596802300       7.098086079000
       130    1       70.977767652700       2.053105374500      10.011713921000
       131    2       69.138675296800       4.106596802300       9.720967089600
       132    2       71.281484581200       2.053105374500       7.388832910400
       133    1       73.120491226100       4.106596802300       7.098086079000
       134    1       75.263317652700       2.053105374500      10.011713921000
       135    2       73.424225296800       4.106596802300       9.720967089600
       136    2       75.567034581200       2.053105374500       7.388832910400
       137    1       68.834941226100       8.213546802300       7.098086079000
       138    1       70.977767652700       6.160055374500      10.011713921000
       139    2       69.138675296800       8.213546802300       9.720967089600
       140    2       71.281484581200       6.160055374500       7.388832910400
       141    1       73.120491226100       8.213546802300       7.098086079000
       142    1       75.263317652700       6.160055374500      10.011713921000
       143    2       73.424225296800       8.213546802300       9.720967089600
       144    2       75.567034581200       6.160055374500       7.388832910400
       145    1       77.406041226100       4.106596802300       7.098086079000
       146    1       79.548867652700       2.053105374500      10.011713921000
       147    2       77.709775296800       4.106596802300       9.720967089600
       148    2       79.852584581200       2.053105374500       7.388832910400
       149    1       81.691591226100       4.106596802300       7.098086079000
       150    1       83.834417652700       2.053105374500      10.011713921000
       151    2       81.995325296800       4.106596802300       9.720967089600
       152    2       84.138134581200       2.053105374500       7.388832910400
       153    1       77.406041226100       8.213546802300       7.098086079000
       154    1       79.548867652700       6.160055374500      10.011713921000
       155    2       77.709775296800       8.213546802300       9.720967089600
       156    2       79.852584581200       6.160055374500       7.388832910400
       157    1       81.691591226100       8.213546802300       7.098086079000
       158    1       83.834417652700       6.160055374500      10.011713921000
       159    2       81.995325296800       8.213546802300       9.720967089600
       160    2       84.138134581200       6.160055374500       7.388832910400
       161    1       85.977141226100       4.106596802300       7.098086079000
       162    1       88.119967652700       2.053105374500      10.011713921000
       163    2       86.280875296800       4.106596802300       9.720967089600
       164    2       88.423684581200       2.053105374500       7.388832910400
       165    1       90.262691226100       4.106596802300       7.098086079000
       166    1       92.405517652700       2.053105374500      10.011713921000
       167    2       90.566425296800       4.106596802300       9.720967089600
       168    2       92.709234581200       2.053105374500       7.388832910400
       169    1       85.977141226100       8.213546802300       7.098086079000
       170    1       88.119967652700       6.160055374500      10.011713921000
       171    2       86.280875296800       8.213546802300       9.720967089600
       172    2       88.423684581200       6.160055374500       7.388832910400
       173    1       90.262691226100       8.213546802300       7.098086079000
       174    1       92.405517652700       6.160055374500      10.011713921000
       175    2       90.566425296800       8.213546802300       9.720967089600
       176    2       92.709234581200       6.160055374500       7.388832910400
       177    1       94.548241226100       4.106596802300       7.098086079000
       178    1       96.691067652700       2.053105374500      10.011713921000
       179    2       94.851975296800       4.106596802300       9.720967089600
       180    2       96.994784581200       2.053105374500       7.388832910400
       181    1       98.833791226100       4.106596802300       7.098086079000
       182    1      100.976617652700       2.053105374500      10.011713921000
       183    2       99.137525296800       4.106596802300       9.720967089600
       184    2      101.280334581200       2.053105374500       7.388832910400
       185    1       94.548241226100       8.213546802300       7.098086079000
       186    1       96.691067652700       6.160055374500      10.011713921000
       187    2       94.851975296800       8.213546802300       9.720967089600
       188    2       96.994784581200       6.160055374500       7.388832910400
       189    1       98.833791226100       8.213546802300       7.098086079000
       190    1      100.976617652700       6.160055374500      10.011713921000
       191    2       99.137525296800       8.213546802300       9.720967089600
       192    2      101.280334581200       6.160055374500       7.388832910400
       193    1        0.266141226100      12.320496802300       7.098086079000
       194    1        2.408967652700      10.267005374500      10.011713921000
       195    2        0.569875296800      12.320496802300       9.720967089600
       196    2        2.712684581200      10.267005374500       7.388832910400
       197    1        4.551691226100      12.320496802300       7.098086079000
       198    1        6.694517652700      10.267005374500      10.011713921000
       199    2        4.855425296800      12.320496802300       9.720967089600
       200    2        6.998234581200      10.267005374500       7.388832910400
       201    1        0.266141226100      16.427446802300       7.098086079000
       202    1        2.408967652700      14.373955374500      10.011713921000
       203    2        0.569875296800      16.427446802300       9.720967089600
       204    2        2.712684581200      14.373955374500       7.388832910400
       205    1        4.551691226100      16.427446802300       7.098086079000
       206    1        6.694517652700      14.373955374500      10.011713921000
       207    2        4.855425296800      16.427446802300       9.720967089600
       208    2        6.998234581200      14.373955374500       7.388832910400
       209    1        8.837241226100      12.320496802300       7.098086079000
       210    1       10.980067652700      10.267005374500      10.011713921000
       211    2        9.140975296800      12.320496802300       9.720967089600
       212    2       11.283784581200      10.267005374500       7.388832910400
       213    1       13.122791226100      12.320496802300       7.098086079000
       214    1       15.265617652700      10.267005374500      10.011713921000
       215    2       13.426525296800      12.320496802300       9.720967089600
       216    2       15.569334581200      10.267005374500       7.388832910400
       217    1        8.837241226100      16.427446802300       7.098086079000
       218    1       10.980067652700      14.373955374500      10.011713921000
       219    2        9.140975296800      16.427446802300       9.720967089600
       220    2       11.283784581200      14.373955374500       7.388832910400
       221    1       13.122791226100      16.427446802300       7.098086079000
       222    1       15.265617652700      14.373955374500      10.011713921000
       223    2       13.426525296800      16.427446802300       9.720967089600
       224    2       15.569334581200      14.373955374500       7.388832910400
       225    1       17.408341226100      12.320496802300       7.098086079000
       226    1       19.551167652700      10.267005374500      10.011713921000
       227    2       17.712075296800      12.320496802300       9.720967089600
       228    2       19.854884581200      10.267005374500       7.388832910400
       229    1       21.693891226100      12.320496802300       7.098086079000
       230    1       23.836717652700      10.267005374500      10.011713921000
       231    2       21.997625296800      12.320496802300       9.720967089600
       232    2       24.140434581200      10.267005374500       7.388832910400
       233    1       17.408341226100      16.427446802300       7.098086079000
       234    1       19.551167652700      14.373955374500      10.011713921000
       235    2       17.712075296800      16.427446802300       9.720967089600
       236    2       19.854884581200      14.373955374500       7.388832910400
       237    1       21.693891226100      16.427446802300       7.098086079000
       238    1       23.836717652700      14.373955374500      10.011713921000
       239    2       21.997625296800      16.427446802300       9.720967089600
       240    2       24.140434581200      14.373955374500       7.388832910400
       241    1       25.979441226100      12.320496802300       7.098086079000
       242    1       28.122267652700      10.267005374500      10.011713921000
       243    2       26.283175296800      12.320496802300       9.720967089600
       244    2       28.425984581200      10.267005374500       7.388832910400
       245    1       30.264991226100      12.320496802300       7.098086079000
       246    1       32.407817652700      10.267005374500      10.011713921000
       247    2       30.568725296800      12.320496802300       9.720967089600
       248    2       32.711534581200      10.267005374500       7.388832910400
       249    1       25.979441226100      16.427446802300       7.098086079000
       250    1       28.122267652700      14.373955374500      10.011713921000
       251    2       26.283175296800      16.427446802300       9.720967089600
       252    2       28.425984581200      14.373955374500       7.388832910400
       253    1       30.264991226100      16.427446802300       7.098086079000
       254    1       32.407817652700      14.373955374500      10.011713921000
       255    2       30.568725296800      16.427446802300       9.720967089600
       256    2       32.711534581200      14.373955374500       7.388832910400
       257    1       34.550541226100      12.320496802300       7.098086079000
       258    1       36.693367652700      10.267005374500      10.011713921000
       259    2       34.854275296800      12.320496802300       9.720967089600
       260    2       36.997084581200      10.267005374500       7.388832910400
       261    1       38.836091226100      12.320496802300       7.098086079000
       262    1       40.978917652700      10.267005374500      10.011713921000
       263    2       39.139825296800      12.320496802300       9.720967089600
       264    2       41.282634581200      10.267005374500       7.388832910400
       265    1       34.550541226100      16.427446802300       7.098086079000
       266    1       36.693367652700      14.373955374500      10.011713921000
       267    2       34.854275296800      16.427446802300       9.720967089600
       268    2       36.997084581200      14.373955374500       7.388832910400
       269    1       38.836091226100      16.427446802300       7.098086079000
       270    1       40.978917652700      14.373955374500      10.011713921000
       271    2       39.139825296800      16.427446802300       9.720967089600
       272    2       41.282634581200      14.373955374500       7.388832910400
       273    1       43.121641226100      12.320496802300       7.098086079000
       274    1       45.264467652700      10.267005374500      10.011713921000
       275    2       43.425375296800      12.320496802300       9.720967089600
       276    2       45.568184581200      10.267005374500       7.388832910400
       277    1       47.407191226100      12.320496802300       7.098086079000
       278    1       49.550017652700      10.267005374500      10.011713921000
       279    2       47.710925296800      12.320496802300       9.720967089600
       280    2       49.853734581200      10.267005374500       7.388832910400
       281    1       43.121641226100      16.427446802300       7.098086079000
       282    1       45.264467652700      14.373955374500      10.011713921000
       283    2       43.425375296800      16.427446802300       9.720967089600
       284    2       45.568184581200      14.373955374500       7.388832910400
       285    1       47.407191226100      16.427446802300       7.098086079000
       286    1       49.550017652700      14.373955374500      10.011713921000
       287    2       47.710925296800      16.427446802300       9.720967089600
       288    2       49.853734581200      14.373955374500       7.388832910400
       289    1       51.692741226100      12.320496802300       7.098086079000
       290    1       53.835567652700      10.267005374500      10.011713921000
       291    2       51.996475296800      12.320496802300       9.720967089600
       292    2       54.139284581200      10.267005374500       7.388832910400
       293    1       55.978291226100      12.320496802300       7.098086079000
       294    1       58.121117652700      10.267005374500      10.011713921000
       295    2       56.282025296800      12.320496802300       9.720967089600
       296    2       58.424834581200      10.267005374500       7.388832910400
       297    1       51.692741226100      16.427446802300       7.098086079000
       298    1       53.835567652700      14.373955374500      10.011713921000
       299    2       51.996475296800      16.427446802300       9.720967089600
       300    2       54.139284581200      14.373955374500       7.388832910400
       301    1       55.978291226100      16.427446802300       7.098086079000
       302    1       58.121117652700      14.373955374500      10.011713921000
       303    2       56.282025296800      16.427446802300       9.720967089600
       304    2       58.424834581200      14.373955374500       7.388832910400
       305    1       60.263841226100      12.320496802300       7.098086079000
       306    1       62.406667652700      10.267005374500      10.011713921000
       307    2       60.567575296800      12.320496802300       9.720967089600
       308    2       62.710384581200      10.267005374500       7.388832910400
       309    1       64.549391226100      12.320496802300       7.098086079000
       310    1       66.692217652700      10.267005374500      10.011713921000
       311    2       64.853125296800      12.320496802300       9.720967089600
       312    2       66.995934581200      10.267005374500       7.388832910400
       313    1       60.263841226100      16.427446802300       7.098086079000
       314    1       62.406667652700      14.373955374500      10.011713921000
       315    2       60.567575296800      16.427446802300       9.720967089600
       316    2       62.710384581200      14.373955374500       7.388832910400
       317    1       64.549391226100      16.427446802300       7.098086079000
       318    1       66.692217652700      14.373955374500      10.011713921000
       319    2       64.853125296800      16.427446802300       9.720967089600
       320    2       66.995934581200      14.373955374500       7.388832910400
       321    1       68.834941226100      12.320496802300       7.098086079000
       322    1       70.977767652700      10.267005374500      10.011713921000
       323    2       69.138675296800      12.320496802300       9.720967089600
       324    2       71.281484581200      10.267005374500       7.388832910400
       325    1       73.120491226100      12.320496802300       7.098086079000
       326    1       75.263317652700      10.267005374500      10.011713921000
       327    2       73.424225296800      12.320496802300       9.720967089600
       328    2       75.567034581200      10.267005374500       7.388832910400
       329    1       68.834941226100      16.427446802300       7.098086079000
       330    1       70.977767652700      14.373955374500      10.011713921000
       331    2       69.138675296800      16.427446802300       9.720967089600
       332    2       71.281484581200      14.373955374500       7.388832910400
       333    1       73.120491226100      16.427446802300       7.098086079000
       334    1       75.263317652700      14.373955374500      10.011713921000
       335    2       73.424225296800      16.427446802300       9.720967089600
       336    2       75.567034581200      14.373955374500       7.388832910400
       337    1       77.406041226100      12.320496802300       7.098086079000
       338    1       79.548867652700      10.267005374500      10.011713921000
       339    2       77.709775296800      12.320496802300       9.720967089600
       340    2       79.852584581200      10.267005374500       7.388832910400
       341    1       81.691591226100      12.320496802300       7.098086079000
       342    1       83.834417652700      10.267005374500      10.011713921000
       343    2       81.995325296800      12.320496802300       9.720967089600
       344    2       84.138134581200      10.267005374500       7.388832910400
       345    1       77.406041226100      16.427446802300       7.098086079000
       346    1       79.548867652700      14.373955374500      10.011713921000
       347    2       77.709775296800      16.427446802300       9.720967089600
       348    2       79.852584581200      14.373955374500       7.388832910400
       349    1       81.691591226100      16.427446802300       7.098086079000
       350    1       83.834417652700      14.373955374500      10.011713921000
       351    2       81.995325296800      16.427446802300       9.720967089600
       352    2       84.138134581200      14.373955374500       7.388832910400
       353    1       85.977141226100      12.320496802300       7.098086079000
       354    1       88.119967652700      10.267005374500      10.011713921000
       355    2       86.280875296800      12.320496802300       9.720967089600
       356    2       88.423684581200      10.267005374500       7.388832910400
       357    1       90.262691226100      12.320496802300       7.098086079000
       358    1       92.405517652700      10.267005374500      10.011713921000
       359    2       90.566425296800      12.320496802300       9.720967089600
       360    2       92.709234581200      10.267005374500       7.388832910400
       361    1       85.977141226100      16.427446802300       7.098086079000
       362    1       88.119967652700      14.373955374500      10.011713921000
       363    2       86.280875296800      16.427446802300       9.720967089600
       364    2       88.423684581200      14.373955374500       7.388832910400
       365    1       90.262691226100      16.427446802300       7.098086079000
       366    1       92.405517652700      14.373955374500      10.011713921000
       367    2       90.566425296800      16.427446802300       9.720967089600
       368    2       92.709234581200      14.373955374500       7.388832910400
       369    1       94.548241226100      12.320496802300       7.098086079000
       370    1       96.691067652700      10.267005374500      10.011713921000