 # O8 Si8
  
        3344  atoms
           2  atom types
 
      0.000000000000      99.596200000000  xlo xhi
      0.000000000000     102.520200000000  ylo yhi
      0.000000000000      17.109800000000  zlo zhi
 
Masses
 
            1   15.99900000             # O
            2   28.08500000             # Si
 
Atoms # atomic
 
         1    1        4.328296930600       2.697646397400       8.273358241000
         2    1        2.064737876400       1.348734168000       8.836424649200
         3    2        1.075285846200       2.697662584800       9.605578598400
         4    2        3.338835846200       1.348717980600       7.504221401600
         5    1        8.855396930600       2.697646397400       8.273358241000
         6    1        6.591837876400       1.348734168000       8.836424649200
         7    2        5.602385846200       2.697662584800       9.605578598400
         8    2        7.865935846200       1.348717980600       7.504221401600
         9    1        4.328296930600       5.395546397400       8.273358241000
        10    1        2.064737876400       4.046634168000       8.836424649200
        11    2        1.075285846200       5.395562584800       9.605578598400
        12    2        3.338835846200       4.046617980600       7.504221401600
        13    1        8.855396930600       5.395546397400       8.273358241000
        14    1        6.591837876400       4.046634168000       8.836424649200
        15    2        5.602385846200       5.395562584800       9.605578598400
        16    2        7.865935846200       4.046617980600       7.504221401600
        17    1       13.382496930600       2.697646397400       8.273358241000
        18    1       11.118937876400       1.348734168000       8.836424649200
        19    2       10.129485846200       2.697662584800       9.605578598400
        20    2       12.393035846200       1.348717980600       7.504221401600
        21    1       17.909596930600       2.697646397400       8.273358241000
        22    1       15.646037876400       1.348734168000       8.836424649200
        23    2       14.656585846200       2.697662584800       9.605578598400
        24    2       16.920135846200       1.348717980600       7.504221401600
        25    1       13.382496930600       5.395546397400       8.273358241000
        26    1       11.118937876400       4.046634168000       8.836424649200
        27    2       10.129485846200       5.395562584800       9.605578598400
        28    2       12.393035846200       4.046617980600       7.504221401600
        29    1       17.909596930600       5.395546397400       8.273358241000
        30    1       15.646037876400       4.046634168000       8.836424649200
        31    2       14.656585846200       5.395562584800       9.605578598400
        32    2       16.920135846200       4.046617980600       7.504221401600
        33    1       22.436696930600       2.697646397400       8.273358241000
        34    1       20.173137876400       1.348734168000       8.836424649200
        35    2       19.183685846200       2.697662584800       9.605578598400
        36    2       21.447235846200       1.348717980600       7.504221401600
        37    1       26.963796930600       2.697646397400       8.273358241000
        38    1       24.700237876400       1.348734168000       8.836424649200
        39    2       23.710785846200       2.697662584800       9.605578598400
        40    2       25.974335846200       1.348717980600       7.504221401600
        41    1       22.436696930600       5.395546397400       8.273358241000
        42    1       20.173137876400       4.046634168000       8.836424649200
        43    2       19.183685846200       5.395562584800       9.605578598400
        44    2       21.447235846200       4.046617980600       7.504221401600
        45    1       26.963796930600       5.395546397400       8.273358241000
        46    1       24.700237876400       4.046634168000       8.836424649200
        47    2       23.710785846200       5.395562584800       9.605578598400
        48    2       25.974335846200       4.046617980600       7.504221401600
        49    1       31.490896930600       2.697646397400       8.273358241000
        50    1       29.227337876400       1.348734168000       8.836424649200
        51    2       28.237885846200       2.697662584800       9.605578598400
        52    2       30.501435846200       1.348717980600       7.504221401600
        53    1       36.017996930600       2.697646397400       8.273358241000
        54    1       33.754437876400       1.348734168000       8.836424649200
        55    2       32.764985846200       2.697662584800       9.605578598400
        56    2       35.028535846200       1.348717980600       7.504221401600
        57    1       31.490896930600       5.395546397400       8.273358241000
        58    1       29.227337876400       4.046634168000       8.836424649200
        59    2       28.237885846200       5.395562584800       9.605578598400
        60    2       30.501435846200       4.046617980600       7.504221401600
        61    1       36.017996930600       5.395546397400       8.273358241000
        62    1       33.754437876400       4.046634168000       8.836424649200
        63    2       32.764985846200       5.395562584800       9.605578598400
        64    2       35.028535846200       4.046617980600       7.504221401600
        65    1       40.545096930600       2.697646397400       8.273358241000
        66    1       38.281537876400       1.348734168000       8.836424649200
        67    2       37.292085846200       2.697662584800       9.605578598400
        68    2       39.555635846200       1.348717980600       7.504221401600
        69    1       45.072196930600       2.697646397400       8.273358241000
        70    1       42.808637876400       1.348734168000       8.836424649200
        71    2       41.819185846200       2.697662584800       9.605578598400
        72    2       44.082735846200       1.348717980600       7.504221401600
        73    1       40.545096930600       5.395546397400       8.273358241000
        74    1       38.281537876400       4.046634168000       8.836424649200
        75    2       37.292085846200       5.395562584800       9.605578598400
        76    2       39.555635846200       4.046617980600       7.504221401600
        77    1       45.072196930600       5.395546397400       8.273358241000
        78    1       42.808637876400       4.046634168000       8.836424649200
        79    2       41.819185846200       5.395562584800       9.605578598400
        80    2       44.082735846200       4.046617980600       7.504221401600
        81    1       49.599296930600       2.697646397400       8.273358241000
        82    1       47.335737876400       1.348734168000       8.836424649200
        83    2       46.346285846200       2.697662584800       9.605578598400
        84    2       48.609835846200       1.348717980600       7.504221401600
        85    1       54.126396930600       2.697646397400       8.273358241000
        86    1       51.862837876400       1.348734168000       8.836424649200
        87    2       50.873385846200       2.697662584800       9.605578598400
        88    2       53.136935846200       1.348717980600       7.504221401600
        89    1       49.599296930600       5.395546397400       8.273358241000
        90    1       47.335737876400       4.046634168000       8.836424649200
        91    2       46.346285846200       5.395562584800       9.605578598400
        92    2       48.609835846200       4.046617980600       7.504221401600
        93    1       54.126396930600       5.395546397400       8.273358241000
        94    1       51.862837876400       4.046634168000       8.836424649200
        95    2       50.873385846200       5.395562584800       9.605578598400
        96    2       53.136935846200       4.046617980600       7.504221401600
        97    1       58.653496930600       2.697646397400       8.273358241000
        98    1       56.389937876400       1.348734168000       8.836424649200
        99    2       55.400485846200       2.697662584800       9.605578598400
       100    2       57.664035846200       1.348717980600       7.504221401600
       101    1       63.180596930600       2.697646397400       8.273358241000
       102    1       60.917037876400       1.348734168000       8.836424649200
       103    2       59.927585846200       2.697662584800       9.605578598400
       104    2       62.191135846200       1.348717980600       7.504221401600
       105    1       58.653496930600       5.395546397400       8.273358241000
       106    1       56.389937876400       4.046634168000       8.836424649200
       107    2       55.400485846200       5.395562584800       9.605578598400
       108    2       57.664035846200       4.046617980600       7.504221401600
       109    1       63.180596930600       5.395546397400       8.273358241000
       110    1       60.917037876400       4.046634168000       8.836424649200
       111    2       59.927585846200       5.395562584800       9.605578598400
       112    2       62.191135846200       4.046617980600       7.504221401600
       113    1       67.707696930600       2.697646397400       8.273358241000
       114    1       65.444137876400       1.348734168000       8.836424649200
       115    2       64.454685846200       2.697662584800       9.605578598400
       116    2       66.718235846200       1.348717980600       7.504221401600
       117    1       72.234796930600       2.697646397400       8.273358241000
       118    1       69.971237876400       1.348734168000       8.836424649200
       119    2       68.981785846200       2.697662584800       9.605578598400
       120    2       71.245335846200       1.348717980600       7.504221401600
       121    1       67.707696930600       5.395546397400       8.273358241000
       122    1       65.444137876400       4.046634168000       8.836424649200
       123    2       64.454685846200       5.395562584800       9.605578598400
       124    2       66.718235846200       4.046617980600       7.504221401600
       125    1       72.234796930600       5.395546397400       8.273358241000
       126    1       69.971237876400       4.046634168000       8.836424649200
       127    2       68.981785846200       5.395562584800       9.605578598400
       128    2       71.245335846200       4.046617980600       7.504221401600
       129    1       76.761896930600       2.697646397400       8.273358241000
       130    1       74.498337876400       1.348734168000       8.836424649200
       131    2       73.508885846200       2.697662584800       9.605578598400
       132    2       75.772435846200       1.348717980600       7.504221401600
       133    1       81.288996930600       2.697646397400       8.273358241000
       134    1       79.025437876400       1.348734168000       8.836424649200
       135    2       78.035985846200       2.697662584800       9.605578598400
       136    2       80.299535846200       1.348717980600       7.504221401600
       137    1       76.761896930600       5.395546397400       8.273358241000
       138    1       74.498337876400       4.046634168000       8.836424649200
       139    2       73.508885846200       5.395562584800       9.605578598400
       140    2       75.772435846200       4.046617980600       7.504221401600
       141    1       81.288996930600       5.395546397400       8.273358241000
       142    1       79.025437876400       4.046634168000       8.836424649200
       143    2       78.035985846200       5.395562584800       9.605578598400
       144    2       80.299535846200       4.046617980600       7.504221401600
       145    1       85.816096930600       2.697646397400       8.273358241000
       146    1       83.552537876400       1.348734168000       8.836424649200
       147    2       82.563085846200       2.697662584800       9.605578598400
       148    2       84.826635846200       1.348717980600       7.504221401600
       149    1       90.343196930600       2.697646397400       8.273358241000
       150    1       88.079637876400       1.348734168000       8.836424649200
       151    2       87.090185846200       2.697662584800       9.605578598400
       152    2       89.353735846200       1.348717980600       7.504221401600
       153    1       85.816096930600       5.395546397400       8.273358241000
       154    1       83.552537876400       4.046634168000       8.836424649200
       155    2       82.563085846200       5.395562584800       9.605578598400
       156    2       84.826635846200       4.046617980600       7.504221401600
       157    1       90.343196930600       5.395546397400       8.273358241000
       158    1       88.079637876400       4.046634168000       8.836424649200
       159    2       87.090185846200       5.395562584800       9.605578598400
       160    2       89.353735846200       4.046617980600       7.504221401600
       161    1       94.870296930600       2.697646397400       8.273358241000
       162    1       92.606737876400       1.348734168000       8.836424649200
       163    2       91.617285846200       2.697662584800       9.605578598400
       164    2       93.880835846200       1.348717980600       7.504221401600
       165    1       99.397396930600       2.697646397400       8.273358241000
       166    1       97.133837876400       1.348734168000       8.836424649200
       167    2       96.144385846200       2.697662584800       9.605578598400
       168    2       98.407935846200       1.348717980600       7.504221401600
       169    1       94.870296930600       5.395546397400       8.273358241000
       170    1       92.606737876400       4.046634168000       8.836424649200
       171    2       91.617285846200       5.395562584800       9.605578598400
       172    2       93.880835846200       4.046617980600       7.504221401600
       173    1       99.397396930600       5.395546397400       8.273358241000
       174    1       97.133837876400       4.046634168000       8.836424649200
       175    2       96.144385846200       5.395562584800       9.605578598400
       176    2       98.407935846200       4.046617980600       7.504221401600
       177    1        4.328296930600       8.093446397400       8.273358241000
       178    1        2.064737876400       6.744534168000       8.836424649200
       179    2        1.075285846200       8.093462584800       9.605578598400
       180    2        3.338835846200       6.744517980600       7.504221401600
       181    1        8.855396930600       8.093446397400       8.273358241000
       182    1        6.591837876400       6.744534168000       8.836424649200
       183    2        5.602385846200       8.093462584800       9.605578598400
       184    2        7.865935846200       6.744517980600       7.504221401600
       185    1        4.328296930600      10.791346397400       8.273358241000
       186    1        2.064737876400       9.442434168000       8.836424649200
       187    2        1.075285846200      10.791362584800       9.605578598400
       188    2        3.338835846200       9.442417980600       7.504221401600
       189    1        8.855396930600      10.791346397400       8.273358241000
       190    1        6.591837876400       9.442434168000       8.836424649200
       191    2        5.602385846200      10.791362584800       9.605578598400
       192    2        7.865935846200       9.442417980600       7.504221401600
       193    1       13.382496930600       8.093446397400       8.273358241000
       194    1       11.118937876400       6.744534168000       8.836424649200
       195    2       10.129485846200       8.093462584800       9.605578598400
       196    2       12.393035846200       6.744517980600       7.504221401600
       197    1       17.909596930600       8.093446397400       8.273358241000
       198    1       15.646037876400       6.744534168000       8.836424649200
       199    2       14.656585846200       8.093462584800       9.605578598400
       200    2       16.920135846200       6.744517980600       7.504221401600
       201    1       13.382496930600      10.791346397400       8.273358241000
       202    1       11.118937876400       9.442434168000       8.836424649200
       203    2       10.129485846200      10.791362584800       9.605578598400
       204    2       12.393035846200       9.442417980600       7.504221401600
       205    1       17.909596930600      10.791346397400       8.273358241000
       206    1       15.646037876400       9.442434168000       8.836424649200
       207    2       14.656585846200      10.791362584800       9.605578598400
       208    2       16.920135846200       9.442417980600       7.504221401600
       209    1       22.436696930600       8.093446397400       8.273358241000
       210    1       20.173137876400       6.744534168000       8.836424649200
       211    2       19.183685846200       8.093462584800       9.605578598400
       212    2       21.447235846200       6.744517980600       7.504221401600
       213    1       26.963796930600       8.093446397400       8.273358241000
       214    1       24.700237876400       6.744534168000       8.836424649200
       215    2       23.710785846200       8.093462584800       9.605578598400
       216    2       25.974335846200       6.744517980600       7.504221401600
       217    1       22.436696930600      10.791346397400       8.273358241000
       218    1       20.173137876400       9.442434168000       8.836424649200
       219    2       19.183685846200      10.791362584800       9.605578598400
       220    2       21.447235846200       9.442417980600       7.504221401600
       221    1       26.963796930600      10.791346397400       8.273358241000
       222    1       24.700237876400       9.442434168000       8.836424649200
       223    2       23.710785846200      10.791362584800       9.605578598400
       224    2       25.974335846200       9.442417980600       7.504221401600
       225    1       31.490896930600       8.093446397400       8.273358241000
       226    1       29.227337876400       6.744534168000       8.836424649200
       227    2       28.237885846200       8.093462584800       9.605578598400
       228    2       30.501435846200       6.744517980600       7.504221401600
       229    1       36.017996930600       8.093446397400       8.273358241000
       230    1       33.754437876400       6.744534168000       8.836424649200
       231    2       32.764985846200       8.093462584800       9.605578598400
       232    2       35.028535846200       6.744517980600       7.504221401600
       233    1       31.490896930600      10.791346397400       8.273358241000
       234    1       29.227337876400       9.442434168000       8.836424649200
       235    2       28.237885846200      10.791362584800       9.605578598400
       236    2       30.501435846200       9.442417980600       7.504221401600
       237    1       36.017996930600      10.791346397400       8.273358241000
       238    1       33.754437876400       9.442434168000       8.836424649200
       239    2       32.764985846200      10.791362584800       9.605578598400
       240    2       35.028535846200       9.442417980600       7.504221401600
       241    1       40.545096930600       8.093446397400       8.273358241000
       242    1       38.281537876400       6.744534168000       8.836424649200
       243    2       37.292085846200       8.093462584800       9.605578598400
       244    2       39.555635846200       6.744517980600       7.504221401600
       245    1       45.072196930600       8.093446397400       8.273358241000
       246    1       42.808637876400       6.744534168000       8.836424649200
       247    2       41.819185846200       8.093462584800       9.605578598400
       248    2       44.082735846200       6.744517980600       7.504221401600
       249    1       40.545096930600      10.791346397400       8.273358241000
       250    1       38.281537876400       9.442434168000       8.836424649200
       251    2       37.292085846200      10.791362584800       9.605578598400
       252    2       39.555635846200       9.442417980600       7.504221401600
       253    1       45.072196930600      10.791346397400       8.273358241000
       254    1       42.808637876400       9.442434168000       8.836424649200
       255    2       41.819185846200      10.791362584800       9.605578598400
       256    2       44.082735846200       9.442417980600       7.504221401600
       257    1       49.599296930600       8.093446397400       8.273358241000
       258    1       47.335737876400       6.744534168000       8.836424649200
       259    2       46.346285846200       8.093462584800       9.605578598400
       260    2       48.609835846200       6.744517980600       7.504221401600
       261    1       54.126396930600       8.093446397400       8.273358241000
       262    1       51.862837876400       6.744534168000       8.836424649200
       263    2       50.873385846200       8.093462584800       9.605578598400
       264    2       53.136935846200       6.744517980600       7.504221401600
       265    1       49.599296930600      10.791346397400       8.273358241000
       266    1       47.335737876400       9.442434168000       8.836424649200
       267    2       46.346285846200      10.791362584800       9.605578598400
       268    2       48.609835846200       9.442417980600       7.504221401600
       269    1       54.126396930600      10.791346397400       8.273358241000
       270    1       51.862837876400       9.442434168000       8.836424649200
       271    2       50.873385846200      10.791362584800       9.605578598400
       272    2       53.136935846200       9.442417980600       7.504221401600
       273    1       58.653496930600       8.093446397400       8.273358241000
       274    1       56.389937876400       6.744534168000       8.836424649200
       275    2       55.400485846200       8.093462584800       9.605578598400
       276    2       57.664035846200       6.744517980600       7.504221401600
       277    1       63.180596930600       8.093446397400       8.273358241000
       278    1       60.917037876400       6.744534168000       8.836424649200
       279    2       59.927585846200       8.093462584800       9.605578598400
       280    2       62.191135846200       6.744517980600       7.504221401600
       281    1       58.653496930600      10.791346397400       8.273358241000
       282    1       56.389937876400       9.442434168000       8.836424649200
       283    2       55.400485846200      10.791362584800       9.605578598400
       284    2       57.664035846200       9.442417980600       7.504221401600
       285    1       63.180596930600      10.791346397400       8.273358241000
       286    1       60.917037876400       9.442434168000       8.836424649200
       287    2       59.927585846200      10.791362584800       9.605578598400
       288    2       62.191135846200       9.442417980600       7.504221401600
       289    1       67.707696930600       8.093446397400       8.273358241000
       290    1       65.444137876400       6.744534168000       8.836424649200
       291    2       64.454685846200       8.093462584800       9.605578598400
       292    2       66.718235846200       6.744517980600       7.504221401600
       293    1       72.234796930600       8.093446397400       8.273358241000
       294    1       69.971237876400       6.744534168000       8.836424649200
       295    2       68.981785846200       8.093462584800       9.605578598400
       296    2       71.245335846200       6.744517980600       7.504221401600
       297    1       67.707696930600      10.791346397400       8.273358241000
       298    1       65.444137876400       9.442434168000       8.836424649200
       299    2       64.454685846200      10.791362584800       9.605578598400
       300    2       66.718235846200       9.442417980600       7.504221401600
       301    1       72.234796930600      10.791346397400       8.273358241000
       302    1       69.971237876400       9.442434168000       8.836424649200
       303    2       68.981785846200      10.791362584800       9.605578598400
       304    2       71.245335846200       9.442417980600       7.504221401600
       305    1       76.761896930600       8.093446397400       8.273358241000
       306    1       74.498337876400       6.744534168000       8.836424649200
       307    2       73.508885846200       8.093462584800       9.605578598400
       308    2       75.772435846200       6.744517980600       7.504221401600
       309    1       81.288996930600       8.093446397400       8.273358241000
       310    1       79.025437876400       6.744534168000       8.836424649200
       311    2       78.035985846200       8.093462584800       9.605578598400
       312    2       80.299535846200       6.744517980600       7.504221401600
       313    1       76.761896930600      10.791346397400       8.273358241000
       314    1       74.498337876400       9.442434168000       8.836424649200
       315    2       73.508885846200      10.791362584800       9.605578598400
       316    2       75.772435846200       9.442417980600       7.504221401600
       317    1       81.288996930600      10.791346397400       8.273358241000
       318    1       79.025437876400       9.442434168000       8.836424649200
       319    2       78.035985846200      10.791362584800       9.605578598400
       320    2       80.299535846200       9.442417980600       7.504221401600
       321    1       85.816096930600       8.093446397400       8.273358241000
       322    1       83.552537876400       6.744534168000       8.836424649200
       323    2       82.563085846200       8.093462584800       9.605578598400
       324    2       84.826635846200       6.744517980600       7.504221401600
       325    1       90.343196930600       8.093446397400       8.273358241000
       326    1       88.079637876400       6.744534168000       8.836424649200
       327    2       87.090185846200       8.093462584800       9.605578598400
       328    2       89.353735846200       6.744517980600       7.504221401600
       329    1       85.816096930600      10.791346397400       8.273358241000
       330    1       83.552537876400       9.442434168000       8.836424649200
       331    2       82.563085846200      10.791362584800       9.605578598400
       332    2       84.826635846200       9.442417980600       7.504221401600
       333    1       90.343196930600      10.791346397400       8.273358241000
       334    1       88.079637876400       9.442434168000       8.836424649200
       335    2       87.090185846200      10.791362584800       9.605578598400
       336    2       89.353735846200       9.442417980600       7.504221401600
       337    1       94.870296930600       8.093446397400       8.273358241000
       338    1       92.606737876400       6.744534168000       8.836424649200
       339    2       91.617285846200       8.093462584800       9.605578598400
       340    2       93.880835846200       6.744517980600       7.504221401600
       341    1       99.397396930600       8.093446397400       8.273358241000
       342    1       97.133837876400       6.744534168000       8.836424649200
       343    2       96.144385846200       8.093462584800       9.605578598400
       344    2       98.407935846200       6.744517980600       7.504221401600
       345    1       94.870296930600      10.791346397400       8.273358241000
       346    1       92.606737876400       9.442434168000       8.836424649200
       347    2       91.617285846200      10.791362584800       9.605578598400
       348    2       93.880835846200       9.442417980600       7.504221401600
       349    1       99.397396930600      10.791346397400       8.273358241000
       350    1       97.133837876400       9.442434168000       8.836424649200
       351    2       96.144385846200      10.791362584800       9.605578598400
       352    2       98.407935846200       9.442417980600       7.504221401600
       353    1        4.328296930600      13.489246397400       8.273358241000
       354    1        2.064737876400      12.140334168000       8.836424649200
       355    2        1.075285846200      13.489262584800       9.605578598400
       356    2        3.338835846200      12.140317980600       7.504221401600
       357    1        8.855396930600      13.489246397400       8.273358241000
       358    1        6.591837876400      12.140334168000       8.836424649200
       359    2        5.602385846200      13.489262584800       9.605578598400
       360    2        7.865935846200      12.140317980600       7.504221401600
       361    1        4.328296930600      16.187146397400       8.273358241000
       362    1        2.064737876400      14.838234168000       8.836424649200
       363    2        1.075285846200      16.187162584800       9.605578598400
       364    2        3.338835846200      14.838217980600       7.504221401600
       365    1        8.855396930600      16.187146397400       8.273358241000
       366    1        6.591837876400      14.838234168000       8.836424649200
       367    2        5.602385846200      16.187162584800       9.605578598400
       368    2        7.865935846200      14.838217980600       7.504221401600
       369    1       13.382496930600      13.489246397400       8.273358241000
       370    1       11.118937876400      12.140334168000       8.836424649200