 # S8 Si8
  
        2400  atoms
           2  atom types
 
      0.000000000000      96.300000000000  xlo xhi
      0.000000000000     100.575000000000  ylo yhi
      0.000000000000      17.109800000000  zlo zhi
 
Masses
 
            1   32.06000000             # S
            2   28.08500000             # Si
 
Atoms # atomic
 
         1    1        0.040638600000       3.352204980000       7.621817057000
         2    1        2.448186750000       1.675954980000       9.487965833200
         3    2        0.901791720000       3.352211685000       9.810228916200
         4    2        3.309330240000       1.675954980000       7.299639523000
         5    1        4.855638600000       3.352204980000       7.621817057000
         6    1        7.263186750000       1.675954980000       9.487965833200
         7    2        5.716791720000       3.352211685000       9.810228916200
         8    2        8.124330240000       1.675954980000       7.299639523000
         9    1        0.040638600000       6.704704980000       7.621817057000
        10    1        2.448186750000       5.028454980000       9.487965833200
        11    2        0.901791720000       6.704711685000       9.810228916200
        12    2        3.309330240000       5.028454980000       7.299639523000
        13    1        4.855638600000       6.704704980000       7.621817057000
        14    1        7.263186750000       5.028454980000       9.487965833200
        15    2        5.716791720000       6.704711685000       9.810228916200
        16    2        8.124330240000       5.028454980000       7.299639523000
        17    1        9.670638600000       3.352204980000       7.621817057000
        18    1       12.078186750000       1.675954980000       9.487965833200
        19    2       10.531791720000       3.352211685000       9.810228916200
        20    2       12.939330240000       1.675954980000       7.299639523000
        21    1       14.485638600000       3.352204980000       7.621817057000
        22    1       16.893186750000       1.675954980000       9.487965833200
        23    2       15.346791720000       3.352211685000       9.810228916200
        24    2       17.754330240000       1.675954980000       7.299639523000
        25    1        9.670638600000       6.704704980000       7.621817057000
        26    1       12.078186750000       5.028454980000       9.487965833200
        27    2       10.531791720000       6.704711685000       9.810228916200
        28    2       12.939330240000       5.028454980000       7.299639523000
        29    1       14.485638600000       6.704704980000       7.621817057000
        30    1       16.893186750000       5.028454980000       9.487965833200
        31    2       15.346791720000       6.704711685000       9.810228916200
        32    2       17.754330240000       5.028454980000       7.299639523000
        33    1       19.300638600000       3.352204980000       7.621817057000
        34    1       21.708186750000       1.675954980000       9.487965833200
        35    2       20.161791720000       3.352211685000       9.810228916200
        36    2       22.569330240000       1.675954980000       7.299639523000
        37    1       24.115638600000       3.352204980000       7.621817057000
        38    1       26.523186750000       1.675954980000       9.487965833200
        39    2       24.976791720000       3.352211685000       9.810228916200
        40    2       27.384330240000       1.675954980000       7.299639523000
        41    1       19.300638600000       6.704704980000       7.621817057000
        42    1       21.708186750000       5.028454980000       9.487965833200
        43    2       20.161791720000       6.704711685000       9.810228916200
        44    2       22.569330240000       5.028454980000       7.299639523000
        45    1       24.115638600000       6.704704980000       7.621817057000
        46    1       26.523186750000       5.028454980000       9.487965833200
        47    2       24.976791720000       6.704711685000       9.810228916200
        48    2       27.384330240000       5.028454980000       7.299639523000
        49    1       28.930638600000       3.352204980000       7.621817057000
        50    1       31.338186750000       1.675954980000       9.487965833200
        51    2       29.791791720000       3.352211685000       9.810228916200
        52    2       32.199330240000       1.675954980000       7.299639523000
        53    1       33.745638600000       3.352204980000       7.621817057000
        54    1       36.153186750000       1.675954980000       9.487965833200
        55    2       34.606791720000       3.352211685000       9.810228916200
        56    2       37.014330240000       1.675954980000       7.299639523000
        57    1       28.930638600000       6.704704980000       7.621817057000
        58    1       31.338186750000       5.028454980000       9.487965833200
        59    2       29.791791720000       6.704711685000       9.810228916200
        60    2       32.199330240000       5.028454980000       7.299639523000
        61    1       33.745638600000       6.704704980000       7.621817057000
        62    1       36.153186750000       5.028454980000       9.487965833200
        63    2       34.606791720000       6.704711685000       9.810228916200
        64    2       37.014330240000       5.028454980000       7.299639523000
        65    1       38.560638600000       3.352204980000       7.621817057000
        66    1       40.968186750000       1.675954980000       9.487965833200
        67    2       39.421791720000       3.352211685000       9.810228916200
        68    2       41.829330240000       1.675954980000       7.299639523000
        69    1       43.375638600000       3.352204980000       7.621817057000
        70    1       45.783186750000       1.675954980000       9.487965833200
        71    2       44.236791720000       3.352211685000       9.810228916200
        72    2       46.644330240000       1.675954980000       7.299639523000
        73    1       38.560638600000       6.704704980000       7.621817057000
        74    1       40.968186750000       5.028454980000       9.487965833200
        75    2       39.421791720000       6.704711685000       9.810228916200
        76    2       41.829330240000       5.028454980000       7.299639523000
        77    1       43.375638600000       6.704704980000       7.621817057000
        78    1       45.783186750000       5.028454980000       9.487965833200
        79    2       44.236791720000       6.704711685000       9.810228916200
        80    2       46.644330240000       5.028454980000       7.299639523000
        81    1       48.190638600000       3.352204980000       7.621817057000
        82    1       50.598186750000       1.675954980000       9.487965833200
        83    2       49.051791720000       3.352211685000       9.810228916200
        84    2       51.459330240000       1.675954980000       7.299639523000
        85    1       53.005638600000       3.352204980000       7.621817057000
        86    1       55.413186750000       1.675954980000       9.487965833200
        87    2       53.866791720000       3.352211685000       9.810228916200
        88    2       56.274330240000       1.675954980000       7.299639523000
        89    1       48.190638600000       6.704704980000       7.621817057000
        90    1       50.598186750000       5.028454980000       9.487965833200
        91    2       49.051791720000       6.704711685000       9.810228916200
        92    2       51.459330240000       5.028454980000       7.299639523000
        93    1       53.005638600000       6.704704980000       7.621817057000
        94    1       55.413186750000       5.028454980000       9.487965833200
        95    2       53.866791720000       6.704711685000       9.810228916200
        96    2       56.274330240000       5.028454980000       7.299639523000
        97    1       57.820638600000       3.352204980000       7.621817057000
        98    1       60.228186750000       1.675954980000       9.487965833200
        99    2       58.681791720000       3.352211685000       9.810228916200
       100    2       61.089330240000       1.675954980000       7.299639523000
       101    1       62.635638600000       3.352204980000       7.621817057000
       102    1       65.043186750000       1.675954980000       9.487965833200
       103    2       63.496791720000       3.352211685000       9.810228916200
       104    2       65.904330240000       1.675954980000       7.299639523000
       105    1       57.820638600000       6.704704980000       7.621817057000
       106    1       60.228186750000       5.028454980000       9.487965833200
       107    2       58.681791720000       6.704711685000       9.810228916200
       108    2       61.089330240000       5.028454980000       7.299639523000
       109    1       62.635638600000       6.704704980000       7.621817057000
       110    1       65.043186750000       5.028454980000       9.487965833200
       111    2       63.496791720000       6.704711685000       9.810228916200
       112    2       65.904330240000       5.028454980000       7.299639523000
       113    1       67.450638600000       3.352204980000       7.621817057000
       114    1       69.858186750000       1.675954980000       9.487965833200
       115    2       68.311791720000       3.352211685000       9.810228916200
       116    2       70.719330240000       1.675954980000       7.299639523000
       117    1       72.265638600000       3.352204980000       7.621817057000
       118    1       74.673186750000       1.675954980000       9.487965833200
       119    2       73.126791720000       3.352211685000       9.810228916200
       120    2       75.534330240000       1.675954980000       7.299639523000
       121    1       67.450638600000       6.704704980000       7.621817057000
       122    1       69.858186750000       5.028454980000       9.487965833200
       123    2       68.311791720000       6.704711685000       9.810228916200
       124    2       70.719330240000       5.028454980000       7.299639523000
       125    1       72.265638600000       6.704704980000       7.621817057000
       126    1       74.673186750000       5.028454980000       9.487965833200
       127    2       73.126791720000       6.704711685000       9.810228916200
       128    2       75.534330240000       5.028454980000       7.299639523000
       129    1       77.080638600000       3.352204980000       7.621817057000
       130    1       79.488186750000       1.675954980000       9.487965833200
       131    2       77.941791720000       3.352211685000       9.810228916200
       132    2       80.349330240000       1.675954980000       7.299639523000
       133    1       81.895638600000       3.352204980000       7.621817057000
       134    1       84.303186750000       1.675954980000       9.487965833200
       135    2       82.756791720000       3.352211685000       9.810228916200
       136    2       85.164330240000       1.675954980000       7.299639523000
       137    1       77.080638600000       6.704704980000       7.621817057000
       138    1       79.488186750000       5.028454980000       9.487965833200
       139    2       77.941791720000       6.704711685000       9.810228916200
       140    2       80.349330240000       5.028454980000       7.299639523000
       141    1       81.895638600000       6.704704980000       7.621817057000
       142    1       84.303186750000       5.028454980000       9.487965833200
       143    2       82.756791720000       6.704711685000       9.810228916200
       144    2       85.164330240000       5.028454980000       7.299639523000
       145    1       86.710638600000       3.352204980000       7.621817057000
       146    1       89.118186750000       1.675954980000       9.487965833200
       147    2       87.571791720000       3.352211685000       9.810228916200
       148    2       89.979330240000       1.675954980000       7.299639523000
       149    1       91.525638600000       3.352204980000       7.621817057000
       150    1       93.933186750000       1.675954980000       9.487965833200
       151    2       92.386791720000       3.352211685000       9.810228916200
       152    2       94.794330240000       1.675954980000       7.299639523000
       153    1       86.710638600000       6.704704980000       7.621817057000
       154    1       89.118186750000       5.028454980000       9.487965833200
       155    2       87.571791720000       6.704711685000       9.810228916200
       156    2       89.979330240000       5.028454980000       7.299639523000
       157    1       91.525638600000       6.704704980000       7.621817057000
       158    1       93.933186750000       5.028454980000       9.487965833200
       159    2       92.386791720000       6.704711685000       9.810228916200
       160    2       94.794330240000       5.028454980000       7.299639523000
       161    1        0.040638600000      10.057204980000       7.621817057000
       162    1        2.448186750000       8.380954980000       9.487965833200
       163    2        0.901791720000      10.057211685000       9.810228916200
       164    2        3.309330240000       8.380954980000       7.299639523000
       165    1        4.855638600000      10.057204980000       7.621817057000
       166    1        7.263186750000       8.380954980000       9.487965833200
       167    2        5.716791720000      10.057211685000       9.810228916200
       168    2        8.124330240000       8.380954980000       7.299639523000
       169    1        0.040638600000      13.409704980000       7.621817057000
       170    1        2.448186750000      11.733454980000       9.487965833200
       171    2        0.901791720000      13.409711685000       9.810228916200
       172    2        3.309330240000      11.733454980000       7.299639523000
       173    1        4.855638600000      13.409704980000       7.621817057000
       174    1        7.263186750000      11.733454980000       9.487965833200
       175    2        5.716791720000      13.409711685000       9.810228916200
       176    2        8.124330240000      11.733454980000       7.299639523000
       177    1        9.670638600000      10.057204980000       7.621817057000
       178    1       12.078186750000       8.380954980000       9.487965833200
       179    2       10.531791720000      10.057211685000       9.810228916200
       180    2       12.939330240000       8.380954980000       7.299639523000
       181    1       14.485638600000      10.057204980000       7.621817057000
       182    1       16.893186750000       8.380954980000       9.487965833200
       183    2       15.346791720000      10.057211685000       9.810228916200
       184    2       17.754330240000       8.380954980000       7.299639523000
       185    1        9.670638600000      13.409704980000       7.621817057000
       186    1       12.078186750000      11.733454980000       9.487965833200
       187    2       10.531791720000      13.409711685000       9.810228916200
       188    2       12.939330240000      11.733454980000       7.299639523000
       189    1       14.485638600000      13.409704980000       7.621817057000
       190    1       16.893186750000      11.733454980000       9.487965833200
       191    2       15.346791720000      13.409711685000       9.810228916200
       192    2       17.754330240000      11.733454980000       7.299639523000
       193    1       19.300638600000      10.057204980000       7.621817057000
       194    1       21.708186750000       8.380954980000       9.487965833200
       195    2       20.161791720000      10.057211685000       9.810228916200
       196    2       22.569330240000       8.380954980000       7.299639523000
       197    1       24.115638600000      10.057204980000       7.621817057000
       198    1       26.523186750000       8.380954980000       9.487965833200
       199    2       24.976791720000      10.057211685000       9.810228916200
       200    2       27.384330240000       8.380954980000       7.299639523000
       201    1       19.300638600000      13.409704980000       7.621817057000
       202    1       21.708186750000      11.733454980000       9.487965833200
       203    2       20.161791720000      13.409711685000       9.810228916200
       204    2       22.569330240000      11.733454980000       7.299639523000
       205    1       24.115638600000      13.409704980000       7.621817057000
       206    1       26.523186750000      11.733454980000       9.487965833200
       207    2       24.976791720000      13.409711685000       9.810228916200
       208    2       27.384330240000      11.733454980000       7.299639523000
       209    1       28.930638600000      10.057204980000       7.621817057000
       210    1       31.338186750000       8.380954980000       9.487965833200
       211    2       29.791791720000      10.057211685000       9.810228916200
       212    2       32.199330240000       8.380954980000       7.299639523000
       213    1       33.745638600000      10.057204980000       7.621817057000
       214    1       36.153186750000       8.380954980000       9.487965833200
       215    2       34.606791720000      10.057211685000       9.810228916200
       216    2       37.014330240000       8.380954980000       7.299639523000
       217    1       28.930638600000      13.409704980000       7.621817057000
       218    1       31.338186750000      11.733454980000       9.487965833200
       219    2       29.791791720000      13.409711685000       9.810228916200
       220    2       32.199330240000      11.733454980000       7.299639523000
       221    1       33.745638600000      13.409704980000       7.621817057000
       222    1       36.153186750000      11.733454980000       9.487965833200
       223    2       34.606791720000      13.409711685000       9.810228916200
       224    2       37.014330240000      11.733454980000       7.299639523000
       225    1       38.560638600000      10.057204980000       7.621817057000
       226    1       40.968186750000       8.380954980000       9.487965833200
       227    2       39.421791720000      10.057211685000       9.810228916200
       228    2       41.829330240000       8.380954980000       7.299639523000
       229    1       43.375638600000      10.057204980000       7.621817057000
       230    1       45.783186750000       8.380954980000       9.487965833200
       231    2       44.236791720000      10.057211685000       9.810228916200
       232    2       46.644330240000       8.380954980000       7.299639523000
       233    1       38.560638600000      13.409704980000       7.621817057000
       234    1       40.968186750000      11.733454980000       9.487965833200
       235    2       39.421791720000      13.409711685000       9.810228916200
       236    2       41.829330240000      11.733454980000       7.299639523000
       237    1       43.375638600000      13.409704980000       7.621817057000
       238    1       45.783186750000      11.733454980000       9.487965833200
       239    2       44.236791720000      13.409711685000       9.810228916200
       240    2       46.644330240000      11.733454980000       7.299639523000
       241    1       48.190638600000      10.057204980000       7.621817057000
       242    1       50.598186750000       8.380954980000       9.487965833200
       243    2       49.051791720000      10.057211685000       9.810228916200
       244    2       51.459330240000       8.380954980000       7.299639523000
       245    1       53.005638600000      10.057204980000       7.621817057000
       246    1       55.413186750000       8.380954980000       9.487965833200
       247    2       53.866791720000      10.057211685000       9.810228916200
       248    2       56.274330240000       8.380954980000       7.299639523000
       249    1       48.190638600000      13.409704980000       7.621817057000
       250    1       50.598186750000      11.733454980000       9.487965833200
       251    2       49.051791720000      13.409711685000       9.810228916200
       252    2       51.459330240000      11.733454980000       7.299639523000
       253    1       53.005638600000      13.409704980000       7.621817057000
       254    1       55.413186750000      11.733454980000       9.487965833200
       255    2       53.866791720000      13.409711685000       9.810228916200
       256    2       56.274330240000      11.733454980000       7.299639523000
       257    1       57.820638600000      10.057204980000       7.621817057000
       258    1       60.228186750000       8.380954980000       9.487965833200
       259    2       58.681791720000      10.057211685000       9.810228916200
       260    2       61.089330240000       8.380954980000       7.299639523000
       261    1       62.635638600000      10.057204980000       7.621817057000
       262    1       65.043186750000       8.380954980000       9.487965833200
       263    2       63.496791720000      10.057211685000       9.810228916200
       264    2       65.904330240000       8.380954980000       7.299639523000
       265    1       57.820638600000      13.409704980000       7.621817057000
       266    1       60.228186750000      11.733454980000       9.487965833200
       267    2       58.681791720000      13.409711685000       9.810228916200
       268    2       61.089330240000      11.733454980000       7.299639523000
       269    1       62.635638600000      13.409704980000       7.621817057000
       270    1       65.043186750000      11.733454980000       9.487965833200
       271    2       63.496791720000      13.409711685000       9.810228916200
       272    2       65.904330240000      11.733454980000       7.299639523000
       273    1       67.450638600000      10.057204980000       7.621817057000
       274    1       69.858186750000       8.380954980000       9.487965833200
       275    2       68.311791720000      10.057211685000       9.810228916200
       276    2       70.719330240000       8.380954980000       7.299639523000
       277    1       72.265638600000      10.057204980000       7.621817057000
       278    1       74.673186750000       8.380954980000       9.487965833200
       279    2       73.126791720000      10.057211685000       9.810228916200
       280    2       75.534330240000       8.380954980000       7.299639523000
       281    1       67.450638600000      13.409704980000       7.621817057000
       282    1       69.858186750000      11.733454980000       9.487965833200
       283    2       68.311791720000      13.409711685000       9.810228916200
       284    2       70.719330240000      11.733454980000       7.299639523000
       285    1       72.265638600000      13.409704980000       7.621817057000
       286    1       74.673186750000      11.733454980000       9.487965833200
       287    2       73.126791720000      13.409711685000       9.810228916200
       288    2       75.534330240000      11.733454980000       7.299639523000
       289    1       77.080638600000      10.057204980000       7.621817057000
       290    1       79.488186750000       8.380954980000       9.487965833200
       291    2       77.941791720000      10.057211685000       9.810228916200
       292    2       80.349330240000       8.380954980000       7.299639523000
       293    1       81.895638600000      10.057204980000       7.621817057000
       294    1       84.303186750000       8.380954980000       9.487965833200
       295    2       82.756791720000      10.057211685000       9.810228916200
       296    2       85.164330240000       8.380954980000       7.299639523000
       297    1       77.080638600000      13.409704980000       7.621817057000
       298    1       79.488186750000      11.733454980000       9.487965833200
       299    2       77.941791720000      13.409711685000       9.810228916200
       300    2       80.349330240000      11.733454980000       7.299639523000
       301    1       81.895638600000      13.409704980000       7.621817057000
       302    1       84.303186750000      11.733454980000       9.487965833200
       303    2       82.756791720000      13.409711685000       9.810228916200
       304    2       85.164330240000      11.733454980000       7.299639523000
       305    1       86.710638600000      10.057204980000       7.621817057000
       306    1       89.118186750000       8.380954980000       9.487965833200
       307    2       87.571791720000      10.057211685000       9.810228916200
       308    2       89.979330240000       8.380954980000       7.299639523000
       309    1       91.525638600000      10.057204980000       7.621817057000
       310    1       93.933186750000       8.380954980000       9.487965833200
       311    2       92.386791720000      10.057211685000       9.810228916200
       312    2       94.794330240000       8.380954980000       7.299639523000
       313    1       86.710638600000      13.409704980000       7.621817057000
       314    1       89.118186750000      11.733454980000       9.487965833200
       315    2       87.571791720000      13.409711685000       9.810228916200
       316    2       89.979330240000      11.733454980000       7.299639523000
       317    1       91.525638600000      13.409704980000       7.621817057000
       318    1       93.933186750000      11.733454980000       9.487965833200
       319    2       92.386791720000      13.409711685000       9.810228916200
       320    2       94.794330240000      11.733454980000       7.299639523000
       321    1        0.040638600000      16.762204980000       7.621817057000
       322    1        2.448186750000      15.085954980000       9.487965833200
       323    2        0.901791720000      16.762211685000       9.810228916200
       324    2        3.309330240000      15.085954980000       7.299639523000
       325    1        4.855638600000      16.762204980000       7.621817057000
       326    1        7.263186750000      15.085954980000       9.487965833200
       327    2        5.716791720000      16.762211685000       9.810228916200
       328    2        8.124330240000      15.085954980000       7.299639523000
       329    1        0.040638600000      20.114704980000       7.621817057000
       330    1        2.448186750000      18.438454980000       9.487965833200
       331    2        0.901791720000      20.114711685000       9.810228916200
       332    2        3.309330240000      18.438454980000       7.299639523000
       333    1        4.855638600000      20.114704980000       7.621817057000
       334    1        7.263186750000      18.438454980000       9.487965833200
       335    2        5.716791720000      20.114711685000       9.810228916200
       336    2        8.124330240000      18.438454980000       7.299639523000
       337    1        9.670638600000      16.762204980000       7.621817057000
       338    1       12.078186750000      15.085954980000       9.487965833200
       339    2       10.531791720000      16.762211685000       9.810228916200
       340    2       12.939330240000      15.085954980000       7.299639523000
       341    1       14.485638600000      16.762204980000       7.621817057000
       342    1       16.893186750000      15.085954980000       9.487965833200
       343    2       15.346791720000      16.762211685000       9.810228916200
       344    2       17.754330240000      15.085954980000       7.299639523000
       345    1        9.670638600000      20.114704980000       7.621817057000
       346    1       12.078186750000      18.438454980000       9.487965833200
       347    2       10.531791720000      20.114711685000       9.810228916200
       348    2       12.939330240000      18.438454980000       7.299639523000
       349    1       14.485638600000      20.114704980000       7.621817057000
       350    1       16.893186750000      18.438454980000       9.487965833200
       351    2       15.346791720000      20.114711685000       9.810228916200
       352    2       17.754330240000      18.438454980000       7.299639523000
       353    1       19.300638600000      16.762204980000       7.621817057000
       354    1       21.708186750000      15.085954980000       9.487965833200
       355    2       20.161791720000      16.762211685000       9.810228916200
       356    2       22.569330240000      15.085954980000       7.299639523000
       357    1       24.115638600000      16.762204980000       7.621817057000
       358    1       26.523186750000      15.085954980000       9.487965833200
       359    2       24.976791720000      16.762211685000       9.810228916200
       360    2       27.384330240000      15.085954980000       7.299639523000
       361    1       19.300638600000      20.114704980000       7.621817057000
       362    1       21.708186750000      18.438454980000       9.487965833200
       363    2       20.161791720000      20.114711685000       9.810228916200
       364    2       22.569330240000      18.438454980000       7.299639523000
       365    1       24.115638600000      20.114704980000       7.621817057000
       366    1       26.523186750000      18.438454980000       9.487965833200
       367    2       24.976791720000      20.114711685000       9.810228916200
       368    2       27.384330240000      18.438454980000       7.299639523000
       369    1       28.930638600000      16.762204980000       7.621817057000
       370    1       31.338186750000      15.085954980000       9.487965833200