 # Sn8 Se8
  
        1664  atoms
           2  atom types
 
      0.000000000000      98.900800000000  xlo xhi
      0.000000000000     101.624900000000  ylo yhi
      0.000000000000      18.000000000000  zlo zhi
 
Masses
 
            1   118.71000000            # Sn
            2   78.96000000             # Se
 
Atoms # atomic
 
         1    1        6.099521401000       0.000000000000       7.974864000000
         2    1        3.008871401000       1.954325000000      10.025136000000
         3    2        0.081926950200       1.954325000000       9.872856000000
         4    2        3.172576950200       7.817300000000       8.127144000000
         5    1       12.280821401000       0.000000000000       7.974864000000
         6    1        9.190171401000       1.954325000000      10.025136000000
         7    2        6.263226950200       1.954325000000       9.872856000000
         8    2        9.353876950200       7.817300000000       8.127144000000
         9    1        6.099521401000       3.908650000000       7.974864000000
        10    1        3.008871401000       5.862975000000      10.025136000000
        11    2        0.081926950200       5.862975000000       9.872856000000
        12    2        3.172576950200       3.908650000000       8.127144000000
        13    1       12.280821401000       3.908650000000       7.974864000000
        14    1        9.190171401000       5.862975000000      10.025136000000
        15    2        6.263226950200       5.862975000000       9.872856000000
        16    2        9.353876950200       3.908650000000       8.127144000000
        17    1       18.462121401000       0.000000000000       7.974864000000
        18    1       15.371471401000       1.954325000000      10.025136000000
        19    2       12.444526950200       1.954325000000       9.872856000000
        20    2       15.535176950200       7.817300000000       8.127144000000
        21    1       24.643421401000       0.000000000000       7.974864000000
        22    1       21.552771401000       1.954325000000      10.025136000000
        23    2       18.625826950200       1.954325000000       9.872856000000
        24    2       21.716476950200       7.817300000000       8.127144000000
        25    1       18.462121401000       3.908650000000       7.974864000000
        26    1       15.371471401000       5.862975000000      10.025136000000
        27    2       12.444526950200       5.862975000000       9.872856000000
        28    2       15.535176950200       3.908650000000       8.127144000000
        29    1       24.643421401000       3.908650000000       7.974864000000
        30    1       21.552771401000       5.862975000000      10.025136000000
        31    2       18.625826950200       5.862975000000       9.872856000000
        32    2       21.716476950200       3.908650000000       8.127144000000
        33    1       30.824721401000       0.000000000000       7.974864000000
        34    1       27.734071401000       1.954325000000      10.025136000000
        35    2       24.807126950200       1.954325000000       9.872856000000
        36    2       27.897776950200       7.817300000000       8.127144000000
        37    1       37.006021401000       0.000000000000       7.974864000000
        38    1       33.915371401000       1.954325000000      10.025136000000
        39    2       30.988426950200       1.954325000000       9.872856000000
        40    2       34.079076950200       7.817300000000       8.127144000000
        41    1       30.824721401000       3.908650000000       7.974864000000
        42    1       27.734071401000       5.862975000000      10.025136000000
        43    2       24.807126950200       5.862975000000       9.872856000000
        44    2       27.897776950200       3.908650000000       8.127144000000
        45    1       37.006021401000       3.908650000000       7.974864000000
        46    1       33.915371401000       5.862975000000      10.025136000000
        47    2       30.988426950200       5.862975000000       9.872856000000
        48    2       34.079076950200       3.908650000000       8.127144000000
        49    1       43.187321401000       0.000000000000       7.974864000000
        50    1       40.096671401000       1.954325000000      10.025136000000
        51    2       37.169726950200       1.954325000000       9.872856000000
        52    2       40.260376950200       7.817300000000       8.127144000000
        53    1       49.368621401000       0.000000000000       7.974864000000
        54    1       46.277971401000       1.954325000000      10.025136000000
        55    2       43.351026950200       1.954325000000       9.872856000000
        56    2       46.441676950200       7.817300000000       8.127144000000
        57    1       43.187321401000       3.908650000000       7.974864000000
        58    1       40.096671401000       5.862975000000      10.025136000000
        59    2       37.169726950200       5.862975000000       9.872856000000
        60    2       40.260376950200       3.908650000000       8.127144000000
        61    1       49.368621401000       3.908650000000       7.974864000000
        62    1       46.277971401000       5.862975000000      10.025136000000
        63    2       43.351026950200       5.862975000000       9.872856000000
        64    2       46.441676950200       3.908650000000       8.127144000000
        65    1       55.549921401000       0.000000000000       7.974864000000
        66    1       52.459271401000       1.954325000000      10.025136000000
        67    2       49.532326950200       1.954325000000       9.872856000000
        68    2       52.622976950200       7.817300000000       8.127144000000
        69    1       61.731221401000       0.000000000000       7.974864000000
        70    1       58.640571401000       1.954325000000      10.025136000000
        71    2       55.713626950200       1.954325000000       9.872856000000
        72    2       58.804276950200       7.817300000000       8.127144000000
        73    1       55.549921401000       3.908650000000       7.974864000000
        74    1       52.459271401000       5.862975000000      10.025136000000
        75    2       49.532326950200       5.862975000000       9.872856000000
        76    2       52.622976950200       3.908650000000       8.127144000000
        77    1       61.731221401000       3.908650000000       7.974864000000
        78    1       58.640571401000       5.862975000000      10.025136000000
        79    2       55.713626950200       5.862975000000       9.872856000000
        80    2       58.804276950200       3.908650000000       8.127144000000
        81    1       67.912521401000       0.000000000000       7.974864000000
        82    1       64.821871401000       1.954325000000      10.025136000000
        83    2       61.894926950200       1.954325000000       9.872856000000
        84    2       64.985576950200       7.817300000000       8.127144000000
        85    1       74.093821401000       0.000000000000       7.974864000000
        86    1       71.003171401000       1.954325000000      10.025136000000
        87    2       68.076226950200       1.954325000000       9.872856000000
        88    2       71.166876950200       7.817300000000       8.127144000000
        89    1       67.912521401000       3.908650000000       7.974864000000
        90    1       64.821871401000       5.862975000000      10.025136000000
        91    2       61.894926950200       5.862975000000       9.872856000000
        92    2       64.985576950200       3.908650000000       8.127144000000
        93    1       74.093821401000       3.908650000000       7.974864000000
        94    1       71.003171401000       5.862975000000      10.025136000000
        95    2       68.076226950200       5.862975000000       9.872856000000
        96    2       71.166876950200       3.908650000000       8.127144000000
        97    1       80.275121401000       0.000000000000       7.974864000000
        98    1       77.184471401000       1.954325000000      10.025136000000
        99    2       74.257526950200       1.954325000000       9.872856000000
       100    2       77.348176950200       7.817300000000       8.127144000000
       101    1       86.456421401000       0.000000000000       7.974864000000
       102    1       83.365771401000       1.954325000000      10.025136000000
       103    2       80.438826950200       1.954325000000       9.872856000000
       104    2       83.529476950200       7.817300000000       8.127144000000
       105    1       80.275121401000       3.908650000000       7.974864000000
       106    1       77.184471401000       5.862975000000      10.025136000000
       107    2       74.257526950200       5.862975000000       9.872856000000
       108    2       77.348176950200       3.908650000000       8.127144000000
       109    1       86.456421401000       3.908650000000       7.974864000000
       110    1       83.365771401000       5.862975000000      10.025136000000
       111    2       80.438826950200       5.862975000000       9.872856000000
       112    2       83.529476950200       3.908650000000       8.127144000000
       113    1       92.637721401000       0.000000000000       7.974864000000
       114    1       89.547071401000       1.954325000000      10.025136000000
       115    2       86.620126950200       1.954325000000       9.872856000000
       116    2       89.710776950200       7.817300000000       8.127144000000
       117    1       98.819021401000       0.000000000000       7.974864000000
       118    1       95.728371401000       1.954325000000      10.025136000000
       119    2       92.801426950200       1.954325000000       9.872856000000
       120    2       95.892076950200       7.817300000000       8.127144000000
       121    1       92.637721401000       3.908650000000       7.974864000000
       122    1       89.547071401000       5.862975000000      10.025136000000
       123    2       86.620126950200       5.862975000000       9.872856000000
       124    2       89.710776950200       3.908650000000       8.127144000000
       125    1       98.819021401000       3.908650000000       7.974864000000
       126    1       95.728371401000       5.862975000000      10.025136000000
       127    2       92.801426950200       5.862975000000       9.872856000000
       128    2       95.892076950200       3.908650000000       8.127144000000
       129    1        6.099521401000       7.817300000000       7.974864000000
       130    1        3.008871401000       9.771625000000      10.025136000000
       131    2        0.081926950200       9.771625000000       9.872856000000
       132    2        3.172576950200      15.634600000000       8.127144000000
       133    1       12.280821401000       7.817300000000       7.974864000000
       134    1        9.190171401000       9.771625000000      10.025136000000
       135    2        6.263226950200       9.771625000000       9.872856000000
       136    2        9.353876950200      15.634600000000       8.127144000000
       137    1        6.099521401000      11.725950000000       7.974864000000
       138    1        3.008871401000      13.680275000000      10.025136000000
       139    2        0.081926950200      13.680275000000       9.872856000000
       140    2        3.172576950200      11.725950000000       8.127144000000
       141    1       12.280821401000      11.725950000000       7.974864000000
       142    1        9.190171401000      13.680275000000      10.025136000000
       143    2        6.263226950200      13.680275000000       9.872856000000
       144    2        9.353876950200      11.725950000000       8.127144000000
       145    1       18.462121401000       7.817300000000       7.974864000000
       146    1       15.371471401000       9.771625000000      10.025136000000
       147    2       12.444526950200       9.771625000000       9.872856000000
       148    2       15.535176950200      15.634600000000       8.127144000000
       149    1       24.643421401000       7.817300000000       7.974864000000
       150    1       21.552771401000       9.771625000000      10.025136000000
       151    2       18.625826950200       9.771625000000       9.872856000000
       152    2       21.716476950200      15.634600000000       8.127144000000
       153    1       18.462121401000      11.725950000000       7.974864000000
       154    1       15.371471401000      13.680275000000      10.025136000000
       155    2       12.444526950200      13.680275000000       9.872856000000
       156    2       15.535176950200      11.725950000000       8.127144000000
       157    1       24.643421401000      11.725950000000       7.974864000000
       158    1       21.552771401000      13.680275000000      10.025136000000
       159    2       18.625826950200      13.680275000000       9.872856000000
       160    2       21.716476950200      11.725950000000       8.127144000000
       161    1       30.824721401000       7.817300000000       7.974864000000
       162    1       27.734071401000       9.771625000000      10.025136000000
       163    2       24.807126950200       9.771625000000       9.872856000000
       164    2       27.897776950200      15.634600000000       8.127144000000
       165    1       37.006021401000       7.817300000000       7.974864000000
       166    1       33.915371401000       9.771625000000      10.025136000000
       167    2       30.988426950200       9.771625000000       9.872856000000
       168    2       34.079076950200      15.634600000000       8.127144000000
       169    1       30.824721401000      11.725950000000       7.974864000000
       170    1       27.734071401000      13.680275000000      10.025136000000
       171    2       24.807126950200      13.680275000000       9.872856000000
       172    2       27.897776950200      11.725950000000       8.127144000000
       173    1       37.006021401000      11.725950000000       7.974864000000
       174    1       33.915371401000      13.680275000000      10.025136000000
       175    2       30.988426950200      13.680275000000       9.872856000000
       176    2       34.079076950200      11.725950000000       8.127144000000
       177    1       43.187321401000       7.817300000000       7.974864000000
       178    1       40.096671401000       9.771625000000      10.025136000000
       179    2       37.169726950200       9.771625000000       9.872856000000
       180    2       40.260376950200      15.634600000000       8.127144000000
       181    1       49.368621401000       7.817300000000       7.974864000000
       182    1       46.277971401000       9.771625000000      10.025136000000
       183    2       43.351026950200       9.771625000000       9.872856000000
       184    2       46.441676950200      15.634600000000       8.127144000000
       185    1       43.187321401000      11.725950000000       7.974864000000
       186    1       40.096671401000      13.680275000000      10.025136000000
       187    2       37.169726950200      13.680275000000       9.872856000000
       188    2       40.260376950200      11.725950000000       8.127144000000
       189    1       49.368621401000      11.725950000000       7.974864000000
       190    1       46.277971401000      13.680275000000      10.025136000000
       191    2       43.351026950200      13.680275000000       9.872856000000
       192    2       46.441676950200      11.725950000000       8.127144000000
       193    1       55.549921401000       7.817300000000       7.974864000000
       194    1       52.459271401000       9.771625000000      10.025136000000
       195    2       49.532326950200       9.771625000000       9.872856000000
       196    2       52.622976950200      15.634600000000       8.127144000000
       197    1       61.731221401000       7.817300000000       7.974864000000
       198    1       58.640571401000       9.771625000000      10.025136000000
       199    2       55.713626950200       9.771625000000       9.872856000000
       200    2       58.804276950200      15.634600000000       8.127144000000
       201    1       55.549921401000      11.725950000000       7.974864000000
       202    1       52.459271401000      13.680275000000      10.025136000000
       203    2       49.532326950200      13.680275000000       9.872856000000
       204    2       52.622976950200      11.725950000000       8.127144000000
       205    1       61.731221401000      11.725950000000       7.974864000000
       206    1       58.640571401000      13.680275000000      10.025136000000
       207    2       55.713626950200      13.680275000000       9.872856000000
       208    2       58.804276950200      11.725950000000       8.127144000000
       209    1       67.912521401000       7.817300000000       7.974864000000
       210    1       64.821871401000       9.771625000000      10.025136000000
       211    2       61.894926950200       9.771625000000       9.872856000000
       212    2       64.985576950200      15.634600000000       8.127144000000
       213    1       74.093821401000       7.817300000000       7.974864000000
       214    1       71.003171401000       9.771625000000      10.025136000000
       215    2       68.076226950200       9.771625000000       9.872856000000
       216    2       71.166876950200      15.634600000000       8.127144000000
       217    1       67.912521401000      11.725950000000       7.974864000000
       218    1       64.821871401000      13.680275000000      10.025136000000
       219    2       61.894926950200      13.680275000000       9.872856000000
       220    2       64.985576950200      11.725950000000       8.127144000000
       221    1       74.093821401000      11.725950000000       7.974864000000
       222    1       71.003171401000      13.680275000000      10.025136000000
       223    2       68.076226950200      13.680275000000       9.872856000000
       224    2       71.166876950200      11.725950000000       8.127144000000
       225    1       80.275121401000       7.817300000000       7.974864000000
       226    1       77.184471401000       9.771625000000      10.025136000000
       227    2       74.257526950200       9.771625000000       9.872856000000
       228    2       77.348176950200      15.634600000000       8.127144000000
       229    1       86.456421401000       7.817300000000       7.974864000000
       230    1       83.365771401000       9.771625000000      10.025136000000
       231    2       80.438826950200       9.771625000000       9.872856000000
       232    2       83.529476950200      15.634600000000       8.127144000000
       233    1       80.275121401000      11.725950000000       7.974864000000
       234    1       77.184471401000      13.680275000000      10.025136000000
       235    2       74.257526950200      13.680275000000       9.872856000000
       236    2       77.348176950200      11.725950000000       8.127144000000
       237    1       86.456421401000      11.725950000000       7.974864000000
       238    1       83.365771401000      13.680275000000      10.025136000000
       239    2       80.438826950200      13.680275000000       9.872856000000
       240    2       83.529476950200      11.725950000000       8.127144000000
       241    1       92.637721401000       7.817300000000       7.974864000000
       242    1       89.547071401000       9.771625000000      10.025136000000
       243    2       86.620126950200       9.771625000000       9.872856000000
       244    2       89.710776950200      15.634600000000       8.127144000000
       245    1       98.819021401000       7.817300000000       7.974864000000
       246    1       95.728371401000       9.771625000000      10.025136000000
       247    2       92.801426950200       9.771625000000       9.872856000000
       248    2       95.892076950200      15.634600000000       8.127144000000
       249    1       92.637721401000      11.725950000000       7.974864000000
       250    1       89.547071401000      13.680275000000      10.025136000000
       251    2       86.620126950200      13.680275000000       9.872856000000
       252    2       89.710776950200      11.725950000000       8.127144000000
       253    1       98.819021401000      11.725950000000       7.974864000000
       254    1       95.728371401000      13.680275000000      10.025136000000
       255    2       92.801426950200      13.680275000000       9.872856000000
       256    2       95.892076950200      11.725950000000       8.127144000000
       257    1        6.099521401000      15.634600000000       7.974864000000
       258    1        3.008871401000      17.588925000000      10.025136000000
       259    2        0.081926950200      17.588925000000       9.872856000000
       260    2        3.172576950200      23.451900000000       8.127144000000
       261    1       12.280821401000      15.634600000000       7.974864000000
       262    1        9.190171401000      17.588925000000      10.025136000000
       263    2        6.263226950200      17.588925000000       9.872856000000
       264    2        9.353876950200      23.451900000000       8.127144000000
       265    1        6.099521401000      19.543250000000       7.974864000000
       266    1        3.008871401000      21.497575000000      10.025136000000
       267    2        0.081926950200      21.497575000000       9.872856000000
       268    2        3.172576950200      19.543250000000       8.127144000000
       269    1       12.280821401000      19.543250000000       7.974864000000
       270    1        9.190171401000      21.497575000000      10.025136000000
       271    2        6.263226950200      21.497575000000       9.872856000000
       272    2        9.353876950200      19.543250000000       8.127144000000
       273    1       18.462121401000      15.634600000000       7.974864000000
       274    1       15.371471401000      17.588925000000      10.025136000000
       275    2       12.444526950200      17.588925000000       9.872856000000
       276    2       15.535176950200      23.451900000000       8.127144000000
       277    1       24.643421401000      15.634600000000       7.974864000000
       278    1       21.552771401000      17.588925000000      10.025136000000
       279    2       18.625826950200      17.588925000000       9.872856000000
       280    2       21.716476950200      23.451900000000       8.127144000000
       281    1       18.462121401000      19.543250000000       7.974864000000
       282    1       15.371471401000      21.497575000000      10.025136000000
       283    2       12.444526950200      21.497575000000       9.872856000000
       284    2       15.535176950200      19.543250000000       8.127144000000
       285    1       24.643421401000      19.543250000000       7.974864000000
       286    1       21.552771401000      21.497575000000      10.025136000000
       287    2       18.625826950200      21.497575000000       9.872856000000
       288    2       21.716476950200      19.543250000000       8.127144000000
       289    1       30.824721401000      15.634600000000       7.974864000000
       290    1       27.734071401000      17.588925000000      10.025136000000
       291    2       24.807126950200      17.588925000000       9.872856000000
       292    2       27.897776950200      23.451900000000       8.127144000000
       293    1       37.006021401000      15.634600000000       7.974864000000
       294    1       33.915371401000      17.588925000000      10.025136000000
       295    2       30.988426950200      17.588925000000       9.872856000000
       296    2       34.079076950200      23.451900000000       8.127144000000
       297    1       30.824721401000      19.543250000000       7.974864000000
       298    1       27.734071401000      21.497575000000      10.025136000000
       299    2       24.807126950200      21.497575000000       9.872856000000
       300    2       27.897776950200      19.543250000000       8.127144000000
       301    1       37.006021401000      19.543250000000       7.974864000000
       302    1       33.915371401000      21.497575000000      10.025136000000
       303    2       30.988426950200      21.497575000000       9.872856000000
       304    2       34.079076950200      19.543250000000       8.127144000000
       305    1       43.187321401000      15.634600000000       7.974864000000
       306    1       40.096671401000      17.588925000000      10.025136000000
       307    2       37.169726950200      17.588925000000       9.872856000000
       308    2       40.260376950200      23.451900000000       8.127144000000
       309    1       49.368621401000      15.634600000000       7.974864000000
       310    1       46.277971401000      17.588925000000      10.025136000000
       311    2       43.351026950200      17.588925000000       9.872856000000
       312    2       46.441676950200      23.451900000000       8.127144000000
       313    1       43.187321401000      19.543250000000       7.974864000000
       314    1       40.096671401000      21.497575000000      10.025136000000
       315    2       37.169726950200      21.497575000000       9.872856000000
       316    2       40.260376950200      19.543250000000       8.127144000000
       317    1       49.368621401000      19.543250000000       7.974864000000
       318    1       46.277971401000      21.497575000000      10.025136000000
       319    2       43.351026950200      21.497575000000       9.872856000000
       320    2       46.441676950200      19.543250000000       8.127144000000
       321    1       55.549921401000      15.634600000000       7.974864000000
       322    1       52.459271401000      17.588925000000      10.025136000000
       323    2       49.532326950200      17.588925000000       9.872856000000
       324    2       52.622976950200      23.451900000000       8.127144000000
       325    1       61.731221401000      15.634600000000       7.974864000000
       326    1       58.640571401000      17.588925000000      10.025136000000
       327    2       55.713626950200      17.588925000000       9.872856000000
       328    2       58.804276950200      23.451900000000       8.127144000000
       329    1       55.549921401000      19.543250000000       7.974864000000
       330    1       52.459271401000      21.497575000000      10.025136000000
       331    2       49.532326950200      21.497575000000       9.872856000000
       332    2       52.622976950200      19.543250000000       8.127144000000
       333    1       61.731221401000      19.543250000000       7.974864000000
       334    1       58.640571401000      21.497575000000      10.025136000000
       335    2       55.713626950200      21.497575000000       9.872856000000
       336    2       58.804276950200      19.543250000000       8.127144000000
       337    1       67.912521401000      15.634600000000       7.974864000000
       338    1       64.821871401000      17.588925000000      10.025136000000
       339    2       61.894926950200      17.588925000000       9.872856000000
       340    2       64.985576950200      23.451900000000       8.127144000000
       341    1       74.093821401000      15.634600000000       7.974864000000
       342    1       71.003171401000      17.588925000000      10.025136000000
       343    2       68.076226950200      17.588925000000       9.872856000000
       344    2       71.166876950200      23.451900000000       8.127144000000
       345    1       67.912521401000      19.543250000000       7.974864000000
       346    1       64.821871401000      21.497575000000      10.025136000000
       347    2       61.894926950200      21.497575000000       9.872856000000
       348    2       64.985576950200      19.543250000000       8.127144000000
       349    1       74.093821401000      19.543250000000       7.974864000000
       350    1       71.003171401000      21.497575000000      10.025136000000
       351    2       68.076226950200      21.497575000000       9.872856000000
       352    2       71.166876950200      19.543250000000       8.127144000000
       353    1       80.275121401000      15.634600000000       7.974864000000
       354    1       77.184471401000      17.588925000000      10.025136000000
       355    2       74.257526950200      17.588925000000       9.872856000000
       356    2       77.348176950200      23.451900000000       8.127144000000
       357    1       86.456421401000      15.634600000000       7.974864000000
       358    1       83.365771401000      17.588925000000      10.025136000000
       359    2       80.438826950200      17.588925000000       9.872856000000
       360    2       83.529476950200      23.451900000000       8.127144000000
       361    1       80.275121401000      19.543250000000       7.974864000000
       362    1       77.184471401000      21.497575000000      10.025136000000
       363    2       74.257526950200      21.497575000000       9.872856000000
       364    2       77.348176950200      19.543250000000       8.127144000000
       365    1       86.456421401000      19.543250000000       7.974864000000
       366    1       83.365771401000      21.497575000000      10.025136000000
       367    2       80.438826950200      21.497575000000       9.872856000000
       368    2       83.529476950200      19.543250000000       8.127144000000
       369    1       92.637721401000      15.634600000000       7.974864000000
       370    1       89.547071401000      17.588925000000      10.025136000000