 # S8 Sn8
  
        2304  atoms
           2  atom types
 
      0.000000000000     103.792800000000  xlo xhi
      0.000000000000      97.531200000000  ylo yhi
      0.000000000000      17.109800000000  zlo zhi
 
Masses
 
            1   32.06000000             # S
            2   118.71000000            # Sn
 
Atoms # atomic
 
         1    1        0.235341524600       4.063458640800       7.422402338000
         2    1        2.397959656000       2.031534258000       9.687534540400
         3    2        0.598979599400       4.063442385600       9.986750722800
         4    2        2.761571782600       2.031534258000       7.123083496800
         5    1        4.560041524600       4.063458640800       7.422402338000
         6    1        6.722659656000       2.031534258000       9.687534540400
         7    2        4.923679599400       4.063442385600       9.986750722800
         8    2        7.086271782600       2.031534258000       7.123083496800
         9    1        0.235341524600       8.127258640800       7.422402338000
        10    1        2.397959656000       6.095334258000       9.687534540400
        11    2        0.598979599400       8.127242385600       9.986750722800
        12    2        2.761571782600       6.095334258000       7.123083496800
        13    1        4.560041524600       8.127258640800       7.422402338000
        14    1        6.722659656000       6.095334258000       9.687534540400
        15    2        4.923679599400       8.127242385600       9.986750722800
        16    2        7.086271782600       6.095334258000       7.123083496800
        17    1        8.884741524600       4.063458640800       7.422402338000
        18    1       11.047359656000       2.031534258000       9.687534540400
        19    2        9.248379599400       4.063442385600       9.986750722800
        20    2       11.410971782600       2.031534258000       7.123083496800
        21    1       13.209441524600       4.063458640800       7.422402338000
        22    1       15.372059656000       2.031534258000       9.687534540400
        23    2       13.573079599400       4.063442385600       9.986750722800
        24    2       15.735671782600       2.031534258000       7.123083496800
        25    1        8.884741524600       8.127258640800       7.422402338000
        26    1       11.047359656000       6.095334258000       9.687534540400
        27    2        9.248379599400       8.127242385600       9.986750722800
        28    2       11.410971782600       6.095334258000       7.123083496800
        29    1       13.209441524600       8.127258640800       7.422402338000
        30    1       15.372059656000       6.095334258000       9.687534540400
        31    2       13.573079599400       8.127242385600       9.986750722800
        32    2       15.735671782600       6.095334258000       7.123083496800
        33    1       17.534141524600       4.063458640800       7.422402338000
        34    1       19.696759656000       2.031534258000       9.687534540400
        35    2       17.897779599400       4.063442385600       9.986750722800
        36    2       20.060371782600       2.031534258000       7.123083496800
        37    1       21.858841524600       4.063458640800       7.422402338000
        38    1       24.021459656000       2.031534258000       9.687534540400
        39    2       22.222479599400       4.063442385600       9.986750722800
        40    2       24.385071782600       2.031534258000       7.123083496800
        41    1       17.534141524600       8.127258640800       7.422402338000
        42    1       19.696759656000       6.095334258000       9.687534540400
        43    2       17.897779599400       8.127242385600       9.986750722800
        44    2       20.060371782600       6.095334258000       7.123083496800
        45    1       21.858841524600       8.127258640800       7.422402338000
        46    1       24.021459656000       6.095334258000       9.687534540400
        47    2       22.222479599400       8.127242385600       9.986750722800
        48    2       24.385071782600       6.095334258000       7.123083496800
        49    1       26.183541524600       4.063458640800       7.422402338000
        50    1       28.346159656000       2.031534258000       9.687534540400
        51    2       26.547179599400       4.063442385600       9.986750722800
        52    2       28.709771782600       2.031534258000       7.123083496800
        53    1       30.508241524600       4.063458640800       7.422402338000
        54    1       32.670859656000       2.031534258000       9.687534540400
        55    2       30.871879599400       4.063442385600       9.986750722800
        56    2       33.034471782600       2.031534258000       7.123083496800
        57    1       26.183541524600       8.127258640800       7.422402338000
        58    1       28.346159656000       6.095334258000       9.687534540400
        59    2       26.547179599400       8.127242385600       9.986750722800
        60    2       28.709771782600       6.095334258000       7.123083496800
        61    1       30.508241524600       8.127258640800       7.422402338000
        62    1       32.670859656000       6.095334258000       9.687534540400
        63    2       30.871879599400       8.127242385600       9.986750722800
        64    2       33.034471782600       6.095334258000       7.123083496800
        65    1       34.832941524600       4.063458640800       7.422402338000
        66    1       36.995559656000       2.031534258000       9.687534540400
        67    2       35.196579599400       4.063442385600       9.986750722800
        68    2       37.359171782600       2.031534258000       7.123083496800
        69    1       39.157641524600       4.063458640800       7.422402338000
        70    1       41.320259656000       2.031534258000       9.687534540400
        71    2       39.521279599400       4.063442385600       9.986750722800
        72    2       41.683871782600       2.031534258000       7.123083496800
        73    1       34.832941524600       8.127258640800       7.422402338000
        74    1       36.995559656000       6.095334258000       9.687534540400
        75    2       35.196579599400       8.127242385600       9.986750722800
        76    2       37.359171782600       6.095334258000       7.123083496800
        77    1       39.157641524600       8.127258640800       7.422402338000
        78    1       41.320259656000       6.095334258000       9.687534540400
        79    2       39.521279599400       8.127242385600       9.986750722800
        80    2       41.683871782600       6.095334258000       7.123083496800
        81    1       43.482341524600       4.063458640800       7.422402338000
        82    1       45.644959656000       2.031534258000       9.687534540400
        83    2       43.845979599400       4.063442385600       9.986750722800
        84    2       46.008571782600       2.031534258000       7.123083496800
        85    1       47.807041524600       4.063458640800       7.422402338000
        86    1       49.969659656000       2.031534258000       9.687534540400
        87    2       48.170679599400       4.063442385600       9.986750722800
        88    2       50.333271782600       2.031534258000       7.123083496800
        89    1       43.482341524600       8.127258640800       7.422402338000
        90    1       45.644959656000       6.095334258000       9.687534540400
        91    2       43.845979599400       8.127242385600       9.986750722800
        92    2       46.008571782600       6.095334258000       7.123083496800
        93    1       47.807041524600       8.127258640800       7.422402338000
        94    1       49.969659656000       6.095334258000       9.687534540400
        95    2       48.170679599400       8.127242385600       9.986750722800
        96    2       50.333271782600       6.095334258000       7.123083496800
        97    1       52.131741524600       4.063458640800       7.422402338000
        98    1       54.294359656000       2.031534258000       9.687534540400
        99    2       52.495379599400       4.063442385600       9.986750722800
       100    2       54.657971782600       2.031534258000       7.123083496800
       101    1       56.456441524600       4.063458640800       7.422402338000
       102    1       58.619059656000       2.031534258000       9.687534540400
       103    2       56.820079599400       4.063442385600       9.986750722800
       104    2       58.982671782600       2.031534258000       7.123083496800
       105    1       52.131741524600       8.127258640800       7.422402338000
       106    1       54.294359656000       6.095334258000       9.687534540400
       107    2       52.495379599400       8.127242385600       9.986750722800
       108    2       54.657971782600       6.095334258000       7.123083496800
       109    1       56.456441524600       8.127258640800       7.422402338000
       110    1       58.619059656000       6.095334258000       9.687534540400
       111    2       56.820079599400       8.127242385600       9.986750722800
       112    2       58.982671782600       6.095334258000       7.123083496800
       113    1       60.781141524600       4.063458640800       7.422402338000
       114    1       62.943759656000       2.031534258000       9.687534540400
       115    2       61.144779599400       4.063442385600       9.986750722800
       116    2       63.307371782600       2.031534258000       7.123083496800
       117    1       65.105841524600       4.063458640800       7.422402338000
       118    1       67.268459656000       2.031534258000       9.687534540400
       119    2       65.469479599400       4.063442385600       9.986750722800
       120    2       67.632071782600       2.031534258000       7.123083496800
       121    1       60.781141524600       8.127258640800       7.422402338000
       122    1       62.943759656000       6.095334258000       9.687534540400
       123    2       61.144779599400       8.127242385600       9.986750722800
       124    2       63.307371782600       6.095334258000       7.123083496800
       125    1       65.105841524600       8.127258640800       7.422402338000
       126    1       67.268459656000       6.095334258000       9.687534540400
       127    2       65.469479599400       8.127242385600       9.986750722800
       128    2       67.632071782600       6.095334258000       7.123083496800
       129    1       69.430541524600       4.063458640800       7.422402338000
       130    1       71.593159656000       2.031534258000       9.687534540400
       131    2       69.794179599400       4.063442385600       9.986750722800
       132    2       71.956771782600       2.031534258000       7.123083496800
       133    1       73.755241524600       4.063458640800       7.422402338000
       134    1       75.917859656000       2.031534258000       9.687534540400
       135    2       74.118879599400       4.063442385600       9.986750722800
       136    2       76.281471782600       2.031534258000       7.123083496800
       137    1       69.430541524600       8.127258640800       7.422402338000
       138    1       71.593159656000       6.095334258000       9.687534540400
       139    2       69.794179599400       8.127242385600       9.986750722800
       140    2       71.956771782600       6.095334258000       7.123083496800
       141    1       73.755241524600       8.127258640800       7.422402338000
       142    1       75.917859656000       6.095334258000       9.687534540400
       143    2       74.118879599400       8.127242385600       9.986750722800
       144    2       76.281471782600       6.095334258000       7.123083496800
       145    1       78.079941524600       4.063458640800       7.422402338000
       146    1       80.242559656000       2.031534258000       9.687534540400
       147    2       78.443579599400       4.063442385600       9.986750722800
       148    2       80.606171782600       2.031534258000       7.123083496800
       149    1       82.404641524600       4.063458640800       7.422402338000
       150    1       84.567259656000       2.031534258000       9.687534540400
       151    2       82.768279599400       4.063442385600       9.986750722800
       152    2       84.930871782600       2.031534258000       7.123083496800
       153    1       78.079941524600       8.127258640800       7.422402338000
       154    1       80.242559656000       6.095334258000       9.687534540400
       155    2       78.443579599400       8.127242385600       9.986750722800
       156    2       80.606171782600       6.095334258000       7.123083496800
       157    1       82.404641524600       8.127258640800       7.422402338000
       158    1       84.567259656000       6.095334258000       9.687534540400
       159    2       82.768279599400       8.127242385600       9.986750722800
       160    2       84.930871782600       6.095334258000       7.123083496800
       161    1       86.729341524600       4.063458640800       7.422402338000
       162    1       88.891959656000       2.031534258000       9.687534540400
       163    2       87.092979599400       4.063442385600       9.986750722800
       164    2       89.255571782600       2.031534258000       7.123083496800
       165    1       91.054041524600       4.063458640800       7.422402338000
       166    1       93.216659656000       2.031534258000       9.687534540400
       167    2       91.417679599400       4.063442385600       9.986750722800
       168    2       93.580271782600       2.031534258000       7.123083496800
       169    1       86.729341524600       8.127258640800       7.422402338000
       170    1       88.891959656000       6.095334258000       9.687534540400
       171    2       87.092979599400       8.127242385600       9.986750722800
       172    2       89.255571782600       6.095334258000       7.123083496800
       173    1       91.054041524600       8.127258640800       7.422402338000
       174    1       93.216659656000       6.095334258000       9.687534540400
       175    2       91.417679599400       8.127242385600       9.986750722800
       176    2       93.580271782600       6.095334258000       7.123083496800
       177    1       95.378741524600       4.063458640800       7.422402338000
       178    1       97.541359656000       2.031534258000       9.687534540400
       179    2       95.742379599400       4.063442385600       9.986750722800
       180    2       97.904971782600       2.031534258000       7.123083496800
       181    1       99.703441524600       4.063458640800       7.422402338000
       182    1      101.866059656000       2.031534258000       9.687534540400
       183    2      100.067079599400       4.063442385600       9.986750722800
       184    2      102.229671782600       2.031534258000       7.123083496800
       185    1       95.378741524600       8.127258640800       7.422402338000
       186    1       97.541359656000       6.095334258000       9.687534540400
       187    2       95.742379599400       8.127242385600       9.986750722800
       188    2       97.904971782600       6.095334258000       7.123083496800
       189    1       99.703441524600       8.127258640800       7.422402338000
       190    1      101.866059656000       6.095334258000       9.687534540400
       191    2      100.067079599400       8.127242385600       9.986750722800
       192    2      102.229671782600       6.095334258000       7.123083496800
       193    1        0.235341524600      12.191058640800       7.422402338000
       194    1        2.397959656000      10.159134258000       9.687534540400
       195    2        0.598979599400      12.191042385600       9.986750722800
       196    2        2.761571782600      10.159134258000       7.123083496800
       197    1        4.560041524600      12.191058640800       7.422402338000
       198    1        6.722659656000      10.159134258000       9.687534540400
       199    2        4.923679599400      12.191042385600       9.986750722800
       200    2        7.086271782600      10.159134258000       7.123083496800
       201    1        0.235341524600      16.254858640800       7.422402338000
       202    1        2.397959656000      14.222934258000       9.687534540400
       203    2        0.598979599400      16.254842385600       9.986750722800
       204    2        2.761571782600      14.222934258000       7.123083496800
       205    1        4.560041524600      16.254858640800       7.422402338000
       206    1        6.722659656000      14.222934258000       9.687534540400
       207    2        4.923679599400      16.254842385600       9.986750722800
       208    2        7.086271782600      14.222934258000       7.123083496800
       209    1        8.884741524600      12.191058640800       7.422402338000
       210    1       11.047359656000      10.159134258000       9.687534540400
       211    2        9.248379599400      12.191042385600       9.986750722800
       212    2       11.410971782600      10.159134258000       7.123083496800
       213    1       13.209441524600      12.191058640800       7.422402338000
       214    1       15.372059656000      10.159134258000       9.687534540400
       215    2       13.573079599400      12.191042385600       9.986750722800
       216    2       15.735671782600      10.159134258000       7.123083496800
       217    1        8.884741524600      16.254858640800       7.422402338000
       218    1       11.047359656000      14.222934258000       9.687534540400
       219    2        9.248379599400      16.254842385600       9.986750722800
       220    2       11.410971782600      14.222934258000       7.123083496800
       221    1       13.209441524600      16.254858640800       7.422402338000
       222    1       15.372059656000      14.222934258000       9.687534540400
       223    2       13.573079599400      16.254842385600       9.986750722800
       224    2       15.735671782600      14.222934258000       7.123083496800
       225    1       17.534141524600      12.191058640800       7.422402338000
       226    1       19.696759656000      10.159134258000       9.687534540400
       227    2       17.897779599400      12.191042385600       9.986750722800
       228    2       20.060371782600      10.159134258000       7.123083496800
       229    1       21.858841524600      12.191058640800       7.422402338000
       230    1       24.021459656000      10.159134258000       9.687534540400
       231    2       22.222479599400      12.191042385600       9.986750722800
       232    2       24.385071782600      10.159134258000       7.123083496800
       233    1       17.534141524600      16.254858640800       7.422402338000
       234    1       19.696759656000      14.222934258000       9.687534540400
       235    2       17.897779599400      16.254842385600       9.986750722800
       236    2       20.060371782600      14.222934258000       7.123083496800
       237    1       21.858841524600      16.254858640800       7.422402338000
       238    1       24.021459656000      14.222934258000       9.687534540400
       239    2       22.222479599400      16.254842385600       9.986750722800
       240    2       24.385071782600      14.222934258000       7.123083496800
       241    1       26.183541524600      12.191058640800       7.422402338000
       242    1       28.346159656000      10.159134258000       9.687534540400
       243    2       26.547179599400      12.191042385600       9.986750722800
       244    2       28.709771782600      10.159134258000       7.123083496800
       245    1       30.508241524600      12.191058640800       7.422402338000
       246    1       32.670859656000      10.159134258000       9.687534540400
       247    2       30.871879599400      12.191042385600       9.986750722800
       248    2       33.034471782600      10.159134258000       7.123083496800
       249    1       26.183541524600      16.254858640800       7.422402338000
       250    1       28.346159656000      14.222934258000       9.687534540400
       251    2       26.547179599400      16.254842385600       9.986750722800
       252    2       28.709771782600      14.222934258000       7.123083496800
       253    1       30.508241524600      16.254858640800       7.422402338000
       254    1       32.670859656000      14.222934258000       9.687534540400
       255    2       30.871879599400      16.254842385600       9.986750722800
       256    2       33.034471782600      14.222934258000       7.123083496800
       257    1       34.832941524600      12.191058640800       7.422402338000
       258    1       36.995559656000      10.159134258000       9.687534540400
       259    2       35.196579599400      12.191042385600       9.986750722800
       260    2       37.359171782600      10.159134258000       7.123083496800
       261    1       39.157641524600      12.191058640800       7.422402338000
       262    1       41.320259656000      10.159134258000       9.687534540400
       263    2       39.521279599400      12.191042385600       9.986750722800
       264    2       41.683871782600      10.159134258000       7.123083496800
       265    1       34.832941524600      16.254858640800       7.422402338000
       266    1       36.995559656000      14.222934258000       9.687534540400
       267    2       35.196579599400      16.254842385600       9.986750722800
       268    2       37.359171782600      14.222934258000       7.123083496800
       269    1       39.157641524600      16.254858640800       7.422402338000
       270    1       41.320259656000      14.222934258000       9.687534540400
       271    2       39.521279599400      16.254842385600       9.986750722800
       272    2       41.683871782600      14.222934258000       7.123083496800
       273    1       43.482341524600      12.191058640800       7.422402338000
       274    1       45.644959656000      10.159134258000       9.687534540400
       275    2       43.845979599400      12.191042385600       9.986750722800
       276    2       46.008571782600      10.159134258000       7.123083496800
       277    1       47.807041524600      12.191058640800       7.422402338000
       278    1       49.969659656000      10.159134258000       9.687534540400
       279    2       48.170679599400      12.191042385600       9.986750722800
       280    2       50.333271782600      10.159134258000       7.123083496800
       281    1       43.482341524600      16.254858640800       7.422402338000
       282    1       45.644959656000      14.222934258000       9.687534540400
       283    2       43.845979599400      16.254842385600       9.986750722800
       284    2       46.008571782600      14.222934258000       7.123083496800
       285    1       47.807041524600      16.254858640800       7.422402338000
       286    1       49.969659656000      14.222934258000       9.687534540400
       287    2       48.170679599400      16.254842385600       9.986750722800
       288    2       50.333271782600      14.222934258000       7.123083496800
       289    1       52.131741524600      12.191058640800       7.422402338000
       290    1       54.294359656000      10.159134258000       9.687534540400
       291    2       52.495379599400      12.191042385600       9.986750722800
       292    2       54.657971782600      10.159134258000       7.123083496800
       293    1       56.456441524600      12.191058640800       7.422402338000
       294    1       58.619059656000      10.159134258000       9.687534540400
       295    2       56.820079599400      12.191042385600       9.986750722800
       296    2       58.982671782600      10.159134258000       7.123083496800
       297    1       52.131741524600      16.254858640800       7.422402338000
       298    1       54.294359656000      14.222934258000       9.687534540400
       299    2       52.495379599400      16.254842385600       9.986750722800
       300    2       54.657971782600      14.222934258000       7.123083496800
       301    1       56.456441524600      16.254858640800       7.422402338000
       302    1       58.619059656000      14.222934258000       9.687534540400
       303    2       56.820079599400      16.254842385600       9.986750722800
       304    2       58.982671782600      14.222934258000       7.123083496800
       305    1       60.781141524600      12.191058640800       7.422402338000
       306    1       62.943759656000      10.159134258000       9.687534540400
       307    2       61.144779599400      12.191042385600       9.986750722800
       308    2       63.307371782600      10.159134258000       7.123083496800
       309    1       65.105841524600      12.191058640800       7.422402338000
       310    1       67.268459656000      10.159134258000       9.687534540400
       311    2       65.469479599400      12.191042385600       9.986750722800
       312    2       67.632071782600      10.159134258000       7.123083496800
       313    1       60.781141524600      16.254858640800       7.422402338000
       314    1       62.943759656000      14.222934258000       9.687534540400
       315    2       61.144779599400      16.254842385600       9.986750722800
       316    2       63.307371782600      14.222934258000       7.123083496800
       317    1       65.105841524600      16.254858640800       7.422402338000
       318    1       67.268459656000      14.222934258000       9.687534540400
       319    2       65.469479599400      16.254842385600       9.986750722800
       320    2       67.632071782600      14.222934258000       7.123083496800
       321    1       69.430541524600      12.191058640800       7.422402338000
       322    1       71.593159656000      10.159134258000       9.687534540400
       323    2       69.794179599400      12.191042385600       9.986750722800
       324    2       71.956771782600      10.159134258000       7.123083496800
       325    1       73.755241524600      12.191058640800       7.422402338000
       326    1       75.917859656000      10.159134258000       9.687534540400
       327    2       74.118879599400      12.191042385600       9.986750722800
       328    2       76.281471782600      10.159134258000       7.123083496800
       329    1       69.430541524600      16.254858640800       7.422402338000
       330    1       71.593159656000      14.222934258000       9.687534540400
       331    2       69.794179599400      16.254842385600       9.986750722800
       332    2       71.956771782600      14.222934258000       7.123083496800
       333    1       73.755241524600      16.254858640800       7.422402338000
       334    1       75.917859656000      14.222934258000       9.687534540400
       335    2       74.118879599400      16.254842385600       9.986750722800
       336    2       76.281471782600      14.222934258000       7.123083496800
       337    1       78.079941524600      12.191058640800       7.422402338000
       338    1       80.242559656000      10.159134258000       9.687534540400
       339    2       78.443579599400      12.191042385600       9.986750722800
       340    2       80.606171782600      10.159134258000       7.123083496800
       341    1       82.404641524600      12.191058640800       7.422402338000
       342    1       84.567259656000      10.159134258000       9.687534540400
       343    2       82.768279599400      12.191042385600       9.986750722800
       344    2       84.930871782600      10.159134258000       7.123083496800
       345    1       78.079941524600      16.254858640800       7.422402338000
       346    1       80.242559656000      14.222934258000       9.687534540400
       347    2       78.443579599400      16.254842385600       9.986750722800
       348    2       80.606171782600      14.222934258000       7.123083496800
       349    1       82.404641524600      16.254858640800       7.422402338000
       350    1       84.567259656000      14.222934258000       9.687534540400
       351    2       82.768279599400      16.254842385600       9.986750722800
       352    2       84.930871782600      14.222934258000       7.123083496800
       353    1       86.729341524600      12.191058640800       7.422402338000
       354    1       88.891959656000      10.159134258000       9.687534540400
       355    2       87.092979599400      12.191042385600       9.986750722800
       356    2       89.255571782600      10.159134258000       7.123083496800
       357    1       91.054041524600      12.191058640800       7.422402338000
       358    1       93.216659656000      10.159134258000       9.687534540400
       359    2       91.417679599400      12.191042385600       9.986750722800
       360    2       93.580271782600      10.159134258000       7.123083496800
       361    1       86.729341524600      16.254858640800       7.422402338000
       362    1       88.891959656000      14.222934258000       9.687534540400
       363    2       87.092979599400      16.254842385600       9.986750722800
       364    2       89.255571782600      14.222934258000       7.123083496800
       365    1       91.054041524600      16.254858640800       7.422402338000
       366    1       93.216659656000      14.222934258000       9.687534540400
       367    2       91.417679599400      16.254842385600       9.986750722800
       368    2       93.580271782600      14.222934258000       7.123083496800
       369    1       95.378741524600      12.191058640800       7.422402338000
       370    1       97.541359656000      10.159134258000       9.687534540400