 # Te8 Sn8
  
        1936  atoms
           2  atom types
 
      0.000000000000     100.791900000000  xlo xhi
      0.000000000000     100.012000000000  ylo yhi
      0.000000000000      17.109800000000  zlo zhi
 
Masses
 
            1   127.60000000            # Te
            2   118.71000000            # Sn
 
Atoms # atomic
 
         1    1        0.371738853000       4.545699964000       6.977461989000
         2    1        2.662702088400       2.272509032000      10.132526218800
         3    2        0.507303958500       4.545654504000       9.894203814600
         4    2        2.798203053600       2.272545400000       7.215630405000
         5    1        4.953188853000       4.545699964000       6.977461989000
         6    1        7.244152088400       2.272509032000      10.132526218800
         7    2        5.088753958500       4.545654504000       9.894203814600
         8    2        7.379653053600       2.272545400000       7.215630405000
         9    1        0.371738853000       9.091699964000       6.977461989000
        10    1        2.662702088400       6.818509032000      10.132526218800
        11    2        0.507303958500       9.091654504000       9.894203814600
        12    2        2.798203053600       6.818545400000       7.215630405000
        13    1        4.953188853000       9.091699964000       6.977461989000
        14    1        7.244152088400       6.818509032000      10.132526218800
        15    2        5.088753958500       9.091654504000       9.894203814600
        16    2        7.379653053600       6.818545400000       7.215630405000
        17    1        9.534638853000       4.545699964000       6.977461989000
        18    1       11.825602088400       2.272509032000      10.132526218800
        19    2        9.670203958500       4.545654504000       9.894203814600
        20    2       11.961103053600       2.272545400000       7.215630405000
        21    1       14.116088853000       4.545699964000       6.977461989000
        22    1       16.407052088400       2.272509032000      10.132526218800
        23    2       14.251653958500       4.545654504000       9.894203814600
        24    2       16.542553053600       2.272545400000       7.215630405000
        25    1        9.534638853000       9.091699964000       6.977461989000
        26    1       11.825602088400       6.818509032000      10.132526218800
        27    2        9.670203958500       9.091654504000       9.894203814600
        28    2       11.961103053600       6.818545400000       7.215630405000
        29    1       14.116088853000       9.091699964000       6.977461989000
        30    1       16.407052088400       6.818509032000      10.132526218800
        31    2       14.251653958500       9.091654504000       9.894203814600
        32    2       16.542553053600       6.818545400000       7.215630405000
        33    1       18.697538853000       4.545699964000       6.977461989000
        34    1       20.988502088400       2.272509032000      10.132526218800
        35    2       18.833103958500       4.545654504000       9.894203814600
        36    2       21.124003053600       2.272545400000       7.215630405000
        37    1       23.278988853000       4.545699964000       6.977461989000
        38    1       25.569952088400       2.272509032000      10.132526218800
        39    2       23.414553958500       4.545654504000       9.894203814600
        40    2       25.705453053600       2.272545400000       7.215630405000
        41    1       18.697538853000       9.091699964000       6.977461989000
        42    1       20.988502088400       6.818509032000      10.132526218800
        43    2       18.833103958500       9.091654504000       9.894203814600
        44    2       21.124003053600       6.818545400000       7.215630405000
        45    1       23.278988853000       9.091699964000       6.977461989000
        46    1       25.569952088400       6.818509032000      10.132526218800
        47    2       23.414553958500       9.091654504000       9.894203814600
        48    2       25.705453053600       6.818545400000       7.215630405000
        49    1       27.860438853000       4.545699964000       6.977461989000
        50    1       30.151402088400       2.272509032000      10.132526218800
        51    2       27.996003958500       4.545654504000       9.894203814600
        52    2       30.286903053600       2.272545400000       7.215630405000
        53    1       32.441888853000       4.545699964000       6.977461989000
        54    1       34.732852088400       2.272509032000      10.132526218800
        55    2       32.577453958500       4.545654504000       9.894203814600
        56    2       34.868353053600       2.272545400000       7.215630405000
        57    1       27.860438853000       9.091699964000       6.977461989000
        58    1       30.151402088400       6.818509032000      10.132526218800
        59    2       27.996003958500       9.091654504000       9.894203814600
        60    2       30.286903053600       6.818545400000       7.215630405000
        61    1       32.441888853000       9.091699964000       6.977461989000
        62    1       34.732852088400       6.818509032000      10.132526218800
        63    2       32.577453958500       9.091654504000       9.894203814600
        64    2       34.868353053600       6.818545400000       7.215630405000
        65    1       37.023338853000       4.545699964000       6.977461989000
        66    1       39.314302088400       2.272509032000      10.132526218800
        67    2       37.158903958500       4.545654504000       9.894203814600
        68    2       39.449803053600       2.272545400000       7.215630405000
        69    1       41.604788853000       4.545699964000       6.977461989000
        70    1       43.895752088400       2.272509032000      10.132526218800
        71    2       41.740353958500       4.545654504000       9.894203814600
        72    2       44.031253053600       2.272545400000       7.215630405000
        73    1       37.023338853000       9.091699964000       6.977461989000
        74    1       39.314302088400       6.818509032000      10.132526218800
        75    2       37.158903958500       9.091654504000       9.894203814600
        76    2       39.449803053600       6.818545400000       7.215630405000
        77    1       41.604788853000       9.091699964000       6.977461989000
        78    1       43.895752088400       6.818509032000      10.132526218800
        79    2       41.740353958500       9.091654504000       9.894203814600
        80    2       44.031253053600       6.818545400000       7.215630405000
        81    1       46.186238853000       4.545699964000       6.977461989000
        82    1       48.477202088400       2.272509032000      10.132526218800
        83    2       46.321803958500       4.545654504000       9.894203814600
        84    2       48.612703053600       2.272545400000       7.215630405000
        85    1       50.767688853000       4.545699964000       6.977461989000
        86    1       53.058652088400       2.272509032000      10.132526218800
        87    2       50.903253958500       4.545654504000       9.894203814600
        88    2       53.194153053600       2.272545400000       7.215630405000
        89    1       46.186238853000       9.091699964000       6.977461989000
        90    1       48.477202088400       6.818509032000      10.132526218800
        91    2       46.321803958500       9.091654504000       9.894203814600
        92    2       48.612703053600       6.818545400000       7.215630405000
        93    1       50.767688853000       9.091699964000       6.977461989000
        94    1       53.058652088400       6.818509032000      10.132526218800
        95    2       50.903253958500       9.091654504000       9.894203814600
        96    2       53.194153053600       6.818545400000       7.215630405000
        97    1       55.349138853000       4.545699964000       6.977461989000
        98    1       57.640102088400       2.272509032000      10.132526218800
        99    2       55.484703958500       4.545654504000       9.894203814600
       100    2       57.775603053600       2.272545400000       7.215630405000
       101    1       59.930588853000       4.545699964000       6.977461989000
       102    1       62.221552088400       2.272509032000      10.132526218800
       103    2       60.066153958500       4.545654504000       9.894203814600
       104    2       62.357053053600       2.272545400000       7.215630405000
       105    1       55.349138853000       9.091699964000       6.977461989000
       106    1       57.640102088400       6.818509032000      10.132526218800
       107    2       55.484703958500       9.091654504000       9.894203814600
       108    2       57.775603053600       6.818545400000       7.215630405000
       109    1       59.930588853000       9.091699964000       6.977461989000
       110    1       62.221552088400       6.818509032000      10.132526218800
       111    2       60.066153958500       9.091654504000       9.894203814600
       112    2       62.357053053600       6.818545400000       7.215630405000
       113    1       64.512038853000       4.545699964000       6.977461989000
       114    1       66.803002088400       2.272509032000      10.132526218800
       115    2       64.647603958500       4.545654504000       9.894203814600
       116    2       66.938503053600       2.272545400000       7.215630405000
       117    1       69.093488853000       4.545699964000       6.977461989000
       118    1       71.384452088400       2.272509032000      10.132526218800
       119    2       69.229053958500       4.545654504000       9.894203814600
       120    2       71.519953053600       2.272545400000       7.215630405000
       121    1       64.512038853000       9.091699964000       6.977461989000
       122    1       66.803002088400       6.818509032000      10.132526218800
       123    2       64.647603958500       9.091654504000       9.894203814600
       124    2       66.938503053600       6.818545400000       7.215630405000
       125    1       69.093488853000       9.091699964000       6.977461989000
       126    1       71.384452088400       6.818509032000      10.132526218800
       127    2       69.229053958500       9.091654504000       9.894203814600
       128    2       71.519953053600       6.818545400000       7.215630405000
       129    1       73.674938853000       4.545699964000       6.977461989000
       130    1       75.965902088400       2.272509032000      10.132526218800
       131    2       73.810503958500       4.545654504000       9.894203814600
       132    2       76.101403053600       2.272545400000       7.215630405000
       133    1       78.256388853000       4.545699964000       6.977461989000
       134    1       80.547352088400       2.272509032000      10.132526218800
       135    2       78.391953958500       4.545654504000       9.894203814600
       136    2       80.682853053600       2.272545400000       7.215630405000
       137    1       73.674938853000       9.091699964000       6.977461989000
       138    1       75.965902088400       6.818509032000      10.132526218800
       139    2       73.810503958500       9.091654504000       9.894203814600
       140    2       76.101403053600       6.818545400000       7.215630405000
       141    1       78.256388853000       9.091699964000       6.977461989000
       142    1       80.547352088400       6.818509032000      10.132526218800
       143    2       78.391953958500       9.091654504000       9.894203814600
       144    2       80.682853053600       6.818545400000       7.215630405000
       145    1       82.837838853000       4.545699964000       6.977461989000
       146    1       85.128802088400       2.272509032000      10.132526218800
       147    2       82.973403958500       4.545654504000       9.894203814600
       148    2       85.264303053600       2.272545400000       7.215630405000
       149    1       87.419288853000       4.545699964000       6.977461989000
       150    1       89.710252088400       2.272509032000      10.132526218800
       151    2       87.554853958500       4.545654504000       9.894203814600
       152    2       89.845753053600       2.272545400000       7.215630405000
       153    1       82.837838853000       9.091699964000       6.977461989000
       154    1       85.128802088400       6.818509032000      10.132526218800
       155    2       82.973403958500       9.091654504000       9.894203814600
       156    2       85.264303053600       6.818545400000       7.215630405000
       157    1       87.419288853000       9.091699964000       6.977461989000
       158    1       89.710252088400       6.818509032000      10.132526218800
       159    2       87.554853958500       9.091654504000       9.894203814600
       160    2       89.845753053600       6.818545400000       7.215630405000
       161    1       92.000738853000       4.545699964000       6.977461989000
       162    1       94.291702088400       2.272509032000      10.132526218800
       163    2       92.136303958500       4.545654504000       9.894203814600
       164    2       94.427203053600       2.272545400000       7.215630405000
       165    1       96.582188853000       4.545699964000       6.977461989000
       166    1       98.873152088400       2.272509032000      10.132526218800
       167    2       96.717753958500       4.545654504000       9.894203814600
       168    2       99.008653053600       2.272545400000       7.215630405000
       169    1       92.000738853000       9.091699964000       6.977461989000
       170    1       94.291702088400       6.818509032000      10.132526218800
       171    2       92.136303958500       9.091654504000       9.894203814600
       172    2       94.427203053600       6.818545400000       7.215630405000
       173    1       96.582188853000       9.091699964000       6.977461989000
       174    1       98.873152088400       6.818509032000      10.132526218800
       175    2       96.717753958500       9.091654504000       9.894203814600
       176    2       99.008653053600       6.818545400000       7.215630405000
       177    1        0.371738853000      13.637699964000       6.977461989000
       178    1        2.662702088400      11.364509032000      10.132526218800
       179    2        0.507303958500      13.637654504000       9.894203814600
       180    2        2.798203053600      11.364545400000       7.215630405000
       181    1        4.953188853000      13.637699964000       6.977461989000
       182    1        7.244152088400      11.364509032000      10.132526218800
       183    2        5.088753958500      13.637654504000       9.894203814600
       184    2        7.379653053600      11.364545400000       7.215630405000
       185    1        0.371738853000      18.183699964000       6.977461989000
       186    1        2.662702088400      15.910509032000      10.132526218800
       187    2        0.507303958500      18.183654504000       9.894203814600
       188    2        2.798203053600      15.910545400000       7.215630405000
       189    1        4.953188853000      18.183699964000       6.977461989000
       190    1        7.244152088400      15.910509032000      10.132526218800
       191    2        5.088753958500      18.183654504000       9.894203814600
       192    2        7.379653053600      15.910545400000       7.215630405000
       193    1        9.534638853000      13.637699964000       6.977461989000
       194    1       11.825602088400      11.364509032000      10.132526218800
       195    2        9.670203958500      13.637654504000       9.894203814600
       196    2       11.961103053600      11.364545400000       7.215630405000
       197    1       14.116088853000      13.637699964000       6.977461989000
       198    1       16.407052088400      11.364509032000      10.132526218800
       199    2       14.251653958500      13.637654504000       9.894203814600
       200    2       16.542553053600      11.364545400000       7.215630405000
       201    1        9.534638853000      18.183699964000       6.977461989000
       202    1       11.825602088400      15.910509032000      10.132526218800
       203    2        9.670203958500      18.183654504000       9.894203814600
       204    2       11.961103053600      15.910545400000       7.215630405000
       205    1       14.116088853000      18.183699964000       6.977461989000
       206    1       16.407052088400      15.910509032000      10.132526218800
       207    2       14.251653958500      18.183654504000       9.894203814600
       208    2       16.542553053600      15.910545400000       7.215630405000
       209    1       18.697538853000      13.637699964000       6.977461989000
       210    1       20.988502088400      11.364509032000      10.132526218800
       211    2       18.833103958500      13.637654504000       9.894203814600
       212    2       21.124003053600      11.364545400000       7.215630405000
       213    1       23.278988853000      13.637699964000       6.977461989000
       214    1       25.569952088400      11.364509032000      10.132526218800
       215    2       23.414553958500      13.637654504000       9.894203814600
       216    2       25.705453053600      11.364545400000       7.215630405000
       217    1       18.697538853000      18.183699964000       6.977461989000
       218    1       20.988502088400      15.910509032000      10.132526218800
       219    2       18.833103958500      18.183654504000       9.894203814600
       220    2       21.124003053600      15.910545400000       7.215630405000
       221    1       23.278988853000      18.183699964000       6.977461989000
       222    1       25.569952088400      15.910509032000      10.132526218800
       223    2       23.414553958500      18.183654504000       9.894203814600
       224    2       25.705453053600      15.910545400000       7.215630405000
       225    1       27.860438853000      13.637699964000       6.977461989000
       226    1       30.151402088400      11.364509032000      10.132526218800
       227    2       27.996003958500      13.637654504000       9.894203814600
       228    2       30.286903053600      11.364545400000       7.215630405000
       229    1       32.441888853000      13.637699964000       6.977461989000
       230    1       34.732852088400      11.364509032000      10.132526218800
       231    2       32.577453958500      13.637654504000       9.894203814600
       232    2       34.868353053600      11.364545400000       7.215630405000
       233    1       27.860438853000      18.183699964000       6.977461989000
       234    1       30.151402088400      15.910509032000      10.132526218800
       235    2       27.996003958500      18.183654504000       9.894203814600
       236    2       30.286903053600      15.910545400000       7.215630405000
       237    1       32.441888853000      18.183699964000       6.977461989000
       238    1       34.732852088400      15.910509032000      10.132526218800
       239    2       32.577453958500      18.183654504000       9.894203814600
       240    2       34.868353053600      15.910545400000       7.215630405000
       241    1       37.023338853000      13.637699964000       6.977461989000
       242    1       39.314302088400      11.364509032000      10.132526218800
       243    2       37.158903958500      13.637654504000       9.894203814600
       244    2       39.449803053600      11.364545400000       7.215630405000
       245    1       41.604788853000      13.637699964000       6.977461989000
       246    1       43.895752088400      11.364509032000      10.132526218800
       247    2       41.740353958500      13.637654504000       9.894203814600
       248    2       44.031253053600      11.364545400000       7.215630405000
       249    1       37.023338853000      18.183699964000       6.977461989000
       250    1       39.314302088400      15.910509032000      10.132526218800
       251    2       37.158903958500      18.183654504000       9.894203814600
       252    2       39.449803053600      15.910545400000       7.215630405000
       253    1       41.604788853000      18.183699964000       6.977461989000
       254    1       43.895752088400      15.910509032000      10.132526218800
       255    2       41.740353958500      18.183654504000       9.894203814600
       256    2       44.031253053600      15.910545400000       7.215630405000
       257    1       46.186238853000      13.637699964000       6.977461989000
       258    1       48.477202088400      11.364509032000      10.132526218800
       259    2       46.321803958500      13.637654504000       9.894203814600
       260    2       48.612703053600      11.364545400000       7.215630405000
       261    1       50.767688853000      13.637699964000       6.977461989000
       262    1       53.058652088400      11.364509032000      10.132526218800
       263    2       50.903253958500      13.637654504000       9.894203814600
       264    2       53.194153053600      11.364545400000       7.215630405000
       265    1       46.186238853000      18.183699964000       6.977461989000
       266    1       48.477202088400      15.910509032000      10.132526218800
       267    2       46.321803958500      18.183654504000       9.894203814600
       268    2       48.612703053600      15.910545400000       7.215630405000
       269    1       50.767688853000      18.183699964000       6.977461989000
       270    1       53.058652088400      15.910509032000      10.132526218800
       271    2       50.903253958500      18.183654504000       9.894203814600
       272    2       53.194153053600      15.910545400000       7.215630405000
       273    1       55.349138853000      13.637699964000       6.977461989000
       274    1       57.640102088400      11.364509032000      10.132526218800
       275    2       55.484703958500      13.637654504000       9.894203814600
       276    2       57.775603053600      11.364545400000       7.215630405000
       277    1       59.930588853000      13.637699964000       6.977461989000
       278    1       62.221552088400      11.364509032000      10.132526218800
       279    2       60.066153958500      13.637654504000       9.894203814600
       280    2       62.357053053600      11.364545400000       7.215630405000
       281    1       55.349138853000      18.183699964000       6.977461989000
       282    1       57.640102088400      15.910509032000      10.132526218800
       283    2       55.484703958500      18.183654504000       9.894203814600
       284    2       57.775603053600      15.910545400000       7.215630405000
       285    1       59.930588853000      18.183699964000       6.977461989000
       286    1       62.221552088400      15.910509032000      10.132526218800
       287    2       60.066153958500      18.183654504000       9.894203814600
       288    2       62.357053053600      15.910545400000       7.215630405000
       289    1       64.512038853000      13.637699964000       6.977461989000
       290    1       66.803002088400      11.364509032000      10.132526218800
       291    2       64.647603958500      13.637654504000       9.894203814600
       292    2       66.938503053600      11.364545400000       7.215630405000
       293    1       69.093488853000      13.637699964000       6.977461989000
       294    1       71.384452088400      11.364509032000      10.132526218800
       295    2       69.229053958500      13.637654504000       9.894203814600
       296    2       71.519953053600      11.364545400000       7.215630405000
       297    1       64.512038853000      18.183699964000       6.977461989000
       298    1       66.803002088400      15.910509032000      10.132526218800
       299    2       64.647603958500      18.183654504000       9.894203814600
       300    2       66.938503053600      15.910545400000       7.215630405000
       301    1       69.093488853000      18.183699964000       6.977461989000
       302    1       71.384452088400      15.910509032000      10.132526218800
       303    2       69.229053958500      18.183654504000       9.894203814600
       304    2       71.519953053600      15.910545400000       7.215630405000
       305    1       73.674938853000      13.637699964000       6.977461989000
       306    1       75.965902088400      11.364509032000      10.132526218800
       307    2       73.810503958500      13.637654504000       9.894203814600
       308    2       76.101403053600      11.364545400000       7.215630405000
       309    1       78.256388853000      13.637699964000       6.977461989000
       310    1       80.547352088400      11.364509032000      10.132526218800
       311    2       78.391953958500      13.637654504000       9.894203814600
       312    2       80.682853053600      11.364545400000       7.215630405000
       313    1       73.674938853000      18.183699964000       6.977461989000
       314    1       75.965902088400      15.910509032000      10.132526218800
       315    2       73.810503958500      18.183654504000       9.894203814600
       316    2       76.101403053600      15.910545400000       7.215630405000
       317    1       78.256388853000      18.183699964000       6.977461989000
       318    1       80.547352088400      15.910509032000      10.132526218800
       319    2       78.391953958500      18.183654504000       9.894203814600
       320    2       80.682853053600      15.910545400000       7.215630405000
       321    1       82.837838853000      13.637699964000       6.977461989000
       322    1       85.128802088400      11.364509032000      10.132526218800
       323    2       82.973403958500      13.637654504000       9.894203814600
       324    2       85.264303053600      11.364545400000       7.215630405000
       325    1       87.419288853000      13.637699964000       6.977461989000
       326    1       89.710252088400      11.364509032000      10.132526218800
       327    2       87.554853958500      13.637654504000       9.894203814600
       328    2       89.845753053600      11.364545400000       7.215630405000
       329    1       82.837838853000      18.183699964000       6.977461989000
       330    1       85.128802088400      15.910509032000      10.132526218800
       331    2       82.973403958500      18.183654504000       9.894203814600
       332    2       85.264303053600      15.910545400000       7.215630405000
       333    1       87.419288853000      18.183699964000       6.977461989000
       334    1       89.710252088400      15.910509032000      10.132526218800
       335    2       87.554853958500      18.183654504000       9.894203814600
       336    2       89.845753053600      15.910545400000       7.215630405000
       337    1       92.000738853000      13.637699964000       6.977461989000
       338    1       94.291702088400      11.364509032000      10.132526218800
       339    2       92.136303958500      13.637654504000       9.894203814600
       340    2       94.427203053600      11.364545400000       7.215630405000
       341    1       96.582188853000      13.637699964000       6.977461989000
       342    1       98.873152088400      11.364509032000      10.132526218800
       343    2       96.717753958500      13.637654504000       9.894203814600
       344    2       99.008653053600      11.364545400000       7.215630405000
       345    1       92.000738853000      18.183699964000       6.977461989000
       346    1       94.291702088400      15.910509032000      10.132526218800
       347    2       92.136303958500      18.183654504000       9.894203814600
       348    2       94.427203053600      15.910545400000       7.215630405000
       349    1       96.582188853000      18.183699964000       6.977461989000
       350    1       98.873152088400      15.910509032000      10.132526218800
       351    2       96.717753958500      18.183654504000       9.894203814600
       352    2       99.008653053600      15.910545400000       7.215630405000
       353    1        0.371738853000      22.729699964000       6.977461989000
       354    1        2.662702088400      20.456509032000      10.132526218800
       355    2        0.507303958500      22.729654504000       9.894203814600
       356    2        2.798203053600      20.456545400000       7.215630405000
       357    1        4.953188853000      22.729699964000       6.977461989000
       358    1        7.244152088400      20.456509032000      10.132526218800
       359    2        5.088753958500      22.729654504000       9.894203814600
       360    2        7.379653053600      20.456545400000       7.215630405000
       361    1        0.371738853000      27.275699964000       6.977461989000
       362    1        2.662702088400      25.002509032000      10.132526218800
       363    2        0.507303958500      27.275654504000       9.894203814600
       364    2        2.798203053600      25.002545400000       7.215630405000
       365    1        4.953188853000      27.275699964000       6.977461989000
       366    1        7.244152088400      25.002509032000      10.132526218800
       367    2        5.088753958500      27.275654504000       9.894203814600
       368    2        7.379653053600      25.002545400000       7.215630405000
       369    1        9.534638853000      22.729699964000       6.977461989000
       370    1       11.825602088400      20.456509032000      10.132526218800