 # Si32
  
        1152  atoms
           1  atom types
 
      0.000000000000      65.324400000000  xlo xhi
      0.000000000000      65.324400000000  ylo yhi
      0.000000000000       5.443700000000  zlo zhi
 
Masses
 
            1   28.08500000             # Si
 
Atoms # atomic
 
         1    1        4.082775000000       4.082775000000       1.360925000000
         2    1        0.000000000000       2.721850000000       2.721850000000
         3    1        4.082775000000       1.360925000000       4.082775000000
         4    1        0.000000000000       0.000000000000       0.000000000000
         5    1        1.360925000000       4.082775000000       4.082775000000
         6    1        2.721850000000       2.721850000000       0.000000000000
         7    1        1.360925000000       1.360925000000       1.360925000000
         8    1        2.721850000000       0.000000000000       2.721850000000
         9    1        9.526475000000       4.082775000000       1.360925000000
        10    1        5.443700000000       2.721850000000       2.721850000000
        11    1        9.526475000000       1.360925000000       4.082775000000
        12    1        5.443700000000       0.000000000000       0.000000000000
        13    1        6.804625000000       4.082775000000       4.082775000000
        14    1        8.165550000000       2.721850000000       0.000000000000
        15    1        6.804625000000       1.360925000000       1.360925000000
        16    1        8.165550000000       0.000000000000       2.721850000000
        17    1        4.082775000000       9.526475000000       1.360925000000
        18    1       10.887400000000       8.165550000000       2.721850000000
        19    1        4.082775000000       6.804625000000       4.082775000000
        20    1        0.000000000000       5.443700000000       0.000000000000
        21    1        1.360925000000       9.526475000000       4.082775000000
        22    1        2.721850000000       8.165550000000       0.000000000000
        23    1        1.360925000000       6.804625000000       1.360925000000
        24    1        2.721850000000       5.443700000000       2.721850000000
        25    1        9.526475000000       9.526475000000       1.360925000000
        26    1        5.443700000000       8.165550000000       2.721850000000
        27    1        9.526475000000       6.804625000000       4.082775000000
        28    1        5.443700000000       5.443700000000       0.000000000000
        29    1        6.804625000000       9.526475000000       4.082775000000
        30    1        8.165550000000       8.165550000000       0.000000000000
        31    1        6.804625000000       6.804625000000       1.360925000000
        32    1        8.165550000000       5.443700000000       2.721850000000
        33    1       14.970175000000       4.082775000000       1.360925000000
        34    1       10.887400000000       2.721850000000       2.721850000000
        35    1       14.970175000000       1.360925000000       4.082775000000
        36    1       10.887400000000       0.000000000000       0.000000000000
        37    1       12.248325000000       4.082775000000       4.082775000000
        38    1       13.609250000000       2.721850000000       0.000000000000
        39    1       12.248325000000       1.360925000000       1.360925000000
        40    1       13.609250000000       0.000000000000       2.721850000000
        41    1       20.413875000000       4.082775000000       1.360925000000
        42    1       16.331100000000       2.721850000000       2.721850000000
        43    1       20.413875000000       1.360925000000       4.082775000000
        44    1       16.331100000000       0.000000000000       0.000000000000
        45    1       17.692025000000       4.082775000000       4.082775000000
        46    1       19.052950000000       2.721850000000       0.000000000000
        47    1       17.692025000000       1.360925000000       1.360925000000
        48    1       19.052950000000       0.000000000000       2.721850000000
        49    1       14.970175000000       9.526475000000       1.360925000000
        50    1       21.774800000000       8.165550000000       2.721850000000
        51    1       14.970175000000       6.804625000000       4.082775000000
        52    1       10.887400000000       5.443700000000       0.000000000000
        53    1       12.248325000000       9.526475000000       4.082775000000
        54    1       13.609250000000       8.165550000000       0.000000000000
        55    1       12.248325000000       6.804625000000       1.360925000000
        56    1       13.609250000000       5.443700000000       2.721850000000
        57    1       20.413875000000       9.526475000000       1.360925000000
        58    1       16.331100000000       8.165550000000       2.721850000000
        59    1       20.413875000000       6.804625000000       4.082775000000
        60    1       16.331100000000       5.443700000000       0.000000000000
        61    1       17.692025000000       9.526475000000       4.082775000000
        62    1       19.052950000000       8.165550000000       0.000000000000
        63    1       17.692025000000       6.804625000000       1.360925000000
        64    1       19.052950000000       5.443700000000       2.721850000000
        65    1       25.857575000000       4.082775000000       1.360925000000
        66    1       21.774800000000       2.721850000000       2.721850000000
        67    1       25.857575000000       1.360925000000       4.082775000000
        68    1       21.774800000000       0.000000000000       0.000000000000
        69    1       23.135725000000       4.082775000000       4.082775000000
        70    1       24.496650000000       2.721850000000       0.000000000000
        71    1       23.135725000000       1.360925000000       1.360925000000
        72    1       24.496650000000       0.000000000000       2.721850000000
        73    1       31.301275000000       4.082775000000       1.360925000000
        74    1       27.218500000000       2.721850000000       2.721850000000
        75    1       31.301275000000       1.360925000000       4.082775000000
        76    1       27.218500000000       0.000000000000       0.000000000000
        77    1       28.579425000000       4.082775000000       4.082775000000
        78    1       29.940350000000       2.721850000000       0.000000000000
        79    1       28.579425000000       1.360925000000       1.360925000000
        80    1       29.940350000000       0.000000000000       2.721850000000
        81    1       25.857575000000       9.526475000000       1.360925000000
        82    1       32.662200000000       8.165550000000       2.721850000000
        83    1       25.857575000000       6.804625000000       4.082775000000
        84    1       21.774800000000       5.443700000000       0.000000000000
        85    1       23.135725000000       9.526475000000       4.082775000000
        86    1       24.496650000000       8.165550000000       0.000000000000
        87    1       23.135725000000       6.804625000000       1.360925000000
        88    1       24.496650000000       5.443700000000       2.721850000000
        89    1       31.301275000000       9.526475000000       1.360925000000
        90    1       27.218500000000       8.165550000000       2.721850000000
        91    1       31.301275000000       6.804625000000       4.082775000000
        92    1       27.218500000000       5.443700000000       0.000000000000
        93    1       28.579425000000       9.526475000000       4.082775000000
        94    1       29.940350000000       8.165550000000       0.000000000000
        95    1       28.579425000000       6.804625000000       1.360925000000
        96    1       29.940350000000       5.443700000000       2.721850000000
        97    1       36.744975000000       4.082775000000       1.360925000000
        98    1       32.662200000000       2.721850000000       2.721850000000
        99    1       36.744975000000       1.360925000000       4.082775000000
       100    1       32.662200000000       0.000000000000       0.000000000000
       101    1       34.023125000000       4.082775000000       4.082775000000
       102    1       35.384050000000       2.721850000000       0.000000000000
       103    1       34.023125000000       1.360925000000       1.360925000000
       104    1       35.384050000000       0.000000000000       2.721850000000
       105    1       42.188675000000       4.082775000000       1.360925000000
       106    1       38.105900000000       2.721850000000       2.721850000000
       107    1       42.188675000000       1.360925000000       4.082775000000
       108    1       38.105900000000       0.000000000000       0.000000000000
       109    1       39.466825000000       4.082775000000       4.082775000000
       110    1       40.827750000000       2.721850000000       0.000000000000
       111    1       39.466825000000       1.360925000000       1.360925000000
       112    1       40.827750000000       0.000000000000       2.721850000000
       113    1       36.744975000000       9.526475000000       1.360925000000
       114    1       43.549600000000       8.165550000000       2.721850000000
       115    1       36.744975000000       6.804625000000       4.082775000000
       116    1       32.662200000000       5.443700000000       0.000000000000
       117    1       34.023125000000       9.526475000000       4.082775000000
       118    1       35.384050000000       8.165550000000       0.000000000000
       119    1       34.023125000000       6.804625000000       1.360925000000
       120    1       35.384050000000       5.443700000000       2.721850000000
       121    1       42.188675000000       9.526475000000       1.360925000000
       122    1       38.105900000000       8.165550000000       2.721850000000
       123    1       42.188675000000       6.804625000000       4.082775000000
       124    1       38.105900000000       5.443700000000       0.000000000000
       125    1       39.466825000000       9.526475000000       4.082775000000
       126    1       40.827750000000       8.165550000000       0.000000000000
       127    1       39.466825000000       6.804625000000       1.360925000000
       128    1       40.827750000000       5.443700000000       2.721850000000
       129    1       47.632375000000       4.082775000000       1.360925000000
       130    1       43.549600000000       2.721850000000       2.721850000000
       131    1       47.632375000000       1.360925000000       4.082775000000
       132    1       43.549600000000       0.000000000000       0.000000000000
       133    1       44.910525000000       4.082775000000       4.082775000000
       134    1       46.271450000000       2.721850000000       0.000000000000
       135    1       44.910525000000       1.360925000000       1.360925000000
       136    1       46.271450000000       0.000000000000       2.721850000000
       137    1       53.076075000000       4.082775000000       1.360925000000
       138    1       48.993300000000       2.721850000000       2.721850000000
       139    1       53.076075000000       1.360925000000       4.082775000000
       140    1       48.993300000000       0.000000000000       0.000000000000
       141    1       50.354225000000       4.082775000000       4.082775000000
       142    1       51.715150000000       2.721850000000       0.000000000000
       143    1       50.354225000000       1.360925000000       1.360925000000
       144    1       51.715150000000       0.000000000000       2.721850000000
       145    1       47.632375000000       9.526475000000       1.360925000000
       146    1       54.437000000000       8.165550000000       2.721850000000
       147    1       47.632375000000       6.804625000000       4.082775000000
       148    1       43.549600000000       5.443700000000       0.000000000000
       149    1       44.910525000000       9.526475000000       4.082775000000
       150    1       46.271450000000       8.165550000000       0.000000000000
       151    1       44.910525000000       6.804625000000       1.360925000000
       152    1       46.271450000000       5.443700000000       2.721850000000
       153    1       53.076075000000       9.526475000000       1.360925000000
       154    1       48.993300000000       8.165550000000       2.721850000000
       155    1       53.076075000000       6.804625000000       4.082775000000
       156    1       48.993300000000       5.443700000000       0.000000000000
       157    1       50.354225000000       9.526475000000       4.082775000000
       158    1       51.715150000000       8.165550000000       0.000000000000
       159    1       50.354225000000       6.804625000000       1.360925000000
       160    1       51.715150000000       5.443700000000       2.721850000000
       161    1       58.519775000000       4.082775000000       1.360925000000
       162    1       54.437000000000       2.721850000000       2.721850000000
       163    1       58.519775000000       1.360925000000       4.082775000000
       164    1       54.437000000000       0.000000000000       0.000000000000
       165    1       55.797925000000       4.082775000000       4.082775000000
       166    1       57.158850000000       2.721850000000       0.000000000000
       167    1       55.797925000000       1.360925000000       1.360925000000
       168    1       57.158850000000       0.000000000000       2.721850000000
       169    1       63.963475000000       4.082775000000       1.360925000000
       170    1       59.880700000000       2.721850000000       2.721850000000
       171    1       63.963475000000       1.360925000000       4.082775000000
       172    1       59.880700000000       0.000000000000       0.000000000000
       173    1       61.241625000000       4.082775000000       4.082775000000
       174    1       62.602550000000       2.721850000000       0.000000000000
       175    1       61.241625000000       1.360925000000       1.360925000000
       176    1       62.602550000000       0.000000000000       2.721850000000
       177    1       58.519775000000       9.526475000000       1.360925000000
       178    1       65.324400000000       8.165550000000       2.721850000000
       179    1       58.519775000000       6.804625000000       4.082775000000
       180    1       54.437000000000       5.443700000000       0.000000000000
       181    1       55.797925000000       9.526475000000       4.082775000000
       182    1       57.158850000000       8.165550000000       0.000000000000
       183    1       55.797925000000       6.804625000000       1.360925000000
       184    1       57.158850000000       5.443700000000       2.721850000000
       185    1       63.963475000000       9.526475000000       1.360925000000
       186    1       59.880700000000       8.165550000000       2.721850000000
       187    1       63.963475000000       6.804625000000       4.082775000000
       188    1       59.880700000000       5.443700000000       0.000000000000
       189    1       61.241625000000       9.526475000000       4.082775000000
       190    1       62.602550000000       8.165550000000       0.000000000000
       191    1       61.241625000000       6.804625000000       1.360925000000
       192    1       62.602550000000       5.443700000000       2.721850000000
       193    1        4.082775000000      14.970175000000       1.360925000000
       194    1        0.000000000000      13.609250000000       2.721850000000
       195    1        4.082775000000      12.248325000000       4.082775000000
       196    1        0.000000000000      10.887400000000       0.000000000000
       197    1        1.360925000000      14.970175000000       4.082775000000
       198    1        2.721850000000      13.609250000000       0.000000000000
       199    1        1.360925000000      12.248325000000       1.360925000000
       200    1        2.721850000000      10.887400000000       2.721850000000
       201    1        9.526475000000      14.970175000000       1.360925000000
       202    1        5.443700000000      13.609250000000       2.721850000000
       203    1        9.526475000000      12.248325000000       4.082775000000
       204    1        5.443700000000      10.887400000000       0.000000000000
       205    1        6.804625000000      14.970175000000       4.082775000000
       206    1        8.165550000000      13.609250000000       0.000000000000
       207    1        6.804625000000      12.248325000000       1.360925000000
       208    1        8.165550000000      10.887400000000       2.721850000000
       209    1        4.082775000000      20.413875000000       1.360925000000
       210    1       10.887400000000      19.052950000000       2.721850000000
       211    1        4.082775000000      17.692025000000       4.082775000000
       212    1        0.000000000000      16.331100000000       0.000000000000
       213    1        1.360925000000      20.413875000000       4.082775000000
       214    1        2.721850000000      19.052950000000       0.000000000000
       215    1        1.360925000000      17.692025000000       1.360925000000
       216    1        2.721850000000      16.331100000000       2.721850000000
       217    1        9.526475000000      20.413875000000       1.360925000000
       218    1        5.443700000000      19.052950000000       2.721850000000
       219    1        9.526475000000      17.692025000000       4.082775000000
       220    1        5.443700000000      16.331100000000       0.000000000000
       221    1        6.804625000000      20.413875000000       4.082775000000
       222    1        8.165550000000      19.052950000000       0.000000000000
       223    1        6.804625000000      17.692025000000       1.360925000000
       224    1        8.165550000000      16.331100000000       2.721850000000
       225    1       14.970175000000      14.970175000000       1.360925000000
       226    1       10.887400000000      13.609250000000       2.721850000000
       227    1       14.970175000000      12.248325000000       4.082775000000
       228    1       10.887400000000      10.887400000000       0.000000000000
       229    1       12.248325000000      14.970175000000       4.082775000000
       230    1       13.609250000000      13.609250000000       0.000000000000
       231    1       12.248325000000      12.248325000000       1.360925000000
       232    1       13.609250000000      10.887400000000       2.721850000000
       233    1       20.413875000000      14.970175000000       1.360925000000
       234    1       16.331100000000      13.609250000000       2.721850000000
       235    1       20.413875000000      12.248325000000       4.082775000000
       236    1       16.331100000000      10.887400000000       0.000000000000
       237    1       17.692025000000      14.970175000000       4.082775000000
       238    1       19.052950000000      13.609250000000       0.000000000000
       239    1       17.692025000000      12.248325000000       1.360925000000
       240    1       19.052950000000      10.887400000000       2.721850000000
       241    1       14.970175000000      20.413875000000       1.360925000000
       242    1       21.774800000000      19.052950000000       2.721850000000
       243    1       14.970175000000      17.692025000000       4.082775000000
       244    1       10.887400000000      16.331100000000       0.000000000000
       245    1       12.248325000000      20.413875000000       4.082775000000
       246    1       13.609250000000      19.052950000000       0.000000000000
       247    1       12.248325000000      17.692025000000       1.360925000000
       248    1       13.609250000000      16.331100000000       2.721850000000
       249    1       20.413875000000      20.413875000000       1.360925000000
       250    1       16.331100000000      19.052950000000       2.721850000000
       251    1       20.413875000000      17.692025000000       4.082775000000
       252    1       16.331100000000      16.331100000000       0.000000000000
       253    1       17.692025000000      20.413875000000       4.082775000000
       254    1       19.052950000000      19.052950000000       0.000000000000
       255    1       17.692025000000      17.692025000000       1.360925000000
       256    1       19.052950000000      16.331100000000       2.721850000000
       257    1       25.857575000000      14.970175000000       1.360925000000
       258    1       21.774800000000      13.609250000000       2.721850000000
       259    1       25.857575000000      12.248325000000       4.082775000000
       260    1       21.774800000000      10.887400000000       0.000000000000
       261    1       23.135725000000      14.970175000000       4.082775000000
       262    1       24.496650000000      13.609250000000       0.000000000000
       263    1       23.135725000000      12.248325000000       1.360925000000
       264    1       24.496650000000      10.887400000000       2.721850000000
       265    1       31.301275000000      14.970175000000       1.360925000000
       266    1       27.218500000000      13.609250000000       2.721850000000
       267    1       31.301275000000      12.248325000000       4.082775000000
       268    1       27.218500000000      10.887400000000       0.000000000000
       269    1       28.579425000000      14.970175000000       4.082775000000
       270    1       29.940350000000      13.609250000000       0.000000000000
       271    1       28.579425000000      12.248325000000       1.360925000000
       272    1       29.940350000000      10.887400000000       2.721850000000
       273    1       25.857575000000      20.413875000000       1.360925000000
       274    1       32.662200000000      19.052950000000       2.721850000000
       275    1       25.857575000000      17.692025000000       4.082775000000
       276    1       21.774800000000      16.331100000000       0.000000000000
       277    1       23.135725000000      20.413875000000       4.082775000000
       278    1       24.496650000000      19.052950000000       0.000000000000
       279    1       23.135725000000      17.692025000000       1.360925000000
       280    1       24.496650000000      16.331100000000       2.721850000000
       281    1       31.301275000000      20.413875000000       1.360925000000
       282    1       27.218500000000      19.052950000000       2.721850000000
       283    1       31.301275000000      17.692025000000       4.082775000000
       284    1       27.218500000000      16.331100000000       0.000000000000
       285    1       28.579425000000      20.413875000000       4.082775000000
       286    1       29.940350000000      19.052950000000       0.000000000000
       287    1       28.579425000000      17.692025000000       1.360925000000
       288    1       29.940350000000      16.331100000000       2.721850000000
       289    1       36.744975000000      14.970175000000       1.360925000000
       290    1       32.662200000000      13.609250000000       2.721850000000
       291    1       36.744975000000      12.248325000000       4.082775000000
       292    1       32.662200000000      10.887400000000       0.000000000000
       293    1       34.023125000000      14.970175000000       4.082775000000
       294    1       35.384050000000      13.609250000000       0.000000000000
       295    1       34.023125000000      12.248325000000       1.360925000000
       296    1       35.384050000000      10.887400000000       2.721850000000
       297    1       42.188675000000      14.970175000000       1.360925000000
       298    1       38.105900000000      13.609250000000       2.721850000000
       299    1       42.188675000000      12.248325000000       4.082775000000
       300    1       38.105900000000      10.887400000000       0.000000000000
       301    1       39.466825000000      14.970175000000       4.082775000000
       302    1       40.827750000000      13.609250000000       0.000000000000
       303    1       39.466825000000      12.248325000000       1.360925000000
       304    1       40.827750000000      10.887400000000       2.721850000000
       305    1       36.744975000000      20.413875000000       1.360925000000
       306    1       43.549600000000      19.052950000000       2.721850000000
       307    1       36.744975000000      17.692025000000       4.082775000000
       308    1       32.662200000000      16.331100000000       0.000000000000
       309    1       34.023125000000      20.413875000000       4.082775000000
       310    1       35.384050000000      19.052950000000       0.000000000000
       311    1       34.023125000000      17.692025000000       1.360925000000
       312    1       35.384050000000      16.331100000000       2.721850000000
       313    1       42.188675000000      20.413875000000       1.360925000000
       314    1       38.105900000000      19.052950000000       2.721850000000
       315    1       42.188675000000      17.692025000000       4.082775000000
       316    1       38.105900000000      16.331100000000       0.000000000000
       317    1       39.466825000000      20.413875000000       4.082775000000
       318    1       40.827750000000      19.052950000000       0.000000000000
       319    1       39.466825000000      17.692025000000       1.360925000000
       320    1       40.827750000000      16.331100000000       2.721850000000
       321    1       47.632375000000      14.970175000000       1.360925000000
       322    1       43.549600000000      13.609250000000       2.721850000000
       323    1       47.632375000000      12.248325000000       4.082775000000
       324    1       43.549600000000      10.887400000000       0.000000000000
       325    1       44.910525000000      14.970175000000       4.082775000000
       326    1       46.271450000000      13.609250000000       0.000000000000
       327    1       44.910525000000      12.248325000000       1.360925000000
       328    1       46.271450000000      10.887400000000       2.721850000000
       329    1       53.076075000000      14.970175000000       1.360925000000
       330    1       48.993300000000      13.609250000000       2.721850000000
       331    1       53.076075000000      12.248325000000       4.082775000000
       332    1       48.993300000000      10.887400000000       0.000000000000
       333    1       50.354225000000      14.970175000000       4.082775000000
       334    1       51.715150000000      13.609250000000       0.000000000000
       335    1       50.354225000000      12.248325000000       1.360925000000
       336    1       51.715150000000      10.887400000000       2.721850000000
       337    1       47.632375000000      20.413875000000       1.360925000000
       338    1       54.437000000000      19.052950000000       2.721850000000
       339    1       47.632375000000      17.692025000000       4.082775000000
       340    1       43.549600000000      16.331100000000       0.000000000000
       341    1       44.910525000000      20.413875000000       4.082775000000
       342    1       46.271450000000      19.052950000000       0.000000000000
       343    1       44.910525000000      17.692025000000       1.360925000000
       344    1       46.271450000000      16.331100000000       2.721850000000
       345    1       53.076075000000      20.413875000000       1.360925000000
       346    1       48.993300000000      19.052950000000       2.721850000000
       347    1       53.076075000000      17.692025000000       4.082775000000
       348    1       48.993300000000      16.331100000000       0.000000000000
       349    1       50.354225000000      20.413875000000       4.082775000000
       350    1       51.715150000000      19.052950000000       0.000000000000
       351    1       50.354225000000      17.692025000000       1.360925000000
       352    1       51.715150000000      16.331100000000       2.721850000000
       353    1       58.519775000000      14.970175000000       1.360925000000
       354    1       54.437000000000      13.609250000000       2.721850000000
       355    1       58.519775000000      12.248325000000       4.082775000000
       356    1       54.437000000000      10.887400000000       0.000000000000
       357    1       55.797925000000      14.970175000000       4.082775000000
       358    1       57.158850000000      13.609250000000       0.000000000000
       359    1       55.797925000000      12.248325000000       1.360925000000
       360    1       57.158850000000      10.887400000000       2.721850000000
       361    1       63.963475000000      14.970175000000       1.360925000000
       362    1       59.880700000000      13.609250000000       2.721850000000
       363    1       63.963475000000      12.248325000000       4.082775000000
       364    1       59.880700000000      10.887400000000       0.000000000000
       365    1       61.241625000000      14.970175000000       4.082775000000
       366    1       62.602550000000      13.609250000000       0.000000000000
       367    1       61.241625000000      12.248325000000       1.360925000000
       368    1       62.602550000000      10.887400000000       2.721850000000
       369    1       58.519775000000      20.413875000000       1.360925000000
       370    1       65.324400000000      19.052950000000       2.721850000000
       371    1       58.519775000000      17.692025000000       4.082775000000