 # Sn16
  
        1056  atoms
           1  atom types
 
      0.000000000000     102.770800000000  xlo xhi
      0.000000000000      97.093200000000  ylo yhi
      0.000000000000      15.200000000000  zlo zhi
 
Masses
 
            1   118.71000000            # Sn
 
Atoms # atomic
 
         1    1        4.671400000000       5.394061272600       7.176512800000
         2    1        0.000000000000      13.485161272600       7.176512800000
         3    1        4.671400000000       0.000000000000       8.023213600000
         4    1        0.000000000000       8.091100000000       8.023213600000
         5    1        0.000000000000       0.000000000000       8.023213600000
         6    1        4.671400000000       8.091100000000       8.023213600000
         7    1        2.335700000000       1.348511272600       7.176512800000
         8    1        7.007100000000       9.439611272600       7.176512800000
         9    1        7.007100000000       4.045550000000       8.023213600000
        10    1        2.335700000000      12.136650000000       8.023213600000
        11    1        2.335700000000       4.045550000000       8.023213600000
        12    1        7.007100000000      12.136650000000       8.023213600000
        13    1        0.000000000000       5.394061272600       7.176512800000
        14    1        4.671400000000      13.485161272600       7.176512800000
        15    1        7.007100000000       1.348511272600       7.176512800000
        16    1        2.335700000000       9.439611272600       7.176512800000
        17    1       14.014200000000       5.394061272600       7.176512800000
        18    1        9.342800000000      13.485161272600       7.176512800000
        19    1       14.014200000000       0.000000000000       8.023213600000
        20    1        9.342800000000       8.091100000000       8.023213600000
        21    1        9.342800000000       0.000000000000       8.023213600000
        22    1       14.014200000000       8.091100000000       8.023213600000
        23    1       11.678500000000       1.348511272600       7.176512800000
        24    1       16.349900000000       9.439611272600       7.176512800000
        25    1       16.349900000000       4.045550000000       8.023213600000
        26    1       11.678500000000      12.136650000000       8.023213600000
        27    1       11.678500000000       4.045550000000       8.023213600000
        28    1       16.349900000000      12.136650000000       8.023213600000
        29    1        9.342800000000       5.394061272600       7.176512800000
        30    1       14.014200000000      13.485161272600       7.176512800000
        31    1       16.349900000000       1.348511272600       7.176512800000
        32    1       11.678500000000       9.439611272600       7.176512800000
        33    1       23.357000000000       5.394061272600       7.176512800000
        34    1       18.685600000000      13.485161272600       7.176512800000
        35    1       23.357000000000       0.000000000000       8.023213600000
        36    1       18.685600000000       8.091100000000       8.023213600000
        37    1       18.685600000000       0.000000000000       8.023213600000
        38    1       23.357000000000       8.091100000000       8.023213600000
        39    1       21.021300000000       1.348511272600       7.176512800000
        40    1       25.692700000000       9.439611272600       7.176512800000
        41    1       25.692700000000       4.045550000000       8.023213600000
        42    1       21.021300000000      12.136650000000       8.023213600000
        43    1       21.021300000000       4.045550000000       8.023213600000
        44    1       25.692700000000      12.136650000000       8.023213600000
        45    1       18.685600000000       5.394061272600       7.176512800000
        46    1       23.357000000000      13.485161272600       7.176512800000
        47    1       25.692700000000       1.348511272600       7.176512800000
        48    1       21.021300000000       9.439611272600       7.176512800000
        49    1       32.699800000000       5.394061272600       7.176512800000
        50    1       28.028400000000      13.485161272600       7.176512800000
        51    1       32.699800000000       0.000000000000       8.023213600000
        52    1       28.028400000000       8.091100000000       8.023213600000
        53    1       28.028400000000       0.000000000000       8.023213600000
        54    1       32.699800000000       8.091100000000       8.023213600000
        55    1       30.364100000000       1.348511272600       7.176512800000
        56    1       35.035500000000       9.439611272600       7.176512800000
        57    1       35.035500000000       4.045550000000       8.023213600000
        58    1       30.364100000000      12.136650000000       8.023213600000
        59    1       30.364100000000       4.045550000000       8.023213600000
        60    1       35.035500000000      12.136650000000       8.023213600000
        61    1       28.028400000000       5.394061272600       7.176512800000
        62    1       32.699800000000      13.485161272600       7.176512800000
        63    1       35.035500000000       1.348511272600       7.176512800000
        64    1       30.364100000000       9.439611272600       7.176512800000
        65    1       42.042600000000       5.394061272600       7.176512800000
        66    1       37.371200000000      13.485161272600       7.176512800000
        67    1       42.042600000000       0.000000000000       8.023213600000
        68    1       37.371200000000       8.091100000000       8.023213600000
        69    1       37.371200000000       0.000000000000       8.023213600000
        70    1       42.042600000000       8.091100000000       8.023213600000
        71    1       39.706900000000       1.348511272600       7.176512800000
        72    1       44.378300000000       9.439611272600       7.176512800000
        73    1       44.378300000000       4.045550000000       8.023213600000
        74    1       39.706900000000      12.136650000000       8.023213600000
        75    1       39.706900000000       4.045550000000       8.023213600000
        76    1       44.378300000000      12.136650000000       8.023213600000
        77    1       37.371200000000       5.394061272600       7.176512800000
        78    1       42.042600000000      13.485161272600       7.176512800000
        79    1       44.378300000000       1.348511272600       7.176512800000
        80    1       39.706900000000       9.439611272600       7.176512800000
        81    1       51.385400000000       5.394061272600       7.176512800000
        82    1       46.714000000000      13.485161272600       7.176512800000
        83    1       51.385400000000       0.000000000000       8.023213600000
        84    1       46.714000000000       8.091100000000       8.023213600000
        85    1       46.714000000000       0.000000000000       8.023213600000
        86    1       51.385400000000       8.091100000000       8.023213600000
        87    1       49.049700000000       1.348511272600       7.176512800000
        88    1       53.721100000000       9.439611272600       7.176512800000
        89    1       53.721100000000       4.045550000000       8.023213600000
        90    1       49.049700000000      12.136650000000       8.023213600000
        91    1       49.049700000000       4.045550000000       8.023213600000
        92    1       53.721100000000      12.136650000000       8.023213600000
        93    1       46.714000000000       5.394061272600       7.176512800000
        94    1       51.385400000000      13.485161272600       7.176512800000
        95    1       53.721100000000       1.348511272600       7.176512800000
        96    1       49.049700000000       9.439611272600       7.176512800000
        97    1       60.728200000000       5.394061272600       7.176512800000
        98    1       56.056800000000      13.485161272600       7.176512800000
        99    1       60.728200000000       0.000000000000       8.023213600000
       100    1       56.056800000000       8.091100000000       8.023213600000
       101    1       56.056800000000       0.000000000000       8.023213600000
       102    1       60.728200000000       8.091100000000       8.023213600000
       103    1       58.392500000000       1.348511272600       7.176512800000
       104    1       63.063900000000       9.439611272600       7.176512800000
       105    1       63.063900000000       4.045550000000       8.023213600000
       106    1       58.392500000000      12.136650000000       8.023213600000
       107    1       58.392500000000       4.045550000000       8.023213600000
       108    1       63.063900000000      12.136650000000       8.023213600000
       109    1       56.056800000000       5.394061272600       7.176512800000
       110    1       60.728200000000      13.485161272600       7.176512800000
       111    1       63.063900000000       1.348511272600       7.176512800000
       112    1       58.392500000000       9.439611272600       7.176512800000
       113    1       70.071000000000       5.394061272600       7.176512800000
       114    1       65.399600000000      13.485161272600       7.176512800000
       115    1       70.071000000000       0.000000000000       8.023213600000
       116    1       65.399600000000       8.091100000000       8.023213600000
       117    1       65.399600000000       0.000000000000       8.023213600000
       118    1       70.071000000000       8.091100000000       8.023213600000
       119    1       67.735300000000       1.348511272600       7.176512800000
       120    1       72.406700000000       9.439611272600       7.176512800000
       121    1       72.406700000000       4.045550000000       8.023213600000
       122    1       67.735300000000      12.136650000000       8.023213600000
       123    1       67.735300000000       4.045550000000       8.023213600000
       124    1       72.406700000000      12.136650000000       8.023213600000
       125    1       65.399600000000       5.394061272600       7.176512800000
       126    1       70.071000000000      13.485161272600       7.176512800000
       127    1       72.406700000000       1.348511272600       7.176512800000
       128    1       67.735300000000       9.439611272600       7.176512800000
       129    1       79.413800000000       5.394061272600       7.176512800000
       130    1       74.742400000000      13.485161272600       7.176512800000
       131    1       79.413800000000       0.000000000000       8.023213600000
       132    1       74.742400000000       8.091100000000       8.023213600000
       133    1       74.742400000000       0.000000000000       8.023213600000
       134    1       79.413800000000       8.091100000000       8.023213600000
       135    1       77.078100000000       1.348511272600       7.176512800000
       136    1       81.749500000000       9.439611272600       7.176512800000
       137    1       81.749500000000       4.045550000000       8.023213600000
       138    1       77.078100000000      12.136650000000       8.023213600000
       139    1       77.078100000000       4.045550000000       8.023213600000
       140    1       81.749500000000      12.136650000000       8.023213600000
       141    1       74.742400000000       5.394061272600       7.176512800000
       142    1       79.413800000000      13.485161272600       7.176512800000
       143    1       81.749500000000       1.348511272600       7.176512800000
       144    1       77.078100000000       9.439611272600       7.176512800000
       145    1       88.756600000000       5.394061272600       7.176512800000
       146    1       84.085200000000      13.485161272600       7.176512800000
       147    1       88.756600000000       0.000000000000       8.023213600000
       148    1       84.085200000000       8.091100000000       8.023213600000
       149    1       84.085200000000       0.000000000000       8.023213600000
       150    1       88.756600000000       8.091100000000       8.023213600000
       151    1       86.420900000000       1.348511272600       7.176512800000
       152    1       91.092300000000       9.439611272600       7.176512800000
       153    1       91.092300000000       4.045550000000       8.023213600000
       154    1       86.420900000000      12.136650000000       8.023213600000
       155    1       86.420900000000       4.045550000000       8.023213600000
       156    1       91.092300000000      12.136650000000       8.023213600000
       157    1       84.085200000000       5.394061272600       7.176512800000
       158    1       88.756600000000      13.485161272600       7.176512800000
       159    1       91.092300000000       1.348511272600       7.176512800000
       160    1       86.420900000000       9.439611272600       7.176512800000
       161    1       98.099400000000       5.394061272600       7.176512800000
       162    1       93.428000000000      13.485161272600       7.176512800000
       163    1       98.099400000000       0.000000000000       8.023213600000
       164    1       93.428000000000       8.091100000000       8.023213600000
       165    1       93.428000000000       0.000000000000       8.023213600000
       166    1       98.099400000000       8.091100000000       8.023213600000
       167    1       95.763700000000       1.348511272600       7.176512800000
       168    1      100.435100000000       9.439611272600       7.176512800000
       169    1      100.435100000000       4.045550000000       8.023213600000
       170    1       95.763700000000      12.136650000000       8.023213600000
       171    1       95.763700000000       4.045550000000       8.023213600000
       172    1      100.435100000000      12.136650000000       8.023213600000
       173    1       93.428000000000       5.394061272600       7.176512800000
       174    1       98.099400000000      13.485161272600       7.176512800000
       175    1      100.435100000000       1.348511272600       7.176512800000
       176    1       95.763700000000       9.439611272600       7.176512800000
       177    1        4.671400000000      21.576261272600       7.176512800000
       178    1        0.000000000000      29.667361272600       7.176512800000
       179    1        4.671400000000      16.182200000000       8.023213600000
       180    1        0.000000000000      24.273300000000       8.023213600000
       181    1        0.000000000000      16.182200000000       8.023213600000
       182    1        4.671400000000      24.273300000000       8.023213600000
       183    1        2.335700000000      17.530711272600       7.176512800000
       184    1        7.007100000000      25.621811272600       7.176512800000
       185    1        7.007100000000      20.227750000000       8.023213600000
       186    1        2.335700000000      28.318850000000       8.023213600000
       187    1        2.335700000000      20.227750000000       8.023213600000
       188    1        7.007100000000      28.318850000000       8.023213600000
       189    1        0.000000000000      21.576261272600       7.176512800000
       190    1        4.671400000000      29.667361272600       7.176512800000
       191    1        7.007100000000      17.530711272600       7.176512800000
       192    1        2.335700000000      25.621811272600       7.176512800000
       193    1       14.014200000000      21.576261272600       7.176512800000
       194    1        9.342800000000      29.667361272600       7.176512800000
       195    1       14.014200000000      16.182200000000       8.023213600000
       196    1        9.342800000000      24.273300000000       8.023213600000
       197    1        9.342800000000      16.182200000000       8.023213600000
       198    1       14.014200000000      24.273300000000       8.023213600000
       199    1       11.678500000000      17.530711272600       7.176512800000
       200    1       16.349900000000      25.621811272600       7.176512800000
       201    1       16.349900000000      20.227750000000       8.023213600000
       202    1       11.678500000000      28.318850000000       8.023213600000
       203    1       11.678500000000      20.227750000000       8.023213600000
       204    1       16.349900000000      28.318850000000       8.023213600000
       205    1        9.342800000000      21.576261272600       7.176512800000
       206    1       14.014200000000      29.667361272600       7.176512800000
       207    1       16.349900000000      17.530711272600       7.176512800000
       208    1       11.678500000000      25.621811272600       7.176512800000
       209    1       23.357000000000      21.576261272600       7.176512800000
       210    1       18.685600000000      29.667361272600       7.176512800000
       211    1       23.357000000000      16.182200000000       8.023213600000
       212    1       18.685600000000      24.273300000000       8.023213600000
       213    1       18.685600000000      16.182200000000       8.023213600000
       214    1       23.357000000000      24.273300000000       8.023213600000
       215    1       21.021300000000      17.530711272600       7.176512800000
       216    1       25.692700000000      25.621811272600       7.176512800000
       217    1       25.692700000000      20.227750000000       8.023213600000
       218    1       21.021300000000      28.318850000000       8.023213600000
       219    1       21.021300000000      20.227750000000       8.023213600000
       220    1       25.692700000000      28.318850000000       8.023213600000
       221    1       18.685600000000      21.576261272600       7.176512800000
       222    1       23.357000000000      29.667361272600       7.176512800000
       223    1       25.692700000000      17.530711272600       7.176512800000
       224    1       21.021300000000      25.621811272600       7.176512800000
       225    1       32.699800000000      21.576261272600       7.176512800000
       226    1       28.028400000000      29.667361272600       7.176512800000
       227    1       32.699800000000      16.182200000000       8.023213600000
       228    1       28.028400000000      24.273300000000       8.023213600000
       229    1       28.028400000000      16.182200000000       8.023213600000
       230    1       32.699800000000      24.273300000000       8.023213600000
       231    1       30.364100000000      17.530711272600       7.176512800000
       232    1       35.035500000000      25.621811272600       7.176512800000
       233    1       35.035500000000      20.227750000000       8.023213600000
       234    1       30.364100000000      28.318850000000       8.023213600000
       235    1       30.364100000000      20.227750000000       8.023213600000
       236    1       35.035500000000      28.318850000000       8.023213600000
       237    1       28.028400000000      21.576261272600       7.176512800000
       238    1       32.699800000000      29.667361272600       7.176512800000
       239    1       35.035500000000      17.530711272600       7.176512800000
       240    1       30.364100000000      25.621811272600       7.176512800000
       241    1       42.042600000000      21.576261272600       7.176512800000
       242    1       37.371200000000      29.667361272600       7.176512800000
       243    1       42.042600000000      16.182200000000       8.023213600000
       244    1       37.371200000000      24.273300000000       8.023213600000
       245    1       37.371200000000      16.182200000000       8.023213600000
       246    1       42.042600000000      24.273300000000       8.023213600000
       247    1       39.706900000000      17.530711272600       7.176512800000
       248    1       44.378300000000      25.621811272600       7.176512800000
       249    1       44.378300000000      20.227750000000       8.023213600000
       250    1       39.706900000000      28.318850000000       8.023213600000
       251    1       39.706900000000      20.227750000000       8.023213600000
       252    1       44.378300000000      28.318850000000       8.023213600000
       253    1       37.371200000000      21.576261272600       7.176512800000
       254    1       42.042600000000      29.667361272600       7.176512800000
       255    1       44.378300000000      17.530711272600       7.176512800000
       256    1       39.706900000000      25.621811272600       7.176512800000
       257    1       51.385400000000      21.576261272600       7.176512800000
       258    1       46.714000000000      29.667361272600       7.176512800000
       259    1       51.385400000000      16.182200000000       8.023213600000
       260    1       46.714000000000      24.273300000000       8.023213600000
       261    1       46.714000000000      16.182200000000       8.023213600000
       262    1       51.385400000000      24.273300000000       8.023213600000
       263    1       49.049700000000      17.530711272600       7.176512800000
       264    1       53.721100000000      25.621811272600       7.176512800000
       265    1       53.721100000000      20.227750000000       8.023213600000
       266    1       49.049700000000      28.318850000000       8.023213600000
       267    1       49.049700000000      20.227750000000       8.023213600000
       268    1       53.721100000000      28.318850000000       8.023213600000
       269    1       46.714000000000      21.576261272600       7.176512800000
       270    1       51.385400000000      29.667361272600       7.176512800000
       271    1       53.721100000000      17.530711272600       7.176512800000
       272    1       49.049700000000      25.621811272600       7.176512800000
       273    1       60.728200000000      21.576261272600       7.176512800000
       274    1       56.056800000000      29.667361272600       7.176512800000
       275    1       60.728200000000      16.182200000000       8.023213600000
       276    1       56.056800000000      24.273300000000       8.023213600000
       277    1       56.056800000000      16.182200000000       8.023213600000
       278    1       60.728200000000      24.273300000000       8.023213600000
       279    1       58.392500000000      17.530711272600       7.176512800000
       280    1       63.063900000000      25.621811272600       7.176512800000
       281    1       63.063900000000      20.227750000000       8.023213600000
       282    1       58.392500000000      28.318850000000       8.023213600000
       283    1       58.392500000000      20.227750000000       8.023213600000
       284    1       63.063900000000      28.318850000000       8.023213600000
       285    1       56.056800000000      21.576261272600       7.176512800000
       286    1       60.728200000000      29.667361272600       7.176512800000
       287    1       63.063900000000      17.530711272600       7.176512800000
       288    1       58.392500000000      25.621811272600       7.176512800000
       289    1       70.071000000000      21.576261272600       7.176512800000
       290    1       65.399600000000      29.667361272600       7.176512800000
       291    1       70.071000000000      16.182200000000       8.023213600000
       292    1       65.399600000000      24.273300000000       8.023213600000
       293    1       65.399600000000      16.182200000000       8.023213600000
       294    1       70.071000000000      24.273300000000       8.023213600000
       295    1       67.735300000000      17.530711272600       7.176512800000
       296    1       72.406700000000      25.621811272600       7.176512800000
       297    1       72.406700000000      20.227750000000       8.023213600000
       298    1       67.735300000000      28.318850000000       8.023213600000
       299    1       67.735300000000      20.227750000000       8.023213600000
       300    1       72.406700000000      28.318850000000       8.023213600000
       301    1       65.399600000000      21.576261272600       7.176512800000
       302    1       70.071000000000      29.667361272600       7.176512800000
       303    1       72.406700000000      17.530711272600       7.176512800000
       304    1       67.735300000000      25.621811272600       7.176512800000
       305    1       79.413800000000      21.576261272600       7.176512800000
       306    1       74.742400000000      29.667361272600       7.176512800000
       307    1       79.413800000000      16.182200000000       8.023213600000
       308    1       74.742400000000      24.273300000000       8.023213600000
       309    1       74.742400000000      16.182200000000       8.023213600000
       310    1       79.413800000000      24.273300000000       8.023213600000
       311    1       77.078100000000      17.530711272600       7.176512800000
       312    1       81.749500000000      25.621811272600       7.176512800000
       313    1       81.749500000000      20.227750000000       8.023213600000
       314    1       77.078100000000      28.318850000000       8.023213600000
       315    1       77.078100000000      20.227750000000       8.023213600000
       316    1       81.749500000000      28.318850000000       8.023213600000
       317    1       74.742400000000      21.576261272600       7.176512800000
       318    1       79.413800000000      29.667361272600       7.176512800000
       319    1       81.749500000000      17.530711272600       7.176512800000
       320    1       77.078100000000      25.621811272600       7.176512800000
       321    1       88.756600000000      21.576261272600       7.176512800000
       322    1       84.085200000000      29.667361272600       7.176512800000
       323    1       88.756600000000      16.182200000000       8.023213600000
       324    1       84.085200000000      24.273300000000       8.023213600000
       325    1       84.085200000000      16.182200000000       8.023213600000
       326    1       88.756600000000      24.273300000000       8.023213600000
       327    1       86.420900000000      17.530711272600       7.176512800000
       328    1       91.092300000000      25.621811272600       7.176512800000
       329    1       91.092300000000      20.227750000000       8.023213600000
       330    1       86.420900000000      28.318850000000       8.023213600000
       331    1       86.420900000000      20.227750000000       8.023213600000
       332    1       91.092300000000      28.318850000000       8.023213600000
       333    1       84.085200000000      21.576261272600       7.176512800000
       334    1       88.756600000000      29.667361272600       7.176512800000
       335    1       91.092300000000      17.530711272600       7.176512800000
       336    1       86.420900000000      25.621811272600       7.176512800000
       337    1       98.099400000000      21.576261272600       7.176512800000
       338    1       93.428000000000      29.667361272600       7.176512800000
       339    1       98.099400000000      16.182200000000       8.023213600000
       340    1       93.428000000000      24.273300000000       8.023213600000
       341    1       93.428000000000      16.182200000000       8.023213600000
       342    1       98.099400000000      24.273300000000       8.023213600000
       343    1       95.763700000000      17.530711272600       7.176512800000
       344    1      100.435100000000      25.621811272600       7.176512800000
       345    1      100.435100000000      20.227750000000       8.023213600000
       346    1       95.763700000000      28.318850000000       8.023213600000
       347    1       95.763700000000      20.227750000000       8.023213600000
       348    1      100.435100000000      28.318850000000       8.023213600000
       349    1       93.428000000000      21.576261272600       7.176512800000
       350    1       98.099400000000      29.667361272600       7.176512800000
       351    1      100.435100000000      17.530711272600       7.176512800000
       352    1       95.763700000000      25.621811272600       7.176512800000
       353    1        4.671400000000      37.758461272600       7.176512800000
       354    1        0.000000000000      45.849561272600       7.176512800000
       355    1        4.671400000000      32.364400000000       8.023213600000
       356    1        0.000000000000      40.455500000000       8.023213600000
       357    1        0.000000000000      32.364400000000       8.023213600000
       358    1        4.671400000000      40.455500000000       8.023213600000
       359    1        2.335700000000      33.712911272600       7.176512800000
       360    1        7.007100000000      41.804011272600       7.176512800000
       361    1        7.007100000000      36.409950000000       8.023213600000
       362    1        2.335700000000      44.501050000000       8.023213600000
       363    1        2.335700000000      36.409950000000       8.023213600000
       364    1        7.007100000000      44.501050000000       8.023213600000
       365    1        0.000000000000      37.758461272600       7.176512800000
       366    1        4.671400000000      45.849561272600       7.176512800000
       367    1        7.007100000000      33.712911272600       7.176512800000
       368    1        2.335700000000      41.804011272600       7.176512800000
       369    1       14.014200000000      37.758461272600       7.176512800000
       370    1        9.342800000000      45.849561272600       7.176512800000
       371    1       14.014200000000      32.364400000000       8.023213600000