 # Hf8 S16
  
        2688  atoms
           2  atom types
 
      0.000000000000     102.261600000000  xlo xhi
      0.000000000000     101.212000000000  ylo yhi
      0.000000000000      17.891500000000  zlo zhi
 
Masses
 
            1   178.49000000            # Hf
            2   32.06000000             # S
 
Atoms # atomic
 
         1    1        0.000000000000       0.000000000000       8.945750000000
         2    1        3.652200000000       6.325750000000       8.945750000000
         3    2        1.826100000000       5.271462550500       7.497647773000
         4    2        5.478300000000      11.597212550500       7.497647773000
         5    2        3.652200000000       4.217162449500      10.393852227000
         6    1        3.652200000000       0.000000000000       8.945750000000
         7    1        5.478300000000       3.162875000000       8.945750000000
         8    2        0.000000000000      10.542912449500      10.393852227000
         9    1        1.826100000000       9.488625000000       8.945750000000
        10    1        0.000000000000       6.325750000000       8.945750000000
        11    2        0.000000000000       2.108587550500       7.497647773000
        12    2        3.652200000000       8.434337550500       7.497647773000
        13    1        1.826100000000       3.162875000000       8.945750000000
        14    1        5.478300000000       9.488625000000       8.945750000000
        15    2        1.826100000000       1.054287449500      10.393852227000
        16    2        5.478300000000       7.380037449500      10.393852227000
        17    2        5.478300000000       1.054287449500      10.393852227000
        18    2        1.826100000000       7.380037449500      10.393852227000
        19    2        3.652200000000       2.108587550500       7.497647773000
        20    2        0.000000000000       8.434337550500       7.497647773000
        21    2        5.478300000000       5.271462550500       7.497647773000
        22    2        1.826100000000      11.597212550500       7.497647773000
        23    2        0.000000000000       4.217162449500      10.393852227000
        24    2        3.652200000000      10.542912449500      10.393852227000
        25    1        7.304400000000       0.000000000000       8.945750000000
        26    1       10.956600000000       6.325750000000       8.945750000000
        27    2        9.130500000000       5.271462550500       7.497647773000
        28    2       12.782700000000      11.597212550500       7.497647773000
        29    2       10.956600000000       4.217162449500      10.393852227000
        30    1       10.956600000000       0.000000000000       8.945750000000
        31    1       12.782700000000       3.162875000000       8.945750000000
        32    2        7.304400000000      10.542912449500      10.393852227000
        33    1        9.130500000000       9.488625000000       8.945750000000
        34    1        7.304400000000       6.325750000000       8.945750000000
        35    2        7.304400000000       2.108587550500       7.497647773000
        36    2       10.956600000000       8.434337550500       7.497647773000
        37    1        9.130500000000       3.162875000000       8.945750000000
        38    1       12.782700000000       9.488625000000       8.945750000000
        39    2        9.130500000000       1.054287449500      10.393852227000
        40    2       12.782700000000       7.380037449500      10.393852227000
        41    2       12.782700000000       1.054287449500      10.393852227000
        42    2        9.130500000000       7.380037449500      10.393852227000
        43    2       10.956600000000       2.108587550500       7.497647773000
        44    2        7.304400000000       8.434337550500       7.497647773000
        45    2       12.782700000000       5.271462550500       7.497647773000
        46    2        9.130500000000      11.597212550500       7.497647773000
        47    2        7.304400000000       4.217162449500      10.393852227000
        48    2       10.956600000000      10.542912449500      10.393852227000
        49    1       14.608800000000       0.000000000000       8.945750000000
        50    1       18.261000000000       6.325750000000       8.945750000000
        51    2       16.434900000000       5.271462550500       7.497647773000
        52    2       20.087100000000      11.597212550500       7.497647773000
        53    2       18.261000000000       4.217162449500      10.393852227000
        54    1       18.261000000000       0.000000000000       8.945750000000
        55    1       20.087100000000       3.162875000000       8.945750000000
        56    2       14.608800000000      10.542912449500      10.393852227000
        57    1       16.434900000000       9.488625000000       8.945750000000
        58    1       14.608800000000       6.325750000000       8.945750000000
        59    2       14.608800000000       2.108587550500       7.497647773000
        60    2       18.261000000000       8.434337550500       7.497647773000
        61    1       16.434900000000       3.162875000000       8.945750000000
        62    1       20.087100000000       9.488625000000       8.945750000000
        63    2       16.434900000000       1.054287449500      10.393852227000
        64    2       20.087100000000       7.380037449500      10.393852227000
        65    2       20.087100000000       1.054287449500      10.393852227000
        66    2       16.434900000000       7.380037449500      10.393852227000
        67    2       18.261000000000       2.108587550500       7.497647773000
        68    2       14.608800000000       8.434337550500       7.497647773000
        69    2       20.087100000000       5.271462550500       7.497647773000
        70    2       16.434900000000      11.597212550500       7.497647773000
        71    2       14.608800000000       4.217162449500      10.393852227000
        72    2       18.261000000000      10.542912449500      10.393852227000
        73    1       21.913200000000       0.000000000000       8.945750000000
        74    1       25.565400000000       6.325750000000       8.945750000000
        75    2       23.739300000000       5.271462550500       7.497647773000
        76    2       27.391500000000      11.597212550500       7.497647773000
        77    2       25.565400000000       4.217162449500      10.393852227000
        78    1       25.565400000000       0.000000000000       8.945750000000
        79    1       27.391500000000       3.162875000000       8.945750000000
        80    2       21.913200000000      10.542912449500      10.393852227000
        81    1       23.739300000000       9.488625000000       8.945750000000
        82    1       21.913200000000       6.325750000000       8.945750000000
        83    2       21.913200000000       2.108587550500       7.497647773000
        84    2       25.565400000000       8.434337550500       7.497647773000
        85    1       23.739300000000       3.162875000000       8.945750000000
        86    1       27.391500000000       9.488625000000       8.945750000000
        87    2       23.739300000000       1.054287449500      10.393852227000
        88    2       27.391500000000       7.380037449500      10.393852227000
        89    2       27.391500000000       1.054287449500      10.393852227000
        90    2       23.739300000000       7.380037449500      10.393852227000
        91    2       25.565400000000       2.108587550500       7.497647773000
        92    2       21.913200000000       8.434337550500       7.497647773000
        93    2       27.391500000000       5.271462550500       7.497647773000
        94    2       23.739300000000      11.597212550500       7.497647773000
        95    2       21.913200000000       4.217162449500      10.393852227000
        96    2       25.565400000000      10.542912449500      10.393852227000
        97    1       29.217600000000       0.000000000000       8.945750000000
        98    1       32.869800000000       6.325750000000       8.945750000000
        99    2       31.043700000000       5.271462550500       7.497647773000
       100    2       34.695900000000      11.597212550500       7.497647773000
       101    2       32.869800000000       4.217162449500      10.393852227000
       102    1       32.869800000000       0.000000000000       8.945750000000
       103    1       34.695900000000       3.162875000000       8.945750000000
       104    2       29.217600000000      10.542912449500      10.393852227000
       105    1       31.043700000000       9.488625000000       8.945750000000
       106    1       29.217600000000       6.325750000000       8.945750000000
       107    2       29.217600000000       2.108587550500       7.497647773000
       108    2       32.869800000000       8.434337550500       7.497647773000
       109    1       31.043700000000       3.162875000000       8.945750000000
       110    1       34.695900000000       9.488625000000       8.945750000000
       111    2       31.043700000000       1.054287449500      10.393852227000
       112    2       34.695900000000       7.380037449500      10.393852227000
       113    2       34.695900000000       1.054287449500      10.393852227000
       114    2       31.043700000000       7.380037449500      10.393852227000
       115    2       32.869800000000       2.108587550500       7.497647773000
       116    2       29.217600000000       8.434337550500       7.497647773000
       117    2       34.695900000000       5.271462550500       7.497647773000
       118    2       31.043700000000      11.597212550500       7.497647773000
       119    2       29.217600000000       4.217162449500      10.393852227000
       120    2       32.869800000000      10.542912449500      10.393852227000
       121    1       36.522000000000       0.000000000000       8.945750000000
       122    1       40.174200000000       6.325750000000       8.945750000000
       123    2       38.348100000000       5.271462550500       7.497647773000
       124    2       42.000300000000      11.597212550500       7.497647773000
       125    2       40.174200000000       4.217162449500      10.393852227000
       126    1       40.174200000000       0.000000000000       8.945750000000
       127    1       42.000300000000       3.162875000000       8.945750000000
       128    2       36.522000000000      10.542912449500      10.393852227000
       129    1       38.348100000000       9.488625000000       8.945750000000
       130    1       36.522000000000       6.325750000000       8.945750000000
       131    2       36.522000000000       2.108587550500       7.497647773000
       132    2       40.174200000000       8.434337550500       7.497647773000
       133    1       38.348100000000       3.162875000000       8.945750000000
       134    1       42.000300000000       9.488625000000       8.945750000000
       135    2       38.348100000000       1.054287449500      10.393852227000
       136    2       42.000300000000       7.380037449500      10.393852227000
       137    2       42.000300000000       1.054287449500      10.393852227000
       138    2       38.348100000000       7.380037449500      10.393852227000
       139    2       40.174200000000       2.108587550500       7.497647773000
       140    2       36.522000000000       8.434337550500       7.497647773000
       141    2       42.000300000000       5.271462550500       7.497647773000
       142    2       38.348100000000      11.597212550500       7.497647773000
       143    2       36.522000000000       4.217162449500      10.393852227000
       144    2       40.174200000000      10.542912449500      10.393852227000
       145    1       43.826400000000       0.000000000000       8.945750000000
       146    1       47.478600000000       6.325750000000       8.945750000000
       147    2       45.652500000000       5.271462550500       7.497647773000
       148    2       49.304700000000      11.597212550500       7.497647773000
       149    2       47.478600000000       4.217162449500      10.393852227000
       150    1       47.478600000000       0.000000000000       8.945750000000
       151    1       49.304700000000       3.162875000000       8.945750000000
       152    2       43.826400000000      10.542912449500      10.393852227000
       153    1       45.652500000000       9.488625000000       8.945750000000
       154    1       43.826400000000       6.325750000000       8.945750000000
       155    2       43.826400000000       2.108587550500       7.497647773000
       156    2       47.478600000000       8.434337550500       7.497647773000
       157    1       45.652500000000       3.162875000000       8.945750000000
       158    1       49.304700000000       9.488625000000       8.945750000000
       159    2       45.652500000000       1.054287449500      10.393852227000
       160    2       49.304700000000       7.380037449500      10.393852227000
       161    2       49.304700000000       1.054287449500      10.393852227000
       162    2       45.652500000000       7.380037449500      10.393852227000
       163    2       47.478600000000       2.108587550500       7.497647773000
       164    2       43.826400000000       8.434337550500       7.497647773000
       165    2       49.304700000000       5.271462550500       7.497647773000
       166    2       45.652500000000      11.597212550500       7.497647773000
       167    2       43.826400000000       4.217162449500      10.393852227000
       168    2       47.478600000000      10.542912449500      10.393852227000
       169    1       51.130800000000       0.000000000000       8.945750000000
       170    1       54.783000000000       6.325750000000       8.945750000000
       171    2       52.956900000000       5.271462550500       7.497647773000
       172    2       56.609100000000      11.597212550500       7.497647773000
       173    2       54.783000000000       4.217162449500      10.393852227000
       174    1       54.783000000000       0.000000000000       8.945750000000
       175    1       56.609100000000       3.162875000000       8.945750000000
       176    2       51.130800000000      10.542912449500      10.393852227000
       177    1       52.956900000000       9.488625000000       8.945750000000
       178    1       51.130800000000       6.325750000000       8.945750000000
       179    2       51.130800000000       2.108587550500       7.497647773000
       180    2       54.783000000000       8.434337550500       7.497647773000
       181    1       52.956900000000       3.162875000000       8.945750000000
       182    1       56.609100000000       9.488625000000       8.945750000000
       183    2       52.956900000000       1.054287449500      10.393852227000
       184    2       56.609100000000       7.380037449500      10.393852227000
       185    2       56.609100000000       1.054287449500      10.393852227000
       186    2       52.956900000000       7.380037449500      10.393852227000
       187    2       54.783000000000       2.108587550500       7.497647773000
       188    2       51.130800000000       8.434337550500       7.497647773000
       189    2       56.609100000000       5.271462550500       7.497647773000
       190    2       52.956900000000      11.597212550500       7.497647773000
       191    2       51.130800000000       4.217162449500      10.393852227000
       192    2       54.783000000000      10.542912449500      10.393852227000
       193    1       58.435200000000       0.000000000000       8.945750000000
       194    1       62.087400000000       6.325750000000       8.945750000000
       195    2       60.261300000000       5.271462550500       7.497647773000
       196    2       63.913500000000      11.597212550500       7.497647773000
       197    2       62.087400000000       4.217162449500      10.393852227000
       198    1       62.087400000000       0.000000000000       8.945750000000
       199    1       63.913500000000       3.162875000000       8.945750000000
       200    2       58.435200000000      10.542912449500      10.393852227000
       201    1       60.261300000000       9.488625000000       8.945750000000
       202    1       58.435200000000       6.325750000000       8.945750000000
       203    2       58.435200000000       2.108587550500       7.497647773000
       204    2       62.087400000000       8.434337550500       7.497647773000
       205    1       60.261300000000       3.162875000000       8.945750000000
       206    1       63.913500000000       9.488625000000       8.945750000000
       207    2       60.261300000000       1.054287449500      10.393852227000
       208    2       63.913500000000       7.380037449500      10.393852227000
       209    2       63.913500000000       1.054287449500      10.393852227000
       210    2       60.261300000000       7.380037449500      10.393852227000
       211    2       62.087400000000       2.108587550500       7.497647773000
       212    2       58.435200000000       8.434337550500       7.497647773000
       213    2       63.913500000000       5.271462550500       7.497647773000
       214    2       60.261300000000      11.597212550500       7.497647773000
       215    2       58.435200000000       4.217162449500      10.393852227000
       216    2       62.087400000000      10.542912449500      10.393852227000
       217    1       65.739600000000       0.000000000000       8.945750000000
       218    1       69.391800000000       6.325750000000       8.945750000000
       219    2       67.565700000000       5.271462550500       7.497647773000
       220    2       71.217900000000      11.597212550500       7.497647773000
       221    2       69.391800000000       4.217162449500      10.393852227000
       222    1       69.391800000000       0.000000000000       8.945750000000
       223    1       71.217900000000       3.162875000000       8.945750000000
       224    2       65.739600000000      10.542912449500      10.393852227000
       225    1       67.565700000000       9.488625000000       8.945750000000
       226    1       65.739600000000       6.325750000000       8.945750000000
       227    2       65.739600000000       2.108587550500       7.497647773000
       228    2       69.391800000000       8.434337550500       7.497647773000
       229    1       67.565700000000       3.162875000000       8.945750000000
       230    1       71.217900000000       9.488625000000       8.945750000000
       231    2       67.565700000000       1.054287449500      10.393852227000
       232    2       71.217900000000       7.380037449500      10.393852227000
       233    2       71.217900000000       1.054287449500      10.393852227000
       234    2       67.565700000000       7.380037449500      10.393852227000
       235    2       69.391800000000       2.108587550500       7.497647773000
       236    2       65.739600000000       8.434337550500       7.497647773000
       237    2       71.217900000000       5.271462550500       7.497647773000
       238    2       67.565700000000      11.597212550500       7.497647773000
       239    2       65.739600000000       4.217162449500      10.393852227000
       240    2       69.391800000000      10.542912449500      10.393852227000
       241    1       73.044000000000       0.000000000000       8.945750000000
       242    1       76.696200000000       6.325750000000       8.945750000000
       243    2       74.870100000000       5.271462550500       7.497647773000
       244    2       78.522300000000      11.597212550500       7.497647773000
       245    2       76.696200000000       4.217162449500      10.393852227000
       246    1       76.696200000000       0.000000000000       8.945750000000
       247    1       78.522300000000       3.162875000000       8.945750000000
       248    2       73.044000000000      10.542912449500      10.393852227000
       249    1       74.870100000000       9.488625000000       8.945750000000
       250    1       73.044000000000       6.325750000000       8.945750000000
       251    2       73.044000000000       2.108587550500       7.497647773000
       252    2       76.696200000000       8.434337550500       7.497647773000
       253    1       74.870100000000       3.162875000000       8.945750000000
       254    1       78.522300000000       9.488625000000       8.945750000000
       255    2       74.870100000000       1.054287449500      10.393852227000
       256    2       78.522300000000       7.380037449500      10.393852227000
       257    2       78.522300000000       1.054287449500      10.393852227000
       258    2       74.870100000000       7.380037449500      10.393852227000
       259    2       76.696200000000       2.108587550500       7.497647773000
       260    2       73.044000000000       8.434337550500       7.497647773000
       261    2       78.522300000000       5.271462550500       7.497647773000
       262    2       74.870100000000      11.597212550500       7.497647773000
       263    2       73.044000000000       4.217162449500      10.393852227000
       264    2       76.696200000000      10.542912449500      10.393852227000
       265    1       80.348400000000       0.000000000000       8.945750000000
       266    1       84.000600000000       6.325750000000       8.945750000000
       267    2       82.174500000000       5.271462550500       7.497647773000
       268    2       85.826700000000      11.597212550500       7.497647773000
       269    2       84.000600000000       4.217162449500      10.393852227000
       270    1       84.000600000000       0.000000000000       8.945750000000
       271    1       85.826700000000       3.162875000000       8.945750000000
       272    2       80.348400000000      10.542912449500      10.393852227000
       273    1       82.174500000000       9.488625000000       8.945750000000
       274    1       80.348400000000       6.325750000000       8.945750000000
       275    2       80.348400000000       2.108587550500       7.497647773000
       276    2       84.000600000000       8.434337550500       7.497647773000
       277    1       82.174500000000       3.162875000000       8.945750000000
       278    1       85.826700000000       9.488625000000       8.945750000000
       279    2       82.174500000000       1.054287449500      10.393852227000
       280    2       85.826700000000       7.380037449500      10.393852227000
       281    2       85.826700000000       1.054287449500      10.393852227000
       282    2       82.174500000000       7.380037449500      10.393852227000
       283    2       84.000600000000       2.108587550500       7.497647773000
       284    2       80.348400000000       8.434337550500       7.497647773000
       285    2       85.826700000000       5.271462550500       7.497647773000
       286    2       82.174500000000      11.597212550500       7.497647773000
       287    2       80.348400000000       4.217162449500      10.393852227000
       288    2       84.000600000000      10.542912449500      10.393852227000
       289    1       87.652800000000       0.000000000000       8.945750000000
       290    1       91.305000000000       6.325750000000       8.945750000000
       291    2       89.478900000000       5.271462550500       7.497647773000
       292    2       93.131100000000      11.597212550500       7.497647773000
       293    2       91.305000000000       4.217162449500      10.393852227000
       294    1       91.305000000000       0.000000000000       8.945750000000
       295    1       93.131100000000       3.162875000000       8.945750000000
       296    2       87.652800000000      10.542912449500      10.393852227000
       297    1       89.478900000000       9.488625000000       8.945750000000
       298    1       87.652800000000       6.325750000000       8.945750000000
       299    2       87.652800000000       2.108587550500       7.497647773000
       300    2       91.305000000000       8.434337550500       7.497647773000
       301    1       89.478900000000       3.162875000000       8.945750000000
       302    1       93.131100000000       9.488625000000       8.945750000000
       303    2       89.478900000000       1.054287449500      10.393852227000
       304    2       93.131100000000       7.380037449500      10.393852227000
       305    2       93.131100000000       1.054287449500      10.393852227000
       306    2       89.478900000000       7.380037449500      10.393852227000
       307    2       91.305000000000       2.108587550500       7.497647773000
       308    2       87.652800000000       8.434337550500       7.497647773000
       309    2       93.131100000000       5.271462550500       7.497647773000
       310    2       89.478900000000      11.597212550500       7.497647773000
       311    2       87.652800000000       4.217162449500      10.393852227000
       312    2       91.305000000000      10.542912449500      10.393852227000
       313    1       94.957200000000       0.000000000000       8.945750000000
       314    1       98.609400000000       6.325750000000       8.945750000000
       315    2       96.783300000000       5.271462550500       7.497647773000
       316    2      100.435500000000      11.597212550500       7.497647773000
       317    2       98.609400000000       4.217162449500      10.393852227000
       318    1       98.609400000000       0.000000000000       8.945750000000
       319    1      100.435500000000       3.162875000000       8.945750000000
       320    2       94.957200000000      10.542912449500      10.393852227000
       321    1       96.783300000000       9.488625000000       8.945750000000
       322    1       94.957200000000       6.325750000000       8.945750000000
       323    2       94.957200000000       2.108587550500       7.497647773000
       324    2       98.609400000000       8.434337550500       7.497647773000
       325    1       96.783300000000       3.162875000000       8.945750000000
       326    1      100.435500000000       9.488625000000       8.945750000000
       327    2       96.783300000000       1.054287449500      10.393852227000
       328    2      100.435500000000       7.380037449500      10.393852227000
       329    2      100.435500000000       1.054287449500      10.393852227000
       330    2       96.783300000000       7.380037449500      10.393852227000
       331    2       98.609400000000       2.108587550500       7.497647773000
       332    2       94.957200000000       8.434337550500       7.497647773000
       333    2      100.435500000000       5.271462550500       7.497647773000
       334    2       96.783300000000      11.597212550500       7.497647773000
       335    2       94.957200000000       4.217162449500      10.393852227000
       336    2       98.609400000000      10.542912449500      10.393852227000
       337    1        0.000000000000      12.651500000000       8.945750000000
       338    1        3.652200000000      18.977250000000       8.945750000000
       339    2        1.826100000000      17.922962550500       7.497647773000
       340    2        5.478300000000      24.248712550500       7.497647773000
       341    2        3.652200000000      16.868662449500      10.393852227000
       342    1        3.652200000000      12.651500000000       8.945750000000
       343    1        5.478300000000      15.814375000000       8.945750000000
       344    2        0.000000000000      23.194412449500      10.393852227000
       345    1        1.826100000000      22.140125000000       8.945750000000
       346    1        0.000000000000      18.977250000000       8.945750000000
       347    2        0.000000000000      14.760087550500       7.497647773000
       348    2        3.652200000000      21.085837550500       7.497647773000
       349    1        1.826100000000      15.814375000000       8.945750000000
       350    1        5.478300000000      22.140125000000       8.945750000000
       351    2        1.826100000000      13.705787449500      10.393852227000
       352    2        5.478300000000      20.031537449500      10.393852227000
       353    2        5.478300000000      13.705787449500      10.393852227000
       354    2        1.826100000000      20.031537449500      10.393852227000
       355    2        3.652200000000      14.760087550500       7.497647773000
       356    2        0.000000000000      21.085837550500       7.497647773000
       357    2        5.478300000000      17.922962550500       7.497647773000
       358    2        1.826100000000      24.248712550500       7.497647773000
       359    2        0.000000000000      16.868662449500      10.393852227000
       360    2        3.652200000000      23.194412449500      10.393852227000
       361    1        7.304400000000      12.651500000000       8.945750000000
       362    1       10.956600000000      18.977250000000       8.945750000000
       363    2        9.130500000000      17.922962550500       7.497647773000
       364    2       12.782700000000      24.248712550500       7.497647773000
       365    2       10.956600000000      16.868662449500      10.393852227000
       366    1       10.956600000000      12.651500000000       8.945750000000
       367    1       12.782700000000      15.814375000000       8.945750000000
       368    2        7.304400000000      23.194412449500      10.393852227000
       369    1        9.130500000000      22.140125000000       8.945750000000
       370    1        7.304400000000      18.977250000000       8.945750000000