 # Hf8 Se16
  
        2496  atoms
           2  atom types
 
      0.000000000000      98.087600000000  xlo xhi
      0.000000000000     104.549600000000  ylo yhi
      0.000000000000      18.143600000000  zlo zhi
 
Masses
 
            1   178.49000000            # Hf
            2   78.96000000             # Se
 
Atoms # atomic
 
         1    1        7.545200000000       0.000000000000       9.071800000000
         2    1        3.772600000000       6.534350000000       9.071800000000
         3    1        3.772600000000       0.000000000000       9.071800000000
         4    2        1.886300000000       5.445296022900       7.495901334800
         5    2        5.658900000000       5.445296022900       7.495901334800
         6    1        7.545200000000       6.534350000000       9.071800000000
         7    2        1.886300000000      11.979646022900       7.495901334800
         8    2        3.772600000000       2.178121022900       7.495901334800
         9    2        1.886300000000       1.089053977100      10.647698665200
        10    2        5.658900000000       1.089053977100      10.647698665200
        11    2        7.545200000000       8.712471022900       7.495901334800
        12    2        5.658900000000      11.979646022900       7.495901334800
        13    2        5.658900000000       7.623403977100      10.647698665200
        14    2        1.886300000000       7.623403977100      10.647698665200
        15    2        7.545200000000       2.178121022900       7.495901334800
        16    2        3.772600000000       8.712471022900       7.495901334800
        17    2        7.545200000000       4.356228977100      10.647698665200
        18    2        3.772600000000      10.890578977100      10.647698665200
        19    1        1.886300000000       3.267175000000       9.071800000000
        20    1        5.658900000000       9.801525000000       9.071800000000
        21    1        5.658900000000       3.267175000000       9.071800000000
        22    1        1.886300000000       9.801525000000       9.071800000000
        23    2        3.772600000000       4.356228977100      10.647698665200
        24    2        7.545200000000      10.890578977100      10.647698665200
        25    1       15.090400000000       0.000000000000       9.071800000000
        26    1       11.317800000000       6.534350000000       9.071800000000
        27    1       11.317800000000       0.000000000000       9.071800000000
        28    2        9.431500000000       5.445296022900       7.495901334800
        29    2       13.204100000000       5.445296022900       7.495901334800
        30    1       15.090400000000       6.534350000000       9.071800000000
        31    2        9.431500000000      11.979646022900       7.495901334800
        32    2       11.317800000000       2.178121022900       7.495901334800
        33    2        9.431500000000       1.089053977100      10.647698665200
        34    2       13.204100000000       1.089053977100      10.647698665200
        35    2       15.090400000000       8.712471022900       7.495901334800
        36    2       13.204100000000      11.979646022900       7.495901334800
        37    2       13.204100000000       7.623403977100      10.647698665200
        38    2        9.431500000000       7.623403977100      10.647698665200
        39    2       15.090400000000       2.178121022900       7.495901334800
        40    2       11.317800000000       8.712471022900       7.495901334800
        41    2       15.090400000000       4.356228977100      10.647698665200
        42    2       11.317800000000      10.890578977100      10.647698665200
        43    1        9.431500000000       3.267175000000       9.071800000000
        44    1       13.204100000000       9.801525000000       9.071800000000
        45    1       13.204100000000       3.267175000000       9.071800000000
        46    1        9.431500000000       9.801525000000       9.071800000000
        47    2       11.317800000000       4.356228977100      10.647698665200
        48    2       15.090400000000      10.890578977100      10.647698665200
        49    1       22.635600000000       0.000000000000       9.071800000000
        50    1       18.863000000000       6.534350000000       9.071800000000
        51    1       18.863000000000       0.000000000000       9.071800000000
        52    2       16.976700000000       5.445296022900       7.495901334800
        53    2       20.749300000000       5.445296022900       7.495901334800
        54    1       22.635600000000       6.534350000000       9.071800000000
        55    2       16.976700000000      11.979646022900       7.495901334800
        56    2       18.863000000000       2.178121022900       7.495901334800
        57    2       16.976700000000       1.089053977100      10.647698665200
        58    2       20.749300000000       1.089053977100      10.647698665200
        59    2       22.635600000000       8.712471022900       7.495901334800
        60    2       20.749300000000      11.979646022900       7.495901334800
        61    2       20.749300000000       7.623403977100      10.647698665200
        62    2       16.976700000000       7.623403977100      10.647698665200
        63    2       22.635600000000       2.178121022900       7.495901334800
        64    2       18.863000000000       8.712471022900       7.495901334800
        65    2       22.635600000000       4.356228977100      10.647698665200
        66    2       18.863000000000      10.890578977100      10.647698665200
        67    1       16.976700000000       3.267175000000       9.071800000000
        68    1       20.749300000000       9.801525000000       9.071800000000
        69    1       20.749300000000       3.267175000000       9.071800000000
        70    1       16.976700000000       9.801525000000       9.071800000000
        71    2       18.863000000000       4.356228977100      10.647698665200
        72    2       22.635600000000      10.890578977100      10.647698665200
        73    1       30.180800000000       0.000000000000       9.071800000000
        74    1       26.408200000000       6.534350000000       9.071800000000
        75    1       26.408200000000       0.000000000000       9.071800000000
        76    2       24.521900000000       5.445296022900       7.495901334800
        77    2       28.294500000000       5.445296022900       7.495901334800
        78    1       30.180800000000       6.534350000000       9.071800000000
        79    2       24.521900000000      11.979646022900       7.495901334800
        80    2       26.408200000000       2.178121022900       7.495901334800
        81    2       24.521900000000       1.089053977100      10.647698665200
        82    2       28.294500000000       1.089053977100      10.647698665200
        83    2       30.180800000000       8.712471022900       7.495901334800
        84    2       28.294500000000      11.979646022900       7.495901334800
        85    2       28.294500000000       7.623403977100      10.647698665200
        86    2       24.521900000000       7.623403977100      10.647698665200
        87    2       30.180800000000       2.178121022900       7.495901334800
        88    2       26.408200000000       8.712471022900       7.495901334800
        89    2       30.180800000000       4.356228977100      10.647698665200
        90    2       26.408200000000      10.890578977100      10.647698665200
        91    1       24.521900000000       3.267175000000       9.071800000000
        92    1       28.294500000000       9.801525000000       9.071800000000
        93    1       28.294500000000       3.267175000000       9.071800000000
        94    1       24.521900000000       9.801525000000       9.071800000000
        95    2       26.408200000000       4.356228977100      10.647698665200
        96    2       30.180800000000      10.890578977100      10.647698665200
        97    1       37.726000000000       0.000000000000       9.071800000000
        98    1       33.953400000000       6.534350000000       9.071800000000
        99    1       33.953400000000       0.000000000000       9.071800000000
       100    2       32.067100000000       5.445296022900       7.495901334800
       101    2       35.839700000000       5.445296022900       7.495901334800
       102    1       37.726000000000       6.534350000000       9.071800000000
       103    2       32.067100000000      11.979646022900       7.495901334800
       104    2       33.953400000000       2.178121022900       7.495901334800
       105    2       32.067100000000       1.089053977100      10.647698665200
       106    2       35.839700000000       1.089053977100      10.647698665200
       107    2       37.726000000000       8.712471022900       7.495901334800
       108    2       35.839700000000      11.979646022900       7.495901334800
       109    2       35.839700000000       7.623403977100      10.647698665200
       110    2       32.067100000000       7.623403977100      10.647698665200
       111    2       37.726000000000       2.178121022900       7.495901334800
       112    2       33.953400000000       8.712471022900       7.495901334800
       113    2       37.726000000000       4.356228977100      10.647698665200
       114    2       33.953400000000      10.890578977100      10.647698665200
       115    1       32.067100000000       3.267175000000       9.071800000000
       116    1       35.839700000000       9.801525000000       9.071800000000
       117    1       35.839700000000       3.267175000000       9.071800000000
       118    1       32.067100000000       9.801525000000       9.071800000000
       119    2       33.953400000000       4.356228977100      10.647698665200
       120    2       37.726000000000      10.890578977100      10.647698665200
       121    1       45.271200000000       0.000000000000       9.071800000000
       122    1       41.498600000000       6.534350000000       9.071800000000
       123    1       41.498600000000       0.000000000000       9.071800000000
       124    2       39.612300000000       5.445296022900       7.495901334800
       125    2       43.384900000000       5.445296022900       7.495901334800
       126    1       45.271200000000       6.534350000000       9.071800000000
       127    2       39.612300000000      11.979646022900       7.495901334800
       128    2       41.498600000000       2.178121022900       7.495901334800
       129    2       39.612300000000       1.089053977100      10.647698665200
       130    2       43.384900000000       1.089053977100      10.647698665200
       131    2       45.271200000000       8.712471022900       7.495901334800
       132    2       43.384900000000      11.979646022900       7.495901334800
       133    2       43.384900000000       7.623403977100      10.647698665200
       134    2       39.612300000000       7.623403977100      10.647698665200
       135    2       45.271200000000       2.178121022900       7.495901334800
       136    2       41.498600000000       8.712471022900       7.495901334800
       137    2       45.271200000000       4.356228977100      10.647698665200
       138    2       41.498600000000      10.890578977100      10.647698665200
       139    1       39.612300000000       3.267175000000       9.071800000000
       140    1       43.384900000000       9.801525000000       9.071800000000
       141    1       43.384900000000       3.267175000000       9.071800000000
       142    1       39.612300000000       9.801525000000       9.071800000000
       143    2       41.498600000000       4.356228977100      10.647698665200
       144    2       45.271200000000      10.890578977100      10.647698665200
       145    1       52.816400000000       0.000000000000       9.071800000000
       146    1       49.043800000000       6.534350000000       9.071800000000
       147    1       49.043800000000       0.000000000000       9.071800000000
       148    2       47.157500000000       5.445296022900       7.495901334800
       149    2       50.930100000000       5.445296022900       7.495901334800
       150    1       52.816400000000       6.534350000000       9.071800000000
       151    2       47.157500000000      11.979646022900       7.495901334800
       152    2       49.043800000000       2.178121022900       7.495901334800
       153    2       47.157500000000       1.089053977100      10.647698665200
       154    2       50.930100000000       1.089053977100      10.647698665200
       155    2       52.816400000000       8.712471022900       7.495901334800
       156    2       50.930100000000      11.979646022900       7.495901334800
       157    2       50.930100000000       7.623403977100      10.647698665200
       158    2       47.157500000000       7.623403977100      10.647698665200
       159    2       52.816400000000       2.178121022900       7.495901334800
       160    2       49.043800000000       8.712471022900       7.495901334800
       161    2       52.816400000000       4.356228977100      10.647698665200
       162    2       49.043800000000      10.890578977100      10.647698665200
       163    1       47.157500000000       3.267175000000       9.071800000000
       164    1       50.930100000000       9.801525000000       9.071800000000
       165    1       50.930100000000       3.267175000000       9.071800000000
       166    1       47.157500000000       9.801525000000       9.071800000000
       167    2       49.043800000000       4.356228977100      10.647698665200
       168    2       52.816400000000      10.890578977100      10.647698665200
       169    1       60.361600000000       0.000000000000       9.071800000000
       170    1       56.589000000000       6.534350000000       9.071800000000
       171    1       56.589000000000       0.000000000000       9.071800000000
       172    2       54.702700000000       5.445296022900       7.495901334800
       173    2       58.475300000000       5.445296022900       7.495901334800
       174    1       60.361600000000       6.534350000000       9.071800000000
       175    2       54.702700000000      11.979646022900       7.495901334800
       176    2       56.589000000000       2.178121022900       7.495901334800
       177    2       54.702700000000       1.089053977100      10.647698665200
       178    2       58.475300000000       1.089053977100      10.647698665200
       179    2       60.361600000000       8.712471022900       7.495901334800
       180    2       58.475300000000      11.979646022900       7.495901334800
       181    2       58.475300000000       7.623403977100      10.647698665200
       182    2       54.702700000000       7.623403977100      10.647698665200
       183    2       60.361600000000       2.178121022900       7.495901334800
       184    2       56.589000000000       8.712471022900       7.495901334800
       185    2       60.361600000000       4.356228977100      10.647698665200
       186    2       56.589000000000      10.890578977100      10.647698665200
       187    1       54.702700000000       3.267175000000       9.071800000000
       188    1       58.475300000000       9.801525000000       9.071800000000
       189    1       58.475300000000       3.267175000000       9.071800000000
       190    1       54.702700000000       9.801525000000       9.071800000000
       191    2       56.589000000000       4.356228977100      10.647698665200
       192    2       60.361600000000      10.890578977100      10.647698665200
       193    1       67.906800000000       0.000000000000       9.071800000000
       194    1       64.134200000000       6.534350000000       9.071800000000
       195    1       64.134200000000       0.000000000000       9.071800000000
       196    2       62.247900000000       5.445296022900       7.495901334800
       197    2       66.020500000000       5.445296022900       7.495901334800
       198    1       67.906800000000       6.534350000000       9.071800000000
       199    2       62.247900000000      11.979646022900       7.495901334800
       200    2       64.134200000000       2.178121022900       7.495901334800
       201    2       62.247900000000       1.089053977100      10.647698665200
       202    2       66.020500000000       1.089053977100      10.647698665200
       203    2       67.906800000000       8.712471022900       7.495901334800
       204    2       66.020500000000      11.979646022900       7.495901334800
       205    2       66.020500000000       7.623403977100      10.647698665200
       206    2       62.247900000000       7.623403977100      10.647698665200
       207    2       67.906800000000       2.178121022900       7.495901334800
       208    2       64.134200000000       8.712471022900       7.495901334800
       209    2       67.906800000000       4.356228977100      10.647698665200
       210    2       64.134200000000      10.890578977100      10.647698665200
       211    1       62.247900000000       3.267175000000       9.071800000000
       212    1       66.020500000000       9.801525000000       9.071800000000
       213    1       66.020500000000       3.267175000000       9.071800000000
       214    1       62.247900000000       9.801525000000       9.071800000000
       215    2       64.134200000000       4.356228977100      10.647698665200
       216    2       67.906800000000      10.890578977100      10.647698665200
       217    1       75.452000000000       0.000000000000       9.071800000000
       218    1       71.679400000000       6.534350000000       9.071800000000
       219    1       71.679400000000       0.000000000000       9.071800000000
       220    2       69.793100000000       5.445296022900       7.495901334800
       221    2       73.565700000000       5.445296022900       7.495901334800
       222    1       75.452000000000       6.534350000000       9.071800000000
       223    2       69.793100000000      11.979646022900       7.495901334800
       224    2       71.679400000000       2.178121022900       7.495901334800
       225    2       69.793100000000       1.089053977100      10.647698665200
       226    2       73.565700000000       1.089053977100      10.647698665200
       227    2       75.452000000000       8.712471022900       7.495901334800
       228    2       73.565700000000      11.979646022900       7.495901334800
       229    2       73.565700000000       7.623403977100      10.647698665200
       230    2       69.793100000000       7.623403977100      10.647698665200
       231    2       75.452000000000       2.178121022900       7.495901334800
       232    2       71.679400000000       8.712471022900       7.495901334800
       233    2       75.452000000000       4.356228977100      10.647698665200
       234    2       71.679400000000      10.890578977100      10.647698665200
       235    1       69.793100000000       3.267175000000       9.071800000000
       236    1       73.565700000000       9.801525000000       9.071800000000
       237    1       73.565700000000       3.267175000000       9.071800000000
       238    1       69.793100000000       9.801525000000       9.071800000000
       239    2       71.679400000000       4.356228977100      10.647698665200
       240    2       75.452000000000      10.890578977100      10.647698665200
       241    1       82.997200000000       0.000000000000       9.071800000000
       242    1       79.224600000000       6.534350000000       9.071800000000
       243    1       79.224600000000       0.000000000000       9.071800000000
       244    2       77.338300000000       5.445296022900       7.495901334800
       245    2       81.110900000000       5.445296022900       7.495901334800
       246    1       82.997200000000       6.534350000000       9.071800000000
       247    2       77.338300000000      11.979646022900       7.495901334800
       248    2       79.224600000000       2.178121022900       7.495901334800
       249    2       77.338300000000       1.089053977100      10.647698665200
       250    2       81.110900000000       1.089053977100      10.647698665200
       251    2       82.997200000000       8.712471022900       7.495901334800
       252    2       81.110900000000      11.979646022900       7.495901334800
       253    2       81.110900000000       7.623403977100      10.647698665200
       254    2       77.338300000000       7.623403977100      10.647698665200
       255    2       82.997200000000       2.178121022900       7.495901334800
       256    2       79.224600000000       8.712471022900       7.495901334800
       257    2       82.997200000000       4.356228977100      10.647698665200
       258    2       79.224600000000      10.890578977100      10.647698665200
       259    1       77.338300000000       3.267175000000       9.071800000000
       260    1       81.110900000000       9.801525000000       9.071800000000
       261    1       81.110900000000       3.267175000000       9.071800000000
       262    1       77.338300000000       9.801525000000       9.071800000000
       263    2       79.224600000000       4.356228977100      10.647698665200
       264    2       82.997200000000      10.890578977100      10.647698665200
       265    1       90.542400000000       0.000000000000       9.071800000000
       266    1       86.769800000000       6.534350000000       9.071800000000
       267    1       86.769800000000       0.000000000000       9.071800000000
       268    2       84.883500000000       5.445296022900       7.495901334800
       269    2       88.656100000000       5.445296022900       7.495901334800
       270    1       90.542400000000       6.534350000000       9.071800000000
       271    2       84.883500000000      11.979646022900       7.495901334800
       272    2       86.769800000000       2.178121022900       7.495901334800
       273    2       84.883500000000       1.089053977100      10.647698665200
       274    2       88.656100000000       1.089053977100      10.647698665200
       275    2       90.542400000000       8.712471022900       7.495901334800
       276    2       88.656100000000      11.979646022900       7.495901334800
       277    2       88.656100000000       7.623403977100      10.647698665200
       278    2       84.883500000000       7.623403977100      10.647698665200
       279    2       90.542400000000       2.178121022900       7.495901334800
       280    2       86.769800000000       8.712471022900       7.495901334800
       281    2       90.542400000000       4.356228977100      10.647698665200
       282    2       86.769800000000      10.890578977100      10.647698665200
       283    1       84.883500000000       3.267175000000       9.071800000000
       284    1       88.656100000000       9.801525000000       9.071800000000
       285    1       88.656100000000       3.267175000000       9.071800000000
       286    1       84.883500000000       9.801525000000       9.071800000000
       287    2       86.769800000000       4.356228977100      10.647698665200
       288    2       90.542400000000      10.890578977100      10.647698665200
       289    1       98.087600000000       0.000000000000       9.071800000000
       290    1       94.315000000000       6.534350000000       9.071800000000
       291    1       94.315000000000       0.000000000000       9.071800000000
       292    2       92.428700000000       5.445296022900       7.495901334800
       293    2       96.201300000000       5.445296022900       7.495901334800
       294    1       98.087600000000       6.534350000000       9.071800000000
       295    2       92.428700000000      11.979646022900       7.495901334800
       296    2       94.315000000000       2.178121022900       7.495901334800
       297    2       92.428700000000       1.089053977100      10.647698665200
       298    2       96.201300000000       1.089053977100      10.647698665200
       299    2       98.087600000000       8.712471022900       7.495901334800
       300    2       96.201300000000      11.979646022900       7.495901334800
       301    2       96.201300000000       7.623403977100      10.647698665200
       302    2       92.428700000000       7.623403977100      10.647698665200
       303    2       98.087600000000       2.178121022900       7.495901334800
       304    2       94.315000000000       8.712471022900       7.495901334800
       305    2       98.087600000000       4.356228977100      10.647698665200
       306    2       94.315000000000      10.890578977100      10.647698665200
       307    1       92.428700000000       3.267175000000       9.071800000000
       308    1       96.201300000000       9.801525000000       9.071800000000
       309    1       96.201300000000       3.267175000000       9.071800000000
       310    1       92.428700000000       9.801525000000       9.071800000000
       311    2       94.315000000000       4.356228977100      10.647698665200
       312    2       98.087600000000      10.890578977100      10.647698665200
       313    1        7.545200000000      13.068700000000       9.071800000000
       314    1        3.772600000000      19.603050000000       9.071800000000
       315    1        3.772600000000      13.068700000000       9.071800000000
       316    2        1.886300000000      18.513996022900       7.495901334800
       317    2        5.658900000000      18.513996022900       7.495901334800
       318    1        7.545200000000      19.603050000000       9.071800000000
       319    2        1.886300000000      25.048346022900       7.495901334800
       320    2        3.772600000000      15.246821022900       7.495901334800
       321    2        1.886300000000      14.157753977100      10.647698665200
       322    2        5.658900000000      14.157753977100      10.647698665200
       323    2        7.545200000000      21.781171022900       7.495901334800
       324    2        5.658900000000      25.048346022900       7.495901334800
       325    2        5.658900000000      20.692103977100      10.647698665200
       326    2        1.886300000000      20.692103977100      10.647698665200
       327    2        7.545200000000      15.246821022900       7.495901334800
       328    2        3.772600000000      21.781171022900       7.495901334800
       329    2        7.545200000000      17.424928977100      10.647698665200
       330    2        3.772600000000      23.959278977100      10.647698665200
       331    1        1.886300000000      16.335875000000       9.071800000000
       332    1        5.658900000000      22.870225000000       9.071800000000
       333    1        5.658900000000      16.335875000000       9.071800000000
       334    1        1.886300000000      22.870225000000       9.071800000000
       335    2        3.772600000000      17.424928977100      10.647698665200
       336    2        7.545200000000      23.959278977100      10.647698665200
       337    1       15.090400000000      13.068700000000       9.071800000000
       338    1       11.317800000000      19.603050000000       9.071800000000
       339    1       11.317800000000      13.068700000000       9.071800000000
       340    2        9.431500000000      18.513996022900       7.495901334800
       341    2       13.204100000000      18.513996022900       7.495901334800
       342    1       15.090400000000      19.603050000000       9.071800000000
       343    2        9.431500000000      25.048346022900       7.495901334800
       344    2       11.317800000000      15.246821022900       7.495901334800
       345    2        9.431500000000      14.157753977100      10.647698665200
       346    2       13.204100000000      14.157753977100      10.647698665200
       347    2       15.090400000000      21.781171022900       7.495901334800
       348    2       13.204100000000      25.048346022900       7.495901334800
       349    2       13.204100000000      20.692103977100      10.647698665200
       350    2        9.431500000000      20.692103977100      10.647698665200
       351    2       15.090400000000      15.246821022900       7.495901334800
       352    2       11.317800000000      21.781171022900       7.495901334800
       353    2       15.090400000000      17.424928977100      10.647698665200
       354    2       11.317800000000      23.959278977100      10.647698665200
       355    1        9.431500000000      16.335875000000       9.071800000000
       356    1       13.204100000000      22.870225000000       9.071800000000
       357    1       13.204100000000      16.335875000000       9.071800000000
       358    1        9.431500000000      22.870225000000       9.071800000000
       359    2       11.317800000000      17.424928977100      10.647698665200
       360    2       15.090400000000      23.959278977100      10.647698665200
       361    1       22.635600000000      13.068700000000       9.071800000000
       362    1       18.863000000000      19.603050000000       9.071800000000
       363    1       18.863000000000      13.068700000000       9.071800000000
       364    2       16.976700000000      18.513996022900       7.495901334800
       365    2       20.749300000000      18.513996022900       7.495901334800
       366    1       22.635600000000      19.603050000000       9.071800000000
       367    2       16.976700000000      25.048346022900       7.495901334800
       368    2       18.863000000000      15.246821022900       7.495901334800
       369    2       16.976700000000      14.157753977100      10.647698665200
       370    2       20.749300000000      14.157753977100      10.647698665200