 # Ir8 Te16
  
        2184  atoms
           2  atom types
 
      0.000000000000     100.907300000000  xlo xhi
      0.000000000000      94.110100000000  ylo yhi
      0.000000000000      17.865200000000  zlo zhi
 
Masses
 
            1   192.21700000            # Ir
            2   127.60000000            # Te
 
Atoms # atomic
 
         1    1        0.000000000000       0.000000000000       8.932600000000
         2    1        3.881050000000       6.722150000000       8.932600000000
         3    2        3.881050000000       4.481428851900      10.383683004800
         4    1        1.940525000000       3.361075000000       8.932600000000
         5    2        0.000000000000      11.203578851900      10.383683004800
         6    2        0.000000000000       4.481428851900      10.383683004800
         7    1        5.821575000000      10.083225000000       8.932600000000
         8    2        3.881050000000      11.203578851900      10.383683004800
         9    2        1.940525000000       5.601796148100       7.481516995200
        10    2        5.821575000000       1.120353851900      10.383683004800
        11    2        3.881050000000       2.240721148100       7.481516995200
        12    2        5.821575000000       5.601796148100       7.481516995200
        13    2        0.000000000000       8.962871148100       7.481516995200
        14    2        1.940525000000       7.842503851900      10.383683004800
        15    2        5.821575000000      12.323946148100       7.481516995200
        16    2        1.940525000000      12.323946148100       7.481516995200
        17    1        5.821575000000       3.361075000000       8.932600000000
        18    1        1.940525000000      10.083225000000       8.932600000000
        19    2        0.000000000000       2.240721148100       7.481516995200
        20    2        3.881050000000       8.962871148100       7.481516995200
        21    1        3.881050000000       0.000000000000       8.932600000000
        22    1        0.000000000000       6.722150000000       8.932600000000
        23    2        1.940525000000       1.120353851900      10.383683004800
        24    2        5.821575000000       7.842503851900      10.383683004800
        25    1        7.762100000000       0.000000000000       8.932600000000
        26    1       11.643150000000       6.722150000000       8.932600000000
        27    2       11.643150000000       4.481428851900      10.383683004800
        28    1        9.702625000000       3.361075000000       8.932600000000
        29    2        7.762100000000      11.203578851900      10.383683004800
        30    2        7.762100000000       4.481428851900      10.383683004800
        31    1       13.583675000000      10.083225000000       8.932600000000
        32    2       11.643150000000      11.203578851900      10.383683004800
        33    2        9.702625000000       5.601796148100       7.481516995200
        34    2       13.583675000000       1.120353851900      10.383683004800
        35    2       11.643150000000       2.240721148100       7.481516995200
        36    2       13.583675000000       5.601796148100       7.481516995200
        37    2        7.762100000000       8.962871148100       7.481516995200
        38    2        9.702625000000       7.842503851900      10.383683004800
        39    2       13.583675000000      12.323946148100       7.481516995200
        40    2        9.702625000000      12.323946148100       7.481516995200
        41    1       13.583675000000       3.361075000000       8.932600000000
        42    1        9.702625000000      10.083225000000       8.932600000000
        43    2        7.762100000000       2.240721148100       7.481516995200
        44    2       11.643150000000       8.962871148100       7.481516995200
        45    1       11.643150000000       0.000000000000       8.932600000000
        46    1        7.762100000000       6.722150000000       8.932600000000
        47    2        9.702625000000       1.120353851900      10.383683004800
        48    2       13.583675000000       7.842503851900      10.383683004800
        49    1       15.524200000000       0.000000000000       8.932600000000
        50    1       19.405250000000       6.722150000000       8.932600000000
        51    2       19.405250000000       4.481428851900      10.383683004800
        52    1       17.464725000000       3.361075000000       8.932600000000
        53    2       15.524200000000      11.203578851900      10.383683004800
        54    2       15.524200000000       4.481428851900      10.383683004800
        55    1       21.345775000000      10.083225000000       8.932600000000
        56    2       19.405250000000      11.203578851900      10.383683004800
        57    2       17.464725000000       5.601796148100       7.481516995200
        58    2       21.345775000000       1.120353851900      10.383683004800
        59    2       19.405250000000       2.240721148100       7.481516995200
        60    2       21.345775000000       5.601796148100       7.481516995200
        61    2       15.524200000000       8.962871148100       7.481516995200
        62    2       17.464725000000       7.842503851900      10.383683004800
        63    2       21.345775000000      12.323946148100       7.481516995200
        64    2       17.464725000000      12.323946148100       7.481516995200
        65    1       21.345775000000       3.361075000000       8.932600000000
        66    1       17.464725000000      10.083225000000       8.932600000000
        67    2       15.524200000000       2.240721148100       7.481516995200
        68    2       19.405250000000       8.962871148100       7.481516995200
        69    1       19.405250000000       0.000000000000       8.932600000000
        70    1       15.524200000000       6.722150000000       8.932600000000
        71    2       17.464725000000       1.120353851900      10.383683004800
        72    2       21.345775000000       7.842503851900      10.383683004800
        73    1       23.286300000000       0.000000000000       8.932600000000
        74    1       27.167350000000       6.722150000000       8.932600000000
        75    2       27.167350000000       4.481428851900      10.383683004800
        76    1       25.226825000000       3.361075000000       8.932600000000
        77    2       23.286300000000      11.203578851900      10.383683004800
        78    2       23.286300000000       4.481428851900      10.383683004800
        79    1       29.107875000000      10.083225000000       8.932600000000
        80    2       27.167350000000      11.203578851900      10.383683004800
        81    2       25.226825000000       5.601796148100       7.481516995200
        82    2       29.107875000000       1.120353851900      10.383683004800
        83    2       27.167350000000       2.240721148100       7.481516995200
        84    2       29.107875000000       5.601796148100       7.481516995200
        85    2       23.286300000000       8.962871148100       7.481516995200
        86    2       25.226825000000       7.842503851900      10.383683004800
        87    2       29.107875000000      12.323946148100       7.481516995200
        88    2       25.226825000000      12.323946148100       7.481516995200
        89    1       29.107875000000       3.361075000000       8.932600000000
        90    1       25.226825000000      10.083225000000       8.932600000000
        91    2       23.286300000000       2.240721148100       7.481516995200
        92    2       27.167350000000       8.962871148100       7.481516995200
        93    1       27.167350000000       0.000000000000       8.932600000000
        94    1       23.286300000000       6.722150000000       8.932600000000
        95    2       25.226825000000       1.120353851900      10.383683004800
        96    2       29.107875000000       7.842503851900      10.383683004800
        97    1       31.048400000000       0.000000000000       8.932600000000
        98    1       34.929450000000       6.722150000000       8.932600000000
        99    2       34.929450000000       4.481428851900      10.383683004800
       100    1       32.988925000000       3.361075000000       8.932600000000
       101    2       31.048400000000      11.203578851900      10.383683004800
       102    2       31.048400000000       4.481428851900      10.383683004800
       103    1       36.869975000000      10.083225000000       8.932600000000
       104    2       34.929450000000      11.203578851900      10.383683004800
       105    2       32.988925000000       5.601796148100       7.481516995200
       106    2       36.869975000000       1.120353851900      10.383683004800
       107    2       34.929450000000       2.240721148100       7.481516995200
       108    2       36.869975000000       5.601796148100       7.481516995200
       109    2       31.048400000000       8.962871148100       7.481516995200
       110    2       32.988925000000       7.842503851900      10.383683004800
       111    2       36.869975000000      12.323946148100       7.481516995200
       112    2       32.988925000000      12.323946148100       7.481516995200
       113    1       36.869975000000       3.361075000000       8.932600000000
       114    1       32.988925000000      10.083225000000       8.932600000000
       115    2       31.048400000000       2.240721148100       7.481516995200
       116    2       34.929450000000       8.962871148100       7.481516995200
       117    1       34.929450000000       0.000000000000       8.932600000000
       118    1       31.048400000000       6.722150000000       8.932600000000
       119    2       32.988925000000       1.120353851900      10.383683004800
       120    2       36.869975000000       7.842503851900      10.383683004800
       121    1       38.810500000000       0.000000000000       8.932600000000
       122    1       42.691550000000       6.722150000000       8.932600000000
       123    2       42.691550000000       4.481428851900      10.383683004800
       124    1       40.751025000000       3.361075000000       8.932600000000
       125    2       38.810500000000      11.203578851900      10.383683004800
       126    2       38.810500000000       4.481428851900      10.383683004800
       127    1       44.632075000000      10.083225000000       8.932600000000
       128    2       42.691550000000      11.203578851900      10.383683004800
       129    2       40.751025000000       5.601796148100       7.481516995200
       130    2       44.632075000000       1.120353851900      10.383683004800
       131    2       42.691550000000       2.240721148100       7.481516995200
       132    2       44.632075000000       5.601796148100       7.481516995200
       133    2       38.810500000000       8.962871148100       7.481516995200
       134    2       40.751025000000       7.842503851900      10.383683004800
       135    2       44.632075000000      12.323946148100       7.481516995200
       136    2       40.751025000000      12.323946148100       7.481516995200
       137    1       44.632075000000       3.361075000000       8.932600000000
       138    1       40.751025000000      10.083225000000       8.932600000000
       139    2       38.810500000000       2.240721148100       7.481516995200
       140    2       42.691550000000       8.962871148100       7.481516995200
       141    1       42.691550000000       0.000000000000       8.932600000000
       142    1       38.810500000000       6.722150000000       8.932600000000
       143    2       40.751025000000       1.120353851900      10.383683004800
       144    2       44.632075000000       7.842503851900      10.383683004800
       145    1       46.572600000000       0.000000000000       8.932600000000
       146    1       50.453650000000       6.722150000000       8.932600000000
       147    2       50.453650000000       4.481428851900      10.383683004800
       148    1       48.513125000000       3.361075000000       8.932600000000
       149    2       46.572600000000      11.203578851900      10.383683004800
       150    2       46.572600000000       4.481428851900      10.383683004800
       151    1       52.394175000000      10.083225000000       8.932600000000
       152    2       50.453650000000      11.203578851900      10.383683004800
       153    2       48.513125000000       5.601796148100       7.481516995200
       154    2       52.394175000000       1.120353851900      10.383683004800
       155    2       50.453650000000       2.240721148100       7.481516995200
       156    2       52.394175000000       5.601796148100       7.481516995200
       157    2       46.572600000000       8.962871148100       7.481516995200
       158    2       48.513125000000       7.842503851900      10.383683004800
       159    2       52.394175000000      12.323946148100       7.481516995200
       160    2       48.513125000000      12.323946148100       7.481516995200
       161    1       52.394175000000       3.361075000000       8.932600000000
       162    1       48.513125000000      10.083225000000       8.932600000000
       163    2       46.572600000000       2.240721148100       7.481516995200
       164    2       50.453650000000       8.962871148100       7.481516995200
       165    1       50.453650000000       0.000000000000       8.932600000000
       166    1       46.572600000000       6.722150000000       8.932600000000
       167    2       48.513125000000       1.120353851900      10.383683004800
       168    2       52.394175000000       7.842503851900      10.383683004800
       169    1       54.334700000000       0.000000000000       8.932600000000
       170    1       58.215750000000       6.722150000000       8.932600000000
       171    2       58.215750000000       4.481428851900      10.383683004800
       172    1       56.275225000000       3.361075000000       8.932600000000
       173    2       54.334700000000      11.203578851900      10.383683004800
       174    2       54.334700000000       4.481428851900      10.383683004800
       175    1       60.156275000000      10.083225000000       8.932600000000
       176    2       58.215750000000      11.203578851900      10.383683004800
       177    2       56.275225000000       5.601796148100       7.481516995200
       178    2       60.156275000000       1.120353851900      10.383683004800
       179    2       58.215750000000       2.240721148100       7.481516995200
       180    2       60.156275000000       5.601796148100       7.481516995200
       181    2       54.334700000000       8.962871148100       7.481516995200
       182    2       56.275225000000       7.842503851900      10.383683004800
       183    2       60.156275000000      12.323946148100       7.481516995200
       184    2       56.275225000000      12.323946148100       7.481516995200
       185    1       60.156275000000       3.361075000000       8.932600000000
       186    1       56.275225000000      10.083225000000       8.932600000000
       187    2       54.334700000000       2.240721148100       7.481516995200
       188    2       58.215750000000       8.962871148100       7.481516995200
       189    1       58.215750000000       0.000000000000       8.932600000000
       190    1       54.334700000000       6.722150000000       8.932600000000
       191    2       56.275225000000       1.120353851900      10.383683004800
       192    2       60.156275000000       7.842503851900      10.383683004800
       193    1       62.096800000000       0.000000000000       8.932600000000
       194    1       65.977850000000       6.722150000000       8.932600000000
       195    2       65.977850000000       4.481428851900      10.383683004800
       196    1       64.037325000000       3.361075000000       8.932600000000
       197    2       62.096800000000      11.203578851900      10.383683004800
       198    2       62.096800000000       4.481428851900      10.383683004800
       199    1       67.918375000000      10.083225000000       8.932600000000
       200    2       65.977850000000      11.203578851900      10.383683004800
       201    2       64.037325000000       5.601796148100       7.481516995200
       202    2       67.918375000000       1.120353851900      10.383683004800
       203    2       65.977850000000       2.240721148100       7.481516995200
       204    2       67.918375000000       5.601796148100       7.481516995200
       205    2       62.096800000000       8.962871148100       7.481516995200
       206    2       64.037325000000       7.842503851900      10.383683004800
       207    2       67.918375000000      12.323946148100       7.481516995200
       208    2       64.037325000000      12.323946148100       7.481516995200
       209    1       67.918375000000       3.361075000000       8.932600000000
       210    1       64.037325000000      10.083225000000       8.932600000000
       211    2       62.096800000000       2.240721148100       7.481516995200
       212    2       65.977850000000       8.962871148100       7.481516995200
       213    1       65.977850000000       0.000000000000       8.932600000000
       214    1       62.096800000000       6.722150000000       8.932600000000
       215    2       64.037325000000       1.120353851900      10.383683004800
       216    2       67.918375000000       7.842503851900      10.383683004800
       217    1       69.858900000000       0.000000000000       8.932600000000
       218    1       73.739950000000       6.722150000000       8.932600000000
       219    2       73.739950000000       4.481428851900      10.383683004800
       220    1       71.799425000000       3.361075000000       8.932600000000
       221    2       69.858900000000      11.203578851900      10.383683004800
       222    2       69.858900000000       4.481428851900      10.383683004800
       223    1       75.680475000000      10.083225000000       8.932600000000
       224    2       73.739950000000      11.203578851900      10.383683004800
       225    2       71.799425000000       5.601796148100       7.481516995200
       226    2       75.680475000000       1.120353851900      10.383683004800
       227    2       73.739950000000       2.240721148100       7.481516995200
       228    2       75.680475000000       5.601796148100       7.481516995200
       229    2       69.858900000000       8.962871148100       7.481516995200
       230    2       71.799425000000       7.842503851900      10.383683004800
       231    2       75.680475000000      12.323946148100       7.481516995200
       232    2       71.799425000000      12.323946148100       7.481516995200
       233    1       75.680475000000       3.361075000000       8.932600000000
       234    1       71.799425000000      10.083225000000       8.932600000000
       235    2       69.858900000000       2.240721148100       7.481516995200
       236    2       73.739950000000       8.962871148100       7.481516995200
       237    1       73.739950000000       0.000000000000       8.932600000000
       238    1       69.858900000000       6.722150000000       8.932600000000
       239    2       71.799425000000       1.120353851900      10.383683004800
       240    2       75.680475000000       7.842503851900      10.383683004800
       241    1       77.621000000000       0.000000000000       8.932600000000
       242    1       81.502050000000       6.722150000000       8.932600000000
       243    2       81.502050000000       4.481428851900      10.383683004800
       244    1       79.561525000000       3.361075000000       8.932600000000
       245    2       77.621000000000      11.203578851900      10.383683004800
       246    2       77.621000000000       4.481428851900      10.383683004800
       247    1       83.442575000000      10.083225000000       8.932600000000
       248    2       81.502050000000      11.203578851900      10.383683004800
       249    2       79.561525000000       5.601796148100       7.481516995200
       250    2       83.442575000000       1.120353851900      10.383683004800
       251    2       81.502050000000       2.240721148100       7.481516995200
       252    2       83.442575000000       5.601796148100       7.481516995200
       253    2       77.621000000000       8.962871148100       7.481516995200
       254    2       79.561525000000       7.842503851900      10.383683004800
       255    2       83.442575000000      12.323946148100       7.481516995200
       256    2       79.561525000000      12.323946148100       7.481516995200
       257    1       83.442575000000       3.361075000000       8.932600000000
       258    1       79.561525000000      10.083225000000       8.932600000000
       259    2       77.621000000000       2.240721148100       7.481516995200
       260    2       81.502050000000       8.962871148100       7.481516995200
       261    1       81.502050000000       0.000000000000       8.932600000000
       262    1       77.621000000000       6.722150000000       8.932600000000
       263    2       79.561525000000       1.120353851900      10.383683004800
       264    2       83.442575000000       7.842503851900      10.383683004800
       265    1       85.383100000000       0.000000000000       8.932600000000
       266    1       89.264150000000       6.722150000000       8.932600000000
       267    2       89.264150000000       4.481428851900      10.383683004800
       268    1       87.323625000000       3.361075000000       8.932600000000
       269    2       85.383100000000      11.203578851900      10.383683004800
       270    2       85.383100000000       4.481428851900      10.383683004800
       271    1       91.204675000000      10.083225000000       8.932600000000
       272    2       89.264150000000      11.203578851900      10.383683004800
       273    2       87.323625000000       5.601796148100       7.481516995200
       274    2       91.204675000000       1.120353851900      10.383683004800
       275    2       89.264150000000       2.240721148100       7.481516995200
       276    2       91.204675000000       5.601796148100       7.481516995200
       277    2       85.383100000000       8.962871148100       7.481516995200
       278    2       87.323625000000       7.842503851900      10.383683004800
       279    2       91.204675000000      12.323946148100       7.481516995200
       280    2       87.323625000000      12.323946148100       7.481516995200
       281    1       91.204675000000       3.361075000000       8.932600000000
       282    1       87.323625000000      10.083225000000       8.932600000000
       283    2       85.383100000000       2.240721148100       7.481516995200
       284    2       89.264150000000       8.962871148100       7.481516995200
       285    1       89.264150000000       0.000000000000       8.932600000000
       286    1       85.383100000000       6.722150000000       8.932600000000
       287    2       87.323625000000       1.120353851900      10.383683004800
       288    2       91.204675000000       7.842503851900      10.383683004800
       289    1       93.145200000000       0.000000000000       8.932600000000
       290    1       97.026250000000       6.722150000000       8.932600000000
       291    2       97.026250000000       4.481428851900      10.383683004800
       292    1       95.085725000000       3.361075000000       8.932600000000
       293    2       93.145200000000      11.203578851900      10.383683004800
       294    2       93.145200000000       4.481428851900      10.383683004800
       295    1       98.966775000000      10.083225000000       8.932600000000
       296    2       97.026250000000      11.203578851900      10.383683004800
       297    2       95.085725000000       5.601796148100       7.481516995200
       298    2       98.966775000000       1.120353851900      10.383683004800
       299    2       97.026250000000       2.240721148100       7.481516995200
       300    2       98.966775000000       5.601796148100       7.481516995200
       301    2       93.145200000000       8.962871148100       7.481516995200
       302    2       95.085725000000       7.842503851900      10.383683004800
       303    2       98.966775000000      12.323946148100       7.481516995200
       304    2       95.085725000000      12.323946148100       7.481516995200
       305    1       98.966775000000       3.361075000000       8.932600000000
       306    1       95.085725000000      10.083225000000       8.932600000000
       307    2       93.145200000000       2.240721148100       7.481516995200
       308    2       97.026250000000       8.962871148100       7.481516995200
       309    1       97.026250000000       0.000000000000       8.932600000000
       310    1       93.145200000000       6.722150000000       8.932600000000
       311    2       95.085725000000       1.120353851900      10.383683004800
       312    2       98.966775000000       7.842503851900      10.383683004800
       313    1        0.000000000000      13.444300000000       8.932600000000
       314    1        3.881050000000      20.166450000000       8.932600000000
       315    2        3.881050000000      17.925728851900      10.383683004800
       316    1        1.940525000000      16.805375000000       8.932600000000
       317    2        0.000000000000      24.647878851900      10.383683004800
       318    2        0.000000000000      17.925728851900      10.383683004800
       319    1        5.821575000000      23.527525000000       8.932600000000
       320    2        3.881050000000      24.647878851900      10.383683004800
       321    2        1.940525000000      19.046096148100       7.481516995200
       322    2        5.821575000000      14.564653851900      10.383683004800
       323    2        3.881050000000      15.685021148100       7.481516995200
       324    2        5.821575000000      19.046096148100       7.481516995200
       325    2        0.000000000000      22.407171148100       7.481516995200
       326    2        1.940525000000      21.286803851900      10.383683004800
       327    2        5.821575000000      25.768246148100       7.481516995200
       328    2        1.940525000000      25.768246148100       7.481516995200
       329    1        5.821575000000      16.805375000000       8.932600000000
       330    1        1.940525000000      23.527525000000       8.932600000000
       331    2        0.000000000000      15.685021148100       7.481516995200
       332    2        3.881050000000      22.407171148100       7.481516995200
       333    1        3.881050000000      13.444300000000       8.932600000000
       334    1        0.000000000000      20.166450000000       8.932600000000
       335    2        1.940525000000      14.564653851900      10.383683004800
       336    2        5.821575000000      21.286803851900      10.383683004800
       337    1        7.762100000000      13.444300000000       8.932600000000
       338    1       11.643150000000      20.166450000000       8.932600000000
       339    2       11.643150000000      17.925728851900      10.383683004800
       340    1        9.702625000000      16.805375000000       8.932600000000
       341    2        7.762100000000      24.647878851900      10.383683004800
       342    2        7.762100000000      17.925728851900      10.383683004800
       343    1       13.583675000000      23.527525000000       8.932600000000
       344    2       11.643150000000      24.647878851900      10.383683004800
       345    2        9.702625000000      19.046096148100       7.481516995200
       346    2       13.583675000000      14.564653851900      10.383683004800
       347    2       11.643150000000      15.685021148100       7.481516995200
       348    2       13.583675000000      19.046096148100       7.481516995200
       349    2        7.762100000000      22.407171148100       7.481516995200
       350    2        9.702625000000      21.286803851900      10.383683004800
       351    2       13.583675000000      25.768246148100       7.481516995200
       352    2        9.702625000000      25.768246148100       7.481516995200
       353    1       13.583675000000      16.805375000000       8.932600000000
       354    1        9.702625000000      23.527525000000       8.932600000000
       355    2        7.762100000000      15.685021148100       7.481516995200
       356    2       11.643150000000      22.407171148100       7.481516995200
       357    1       11.643150000000      13.444300000000       8.932600000000
       358    1        7.762100000000      20.166450000000       8.932600000000
       359    2        9.702625000000      14.564653851900      10.383683004800
       360    2       13.583675000000      21.286803851900      10.383683004800
       361    1       15.524200000000      13.444300000000       8.932600000000
       362    1       19.405250000000      20.166450000000       8.932600000000
       363    2       19.405250000000      17.925728851900      10.383683004800
       364    1       17.464725000000      16.805375000000       8.932600000000
       365    2       15.524200000000      24.647878851900      10.383683004800
       366    2       15.524200000000      17.925728851900      10.383683004800
       367    1       21.345775000000      23.527525000000       8.932600000000
       368    2       19.405250000000      24.647878851900      10.383683004800
       369    2       17.464725000000      19.046096148100       7.481516995200
       370    2       21.345775000000      14.564653851900      10.383683004800