 # Mn8 O16
  
        4080  atoms
           2  atom types
 
      0.000000000000      98.404500000000  xlo xhi
      0.000000000000     100.259000000000  ylo yhi
      0.000000000000      17.007500000000  zlo zhi
 
Masses
 
            1   54.93804500             # Mn
            2   15.99900000             # O
 
Atoms # atomic
 
         1    1        0.000000000000       0.000000000000       8.503750000000
         2    2        2.894250000000       3.341963324700       9.463789360000
         3    2        0.000000000000       8.354913324700       9.463789360000
         4    1        2.894250000000       5.012950000000       8.503750000000
         5    2        0.000000000000       3.341963324700       9.463789360000
         6    2        2.894250000000       8.354913324700       9.463789360000
         7    1        4.341375000000       2.506475000000       8.503750000000
         8    1        1.447125000000       7.519425000000       8.503750000000
         9    2        1.447125000000       0.835488324700       9.463789360000
        10    2        4.341375000000       5.848438324700       9.463789360000
        11    2        5.788500000000       1.670986675300       7.543710640000
        12    2        2.894250000000       6.683936675300       7.543710640000
        13    2        2.894250000000       1.670986675300       7.543710640000
        14    2        0.000000000000       6.683936675300       7.543710640000
        15    2        4.341375000000       4.177461675300       7.543710640000
        16    2        1.447125000000       9.190411675300       7.543710640000
        17    1        2.894250000000       0.000000000000       8.503750000000
        18    1        5.788500000000       5.012950000000       8.503750000000
        19    2        1.447125000000       4.177461675300       7.543710640000
        20    2        4.341375000000       9.190411675300       7.543710640000
        21    2        4.341375000000       0.835488324700       9.463789360000
        22    2        1.447125000000       5.848438324700       9.463789360000
        23    1        1.447125000000       2.506475000000       8.503750000000
        24    1        4.341375000000       7.519425000000       8.503750000000
        25    1        5.788500000000       0.000000000000       8.503750000000
        26    2        8.682750000000       3.341963324700       9.463789360000
        27    2        5.788500000000       8.354913324700       9.463789360000
        28    1        8.682750000000       5.012950000000       8.503750000000
        29    2        5.788500000000       3.341963324700       9.463789360000
        30    2        8.682750000000       8.354913324700       9.463789360000
        31    1       10.129875000000       2.506475000000       8.503750000000
        32    1        7.235625000000       7.519425000000       8.503750000000
        33    2        7.235625000000       0.835488324700       9.463789360000
        34    2       10.129875000000       5.848438324700       9.463789360000
        35    2       11.577000000000       1.670986675300       7.543710640000
        36    2        8.682750000000       6.683936675300       7.543710640000
        37    2        8.682750000000       1.670986675300       7.543710640000
        38    2        5.788500000000       6.683936675300       7.543710640000
        39    2       10.129875000000       4.177461675300       7.543710640000
        40    2        7.235625000000       9.190411675300       7.543710640000
        41    1        8.682750000000       0.000000000000       8.503750000000
        42    1       11.577000000000       5.012950000000       8.503750000000
        43    2        7.235625000000       4.177461675300       7.543710640000
        44    2       10.129875000000       9.190411675300       7.543710640000
        45    2       10.129875000000       0.835488324700       9.463789360000
        46    2        7.235625000000       5.848438324700       9.463789360000
        47    1        7.235625000000       2.506475000000       8.503750000000
        48    1       10.129875000000       7.519425000000       8.503750000000
        49    1       11.577000000000       0.000000000000       8.503750000000
        50    2       14.471250000000       3.341963324700       9.463789360000
        51    2       11.577000000000       8.354913324700       9.463789360000
        52    1       14.471250000000       5.012950000000       8.503750000000
        53    2       11.577000000000       3.341963324700       9.463789360000
        54    2       14.471250000000       8.354913324700       9.463789360000
        55    1       15.918375000000       2.506475000000       8.503750000000
        56    1       13.024125000000       7.519425000000       8.503750000000
        57    2       13.024125000000       0.835488324700       9.463789360000
        58    2       15.918375000000       5.848438324700       9.463789360000
        59    2       17.365500000000       1.670986675300       7.543710640000
        60    2       14.471250000000       6.683936675300       7.543710640000
        61    2       14.471250000000       1.670986675300       7.543710640000
        62    2       11.577000000000       6.683936675300       7.543710640000
        63    2       15.918375000000       4.177461675300       7.543710640000
        64    2       13.024125000000       9.190411675300       7.543710640000
        65    1       14.471250000000       0.000000000000       8.503750000000
        66    1       17.365500000000       5.012950000000       8.503750000000
        67    2       13.024125000000       4.177461675300       7.543710640000
        68    2       15.918375000000       9.190411675300       7.543710640000
        69    2       15.918375000000       0.835488324700       9.463789360000
        70    2       13.024125000000       5.848438324700       9.463789360000
        71    1       13.024125000000       2.506475000000       8.503750000000
        72    1       15.918375000000       7.519425000000       8.503750000000
        73    1       17.365500000000       0.000000000000       8.503750000000
        74    2       20.259750000000       3.341963324700       9.463789360000
        75    2       17.365500000000       8.354913324700       9.463789360000
        76    1       20.259750000000       5.012950000000       8.503750000000
        77    2       17.365500000000       3.341963324700       9.463789360000
        78    2       20.259750000000       8.354913324700       9.463789360000
        79    1       21.706875000000       2.506475000000       8.503750000000
        80    1       18.812625000000       7.519425000000       8.503750000000
        81    2       18.812625000000       0.835488324700       9.463789360000
        82    2       21.706875000000       5.848438324700       9.463789360000
        83    2       23.154000000000       1.670986675300       7.543710640000
        84    2       20.259750000000       6.683936675300       7.543710640000
        85    2       20.259750000000       1.670986675300       7.543710640000
        86    2       17.365500000000       6.683936675300       7.543710640000
        87    2       21.706875000000       4.177461675300       7.543710640000
        88    2       18.812625000000       9.190411675300       7.543710640000
        89    1       20.259750000000       0.000000000000       8.503750000000
        90    1       23.154000000000       5.012950000000       8.503750000000
        91    2       18.812625000000       4.177461675300       7.543710640000
        92    2       21.706875000000       9.190411675300       7.543710640000
        93    2       21.706875000000       0.835488324700       9.463789360000
        94    2       18.812625000000       5.848438324700       9.463789360000
        95    1       18.812625000000       2.506475000000       8.503750000000
        96    1       21.706875000000       7.519425000000       8.503750000000
        97    1       23.154000000000       0.000000000000       8.503750000000
        98    2       26.048250000000       3.341963324700       9.463789360000
        99    2       23.154000000000       8.354913324700       9.463789360000
       100    1       26.048250000000       5.012950000000       8.503750000000
       101    2       23.154000000000       3.341963324700       9.463789360000
       102    2       26.048250000000       8.354913324700       9.463789360000
       103    1       27.495375000000       2.506475000000       8.503750000000
       104    1       24.601125000000       7.519425000000       8.503750000000
       105    2       24.601125000000       0.835488324700       9.463789360000
       106    2       27.495375000000       5.848438324700       9.463789360000
       107    2       28.942500000000       1.670986675300       7.543710640000
       108    2       26.048250000000       6.683936675300       7.543710640000
       109    2       26.048250000000       1.670986675300       7.543710640000
       110    2       23.154000000000       6.683936675300       7.543710640000
       111    2       27.495375000000       4.177461675300       7.543710640000
       112    2       24.601125000000       9.190411675300       7.543710640000
       113    1       26.048250000000       0.000000000000       8.503750000000
       114    1       28.942500000000       5.012950000000       8.503750000000
       115    2       24.601125000000       4.177461675300       7.543710640000
       116    2       27.495375000000       9.190411675300       7.543710640000
       117    2       27.495375000000       0.835488324700       9.463789360000
       118    2       24.601125000000       5.848438324700       9.463789360000
       119    1       24.601125000000       2.506475000000       8.503750000000
       120    1       27.495375000000       7.519425000000       8.503750000000
       121    1       28.942500000000       0.000000000000       8.503750000000
       122    2       31.836750000000       3.341963324700       9.463789360000
       123    2       28.942500000000       8.354913324700       9.463789360000
       124    1       31.836750000000       5.012950000000       8.503750000000
       125    2       28.942500000000       3.341963324700       9.463789360000
       126    2       31.836750000000       8.354913324700       9.463789360000
       127    1       33.283875000000       2.506475000000       8.503750000000
       128    1       30.389625000000       7.519425000000       8.503750000000
       129    2       30.389625000000       0.835488324700       9.463789360000
       130    2       33.283875000000       5.848438324700       9.463789360000
       131    2       34.731000000000       1.670986675300       7.543710640000
       132    2       31.836750000000       6.683936675300       7.543710640000
       133    2       31.836750000000       1.670986675300       7.543710640000
       134    2       28.942500000000       6.683936675300       7.543710640000
       135    2       33.283875000000       4.177461675300       7.543710640000
       136    2       30.389625000000       9.190411675300       7.543710640000
       137    1       31.836750000000       0.000000000000       8.503750000000
       138    1       34.731000000000       5.012950000000       8.503750000000
       139    2       30.389625000000       4.177461675300       7.543710640000
       140    2       33.283875000000       9.190411675300       7.543710640000
       141    2       33.283875000000       0.835488324700       9.463789360000
       142    2       30.389625000000       5.848438324700       9.463789360000
       143    1       30.389625000000       2.506475000000       8.503750000000
       144    1       33.283875000000       7.519425000000       8.503750000000
       145    1       34.731000000000       0.000000000000       8.503750000000
       146    2       37.625250000000       3.341963324700       9.463789360000
       147    2       34.731000000000       8.354913324700       9.463789360000
       148    1       37.625250000000       5.012950000000       8.503750000000
       149    2       34.731000000000       3.341963324700       9.463789360000
       150    2       37.625250000000       8.354913324700       9.463789360000
       151    1       39.072375000000       2.506475000000       8.503750000000
       152    1       36.178125000000       7.519425000000       8.503750000000
       153    2       36.178125000000       0.835488324700       9.463789360000
       154    2       39.072375000000       5.848438324700       9.463789360000
       155    2       40.519500000000       1.670986675300       7.543710640000
       156    2       37.625250000000       6.683936675300       7.543710640000
       157    2       37.625250000000       1.670986675300       7.543710640000
       158    2       34.731000000000       6.683936675300       7.543710640000
       159    2       39.072375000000       4.177461675300       7.543710640000
       160    2       36.178125000000       9.190411675300       7.543710640000
       161    1       37.625250000000       0.000000000000       8.503750000000
       162    1       40.519500000000       5.012950000000       8.503750000000
       163    2       36.178125000000       4.177461675300       7.543710640000
       164    2       39.072375000000       9.190411675300       7.543710640000
       165    2       39.072375000000       0.835488324700       9.463789360000
       166    2       36.178125000000       5.848438324700       9.463789360000
       167    1       36.178125000000       2.506475000000       8.503750000000
       168    1       39.072375000000       7.519425000000       8.503750000000
       169    1       40.519500000000       0.000000000000       8.503750000000
       170    2       43.413750000000       3.341963324700       9.463789360000
       171    2       40.519500000000       8.354913324700       9.463789360000
       172    1       43.413750000000       5.012950000000       8.503750000000
       173    2       40.519500000000       3.341963324700       9.463789360000
       174    2       43.413750000000       8.354913324700       9.463789360000
       175    1       44.860875000000       2.506475000000       8.503750000000
       176    1       41.966625000000       7.519425000000       8.503750000000
       177    2       41.966625000000       0.835488324700       9.463789360000
       178    2       44.860875000000       5.848438324700       9.463789360000
       179    2       46.308000000000       1.670986675300       7.543710640000
       180    2       43.413750000000       6.683936675300       7.543710640000
       181    2       43.413750000000       1.670986675300       7.543710640000
       182    2       40.519500000000       6.683936675300       7.543710640000
       183    2       44.860875000000       4.177461675300       7.543710640000
       184    2       41.966625000000       9.190411675300       7.543710640000
       185    1       43.413750000000       0.000000000000       8.503750000000
       186    1       46.308000000000       5.012950000000       8.503750000000
       187    2       41.966625000000       4.177461675300       7.543710640000
       188    2       44.860875000000       9.190411675300       7.543710640000
       189    2       44.860875000000       0.835488324700       9.463789360000
       190    2       41.966625000000       5.848438324700       9.463789360000
       191    1       41.966625000000       2.506475000000       8.503750000000
       192    1       44.860875000000       7.519425000000       8.503750000000
       193    1       46.308000000000       0.000000000000       8.503750000000
       194    2       49.202250000000       3.341963324700       9.463789360000
       195    2       46.308000000000       8.354913324700       9.463789360000
       196    1       49.202250000000       5.012950000000       8.503750000000
       197    2       46.308000000000       3.341963324700       9.463789360000
       198    2       49.202250000000       8.354913324700       9.463789360000
       199    1       50.649375000000       2.506475000000       8.503750000000
       200    1       47.755125000000       7.519425000000       8.503750000000
       201    2       47.755125000000       0.835488324700       9.463789360000
       202    2       50.649375000000       5.848438324700       9.463789360000
       203    2       52.096500000000       1.670986675300       7.543710640000
       204    2       49.202250000000       6.683936675300       7.543710640000
       205    2       49.202250000000       1.670986675300       7.543710640000
       206    2       46.308000000000       6.683936675300       7.543710640000
       207    2       50.649375000000       4.177461675300       7.543710640000
       208    2       47.755125000000       9.190411675300       7.543710640000
       209    1       49.202250000000       0.000000000000       8.503750000000
       210    1       52.096500000000       5.012950000000       8.503750000000
       211    2       47.755125000000       4.177461675300       7.543710640000
       212    2       50.649375000000       9.190411675300       7.543710640000
       213    2       50.649375000000       0.835488324700       9.463789360000
       214    2       47.755125000000       5.848438324700       9.463789360000
       215    1       47.755125000000       2.506475000000       8.503750000000
       216    1       50.649375000000       7.519425000000       8.503750000000
       217    1       52.096500000000       0.000000000000       8.503750000000
       218    2       54.990750000000       3.341963324700       9.463789360000
       219    2       52.096500000000       8.354913324700       9.463789360000
       220    1       54.990750000000       5.012950000000       8.503750000000
       221    2       52.096500000000       3.341963324700       9.463789360000
       222    2       54.990750000000       8.354913324700       9.463789360000
       223    1       56.437875000000       2.506475000000       8.503750000000
       224    1       53.543625000000       7.519425000000       8.503750000000
       225    2       53.543625000000       0.835488324700       9.463789360000
       226    2       56.437875000000       5.848438324700       9.463789360000
       227    2       57.885000000000       1.670986675300       7.543710640000
       228    2       54.990750000000       6.683936675300       7.543710640000
       229    2       54.990750000000       1.670986675300       7.543710640000
       230    2       52.096500000000       6.683936675300       7.543710640000
       231    2       56.437875000000       4.177461675300       7.543710640000
       232    2       53.543625000000       9.190411675300       7.543710640000
       233    1       54.990750000000       0.000000000000       8.503750000000
       234    1       57.885000000000       5.012950000000       8.503750000000
       235    2       53.543625000000       4.177461675300       7.543710640000
       236    2       56.437875000000       9.190411675300       7.543710640000
       237    2       56.437875000000       0.835488324700       9.463789360000
       238    2       53.543625000000       5.848438324700       9.463789360000
       239    1       53.543625000000       2.506475000000       8.503750000000
       240    1       56.437875000000       7.519425000000       8.503750000000
       241    1       57.885000000000       0.000000000000       8.503750000000
       242    2       60.779250000000       3.341963324700       9.463789360000
       243    2       57.885000000000       8.354913324700       9.463789360000
       244    1       60.779250000000       5.012950000000       8.503750000000
       245    2       57.885000000000       3.341963324700       9.463789360000
       246    2       60.779250000000       8.354913324700       9.463789360000
       247    1       62.226375000000       2.506475000000       8.503750000000
       248    1       59.332125000000       7.519425000000       8.503750000000
       249    2       59.332125000000       0.835488324700       9.463789360000
       250    2       62.226375000000       5.848438324700       9.463789360000
       251    2       63.673500000000       1.670986675300       7.543710640000
       252    2       60.779250000000       6.683936675300       7.543710640000
       253    2       60.779250000000       1.670986675300       7.543710640000
       254    2       57.885000000000       6.683936675300       7.543710640000
       255    2       62.226375000000       4.177461675300       7.543710640000
       256    2       59.332125000000       9.190411675300       7.543710640000
       257    1       60.779250000000       0.000000000000       8.503750000000
       258    1       63.673500000000       5.012950000000       8.503750000000
       259    2       59.332125000000       4.177461675300       7.543710640000
       260    2       62.226375000000       9.190411675300       7.543710640000
       261    2       62.226375000000       0.835488324700       9.463789360000
       262    2       59.332125000000       5.848438324700       9.463789360000
       263    1       59.332125000000       2.506475000000       8.503750000000
       264    1       62.226375000000       7.519425000000       8.503750000000
       265    1       63.673500000000       0.000000000000       8.503750000000
       266    2       66.567750000000       3.341963324700       9.463789360000
       267    2       63.673500000000       8.354913324700       9.463789360000
       268    1       66.567750000000       5.012950000000       8.503750000000
       269    2       63.673500000000       3.341963324700       9.463789360000
       270    2       66.567750000000       8.354913324700       9.463789360000
       271    1       68.014875000000       2.506475000000       8.503750000000
       272    1       65.120625000000       7.519425000000       8.503750000000
       273    2       65.120625000000       0.835488324700       9.463789360000
       274    2       68.014875000000       5.848438324700       9.463789360000
       275    2       69.462000000000       1.670986675300       7.543710640000
       276    2       66.567750000000       6.683936675300       7.543710640000
       277    2       66.567750000000       1.670986675300       7.543710640000
       278    2       63.673500000000       6.683936675300       7.543710640000
       279    2       68.014875000000       4.177461675300       7.543710640000
       280    2       65.120625000000       9.190411675300       7.543710640000
       281    1       66.567750000000       0.000000000000       8.503750000000
       282    1       69.462000000000       5.012950000000       8.503750000000
       283    2       65.120625000000       4.177461675300       7.543710640000
       284    2       68.014875000000       9.190411675300       7.543710640000
       285    2       68.014875000000       0.835488324700       9.463789360000
       286    2       65.120625000000       5.848438324700       9.463789360000
       287    1       65.120625000000       2.506475000000       8.503750000000
       288    1       68.014875000000       7.519425000000       8.503750000000
       289    1       69.462000000000       0.000000000000       8.503750000000
       290    2       72.356250000000       3.341963324700       9.463789360000
       291    2       69.462000000000       8.354913324700       9.463789360000
       292    1       72.356250000000       5.012950000000       8.503750000000
       293    2       69.462000000000       3.341963324700       9.463789360000
       294    2       72.356250000000       8.354913324700       9.463789360000
       295    1       73.803375000000       2.506475000000       8.503750000000
       296    1       70.909125000000       7.519425000000       8.503750000000
       297    2       70.909125000000       0.835488324700       9.463789360000
       298    2       73.803375000000       5.848438324700       9.463789360000
       299    2       75.250500000000       1.670986675300       7.543710640000
       300    2       72.356250000000       6.683936675300       7.543710640000
       301    2       72.356250000000       1.670986675300       7.543710640000
       302    2       69.462000000000       6.683936675300       7.543710640000
       303    2       73.803375000000       4.177461675300       7.543710640000
       304    2       70.909125000000       9.190411675300       7.543710640000
       305    1       72.356250000000       0.000000000000       8.503750000000
       306    1       75.250500000000       5.012950000000       8.503750000000
       307    2       70.909125000000       4.177461675300       7.543710640000
       308    2       73.803375000000       9.190411675300       7.543710640000
       309    2       73.803375000000       0.835488324700       9.463789360000
       310    2       70.909125000000       5.848438324700       9.463789360000
       311    1       70.909125000000       2.506475000000       8.503750000000
       312    1       73.803375000000       7.519425000000       8.503750000000
       313    1       75.250500000000       0.000000000000       8.503750000000
       314    2       78.144750000000       3.341963324700       9.463789360000
       315    2       75.250500000000       8.354913324700       9.463789360000
       316    1       78.144750000000       5.012950000000       8.503750000000
       317    2       75.250500000000       3.341963324700       9.463789360000
       318    2       78.144750000000       8.354913324700       9.463789360000
       319    1       79.591875000000       2.506475000000       8.503750000000
       320    1       76.697625000000       7.519425000000       8.503750000000
       321    2       76.697625000000       0.835488324700       9.463789360000
       322    2       79.591875000000       5.848438324700       9.463789360000
       323    2       81.039000000000       1.670986675300       7.543710640000
       324    2       78.144750000000       6.683936675300       7.543710640000
       325    2       78.144750000000       1.670986675300       7.543710640000
       326    2       75.250500000000       6.683936675300       7.543710640000
       327    2       79.591875000000       4.177461675300       7.543710640000
       328    2       76.697625000000       9.190411675300       7.543710640000
       329    1       78.144750000000       0.000000000000       8.503750000000
       330    1       81.039000000000       5.012950000000       8.503750000000
       331    2       76.697625000000       4.177461675300       7.543710640000
       332    2       79.591875000000       9.190411675300       7.543710640000
       333    2       79.591875000000       0.835488324700       9.463789360000
       334    2       76.697625000000       5.848438324700       9.463789360000
       335    1       76.697625000000       2.506475000000       8.503750000000
       336    1       79.591875000000       7.519425000000       8.503750000000
       337    1       81.039000000000       0.000000000000       8.503750000000
       338    2       83.933250000000       3.341963324700       9.463789360000
       339    2       81.039000000000       8.354913324700       9.463789360000
       340    1       83.933250000000       5.012950000000       8.503750000000
       341    2       81.039000000000       3.341963324700       9.463789360000
       342    2       83.933250000000       8.354913324700       9.463789360000
       343    1       85.380375000000       2.506475000000       8.503750000000
       344    1       82.486125000000       7.519425000000       8.503750000000
       345    2       82.486125000000       0.835488324700       9.463789360000
       346    2       85.380375000000       5.848438324700       9.463789360000
       347    2       86.827500000000       1.670986675300       7.543710640000
       348    2       83.933250000000       6.683936675300       7.543710640000
       349    2       83.933250000000       1.670986675300       7.543710640000
       350    2       81.039000000000       6.683936675300       7.543710640000
       351    2       85.380375000000       4.177461675300       7.543710640000
       352    2       82.486125000000       9.190411675300       7.543710640000
       353    1       83.933250000000       0.000000000000       8.503750000000
       354    1       86.827500000000       5.012950000000       8.503750000000
       355    2       82.486125000000       4.177461675300       7.543710640000
       356    2       85.380375000000       9.190411675300       7.543710640000
       357    2       85.380375000000       0.835488324700       9.463789360000
       358    2       82.486125000000       5.848438324700       9.463789360000
       359    1       82.486125000000       2.506475000000       8.503750000000
       360    1       85.380375000000       7.519425000000       8.503750000000
       361    1       86.827500000000       0.000000000000       8.503750000000
       362    2       89.721750000000       3.341963324700       9.463789360000
       363    2       86.827500000000       8.354913324700       9.463789360000
       364    1       89.721750000000       5.012950000000       8.503750000000
       365    2       86.827500000000       3.341963324700       9.463789360000
       366    2       89.721750000000       8.354913324700       9.463789360000
       367    1       91.168875000000       2.506475000000       8.503750000000
       368    1       88.274625000000       7.519425000000       8.503750000000
       369    2       88.274625000000       0.835488324700       9.463789360000
       370    2       91.168875000000       5.848438324700       9.463789360000