 # Te16 Nb8
  
        2688  atoms
           2  atom types
 
      0.000000000000     102.272800000000  xlo xhi
      0.000000000000     101.224000000000  ylo yhi
      0.000000000000      18.709300000000  zlo zhi
 
Masses
 
            1   127.60000000            # Te
            2   92.90638000             # Nb
 
Atoms # atomic
 
         1    1        3.652600000000       4.217662449000      11.209321618300
         2    1        0.000000000000      10.544162449000      11.209321618300
         3    2        1.826300000000       3.163250000000       9.354650000000
         4    1        0.000000000000       2.108837551000       7.499978381700
         5    2        5.478900000000       9.489750000000       9.354650000000
         6    2        3.652600000000       0.000000000000       9.354650000000
         7    1        1.826300000000       5.272087551000       7.499978381700
         8    1        3.652600000000       8.435337551000       7.499978381700
         9    2        7.305200000000       6.326500000000       9.354650000000
        10    1        5.478900000000      11.598587551000       7.499978381700
        11    2        0.000000000000       0.000000000000       9.354650000000
        12    2        3.652600000000       6.326500000000       9.354650000000
        13    1        1.826300000000       1.054412449000      11.209321618300
        14    1        5.478900000000       7.380912449000      11.209321618300
        15    1        3.652600000000       2.108837551000       7.499978381700
        16    1        0.000000000000       8.435337551000       7.499978381700
        17    1        7.305200000000       4.217662449000      11.209321618300
        18    1        3.652600000000      10.544162449000      11.209321618300
        19    2        5.478900000000       3.163250000000       9.354650000000
        20    2        1.826300000000       9.489750000000       9.354650000000
        21    1        5.478900000000       1.054412449000      11.209321618300
        22    1        1.826300000000       7.380912449000      11.209321618300
        23    1        5.478900000000       5.272087551000       7.499978381700
        24    1        1.826300000000      11.598587551000       7.499978381700
        25    1       10.957800000000       4.217662449000      11.209321618300
        26    1        7.305200000000      10.544162449000      11.209321618300
        27    2        9.131500000000       3.163250000000       9.354650000000
        28    1        7.305200000000       2.108837551000       7.499978381700
        29    2       12.784100000000       9.489750000000       9.354650000000
        30    2       10.957800000000       0.000000000000       9.354650000000
        31    1        9.131500000000       5.272087551000       7.499978381700
        32    1       10.957800000000       8.435337551000       7.499978381700
        33    2       14.610400000000       6.326500000000       9.354650000000
        34    1       12.784100000000      11.598587551000       7.499978381700
        35    2        7.305200000000       0.000000000000       9.354650000000
        36    2       10.957800000000       6.326500000000       9.354650000000
        37    1        9.131500000000       1.054412449000      11.209321618300
        38    1       12.784100000000       7.380912449000      11.209321618300
        39    1       10.957800000000       2.108837551000       7.499978381700
        40    1        7.305200000000       8.435337551000       7.499978381700
        41    1       14.610400000000       4.217662449000      11.209321618300
        42    1       10.957800000000      10.544162449000      11.209321618300
        43    2       12.784100000000       3.163250000000       9.354650000000
        44    2        9.131500000000       9.489750000000       9.354650000000
        45    1       12.784100000000       1.054412449000      11.209321618300
        46    1        9.131500000000       7.380912449000      11.209321618300
        47    1       12.784100000000       5.272087551000       7.499978381700
        48    1        9.131500000000      11.598587551000       7.499978381700
        49    1       18.263000000000       4.217662449000      11.209321618300
        50    1       14.610400000000      10.544162449000      11.209321618300
        51    2       16.436700000000       3.163250000000       9.354650000000
        52    1       14.610400000000       2.108837551000       7.499978381700
        53    2       20.089300000000       9.489750000000       9.354650000000
        54    2       18.263000000000       0.000000000000       9.354650000000
        55    1       16.436700000000       5.272087551000       7.499978381700
        56    1       18.263000000000       8.435337551000       7.499978381700
        57    2       21.915600000000       6.326500000000       9.354650000000
        58    1       20.089300000000      11.598587551000       7.499978381700
        59    2       14.610400000000       0.000000000000       9.354650000000
        60    2       18.263000000000       6.326500000000       9.354650000000
        61    1       16.436700000000       1.054412449000      11.209321618300
        62    1       20.089300000000       7.380912449000      11.209321618300
        63    1       18.263000000000       2.108837551000       7.499978381700
        64    1       14.610400000000       8.435337551000       7.499978381700
        65    1       21.915600000000       4.217662449000      11.209321618300
        66    1       18.263000000000      10.544162449000      11.209321618300
        67    2       20.089300000000       3.163250000000       9.354650000000
        68    2       16.436700000000       9.489750000000       9.354650000000
        69    1       20.089300000000       1.054412449000      11.209321618300
        70    1       16.436700000000       7.380912449000      11.209321618300
        71    1       20.089300000000       5.272087551000       7.499978381700
        72    1       16.436700000000      11.598587551000       7.499978381700
        73    1       25.568200000000       4.217662449000      11.209321618300
        74    1       21.915600000000      10.544162449000      11.209321618300
        75    2       23.741900000000       3.163250000000       9.354650000000
        76    1       21.915600000000       2.108837551000       7.499978381700
        77    2       27.394500000000       9.489750000000       9.354650000000
        78    2       25.568200000000       0.000000000000       9.354650000000
        79    1       23.741900000000       5.272087551000       7.499978381700
        80    1       25.568200000000       8.435337551000       7.499978381700
        81    2       29.220800000000       6.326500000000       9.354650000000
        82    1       27.394500000000      11.598587551000       7.499978381700
        83    2       21.915600000000       0.000000000000       9.354650000000
        84    2       25.568200000000       6.326500000000       9.354650000000
        85    1       23.741900000000       1.054412449000      11.209321618300
        86    1       27.394500000000       7.380912449000      11.209321618300
        87    1       25.568200000000       2.108837551000       7.499978381700
        88    1       21.915600000000       8.435337551000       7.499978381700
        89    1       29.220800000000       4.217662449000      11.209321618300
        90    1       25.568200000000      10.544162449000      11.209321618300
        91    2       27.394500000000       3.163250000000       9.354650000000
        92    2       23.741900000000       9.489750000000       9.354650000000
        93    1       27.394500000000       1.054412449000      11.209321618300
        94    1       23.741900000000       7.380912449000      11.209321618300
        95    1       27.394500000000       5.272087551000       7.499978381700
        96    1       23.741900000000      11.598587551000       7.499978381700
        97    1       32.873400000000       4.217662449000      11.209321618300
        98    1       29.220800000000      10.544162449000      11.209321618300
        99    2       31.047100000000       3.163250000000       9.354650000000
       100    1       29.220800000000       2.108837551000       7.499978381700
       101    2       34.699700000000       9.489750000000       9.354650000000
       102    2       32.873400000000       0.000000000000       9.354650000000
       103    1       31.047100000000       5.272087551000       7.499978381700
       104    1       32.873400000000       8.435337551000       7.499978381700
       105    2       36.526000000000       6.326500000000       9.354650000000
       106    1       34.699700000000      11.598587551000       7.499978381700
       107    2       29.220800000000       0.000000000000       9.354650000000
       108    2       32.873400000000       6.326500000000       9.354650000000
       109    1       31.047100000000       1.054412449000      11.209321618300
       110    1       34.699700000000       7.380912449000      11.209321618300
       111    1       32.873400000000       2.108837551000       7.499978381700
       112    1       29.220800000000       8.435337551000       7.499978381700
       113    1       36.526000000000       4.217662449000      11.209321618300
       114    1       32.873400000000      10.544162449000      11.209321618300
       115    2       34.699700000000       3.163250000000       9.354650000000
       116    2       31.047100000000       9.489750000000       9.354650000000
       117    1       34.699700000000       1.054412449000      11.209321618300
       118    1       31.047100000000       7.380912449000      11.209321618300
       119    1       34.699700000000       5.272087551000       7.499978381700
       120    1       31.047100000000      11.598587551000       7.499978381700
       121    1       40.178600000000       4.217662449000      11.209321618300
       122    1       36.526000000000      10.544162449000      11.209321618300
       123    2       38.352300000000       3.163250000000       9.354650000000
       124    1       36.526000000000       2.108837551000       7.499978381700
       125    2       42.004900000000       9.489750000000       9.354650000000
       126    2       40.178600000000       0.000000000000       9.354650000000
       127    1       38.352300000000       5.272087551000       7.499978381700
       128    1       40.178600000000       8.435337551000       7.499978381700
       129    2       43.831200000000       6.326500000000       9.354650000000
       130    1       42.004900000000      11.598587551000       7.499978381700
       131    2       36.526000000000       0.000000000000       9.354650000000
       132    2       40.178600000000       6.326500000000       9.354650000000
       133    1       38.352300000000       1.054412449000      11.209321618300
       134    1       42.004900000000       7.380912449000      11.209321618300
       135    1       40.178600000000       2.108837551000       7.499978381700
       136    1       36.526000000000       8.435337551000       7.499978381700
       137    1       43.831200000000       4.217662449000      11.209321618300
       138    1       40.178600000000      10.544162449000      11.209321618300
       139    2       42.004900000000       3.163250000000       9.354650000000
       140    2       38.352300000000       9.489750000000       9.354650000000
       141    1       42.004900000000       1.054412449000      11.209321618300
       142    1       38.352300000000       7.380912449000      11.209321618300
       143    1       42.004900000000       5.272087551000       7.499978381700
       144    1       38.352300000000      11.598587551000       7.499978381700
       145    1       47.483800000000       4.217662449000      11.209321618300
       146    1       43.831200000000      10.544162449000      11.209321618300
       147    2       45.657500000000       3.163250000000       9.354650000000
       148    1       43.831200000000       2.108837551000       7.499978381700
       149    2       49.310100000000       9.489750000000       9.354650000000
       150    2       47.483800000000       0.000000000000       9.354650000000
       151    1       45.657500000000       5.272087551000       7.499978381700
       152    1       47.483800000000       8.435337551000       7.499978381700
       153    2       51.136400000000       6.326500000000       9.354650000000
       154    1       49.310100000000      11.598587551000       7.499978381700
       155    2       43.831200000000       0.000000000000       9.354650000000
       156    2       47.483800000000       6.326500000000       9.354650000000
       157    1       45.657500000000       1.054412449000      11.209321618300
       158    1       49.310100000000       7.380912449000      11.209321618300
       159    1       47.483800000000       2.108837551000       7.499978381700
       160    1       43.831200000000       8.435337551000       7.499978381700
       161    1       51.136400000000       4.217662449000      11.209321618300
       162    1       47.483800000000      10.544162449000      11.209321618300
       163    2       49.310100000000       3.163250000000       9.354650000000
       164    2       45.657500000000       9.489750000000       9.354650000000
       165    1       49.310100000000       1.054412449000      11.209321618300
       166    1       45.657500000000       7.380912449000      11.209321618300
       167    1       49.310100000000       5.272087551000       7.499978381700
       168    1       45.657500000000      11.598587551000       7.499978381700
       169    1       54.789000000000       4.217662449000      11.209321618300
       170    1       51.136400000000      10.544162449000      11.209321618300
       171    2       52.962700000000       3.163250000000       9.354650000000
       172    1       51.136400000000       2.108837551000       7.499978381700
       173    2       56.615300000000       9.489750000000       9.354650000000
       174    2       54.789000000000       0.000000000000       9.354650000000
       175    1       52.962700000000       5.272087551000       7.499978381700
       176    1       54.789000000000       8.435337551000       7.499978381700
       177    2       58.441600000000       6.326500000000       9.354650000000
       178    1       56.615300000000      11.598587551000       7.499978381700
       179    2       51.136400000000       0.000000000000       9.354650000000
       180    2       54.789000000000       6.326500000000       9.354650000000
       181    1       52.962700000000       1.054412449000      11.209321618300
       182    1       56.615300000000       7.380912449000      11.209321618300
       183    1       54.789000000000       2.108837551000       7.499978381700
       184    1       51.136400000000       8.435337551000       7.499978381700
       185    1       58.441600000000       4.217662449000      11.209321618300
       186    1       54.789000000000      10.544162449000      11.209321618300
       187    2       56.615300000000       3.163250000000       9.354650000000
       188    2       52.962700000000       9.489750000000       9.354650000000
       189    1       56.615300000000       1.054412449000      11.209321618300
       190    1       52.962700000000       7.380912449000      11.209321618300
       191    1       56.615300000000       5.272087551000       7.499978381700
       192    1       52.962700000000      11.598587551000       7.499978381700
       193    1       62.094200000000       4.217662449000      11.209321618300
       194    1       58.441600000000      10.544162449000      11.209321618300
       195    2       60.267900000000       3.163250000000       9.354650000000
       196    1       58.441600000000       2.108837551000       7.499978381700
       197    2       63.920500000000       9.489750000000       9.354650000000
       198    2       62.094200000000       0.000000000000       9.354650000000
       199    1       60.267900000000       5.272087551000       7.499978381700
       200    1       62.094200000000       8.435337551000       7.499978381700
       201    2       65.746800000000       6.326500000000       9.354650000000
       202    1       63.920500000000      11.598587551000       7.499978381700
       203    2       58.441600000000       0.000000000000       9.354650000000
       204    2       62.094200000000       6.326500000000       9.354650000000
       205    1       60.267900000000       1.054412449000      11.209321618300
       206    1       63.920500000000       7.380912449000      11.209321618300
       207    1       62.094200000000       2.108837551000       7.499978381700
       208    1       58.441600000000       8.435337551000       7.499978381700
       209    1       65.746800000000       4.217662449000      11.209321618300
       210    1       62.094200000000      10.544162449000      11.209321618300
       211    2       63.920500000000       3.163250000000       9.354650000000
       212    2       60.267900000000       9.489750000000       9.354650000000
       213    1       63.920500000000       1.054412449000      11.209321618300
       214    1       60.267900000000       7.380912449000      11.209321618300
       215    1       63.920500000000       5.272087551000       7.499978381700
       216    1       60.267900000000      11.598587551000       7.499978381700
       217    1       69.399400000000       4.217662449000      11.209321618300
       218    1       65.746800000000      10.544162449000      11.209321618300
       219    2       67.573100000000       3.163250000000       9.354650000000
       220    1       65.746800000000       2.108837551000       7.499978381700
       221    2       71.225700000000       9.489750000000       9.354650000000
       222    2       69.399400000000       0.000000000000       9.354650000000
       223    1       67.573100000000       5.272087551000       7.499978381700
       224    1       69.399400000000       8.435337551000       7.499978381700
       225    2       73.052000000000       6.326500000000       9.354650000000
       226    1       71.225700000000      11.598587551000       7.499978381700
       227    2       65.746800000000       0.000000000000       9.354650000000
       228    2       69.399400000000       6.326500000000       9.354650000000
       229    1       67.573100000000       1.054412449000      11.209321618300
       230    1       71.225700000000       7.380912449000      11.209321618300
       231    1       69.399400000000       2.108837551000       7.499978381700
       232    1       65.746800000000       8.435337551000       7.499978381700
       233    1       73.052000000000       4.217662449000      11.209321618300
       234    1       69.399400000000      10.544162449000      11.209321618300
       235    2       71.225700000000       3.163250000000       9.354650000000
       236    2       67.573100000000       9.489750000000       9.354650000000
       237    1       71.225700000000       1.054412449000      11.209321618300
       238    1       67.573100000000       7.380912449000      11.209321618300
       239    1       71.225700000000       5.272087551000       7.499978381700
       240    1       67.573100000000      11.598587551000       7.499978381700
       241    1       76.704600000000       4.217662449000      11.209321618300
       242    1       73.052000000000      10.544162449000      11.209321618300
       243    2       74.878300000000       3.163250000000       9.354650000000
       244    1       73.052000000000       2.108837551000       7.499978381700
       245    2       78.530900000000       9.489750000000       9.354650000000
       246    2       76.704600000000       0.000000000000       9.354650000000
       247    1       74.878300000000       5.272087551000       7.499978381700
       248    1       76.704600000000       8.435337551000       7.499978381700
       249    2       80.357200000000       6.326500000000       9.354650000000
       250    1       78.530900000000      11.598587551000       7.499978381700
       251    2       73.052000000000       0.000000000000       9.354650000000
       252    2       76.704600000000       6.326500000000       9.354650000000
       253    1       74.878300000000       1.054412449000      11.209321618300
       254    1       78.530900000000       7.380912449000      11.209321618300
       255    1       76.704600000000       2.108837551000       7.499978381700
       256    1       73.052000000000       8.435337551000       7.499978381700
       257    1       80.357200000000       4.217662449000      11.209321618300
       258    1       76.704600000000      10.544162449000      11.209321618300
       259    2       78.530900000000       3.163250000000       9.354650000000
       260    2       74.878300000000       9.489750000000       9.354650000000
       261    1       78.530900000000       1.054412449000      11.209321618300
       262    1       74.878300000000       7.380912449000      11.209321618300
       263    1       78.530900000000       5.272087551000       7.499978381700
       264    1       74.878300000000      11.598587551000       7.499978381700
       265    1       84.009800000000       4.217662449000      11.209321618300
       266    1       80.357200000000      10.544162449000      11.209321618300
       267    2       82.183500000000       3.163250000000       9.354650000000
       268    1       80.357200000000       2.108837551000       7.499978381700
       269    2       85.836100000000       9.489750000000       9.354650000000
       270    2       84.009800000000       0.000000000000       9.354650000000
       271    1       82.183500000000       5.272087551000       7.499978381700
       272    1       84.009800000000       8.435337551000       7.499978381700
       273    2       87.662400000000       6.326500000000       9.354650000000
       274    1       85.836100000000      11.598587551000       7.499978381700
       275    2       80.357200000000       0.000000000000       9.354650000000
       276    2       84.009800000000       6.326500000000       9.354650000000
       277    1       82.183500000000       1.054412449000      11.209321618300
       278    1       85.836100000000       7.380912449000      11.209321618300
       279    1       84.009800000000       2.108837551000       7.499978381700
       280    1       80.357200000000       8.435337551000       7.499978381700
       281    1       87.662400000000       4.217662449000      11.209321618300
       282    1       84.009800000000      10.544162449000      11.209321618300
       283    2       85.836100000000       3.163250000000       9.354650000000
       284    2       82.183500000000       9.489750000000       9.354650000000
       285    1       85.836100000000       1.054412449000      11.209321618300
       286    1       82.183500000000       7.380912449000      11.209321618300
       287    1       85.836100000000       5.272087551000       7.499978381700
       288    1       82.183500000000      11.598587551000       7.499978381700
       289    1       91.315000000000       4.217662449000      11.209321618300
       290    1       87.662400000000      10.544162449000      11.209321618300
       291    2       89.488700000000       3.163250000000       9.354650000000
       292    1       87.662400000000       2.108837551000       7.499978381700
       293    2       93.141300000000       9.489750000000       9.354650000000
       294    2       91.315000000000       0.000000000000       9.354650000000
       295    1       89.488700000000       5.272087551000       7.499978381700
       296    1       91.315000000000       8.435337551000       7.499978381700
       297    2       94.967600000000       6.326500000000       9.354650000000
       298    1       93.141300000000      11.598587551000       7.499978381700
       299    2       87.662400000000       0.000000000000       9.354650000000
       300    2       91.315000000000       6.326500000000       9.354650000000
       301    1       89.488700000000       1.054412449000      11.209321618300
       302    1       93.141300000000       7.380912449000      11.209321618300
       303    1       91.315000000000       2.108837551000       7.499978381700
       304    1       87.662400000000       8.435337551000       7.499978381700
       305    1       94.967600000000       4.217662449000      11.209321618300
       306    1       91.315000000000      10.544162449000      11.209321618300
       307    2       93.141300000000       3.163250000000       9.354650000000
       308    2       89.488700000000       9.489750000000       9.354650000000
       309    1       93.141300000000       1.054412449000      11.209321618300
       310    1       89.488700000000       7.380912449000      11.209321618300
       311    1       93.141300000000       5.272087551000       7.499978381700
       312    1       89.488700000000      11.598587551000       7.499978381700
       313    1       98.620200000000       4.217662449000      11.209321618300
       314    1       94.967600000000      10.544162449000      11.209321618300
       315    2       96.793900000000       3.163250000000       9.354650000000
       316    1       94.967600000000       2.108837551000       7.499978381700
       317    2      100.446500000000       9.489750000000       9.354650000000
       318    2       98.620200000000       0.000000000000       9.354650000000
       319    1       96.793900000000       5.272087551000       7.499978381700
       320    1       98.620200000000       8.435337551000       7.499978381700
       321    2      102.272800000000       6.326500000000       9.354650000000
       322    1      100.446500000000      11.598587551000       7.499978381700
       323    2       94.967600000000       0.000000000000       9.354650000000
       324    2       98.620200000000       6.326500000000       9.354650000000
       325    1       96.793900000000       1.054412449000      11.209321618300
       326    1      100.446500000000       7.380912449000      11.209321618300
       327    1       98.620200000000       2.108837551000       7.499978381700
       328    1       94.967600000000       8.435337551000       7.499978381700
       329    1      102.272800000000       4.217662449000      11.209321618300
       330    1       98.620200000000      10.544162449000      11.209321618300
       331    2      100.446500000000       3.163250000000       9.354650000000
       332    2       96.793900000000       9.489750000000       9.354650000000
       333    1      100.446500000000       1.054412449000      11.209321618300
       334    1       96.793900000000       7.380912449000      11.209321618300
       335    1      100.446500000000       5.272087551000       7.499978381700
       336    1       96.793900000000      11.598587551000       7.499978381700
       337    1        3.652600000000      16.870662449000      11.209321618300
       338    1        0.000000000000      23.197162449000      11.209321618300
       339    2        1.826300000000      15.816250000000       9.354650000000
       340    1        0.000000000000      14.761837551000       7.499978381700
       341    2        5.478900000000      22.142750000000       9.354650000000
       342    2        3.652600000000      12.653000000000       9.354650000000
       343    1        1.826300000000      17.925087551000       7.499978381700
       344    1        3.652600000000      21.088337551000       7.499978381700
       345    2        7.305200000000      18.979500000000       9.354650000000
       346    1        5.478900000000      24.251587551000       7.499978381700
       347    2        0.000000000000      12.653000000000       9.354650000000
       348    2        3.652600000000      18.979500000000       9.354650000000
       349    1        1.826300000000      13.707412449000      11.209321618300
       350    1        5.478900000000      20.033912449000      11.209321618300
       351    1        3.652600000000      14.761837551000       7.499978381700
       352    1        0.000000000000      21.088337551000       7.499978381700
       353    1        7.305200000000      16.870662449000      11.209321618300
       354    1        3.652600000000      23.197162449000      11.209321618300
       355    2        5.478900000000      15.816250000000       9.354650000000
       356    2        1.826300000000      22.142750000000       9.354650000000
       357    1        5.478900000000      13.707412449000      11.209321618300
       358    1        1.826300000000      20.033912449000      11.209321618300
       359    1        5.478900000000      17.925087551000       7.499978381700
       360    1        1.826300000000      24.251587551000       7.499978381700
       361    1       10.957800000000      16.870662449000      11.209321618300
       362    1        7.305200000000      23.197162449000      11.209321618300
       363    2        9.131500000000      15.816250000000       9.354650000000
       364    1        7.305200000000      14.761837551000       7.499978381700
       365    2       12.784100000000      22.142750000000       9.354650000000
       366    2       10.957800000000      12.653000000000       9.354650000000
       367    1        9.131500000000      17.925087551000       7.499978381700
       368    1       10.957800000000      21.088337551000       7.499978381700
       369    2       14.610400000000      18.979500000000       9.354650000000
       370    1       12.784100000000      24.251587551000       7.499978381700