 # S16 Nb8
  
        3240  atoms
           2  atom types
 
      0.000000000000     101.326500000000  xlo xhi
      0.000000000000     105.301800000000  ylo yhi
      0.000000000000      18.054500000000  zlo zhi
 
Masses
 
            1   32.06000000             # S
            2   92.90638000             # Nb
 
Atoms # atomic
 
         1    1        1.688775000000       0.975012766600      10.565060092000
         2    1        3.377550000000       1.950037233400       7.489439908000
         3    2        1.688775000000       2.925050000000       9.027250000000
         4    1        5.066325000000       6.825112766600      10.565060092000
         5    1        3.377550000000       3.900062766600      10.565060092000
         6    1        0.000000000000       1.950037233400       7.489439908000
         7    2        3.377550000000      11.700200000000       9.027250000000
         8    2        5.066325000000       2.925050000000       9.027250000000
         9    1        1.688775000000       4.875087233400       7.489439908000
        10    1        0.000000000000       7.800137233400       7.489439908000
        11    2        5.066325000000       8.775150000000       9.027250000000
        12    1        5.066325000000       0.975012766600      10.565060092000
        13    2        6.755100000000       5.850100000000       9.027250000000
        14    2        1.688775000000       8.775150000000       9.027250000000
        15    1        5.066325000000      10.725187233400       7.489439908000
        16    1        6.755100000000       9.750162766600      10.565060092000
        17    1        1.688775000000       6.825112766600      10.565060092000
        18    1        3.377550000000       7.800137233400       7.489439908000
        19    1        6.755100000000       3.900062766600      10.565060092000
        20    1        5.066325000000       4.875087233400       7.489439908000
        21    1        1.688775000000      10.725187233400       7.489439908000
        22    1        3.377550000000       9.750162766600      10.565060092000
        23    2        0.000000000000      11.700200000000       9.027250000000
        24    2        3.377550000000       5.850100000000       9.027250000000
        25    1        8.443875000000       0.975012766600      10.565060092000
        26    1       10.132650000000       1.950037233400       7.489439908000
        27    2        8.443875000000       2.925050000000       9.027250000000
        28    1       11.821425000000       6.825112766600      10.565060092000
        29    1       10.132650000000       3.900062766600      10.565060092000
        30    1        6.755100000000       1.950037233400       7.489439908000
        31    2       10.132650000000      11.700200000000       9.027250000000
        32    2       11.821425000000       2.925050000000       9.027250000000
        33    1        8.443875000000       4.875087233400       7.489439908000
        34    1        6.755100000000       7.800137233400       7.489439908000
        35    2       11.821425000000       8.775150000000       9.027250000000
        36    1       11.821425000000       0.975012766600      10.565060092000
        37    2       13.510200000000       5.850100000000       9.027250000000
        38    2        8.443875000000       8.775150000000       9.027250000000
        39    1       11.821425000000      10.725187233400       7.489439908000
        40    1       13.510200000000       9.750162766600      10.565060092000
        41    1        8.443875000000       6.825112766600      10.565060092000
        42    1       10.132650000000       7.800137233400       7.489439908000
        43    1       13.510200000000       3.900062766600      10.565060092000
        44    1       11.821425000000       4.875087233400       7.489439908000
        45    1        8.443875000000      10.725187233400       7.489439908000
        46    1       10.132650000000       9.750162766600      10.565060092000
        47    2        6.755100000000      11.700200000000       9.027250000000
        48    2       10.132650000000       5.850100000000       9.027250000000
        49    1       15.198975000000       0.975012766600      10.565060092000
        50    1       16.887750000000       1.950037233400       7.489439908000
        51    2       15.198975000000       2.925050000000       9.027250000000
        52    1       18.576525000000       6.825112766600      10.565060092000
        53    1       16.887750000000       3.900062766600      10.565060092000
        54    1       13.510200000000       1.950037233400       7.489439908000
        55    2       16.887750000000      11.700200000000       9.027250000000
        56    2       18.576525000000       2.925050000000       9.027250000000
        57    1       15.198975000000       4.875087233400       7.489439908000
        58    1       13.510200000000       7.800137233400       7.489439908000
        59    2       18.576525000000       8.775150000000       9.027250000000
        60    1       18.576525000000       0.975012766600      10.565060092000
        61    2       20.265300000000       5.850100000000       9.027250000000
        62    2       15.198975000000       8.775150000000       9.027250000000
        63    1       18.576525000000      10.725187233400       7.489439908000
        64    1       20.265300000000       9.750162766600      10.565060092000
        65    1       15.198975000000       6.825112766600      10.565060092000
        66    1       16.887750000000       7.800137233400       7.489439908000
        67    1       20.265300000000       3.900062766600      10.565060092000
        68    1       18.576525000000       4.875087233400       7.489439908000
        69    1       15.198975000000      10.725187233400       7.489439908000
        70    1       16.887750000000       9.750162766600      10.565060092000
        71    2       13.510200000000      11.700200000000       9.027250000000
        72    2       16.887750000000       5.850100000000       9.027250000000
        73    1       21.954075000000       0.975012766600      10.565060092000
        74    1       23.642850000000       1.950037233400       7.489439908000
        75    2       21.954075000000       2.925050000000       9.027250000000
        76    1       25.331625000000       6.825112766600      10.565060092000
        77    1       23.642850000000       3.900062766600      10.565060092000
        78    1       20.265300000000       1.950037233400       7.489439908000
        79    2       23.642850000000      11.700200000000       9.027250000000
        80    2       25.331625000000       2.925050000000       9.027250000000
        81    1       21.954075000000       4.875087233400       7.489439908000
        82    1       20.265300000000       7.800137233400       7.489439908000
        83    2       25.331625000000       8.775150000000       9.027250000000
        84    1       25.331625000000       0.975012766600      10.565060092000
        85    2       27.020400000000       5.850100000000       9.027250000000
        86    2       21.954075000000       8.775150000000       9.027250000000
        87    1       25.331625000000      10.725187233400       7.489439908000
        88    1       27.020400000000       9.750162766600      10.565060092000
        89    1       21.954075000000       6.825112766600      10.565060092000
        90    1       23.642850000000       7.800137233400       7.489439908000
        91    1       27.020400000000       3.900062766600      10.565060092000
        92    1       25.331625000000       4.875087233400       7.489439908000
        93    1       21.954075000000      10.725187233400       7.489439908000
        94    1       23.642850000000       9.750162766600      10.565060092000
        95    2       20.265300000000      11.700200000000       9.027250000000
        96    2       23.642850000000       5.850100000000       9.027250000000
        97    1       28.709175000000       0.975012766600      10.565060092000
        98    1       30.397950000000       1.950037233400       7.489439908000
        99    2       28.709175000000       2.925050000000       9.027250000000
       100    1       32.086725000000       6.825112766600      10.565060092000
       101    1       30.397950000000       3.900062766600      10.565060092000
       102    1       27.020400000000       1.950037233400       7.489439908000
       103    2       30.397950000000      11.700200000000       9.027250000000
       104    2       32.086725000000       2.925050000000       9.027250000000
       105    1       28.709175000000       4.875087233400       7.489439908000
       106    1       27.020400000000       7.800137233400       7.489439908000
       107    2       32.086725000000       8.775150000000       9.027250000000
       108    1       32.086725000000       0.975012766600      10.565060092000
       109    2       33.775500000000       5.850100000000       9.027250000000
       110    2       28.709175000000       8.775150000000       9.027250000000
       111    1       32.086725000000      10.725187233400       7.489439908000
       112    1       33.775500000000       9.750162766600      10.565060092000
       113    1       28.709175000000       6.825112766600      10.565060092000
       114    1       30.397950000000       7.800137233400       7.489439908000
       115    1       33.775500000000       3.900062766600      10.565060092000
       116    1       32.086725000000       4.875087233400       7.489439908000
       117    1       28.709175000000      10.725187233400       7.489439908000
       118    1       30.397950000000       9.750162766600      10.565060092000
       119    2       27.020400000000      11.700200000000       9.027250000000
       120    2       30.397950000000       5.850100000000       9.027250000000
       121    1       35.464275000000       0.975012766600      10.565060092000
       122    1       37.153050000000       1.950037233400       7.489439908000
       123    2       35.464275000000       2.925050000000       9.027250000000
       124    1       38.841825000000       6.825112766600      10.565060092000
       125    1       37.153050000000       3.900062766600      10.565060092000
       126    1       33.775500000000       1.950037233400       7.489439908000
       127    2       37.153050000000      11.700200000000       9.027250000000
       128    2       38.841825000000       2.925050000000       9.027250000000
       129    1       35.464275000000       4.875087233400       7.489439908000
       130    1       33.775500000000       7.800137233400       7.489439908000
       131    2       38.841825000000       8.775150000000       9.027250000000
       132    1       38.841825000000       0.975012766600      10.565060092000
       133    2       40.530600000000       5.850100000000       9.027250000000
       134    2       35.464275000000       8.775150000000       9.027250000000
       135    1       38.841825000000      10.725187233400       7.489439908000
       136    1       40.530600000000       9.750162766600      10.565060092000
       137    1       35.464275000000       6.825112766600      10.565060092000
       138    1       37.153050000000       7.800137233400       7.489439908000
       139    1       40.530600000000       3.900062766600      10.565060092000
       140    1       38.841825000000       4.875087233400       7.489439908000
       141    1       35.464275000000      10.725187233400       7.489439908000
       142    1       37.153050000000       9.750162766600      10.565060092000
       143    2       33.775500000000      11.700200000000       9.027250000000
       144    2       37.153050000000       5.850100000000       9.027250000000
       145    1       42.219375000000       0.975012766600      10.565060092000
       146    1       43.908150000000       1.950037233400       7.489439908000
       147    2       42.219375000000       2.925050000000       9.027250000000
       148    1       45.596925000000       6.825112766600      10.565060092000
       149    1       43.908150000000       3.900062766600      10.565060092000
       150    1       40.530600000000       1.950037233400       7.489439908000
       151    2       43.908150000000      11.700200000000       9.027250000000
       152    2       45.596925000000       2.925050000000       9.027250000000
       153    1       42.219375000000       4.875087233400       7.489439908000
       154    1       40.530600000000       7.800137233400       7.489439908000
       155    2       45.596925000000       8.775150000000       9.027250000000
       156    1       45.596925000000       0.975012766600      10.565060092000
       157    2       47.285700000000       5.850100000000       9.027250000000
       158    2       42.219375000000       8.775150000000       9.027250000000
       159    1       45.596925000000      10.725187233400       7.489439908000
       160    1       47.285700000000       9.750162766600      10.565060092000
       161    1       42.219375000000       6.825112766600      10.565060092000
       162    1       43.908150000000       7.800137233400       7.489439908000
       163    1       47.285700000000       3.900062766600      10.565060092000
       164    1       45.596925000000       4.875087233400       7.489439908000
       165    1       42.219375000000      10.725187233400       7.489439908000
       166    1       43.908150000000       9.750162766600      10.565060092000
       167    2       40.530600000000      11.700200000000       9.027250000000
       168    2       43.908150000000       5.850100000000       9.027250000000
       169    1       48.974475000000       0.975012766600      10.565060092000
       170    1       50.663250000000       1.950037233400       7.489439908000
       171    2       48.974475000000       2.925050000000       9.027250000000
       172    1       52.352025000000       6.825112766600      10.565060092000
       173    1       50.663250000000       3.900062766600      10.565060092000
       174    1       47.285700000000       1.950037233400       7.489439908000
       175    2       50.663250000000      11.700200000000       9.027250000000
       176    2       52.352025000000       2.925050000000       9.027250000000
       177    1       48.974475000000       4.875087233400       7.489439908000
       178    1       47.285700000000       7.800137233400       7.489439908000
       179    2       52.352025000000       8.775150000000       9.027250000000
       180    1       52.352025000000       0.975012766600      10.565060092000
       181    2       54.040800000000       5.850100000000       9.027250000000
       182    2       48.974475000000       8.775150000000       9.027250000000
       183    1       52.352025000000      10.725187233400       7.489439908000
       184    1       54.040800000000       9.750162766600      10.565060092000
       185    1       48.974475000000       6.825112766600      10.565060092000
       186    1       50.663250000000       7.800137233400       7.489439908000
       187    1       54.040800000000       3.900062766600      10.565060092000
       188    1       52.352025000000       4.875087233400       7.489439908000
       189    1       48.974475000000      10.725187233400       7.489439908000
       190    1       50.663250000000       9.750162766600      10.565060092000
       191    2       47.285700000000      11.700200000000       9.027250000000
       192    2       50.663250000000       5.850100000000       9.027250000000
       193    1       55.729575000000       0.975012766600      10.565060092000
       194    1       57.418350000000       1.950037233400       7.489439908000
       195    2       55.729575000000       2.925050000000       9.027250000000
       196    1       59.107125000000       6.825112766600      10.565060092000
       197    1       57.418350000000       3.900062766600      10.565060092000
       198    1       54.040800000000       1.950037233400       7.489439908000
       199    2       57.418350000000      11.700200000000       9.027250000000
       200    2       59.107125000000       2.925050000000       9.027250000000
       201    1       55.729575000000       4.875087233400       7.489439908000
       202    1       54.040800000000       7.800137233400       7.489439908000
       203    2       59.107125000000       8.775150000000       9.027250000000
       204    1       59.107125000000       0.975012766600      10.565060092000
       205    2       60.795900000000       5.850100000000       9.027250000000
       206    2       55.729575000000       8.775150000000       9.027250000000
       207    1       59.107125000000      10.725187233400       7.489439908000
       208    1       60.795900000000       9.750162766600      10.565060092000
       209    1       55.729575000000       6.825112766600      10.565060092000
       210    1       57.418350000000       7.800137233400       7.489439908000
       211    1       60.795900000000       3.900062766600      10.565060092000
       212    1       59.107125000000       4.875087233400       7.489439908000
       213    1       55.729575000000      10.725187233400       7.489439908000
       214    1       57.418350000000       9.750162766600      10.565060092000
       215    2       54.040800000000      11.700200000000       9.027250000000
       216    2       57.418350000000       5.850100000000       9.027250000000
       217    1       62.484675000000       0.975012766600      10.565060092000
       218    1       64.173450000000       1.950037233400       7.489439908000
       219    2       62.484675000000       2.925050000000       9.027250000000
       220    1       65.862225000000       6.825112766600      10.565060092000
       221    1       64.173450000000       3.900062766600      10.565060092000
       222    1       60.795900000000       1.950037233400       7.489439908000
       223    2       64.173450000000      11.700200000000       9.027250000000
       224    2       65.862225000000       2.925050000000       9.027250000000
       225    1       62.484675000000       4.875087233400       7.489439908000
       226    1       60.795900000000       7.800137233400       7.489439908000
       227    2       65.862225000000       8.775150000000       9.027250000000
       228    1       65.862225000000       0.975012766600      10.565060092000
       229    2       67.551000000000       5.850100000000       9.027250000000
       230    2       62.484675000000       8.775150000000       9.027250000000
       231    1       65.862225000000      10.725187233400       7.489439908000
       232    1       67.551000000000       9.750162766600      10.565060092000
       233    1       62.484675000000       6.825112766600      10.565060092000
       234    1       64.173450000000       7.800137233400       7.489439908000
       235    1       67.551000000000       3.900062766600      10.565060092000
       236    1       65.862225000000       4.875087233400       7.489439908000
       237    1       62.484675000000      10.725187233400       7.489439908000
       238    1       64.173450000000       9.750162766600      10.565060092000
       239    2       60.795900000000      11.700200000000       9.027250000000
       240    2       64.173450000000       5.850100000000       9.027250000000
       241    1       69.239775000000       0.975012766600      10.565060092000
       242    1       70.928550000000       1.950037233400       7.489439908000
       243    2       69.239775000000       2.925050000000       9.027250000000
       244    1       72.617325000000       6.825112766600      10.565060092000
       245    1       70.928550000000       3.900062766600      10.565060092000
       246    1       67.551000000000       1.950037233400       7.489439908000
       247    2       70.928550000000      11.700200000000       9.027250000000
       248    2       72.617325000000       2.925050000000       9.027250000000
       249    1       69.239775000000       4.875087233400       7.489439908000
       250    1       67.551000000000       7.800137233400       7.489439908000
       251    2       72.617325000000       8.775150000000       9.027250000000
       252    1       72.617325000000       0.975012766600      10.565060092000
       253    2       74.306100000000       5.850100000000       9.027250000000
       254    2       69.239775000000       8.775150000000       9.027250000000
       255    1       72.617325000000      10.725187233400       7.489439908000
       256    1       74.306100000000       9.750162766600      10.565060092000
       257    1       69.239775000000       6.825112766600      10.565060092000
       258    1       70.928550000000       7.800137233400       7.489439908000
       259    1       74.306100000000       3.900062766600      10.565060092000
       260    1       72.617325000000       4.875087233400       7.489439908000
       261    1       69.239775000000      10.725187233400       7.489439908000
       262    1       70.928550000000       9.750162766600      10.565060092000
       263    2       67.551000000000      11.700200000000       9.027250000000
       264    2       70.928550000000       5.850100000000       9.027250000000
       265    1       75.994875000000       0.975012766600      10.565060092000
       266    1       77.683650000000       1.950037233400       7.489439908000
       267    2       75.994875000000       2.925050000000       9.027250000000
       268    1       79.372425000000       6.825112766600      10.565060092000
       269    1       77.683650000000       3.900062766600      10.565060092000
       270    1       74.306100000000       1.950037233400       7.489439908000
       271    2       77.683650000000      11.700200000000       9.027250000000
       272    2       79.372425000000       2.925050000000       9.027250000000
       273    1       75.994875000000       4.875087233400       7.489439908000
       274    1       74.306100000000       7.800137233400       7.489439908000
       275    2       79.372425000000       8.775150000000       9.027250000000
       276    1       79.372425000000       0.975012766600      10.565060092000
       277    2       81.061200000000       5.850100000000       9.027250000000
       278    2       75.994875000000       8.775150000000       9.027250000000
       279    1       79.372425000000      10.725187233400       7.489439908000
       280    1       81.061200000000       9.750162766600      10.565060092000
       281    1       75.994875000000       6.825112766600      10.565060092000
       282    1       77.683650000000       7.800137233400       7.489439908000
       283    1       81.061200000000       3.900062766600      10.565060092000
       284    1       79.372425000000       4.875087233400       7.489439908000
       285    1       75.994875000000      10.725187233400       7.489439908000
       286    1       77.683650000000       9.750162766600      10.565060092000
       287    2       74.306100000000      11.700200000000       9.027250000000
       288    2       77.683650000000       5.850100000000       9.027250000000
       289    1       82.749975000000       0.975012766600      10.565060092000
       290    1       84.438750000000       1.950037233400       7.489439908000
       291    2       82.749975000000       2.925050000000       9.027250000000
       292    1       86.127525000000       6.825112766600      10.565060092000
       293    1       84.438750000000       3.900062766600      10.565060092000
       294    1       81.061200000000       1.950037233400       7.489439908000
       295    2       84.438750000000      11.700200000000       9.027250000000
       296    2       86.127525000000       2.925050000000       9.027250000000
       297    1       82.749975000000       4.875087233400       7.489439908000
       298    1       81.061200000000       7.800137233400       7.489439908000
       299    2       86.127525000000       8.775150000000       9.027250000000
       300    1       86.127525000000       0.975012766600      10.565060092000
       301    2       87.816300000000       5.850100000000       9.027250000000
       302    2       82.749975000000       8.775150000000       9.027250000000
       303    1       86.127525000000      10.725187233400       7.489439908000
       304    1       87.816300000000       9.750162766600      10.565060092000
       305    1       82.749975000000       6.825112766600      10.565060092000
       306    1       84.438750000000       7.800137233400       7.489439908000
       307    1       87.816300000000       3.900062766600      10.565060092000
       308    1       86.127525000000       4.875087233400       7.489439908000
       309    1       82.749975000000      10.725187233400       7.489439908000
       310    1       84.438750000000       9.750162766600      10.565060092000
       311    2       81.061200000000      11.700200000000       9.027250000000
       312    2       84.438750000000       5.850100000000       9.027250000000
       313    1       89.505075000000       0.975012766600      10.565060092000
       314    1       91.193850000000       1.950037233400       7.489439908000
       315    2       89.505075000000       2.925050000000       9.027250000000
       316    1       92.882625000000       6.825112766600      10.565060092000
       317    1       91.193850000000       3.900062766600      10.565060092000
       318    1       87.816300000000       1.950037233400       7.489439908000
       319    2       91.193850000000      11.700200000000       9.027250000000
       320    2       92.882625000000       2.925050000000       9.027250000000
       321    1       89.505075000000       4.875087233400       7.489439908000
       322    1       87.816300000000       7.800137233400       7.489439908000
       323    2       92.882625000000       8.775150000000       9.027250000000
       324    1       92.882625000000       0.975012766600      10.565060092000
       325    2       94.571400000000       5.850100000000       9.027250000000
       326    2       89.505075000000       8.775150000000       9.027250000000
       327    1       92.882625000000      10.725187233400       7.489439908000
       328    1       94.571400000000       9.750162766600      10.565060092000
       329    1       89.505075000000       6.825112766600      10.565060092000
       330    1       91.193850000000       7.800137233400       7.489439908000
       331    1       94.571400000000       3.900062766600      10.565060092000
       332    1       92.882625000000       4.875087233400       7.489439908000
       333    1       89.505075000000      10.725187233400       7.489439908000
       334    1       91.193850000000       9.750162766600      10.565060092000
       335    2       87.816300000000      11.700200000000       9.027250000000
       336    2       91.193850000000       5.850100000000       9.027250000000
       337    1       96.260175000000       0.975012766600      10.565060092000
       338    1       97.948950000000       1.950037233400       7.489439908000
       339    2       96.260175000000       2.925050000000       9.027250000000
       340    1       99.637725000000       6.825112766600      10.565060092000
       341    1       97.948950000000       3.900062766600      10.565060092000
       342    1       94.571400000000       1.950037233400       7.489439908000
       343    2       97.948950000000      11.700200000000       9.027250000000
       344    2       99.637725000000       2.925050000000       9.027250000000
       345    1       96.260175000000       4.875087233400       7.489439908000
       346    1       94.571400000000       7.800137233400       7.489439908000
       347    2       99.637725000000       8.775150000000       9.027250000000
       348    1       99.637725000000       0.975012766600      10.565060092000
       349    2      101.326500000000       5.850100000000       9.027250000000
       350    2       96.260175000000       8.775150000000       9.027250000000
       351    1       99.637725000000      10.725187233400       7.489439908000
       352    1      101.326500000000       9.750162766600      10.565060092000
       353    1       96.260175000000       6.825112766600      10.565060092000
       354    1       97.948950000000       7.800137233400       7.489439908000
       355    1      101.326500000000       3.900062766600      10.565060092000
       356    1       99.637725000000       4.875087233400       7.489439908000
       357    1       96.260175000000      10.725187233400       7.489439908000
       358    1       97.948950000000       9.750162766600      10.565060092000
       359    2       94.571400000000      11.700200000000       9.027250000000
       360    2       97.948950000000       5.850100000000       9.027250000000
       361    1        1.688775000000      12.675212766600      10.565060092000
       362    1        3.377550000000      13.650237233400       7.489439908000
       363    2        1.688775000000      14.625250000000       9.027250000000
       364    1        5.066325000000      18.525312766600      10.565060092000
       365    1        3.377550000000      15.600262766600      10.565060092000
       366    1        0.000000000000      13.650237233400       7.489439908000
       367    2        3.377550000000      23.400400000000       9.027250000000
       368    2        5.066325000000      14.625250000000       9.027250000000
       369    1        1.688775000000      16.575287233400       7.489439908000
       370    1        0.000000000000      19.500337233400       7.489439908000