 # Se16 Ni8
  
        2688  atoms
           2  atom types
 
      0.000000000000      99.169000000000  xlo xhi
      0.000000000000      98.152000000000  ylo yhi
      0.000000000000      17.487800000000  zlo zhi
 
Masses
 
            1   78.96000000             # Se
            2   58.69340000             # Ni
 
Atoms # atomic
 
         1    1        3.541750000000       4.089662577000       9.989241213600
         2    1        0.000000000000      10.224162577000       9.989241213600
         3    1        5.312625000000       1.022412577000       9.989241213600
         4    1        1.770875000000       7.156912577000       9.989241213600
         5    2        3.541750000000       0.000000000000       8.743900000000
         6    1        0.000000000000       2.044837423000       7.498558786400
         7    2        0.000000000000       6.134500000000       8.743900000000
         8    1        3.541750000000       8.179337423000       7.498558786400
         9    1        1.770875000000       5.112087423000       7.498558786400
        10    1        5.312625000000      11.246587423000       7.498558786400
        11    1        0.000000000000       4.089662577000       9.989241213600
        12    1        3.541750000000      10.224162577000       9.989241213600
        13    1        5.312625000000       5.112087423000       7.498558786400
        14    1        1.770875000000      11.246587423000       7.498558786400
        15    2        1.770875000000       3.067250000000       8.743900000000
        16    2        5.312625000000       9.201750000000       8.743900000000
        17    2        5.312625000000       3.067250000000       8.743900000000
        18    2        1.770875000000       9.201750000000       8.743900000000
        19    2        0.000000000000       0.000000000000       8.743900000000
        20    2        3.541750000000       6.134500000000       8.743900000000
        21    1        3.541750000000       2.044837423000       7.498558786400
        22    1        0.000000000000       8.179337423000       7.498558786400
        23    1        1.770875000000       1.022412577000       9.989241213600
        24    1        5.312625000000       7.156912577000       9.989241213600
        25    1       10.625250000000       4.089662577000       9.989241213600
        26    1        7.083500000000      10.224162577000       9.989241213600
        27    1       12.396125000000       1.022412577000       9.989241213600
        28    1        8.854375000000       7.156912577000       9.989241213600
        29    2       10.625250000000       0.000000000000       8.743900000000
        30    1        7.083500000000       2.044837423000       7.498558786400
        31    2        7.083500000000       6.134500000000       8.743900000000
        32    1       10.625250000000       8.179337423000       7.498558786400
        33    1        8.854375000000       5.112087423000       7.498558786400
        34    1       12.396125000000      11.246587423000       7.498558786400
        35    1        7.083500000000       4.089662577000       9.989241213600
        36    1       10.625250000000      10.224162577000       9.989241213600
        37    1       12.396125000000       5.112087423000       7.498558786400
        38    1        8.854375000000      11.246587423000       7.498558786400
        39    2        8.854375000000       3.067250000000       8.743900000000
        40    2       12.396125000000       9.201750000000       8.743900000000
        41    2       12.396125000000       3.067250000000       8.743900000000
        42    2        8.854375000000       9.201750000000       8.743900000000
        43    2        7.083500000000       0.000000000000       8.743900000000
        44    2       10.625250000000       6.134500000000       8.743900000000
        45    1       10.625250000000       2.044837423000       7.498558786400
        46    1        7.083500000000       8.179337423000       7.498558786400
        47    1        8.854375000000       1.022412577000       9.989241213600
        48    1       12.396125000000       7.156912577000       9.989241213600
        49    1       17.708750000000       4.089662577000       9.989241213600
        50    1       14.167000000000      10.224162577000       9.989241213600
        51    1       19.479625000000       1.022412577000       9.989241213600
        52    1       15.937875000000       7.156912577000       9.989241213600
        53    2       17.708750000000       0.000000000000       8.743900000000
        54    1       14.167000000000       2.044837423000       7.498558786400
        55    2       14.167000000000       6.134500000000       8.743900000000
        56    1       17.708750000000       8.179337423000       7.498558786400
        57    1       15.937875000000       5.112087423000       7.498558786400
        58    1       19.479625000000      11.246587423000       7.498558786400
        59    1       14.167000000000       4.089662577000       9.989241213600
        60    1       17.708750000000      10.224162577000       9.989241213600
        61    1       19.479625000000       5.112087423000       7.498558786400
        62    1       15.937875000000      11.246587423000       7.498558786400
        63    2       15.937875000000       3.067250000000       8.743900000000
        64    2       19.479625000000       9.201750000000       8.743900000000
        65    2       19.479625000000       3.067250000000       8.743900000000
        66    2       15.937875000000       9.201750000000       8.743900000000
        67    2       14.167000000000       0.000000000000       8.743900000000
        68    2       17.708750000000       6.134500000000       8.743900000000
        69    1       17.708750000000       2.044837423000       7.498558786400
        70    1       14.167000000000       8.179337423000       7.498558786400
        71    1       15.937875000000       1.022412577000       9.989241213600
        72    1       19.479625000000       7.156912577000       9.989241213600
        73    1       24.792250000000       4.089662577000       9.989241213600
        74    1       21.250500000000      10.224162577000       9.989241213600
        75    1       26.563125000000       1.022412577000       9.989241213600
        76    1       23.021375000000       7.156912577000       9.989241213600
        77    2       24.792250000000       0.000000000000       8.743900000000
        78    1       21.250500000000       2.044837423000       7.498558786400
        79    2       21.250500000000       6.134500000000       8.743900000000
        80    1       24.792250000000       8.179337423000       7.498558786400
        81    1       23.021375000000       5.112087423000       7.498558786400
        82    1       26.563125000000      11.246587423000       7.498558786400
        83    1       21.250500000000       4.089662577000       9.989241213600
        84    1       24.792250000000      10.224162577000       9.989241213600
        85    1       26.563125000000       5.112087423000       7.498558786400
        86    1       23.021375000000      11.246587423000       7.498558786400
        87    2       23.021375000000       3.067250000000       8.743900000000
        88    2       26.563125000000       9.201750000000       8.743900000000
        89    2       26.563125000000       3.067250000000       8.743900000000
        90    2       23.021375000000       9.201750000000       8.743900000000
        91    2       21.250500000000       0.000000000000       8.743900000000
        92    2       24.792250000000       6.134500000000       8.743900000000
        93    1       24.792250000000       2.044837423000       7.498558786400
        94    1       21.250500000000       8.179337423000       7.498558786400
        95    1       23.021375000000       1.022412577000       9.989241213600
        96    1       26.563125000000       7.156912577000       9.989241213600
        97    1       31.875750000000       4.089662577000       9.989241213600
        98    1       28.334000000000      10.224162577000       9.989241213600
        99    1       33.646625000000       1.022412577000       9.989241213600
       100    1       30.104875000000       7.156912577000       9.989241213600
       101    2       31.875750000000       0.000000000000       8.743900000000
       102    1       28.334000000000       2.044837423000       7.498558786400
       103    2       28.334000000000       6.134500000000       8.743900000000
       104    1       31.875750000000       8.179337423000       7.498558786400
       105    1       30.104875000000       5.112087423000       7.498558786400
       106    1       33.646625000000      11.246587423000       7.498558786400
       107    1       28.334000000000       4.089662577000       9.989241213600
       108    1       31.875750000000      10.224162577000       9.989241213600
       109    1       33.646625000000       5.112087423000       7.498558786400
       110    1       30.104875000000      11.246587423000       7.498558786400
       111    2       30.104875000000       3.067250000000       8.743900000000
       112    2       33.646625000000       9.201750000000       8.743900000000
       113    2       33.646625000000       3.067250000000       8.743900000000
       114    2       30.104875000000       9.201750000000       8.743900000000
       115    2       28.334000000000       0.000000000000       8.743900000000
       116    2       31.875750000000       6.134500000000       8.743900000000
       117    1       31.875750000000       2.044837423000       7.498558786400
       118    1       28.334000000000       8.179337423000       7.498558786400
       119    1       30.104875000000       1.022412577000       9.989241213600
       120    1       33.646625000000       7.156912577000       9.989241213600
       121    1       38.959250000000       4.089662577000       9.989241213600
       122    1       35.417500000000      10.224162577000       9.989241213600
       123    1       40.730125000000       1.022412577000       9.989241213600
       124    1       37.188375000000       7.156912577000       9.989241213600
       125    2       38.959250000000       0.000000000000       8.743900000000
       126    1       35.417500000000       2.044837423000       7.498558786400
       127    2       35.417500000000       6.134500000000       8.743900000000
       128    1       38.959250000000       8.179337423000       7.498558786400
       129    1       37.188375000000       5.112087423000       7.498558786400
       130    1       40.730125000000      11.246587423000       7.498558786400
       131    1       35.417500000000       4.089662577000       9.989241213600
       132    1       38.959250000000      10.224162577000       9.989241213600
       133    1       40.730125000000       5.112087423000       7.498558786400
       134    1       37.188375000000      11.246587423000       7.498558786400
       135    2       37.188375000000       3.067250000000       8.743900000000
       136    2       40.730125000000       9.201750000000       8.743900000000
       137    2       40.730125000000       3.067250000000       8.743900000000
       138    2       37.188375000000       9.201750000000       8.743900000000
       139    2       35.417500000000       0.000000000000       8.743900000000
       140    2       38.959250000000       6.134500000000       8.743900000000
       141    1       38.959250000000       2.044837423000       7.498558786400
       142    1       35.417500000000       8.179337423000       7.498558786400
       143    1       37.188375000000       1.022412577000       9.989241213600
       144    1       40.730125000000       7.156912577000       9.989241213600
       145    1       46.042750000000       4.089662577000       9.989241213600
       146    1       42.501000000000      10.224162577000       9.989241213600
       147    1       47.813625000000       1.022412577000       9.989241213600
       148    1       44.271875000000       7.156912577000       9.989241213600
       149    2       46.042750000000       0.000000000000       8.743900000000
       150    1       42.501000000000       2.044837423000       7.498558786400
       151    2       42.501000000000       6.134500000000       8.743900000000
       152    1       46.042750000000       8.179337423000       7.498558786400
       153    1       44.271875000000       5.112087423000       7.498558786400
       154    1       47.813625000000      11.246587423000       7.498558786400
       155    1       42.501000000000       4.089662577000       9.989241213600
       156    1       46.042750000000      10.224162577000       9.989241213600
       157    1       47.813625000000       5.112087423000       7.498558786400
       158    1       44.271875000000      11.246587423000       7.498558786400
       159    2       44.271875000000       3.067250000000       8.743900000000
       160    2       47.813625000000       9.201750000000       8.743900000000
       161    2       47.813625000000       3.067250000000       8.743900000000
       162    2       44.271875000000       9.201750000000       8.743900000000
       163    2       42.501000000000       0.000000000000       8.743900000000
       164    2       46.042750000000       6.134500000000       8.743900000000
       165    1       46.042750000000       2.044837423000       7.498558786400
       166    1       42.501000000000       8.179337423000       7.498558786400
       167    1       44.271875000000       1.022412577000       9.989241213600
       168    1       47.813625000000       7.156912577000       9.989241213600
       169    1       53.126250000000       4.089662577000       9.989241213600
       170    1       49.584500000000      10.224162577000       9.989241213600
       171    1       54.897125000000       1.022412577000       9.989241213600
       172    1       51.355375000000       7.156912577000       9.989241213600
       173    2       53.126250000000       0.000000000000       8.743900000000
       174    1       49.584500000000       2.044837423000       7.498558786400
       175    2       49.584500000000       6.134500000000       8.743900000000
       176    1       53.126250000000       8.179337423000       7.498558786400
       177    1       51.355375000000       5.112087423000       7.498558786400
       178    1       54.897125000000      11.246587423000       7.498558786400
       179    1       49.584500000000       4.089662577000       9.989241213600
       180    1       53.126250000000      10.224162577000       9.989241213600
       181    1       54.897125000000       5.112087423000       7.498558786400
       182    1       51.355375000000      11.246587423000       7.498558786400
       183    2       51.355375000000       3.067250000000       8.743900000000
       184    2       54.897125000000       9.201750000000       8.743900000000
       185    2       54.897125000000       3.067250000000       8.743900000000
       186    2       51.355375000000       9.201750000000       8.743900000000
       187    2       49.584500000000       0.000000000000       8.743900000000
       188    2       53.126250000000       6.134500000000       8.743900000000
       189    1       53.126250000000       2.044837423000       7.498558786400
       190    1       49.584500000000       8.179337423000       7.498558786400
       191    1       51.355375000000       1.022412577000       9.989241213600
       192    1       54.897125000000       7.156912577000       9.989241213600
       193    1       60.209750000000       4.089662577000       9.989241213600
       194    1       56.668000000000      10.224162577000       9.989241213600
       195    1       61.980625000000       1.022412577000       9.989241213600
       196    1       58.438875000000       7.156912577000       9.989241213600
       197    2       60.209750000000       0.000000000000       8.743900000000
       198    1       56.668000000000       2.044837423000       7.498558786400
       199    2       56.668000000000       6.134500000000       8.743900000000
       200    1       60.209750000000       8.179337423000       7.498558786400
       201    1       58.438875000000       5.112087423000       7.498558786400
       202    1       61.980625000000      11.246587423000       7.498558786400
       203    1       56.668000000000       4.089662577000       9.989241213600
       204    1       60.209750000000      10.224162577000       9.989241213600
       205    1       61.980625000000       5.112087423000       7.498558786400
       206    1       58.438875000000      11.246587423000       7.498558786400
       207    2       58.438875000000       3.067250000000       8.743900000000
       208    2       61.980625000000       9.201750000000       8.743900000000
       209    2       61.980625000000       3.067250000000       8.743900000000
       210    2       58.438875000000       9.201750000000       8.743900000000
       211    2       56.668000000000       0.000000000000       8.743900000000
       212    2       60.209750000000       6.134500000000       8.743900000000
       213    1       60.209750000000       2.044837423000       7.498558786400
       214    1       56.668000000000       8.179337423000       7.498558786400
       215    1       58.438875000000       1.022412577000       9.989241213600
       216    1       61.980625000000       7.156912577000       9.989241213600
       217    1       67.293250000000       4.089662577000       9.989241213600
       218    1       63.751500000000      10.224162577000       9.989241213600
       219    1       69.064125000000       1.022412577000       9.989241213600
       220    1       65.522375000000       7.156912577000       9.989241213600
       221    2       67.293250000000       0.000000000000       8.743900000000
       222    1       63.751500000000       2.044837423000       7.498558786400
       223    2       63.751500000000       6.134500000000       8.743900000000
       224    1       67.293250000000       8.179337423000       7.498558786400
       225    1       65.522375000000       5.112087423000       7.498558786400
       226    1       69.064125000000      11.246587423000       7.498558786400
       227    1       63.751500000000       4.089662577000       9.989241213600
       228    1       67.293250000000      10.224162577000       9.989241213600
       229    1       69.064125000000       5.112087423000       7.498558786400
       230    1       65.522375000000      11.246587423000       7.498558786400
       231    2       65.522375000000       3.067250000000       8.743900000000
       232    2       69.064125000000       9.201750000000       8.743900000000
       233    2       69.064125000000       3.067250000000       8.743900000000
       234    2       65.522375000000       9.201750000000       8.743900000000
       235    2       63.751500000000       0.000000000000       8.743900000000
       236    2       67.293250000000       6.134500000000       8.743900000000
       237    1       67.293250000000       2.044837423000       7.498558786400
       238    1       63.751500000000       8.179337423000       7.498558786400
       239    1       65.522375000000       1.022412577000       9.989241213600
       240    1       69.064125000000       7.156912577000       9.989241213600
       241    1       74.376750000000       4.089662577000       9.989241213600
       242    1       70.835000000000      10.224162577000       9.989241213600
       243    1       76.147625000000       1.022412577000       9.989241213600
       244    1       72.605875000000       7.156912577000       9.989241213600
       245    2       74.376750000000       0.000000000000       8.743900000000
       246    1       70.835000000000       2.044837423000       7.498558786400
       247    2       70.835000000000       6.134500000000       8.743900000000
       248    1       74.376750000000       8.179337423000       7.498558786400
       249    1       72.605875000000       5.112087423000       7.498558786400
       250    1       76.147625000000      11.246587423000       7.498558786400
       251    1       70.835000000000       4.089662577000       9.989241213600
       252    1       74.376750000000      10.224162577000       9.989241213600
       253    1       76.147625000000       5.112087423000       7.498558786400
       254    1       72.605875000000      11.246587423000       7.498558786400
       255    2       72.605875000000       3.067250000000       8.743900000000
       256    2       76.147625000000       9.201750000000       8.743900000000
       257    2       76.147625000000       3.067250000000       8.743900000000
       258    2       72.605875000000       9.201750000000       8.743900000000
       259    2       70.835000000000       0.000000000000       8.743900000000
       260    2       74.376750000000       6.134500000000       8.743900000000
       261    1       74.376750000000       2.044837423000       7.498558786400
       262    1       70.835000000000       8.179337423000       7.498558786400
       263    1       72.605875000000       1.022412577000       9.989241213600
       264    1       76.147625000000       7.156912577000       9.989241213600
       265    1       81.460250000000       4.089662577000       9.989241213600
       266    1       77.918500000000      10.224162577000       9.989241213600
       267    1       83.231125000000       1.022412577000       9.989241213600
       268    1       79.689375000000       7.156912577000       9.989241213600
       269    2       81.460250000000       0.000000000000       8.743900000000
       270    1       77.918500000000       2.044837423000       7.498558786400
       271    2       77.918500000000       6.134500000000       8.743900000000
       272    1       81.460250000000       8.179337423000       7.498558786400
       273    1       79.689375000000       5.112087423000       7.498558786400
       274    1       83.231125000000      11.246587423000       7.498558786400
       275    1       77.918500000000       4.089662577000       9.989241213600
       276    1       81.460250000000      10.224162577000       9.989241213600
       277    1       83.231125000000       5.112087423000       7.498558786400
       278    1       79.689375000000      11.246587423000       7.498558786400
       279    2       79.689375000000       3.067250000000       8.743900000000
       280    2       83.231125000000       9.201750000000       8.743900000000
       281    2       83.231125000000       3.067250000000       8.743900000000
       282    2       79.689375000000       9.201750000000       8.743900000000
       283    2       77.918500000000       0.000000000000       8.743900000000
       284    2       81.460250000000       6.134500000000       8.743900000000
       285    1       81.460250000000       2.044837423000       7.498558786400
       286    1       77.918500000000       8.179337423000       7.498558786400
       287    1       79.689375000000       1.022412577000       9.989241213600
       288    1       83.231125000000       7.156912577000       9.989241213600
       289    1       88.543750000000       4.089662577000       9.989241213600
       290    1       85.002000000000      10.224162577000       9.989241213600
       291    1       90.314625000000       1.022412577000       9.989241213600
       292    1       86.772875000000       7.156912577000       9.989241213600
       293    2       88.543750000000       0.000000000000       8.743900000000
       294    1       85.002000000000       2.044837423000       7.498558786400
       295    2       85.002000000000       6.134500000000       8.743900000000
       296    1       88.543750000000       8.179337423000       7.498558786400
       297    1       86.772875000000       5.112087423000       7.498558786400
       298    1       90.314625000000      11.246587423000       7.498558786400
       299    1       85.002000000000       4.089662577000       9.989241213600
       300    1       88.543750000000      10.224162577000       9.989241213600
       301    1       90.314625000000       5.112087423000       7.498558786400
       302    1       86.772875000000      11.246587423000       7.498558786400
       303    2       86.772875000000       3.067250000000       8.743900000000
       304    2       90.314625000000       9.201750000000       8.743900000000
       305    2       90.314625000000       3.067250000000       8.743900000000
       306    2       86.772875000000       9.201750000000       8.743900000000
       307    2       85.002000000000       0.000000000000       8.743900000000
       308    2       88.543750000000       6.134500000000       8.743900000000
       309    1       88.543750000000       2.044837423000       7.498558786400
       310    1       85.002000000000       8.179337423000       7.498558786400
       311    1       86.772875000000       1.022412577000       9.989241213600
       312    1       90.314625000000       7.156912577000       9.989241213600
       313    1       95.627250000000       4.089662577000       9.989241213600
       314    1       92.085500000000      10.224162577000       9.989241213600
       315    1       97.398125000000       1.022412577000       9.989241213600
       316    1       93.856375000000       7.156912577000       9.989241213600
       317    2       95.627250000000       0.000000000000       8.743900000000
       318    1       92.085500000000       2.044837423000       7.498558786400
       319    2       92.085500000000       6.134500000000       8.743900000000
       320    1       95.627250000000       8.179337423000       7.498558786400
       321    1       93.856375000000       5.112087423000       7.498558786400
       322    1       97.398125000000      11.246587423000       7.498558786400
       323    1       92.085500000000       4.089662577000       9.989241213600
       324    1       95.627250000000      10.224162577000       9.989241213600
       325    1       97.398125000000       5.112087423000       7.498558786400
       326    1       93.856375000000      11.246587423000       7.498558786400
       327    2       93.856375000000       3.067250000000       8.743900000000
       328    2       97.398125000000       9.201750000000       8.743900000000
       329    2       97.398125000000       3.067250000000       8.743900000000
       330    2       93.856375000000       9.201750000000       8.743900000000
       331    2       92.085500000000       0.000000000000       8.743900000000
       332    2       95.627250000000       6.134500000000       8.743900000000
       333    1       95.627250000000       2.044837423000       7.498558786400
       334    1       92.085500000000       8.179337423000       7.498558786400
       335    1       93.856375000000       1.022412577000       9.989241213600
       336    1       97.398125000000       7.156912577000       9.989241213600
       337    1        3.541750000000      16.358662577000       9.989241213600
       338    1        0.000000000000      22.493162577000       9.989241213600
       339    1        5.312625000000      13.291412577000       9.989241213600
       340    1        1.770875000000      19.425912577000       9.989241213600
       341    2        3.541750000000      12.269000000000       8.743900000000
       342    1        0.000000000000      14.313837423000       7.498558786400
       343    2        0.000000000000      18.403500000000       8.743900000000
       344    1        3.541750000000      20.448337423000       7.498558786400
       345    1        1.770875000000      17.381087423000       7.498558786400
       346    1        5.312625000000      23.515587423000       7.498558786400
       347    1        0.000000000000      16.358662577000       9.989241213600
       348    1        3.541750000000      22.493162577000       9.989241213600
       349    1        5.312625000000      17.381087423000       7.498558786400
       350    1        1.770875000000      23.515587423000       7.498558786400
       351    2        1.770875000000      15.336250000000       8.743900000000
       352    2        5.312625000000      21.470750000000       8.743900000000
       353    2        5.312625000000      15.336250000000       8.743900000000
       354    2        1.770875000000      21.470750000000       8.743900000000
       355    2        0.000000000000      12.269000000000       8.743900000000
       356    2        3.541750000000      18.403500000000       8.743900000000
       357    1        3.541750000000      14.313837423000       7.498558786400
       358    1        0.000000000000      20.448337423000       7.498558786400
       359    1        1.770875000000      13.291412577000       9.989241213600
       360    1        5.312625000000      19.425912577000       9.989241213600
       361    1       10.625250000000      16.358662577000       9.989241213600
       362    1        7.083500000000      22.493162577000       9.989241213600
       363    1       12.396125000000      13.291412577000       9.989241213600
       364    1        8.854375000000      19.425912577000       9.989241213600
       365    2       10.625250000000      12.269000000000       8.743900000000
       366    1        7.083500000000      14.313837423000       7.498558786400
       367    2        7.083500000000      18.403500000000       8.743900000000
       368    1       10.625250000000      20.448337423000       7.498558786400
       369    1        8.854375000000      17.381087423000       7.498558786400
       370    1       12.396125000000      23.515587423000       7.498558786400