 # Ni8 Te16
  
        2496  atoms
           2  atom types
 
      0.000000000000      98.368400000000  xlo xhi
      0.000000000000     104.848800000000  ylo yhi
      0.000000000000      17.704300000000  zlo zhi
 
Masses
 
            1   58.69340000             # Ni
            2   127.60000000            # Te
 
Atoms # atomic
 
         1    1        0.000000000000      13.106100000000       8.852150000000
         2    1        3.783400000000       6.553050000000       8.852150000000
         3    2        1.891700000000       5.460879368700       7.495398673800
         4    2        5.675100000000      12.013929368700       7.495398673800
         5    1        1.891700000000       3.276525000000       8.852150000000
         6    1        5.675100000000       3.276525000000       8.852150000000
         7    2        3.783400000000       2.184354368700       7.495398673800
         8    1        1.891700000000       9.829575000000       8.852150000000
         9    2        5.675100000000       5.460879368700       7.495398673800
        10    1        5.675100000000       9.829575000000       8.852150000000
        11    2        1.891700000000      12.013929368700       7.495398673800
        12    2        0.000000000000       8.737404368700       7.495398673800
        13    2        0.000000000000       4.368695631300      10.208901326200
        14    2        3.783400000000      10.921745631300      10.208901326200
        15    1        3.783400000000      13.106100000000       8.852150000000
        16    1        0.000000000000       6.553050000000       8.852150000000
        17    2        5.675100000000       1.092170631300      10.208901326200
        18    2        1.891700000000       7.645220631300      10.208901326200
        19    2        1.891700000000       1.092170631300      10.208901326200
        20    2        5.675100000000       7.645220631300      10.208901326200
        21    2        0.000000000000       2.184354368700       7.495398673800
        22    2        3.783400000000       8.737404368700       7.495398673800
        23    2        3.783400000000       4.368695631300      10.208901326200
        24    2        0.000000000000      10.921745631300      10.208901326200
        25    1        7.566800000000      13.106100000000       8.852150000000
        26    1       11.350200000000       6.553050000000       8.852150000000
        27    2        9.458500000000       5.460879368700       7.495398673800
        28    2       13.241900000000      12.013929368700       7.495398673800
        29    1        9.458500000000       3.276525000000       8.852150000000
        30    1       13.241900000000       3.276525000000       8.852150000000
        31    2       11.350200000000       2.184354368700       7.495398673800
        32    1        9.458500000000       9.829575000000       8.852150000000
        33    2       13.241900000000       5.460879368700       7.495398673800
        34    1       13.241900000000       9.829575000000       8.852150000000
        35    2        9.458500000000      12.013929368700       7.495398673800
        36    2        7.566800000000       8.737404368700       7.495398673800
        37    2        7.566800000000       4.368695631300      10.208901326200
        38    2       11.350200000000      10.921745631300      10.208901326200
        39    1       11.350200000000      13.106100000000       8.852150000000
        40    1        7.566800000000       6.553050000000       8.852150000000
        41    2       13.241900000000       1.092170631300      10.208901326200
        42    2        9.458500000000       7.645220631300      10.208901326200
        43    2        9.458500000000       1.092170631300      10.208901326200
        44    2       13.241900000000       7.645220631300      10.208901326200
        45    2        7.566800000000       2.184354368700       7.495398673800
        46    2       11.350200000000       8.737404368700       7.495398673800
        47    2       11.350200000000       4.368695631300      10.208901326200
        48    2        7.566800000000      10.921745631300      10.208901326200
        49    1       15.133600000000      13.106100000000       8.852150000000
        50    1       18.917000000000       6.553050000000       8.852150000000
        51    2       17.025300000000       5.460879368700       7.495398673800
        52    2       20.808700000000      12.013929368700       7.495398673800
        53    1       17.025300000000       3.276525000000       8.852150000000
        54    1       20.808700000000       3.276525000000       8.852150000000
        55    2       18.917000000000       2.184354368700       7.495398673800
        56    1       17.025300000000       9.829575000000       8.852150000000
        57    2       20.808700000000       5.460879368700       7.495398673800
        58    1       20.808700000000       9.829575000000       8.852150000000
        59    2       17.025300000000      12.013929368700       7.495398673800
        60    2       15.133600000000       8.737404368700       7.495398673800
        61    2       15.133600000000       4.368695631300      10.208901326200
        62    2       18.917000000000      10.921745631300      10.208901326200
        63    1       18.917000000000      13.106100000000       8.852150000000
        64    1       15.133600000000       6.553050000000       8.852150000000
        65    2       20.808700000000       1.092170631300      10.208901326200
        66    2       17.025300000000       7.645220631300      10.208901326200
        67    2       17.025300000000       1.092170631300      10.208901326200
        68    2       20.808700000000       7.645220631300      10.208901326200
        69    2       15.133600000000       2.184354368700       7.495398673800
        70    2       18.917000000000       8.737404368700       7.495398673800
        71    2       18.917000000000       4.368695631300      10.208901326200
        72    2       15.133600000000      10.921745631300      10.208901326200
        73    1       22.700400000000      13.106100000000       8.852150000000
        74    1       26.483800000000       6.553050000000       8.852150000000
        75    2       24.592100000000       5.460879368700       7.495398673800
        76    2       28.375500000000      12.013929368700       7.495398673800
        77    1       24.592100000000       3.276525000000       8.852150000000
        78    1       28.375500000000       3.276525000000       8.852150000000
        79    2       26.483800000000       2.184354368700       7.495398673800
        80    1       24.592100000000       9.829575000000       8.852150000000
        81    2       28.375500000000       5.460879368700       7.495398673800
        82    1       28.375500000000       9.829575000000       8.852150000000
        83    2       24.592100000000      12.013929368700       7.495398673800
        84    2       22.700400000000       8.737404368700       7.495398673800
        85    2       22.700400000000       4.368695631300      10.208901326200
        86    2       26.483800000000      10.921745631300      10.208901326200
        87    1       26.483800000000      13.106100000000       8.852150000000
        88    1       22.700400000000       6.553050000000       8.852150000000
        89    2       28.375500000000       1.092170631300      10.208901326200
        90    2       24.592100000000       7.645220631300      10.208901326200
        91    2       24.592100000000       1.092170631300      10.208901326200
        92    2       28.375500000000       7.645220631300      10.208901326200
        93    2       22.700400000000       2.184354368700       7.495398673800
        94    2       26.483800000000       8.737404368700       7.495398673800
        95    2       26.483800000000       4.368695631300      10.208901326200
        96    2       22.700400000000      10.921745631300      10.208901326200
        97    1       30.267200000000      13.106100000000       8.852150000000
        98    1       34.050600000000       6.553050000000       8.852150000000
        99    2       32.158900000000       5.460879368700       7.495398673800
       100    2       35.942300000000      12.013929368700       7.495398673800
       101    1       32.158900000000       3.276525000000       8.852150000000
       102    1       35.942300000000       3.276525000000       8.852150000000
       103    2       34.050600000000       2.184354368700       7.495398673800
       104    1       32.158900000000       9.829575000000       8.852150000000
       105    2       35.942300000000       5.460879368700       7.495398673800
       106    1       35.942300000000       9.829575000000       8.852150000000
       107    2       32.158900000000      12.013929368700       7.495398673800
       108    2       30.267200000000       8.737404368700       7.495398673800
       109    2       30.267200000000       4.368695631300      10.208901326200
       110    2       34.050600000000      10.921745631300      10.208901326200
       111    1       34.050600000000      13.106100000000       8.852150000000
       112    1       30.267200000000       6.553050000000       8.852150000000
       113    2       35.942300000000       1.092170631300      10.208901326200
       114    2       32.158900000000       7.645220631300      10.208901326200
       115    2       32.158900000000       1.092170631300      10.208901326200
       116    2       35.942300000000       7.645220631300      10.208901326200
       117    2       30.267200000000       2.184354368700       7.495398673800
       118    2       34.050600000000       8.737404368700       7.495398673800
       119    2       34.050600000000       4.368695631300      10.208901326200
       120    2       30.267200000000      10.921745631300      10.208901326200
       121    1       37.834000000000      13.106100000000       8.852150000000
       122    1       41.617400000000       6.553050000000       8.852150000000
       123    2       39.725700000000       5.460879368700       7.495398673800
       124    2       43.509100000000      12.013929368700       7.495398673800
       125    1       39.725700000000       3.276525000000       8.852150000000
       126    1       43.509100000000       3.276525000000       8.852150000000
       127    2       41.617400000000       2.184354368700       7.495398673800
       128    1       39.725700000000       9.829575000000       8.852150000000
       129    2       43.509100000000       5.460879368700       7.495398673800
       130    1       43.509100000000       9.829575000000       8.852150000000
       131    2       39.725700000000      12.013929368700       7.495398673800
       132    2       37.834000000000       8.737404368700       7.495398673800
       133    2       37.834000000000       4.368695631300      10.208901326200
       134    2       41.617400000000      10.921745631300      10.208901326200
       135    1       41.617400000000      13.106100000000       8.852150000000
       136    1       37.834000000000       6.553050000000       8.852150000000
       137    2       43.509100000000       1.092170631300      10.208901326200
       138    2       39.725700000000       7.645220631300      10.208901326200
       139    2       39.725700000000       1.092170631300      10.208901326200
       140    2       43.509100000000       7.645220631300      10.208901326200
       141    2       37.834000000000       2.184354368700       7.495398673800
       142    2       41.617400000000       8.737404368700       7.495398673800
       143    2       41.617400000000       4.368695631300      10.208901326200
       144    2       37.834000000000      10.921745631300      10.208901326200
       145    1       45.400800000000      13.106100000000       8.852150000000
       146    1       49.184200000000       6.553050000000       8.852150000000
       147    2       47.292500000000       5.460879368700       7.495398673800
       148    2       51.075900000000      12.013929368700       7.495398673800
       149    1       47.292500000000       3.276525000000       8.852150000000
       150    1       51.075900000000       3.276525000000       8.852150000000
       151    2       49.184200000000       2.184354368700       7.495398673800
       152    1       47.292500000000       9.829575000000       8.852150000000
       153    2       51.075900000000       5.460879368700       7.495398673800
       154    1       51.075900000000       9.829575000000       8.852150000000
       155    2       47.292500000000      12.013929368700       7.495398673800
       156    2       45.400800000000       8.737404368700       7.495398673800
       157    2       45.400800000000       4.368695631300      10.208901326200
       158    2       49.184200000000      10.921745631300      10.208901326200
       159    1       49.184200000000      13.106100000000       8.852150000000
       160    1       45.400800000000       6.553050000000       8.852150000000
       161    2       51.075900000000       1.092170631300      10.208901326200
       162    2       47.292500000000       7.645220631300      10.208901326200
       163    2       47.292500000000       1.092170631300      10.208901326200
       164    2       51.075900000000       7.645220631300      10.208901326200
       165    2       45.400800000000       2.184354368700       7.495398673800
       166    2       49.184200000000       8.737404368700       7.495398673800
       167    2       49.184200000000       4.368695631300      10.208901326200
       168    2       45.400800000000      10.921745631300      10.208901326200
       169    1       52.967600000000      13.106100000000       8.852150000000
       170    1       56.751000000000       6.553050000000       8.852150000000
       171    2       54.859300000000       5.460879368700       7.495398673800
       172    2       58.642700000000      12.013929368700       7.495398673800
       173    1       54.859300000000       3.276525000000       8.852150000000
       174    1       58.642700000000       3.276525000000       8.852150000000
       175    2       56.751000000000       2.184354368700       7.495398673800
       176    1       54.859300000000       9.829575000000       8.852150000000
       177    2       58.642700000000       5.460879368700       7.495398673800
       178    1       58.642700000000       9.829575000000       8.852150000000
       179    2       54.859300000000      12.013929368700       7.495398673800
       180    2       52.967600000000       8.737404368700       7.495398673800
       181    2       52.967600000000       4.368695631300      10.208901326200
       182    2       56.751000000000      10.921745631300      10.208901326200
       183    1       56.751000000000      13.106100000000       8.852150000000
       184    1       52.967600000000       6.553050000000       8.852150000000
       185    2       58.642700000000       1.092170631300      10.208901326200
       186    2       54.859300000000       7.645220631300      10.208901326200
       187    2       54.859300000000       1.092170631300      10.208901326200
       188    2       58.642700000000       7.645220631300      10.208901326200
       189    2       52.967600000000       2.184354368700       7.495398673800
       190    2       56.751000000000       8.737404368700       7.495398673800
       191    2       56.751000000000       4.368695631300      10.208901326200
       192    2       52.967600000000      10.921745631300      10.208901326200
       193    1       60.534400000000      13.106100000000       8.852150000000
       194    1       64.317800000000       6.553050000000       8.852150000000
       195    2       62.426100000000       5.460879368700       7.495398673800
       196    2       66.209500000000      12.013929368700       7.495398673800
       197    1       62.426100000000       3.276525000000       8.852150000000
       198    1       66.209500000000       3.276525000000       8.852150000000
       199    2       64.317800000000       2.184354368700       7.495398673800
       200    1       62.426100000000       9.829575000000       8.852150000000
       201    2       66.209500000000       5.460879368700       7.495398673800
       202    1       66.209500000000       9.829575000000       8.852150000000
       203    2       62.426100000000      12.013929368700       7.495398673800
       204    2       60.534400000000       8.737404368700       7.495398673800
       205    2       60.534400000000       4.368695631300      10.208901326200
       206    2       64.317800000000      10.921745631300      10.208901326200
       207    1       64.317800000000      13.106100000000       8.852150000000
       208    1       60.534400000000       6.553050000000       8.852150000000
       209    2       66.209500000000       1.092170631300      10.208901326200
       210    2       62.426100000000       7.645220631300      10.208901326200
       211    2       62.426100000000       1.092170631300      10.208901326200
       212    2       66.209500000000       7.645220631300      10.208901326200
       213    2       60.534400000000       2.184354368700       7.495398673800
       214    2       64.317800000000       8.737404368700       7.495398673800
       215    2       64.317800000000       4.368695631300      10.208901326200
       216    2       60.534400000000      10.921745631300      10.208901326200
       217    1       68.101200000000      13.106100000000       8.852150000000
       218    1       71.884600000000       6.553050000000       8.852150000000
       219    2       69.992900000000       5.460879368700       7.495398673800
       220    2       73.776300000000      12.013929368700       7.495398673800
       221    1       69.992900000000       3.276525000000       8.852150000000
       222    1       73.776300000000       3.276525000000       8.852150000000
       223    2       71.884600000000       2.184354368700       7.495398673800
       224    1       69.992900000000       9.829575000000       8.852150000000
       225    2       73.776300000000       5.460879368700       7.495398673800
       226    1       73.776300000000       9.829575000000       8.852150000000
       227    2       69.992900000000      12.013929368700       7.495398673800
       228    2       68.101200000000       8.737404368700       7.495398673800
       229    2       68.101200000000       4.368695631300      10.208901326200
       230    2       71.884600000000      10.921745631300      10.208901326200
       231    1       71.884600000000      13.106100000000       8.852150000000
       232    1       68.101200000000       6.553050000000       8.852150000000
       233    2       73.776300000000       1.092170631300      10.208901326200
       234    2       69.992900000000       7.645220631300      10.208901326200
       235    2       69.992900000000       1.092170631300      10.208901326200
       236    2       73.776300000000       7.645220631300      10.208901326200
       237    2       68.101200000000       2.184354368700       7.495398673800
       238    2       71.884600000000       8.737404368700       7.495398673800
       239    2       71.884600000000       4.368695631300      10.208901326200
       240    2       68.101200000000      10.921745631300      10.208901326200
       241    1       75.668000000000      13.106100000000       8.852150000000
       242    1       79.451400000000       6.553050000000       8.852150000000
       243    2       77.559700000000       5.460879368700       7.495398673800
       244    2       81.343100000000      12.013929368700       7.495398673800
       245    1       77.559700000000       3.276525000000       8.852150000000
       246    1       81.343100000000       3.276525000000       8.852150000000
       247    2       79.451400000000       2.184354368700       7.495398673800
       248    1       77.559700000000       9.829575000000       8.852150000000
       249    2       81.343100000000       5.460879368700       7.495398673800
       250    1       81.343100000000       9.829575000000       8.852150000000
       251    2       77.559700000000      12.013929368700       7.495398673800
       252    2       75.668000000000       8.737404368700       7.495398673800
       253    2       75.668000000000       4.368695631300      10.208901326200
       254    2       79.451400000000      10.921745631300      10.208901326200
       255    1       79.451400000000      13.106100000000       8.852150000000
       256    1       75.668000000000       6.553050000000       8.852150000000
       257    2       81.343100000000       1.092170631300      10.208901326200
       258    2       77.559700000000       7.645220631300      10.208901326200
       259    2       77.559700000000       1.092170631300      10.208901326200
       260    2       81.343100000000       7.645220631300      10.208901326200
       261    2       75.668000000000       2.184354368700       7.495398673800
       262    2       79.451400000000       8.737404368700       7.495398673800
       263    2       79.451400000000       4.368695631300      10.208901326200
       264    2       75.668000000000      10.921745631300      10.208901326200
       265    1       83.234800000000      13.106100000000       8.852150000000
       266    1       87.018200000000       6.553050000000       8.852150000000
       267    2       85.126500000000       5.460879368700       7.495398673800
       268    2       88.909900000000      12.013929368700       7.495398673800
       269    1       85.126500000000       3.276525000000       8.852150000000
       270    1       88.909900000000       3.276525000000       8.852150000000
       271    2       87.018200000000       2.184354368700       7.495398673800
       272    1       85.126500000000       9.829575000000       8.852150000000
       273    2       88.909900000000       5.460879368700       7.495398673800
       274    1       88.909900000000       9.829575000000       8.852150000000
       275    2       85.126500000000      12.013929368700       7.495398673800
       276    2       83.234800000000       8.737404368700       7.495398673800
       277    2       83.234800000000       4.368695631300      10.208901326200
       278    2       87.018200000000      10.921745631300      10.208901326200
       279    1       87.018200000000      13.106100000000       8.852150000000
       280    1       83.234800000000       6.553050000000       8.852150000000
       281    2       88.909900000000       1.092170631300      10.208901326200
       282    2       85.126500000000       7.645220631300      10.208901326200
       283    2       85.126500000000       1.092170631300      10.208901326200
       284    2       88.909900000000       7.645220631300      10.208901326200
       285    2       83.234800000000       2.184354368700       7.495398673800
       286    2       87.018200000000       8.737404368700       7.495398673800
       287    2       87.018200000000       4.368695631300      10.208901326200
       288    2       83.234800000000      10.921745631300      10.208901326200
       289    1       90.801600000000      13.106100000000       8.852150000000
       290    1       94.585000000000       6.553050000000       8.852150000000
       291    2       92.693300000000       5.460879368700       7.495398673800
       292    2       96.476700000000      12.013929368700       7.495398673800
       293    1       92.693300000000       3.276525000000       8.852150000000
       294    1       96.476700000000       3.276525000000       8.852150000000
       295    2       94.585000000000       2.184354368700       7.495398673800
       296    1       92.693300000000       9.829575000000       8.852150000000
       297    2       96.476700000000       5.460879368700       7.495398673800
       298    1       96.476700000000       9.829575000000       8.852150000000
       299    2       92.693300000000      12.013929368700       7.495398673800
       300    2       90.801600000000       8.737404368700       7.495398673800
       301    2       90.801600000000       4.368695631300      10.208901326200
       302    2       94.585000000000      10.921745631300      10.208901326200
       303    1       94.585000000000      13.106100000000       8.852150000000
       304    1       90.801600000000       6.553050000000       8.852150000000
       305    2       96.476700000000       1.092170631300      10.208901326200
       306    2       92.693300000000       7.645220631300      10.208901326200
       307    2       92.693300000000       1.092170631300      10.208901326200
       308    2       96.476700000000       7.645220631300      10.208901326200
       309    2       90.801600000000       2.184354368700       7.495398673800
       310    2       94.585000000000       8.737404368700       7.495398673800
       311    2       94.585000000000       4.368695631300      10.208901326200
       312    2       90.801600000000      10.921745631300      10.208901326200
       313    1        0.000000000000      26.212200000000       8.852150000000
       314    1        3.783400000000      19.659150000000       8.852150000000
       315    2        1.891700000000      18.566979368700       7.495398673800
       316    2        5.675100000000      25.120029368700       7.495398673800
       317    1        1.891700000000      16.382625000000       8.852150000000
       318    1        5.675100000000      16.382625000000       8.852150000000
       319    2        3.783400000000      15.290454368700       7.495398673800
       320    1        1.891700000000      22.935675000000       8.852150000000
       321    2        5.675100000000      18.566979368700       7.495398673800
       322    1        5.675100000000      22.935675000000       8.852150000000
       323    2        1.891700000000      25.120029368700       7.495398673800
       324    2        0.000000000000      21.843504368700       7.495398673800
       325    2        0.000000000000      17.474795631300      10.208901326200
       326    2        3.783400000000      24.027845631300      10.208901326200
       327    1        3.783400000000      26.212200000000       8.852150000000
       328    1        0.000000000000      19.659150000000       8.852150000000
       329    2        5.675100000000      14.198270631300      10.208901326200
       330    2        1.891700000000      20.751320631300      10.208901326200
       331    2        1.891700000000      14.198270631300      10.208901326200
       332    2        5.675100000000      20.751320631300      10.208901326200
       333    2        0.000000000000      15.290454368700       7.495398673800
       334    2        3.783400000000      21.843504368700       7.495398673800
       335    2        3.783400000000      17.474795631300      10.208901326200
       336    2        0.000000000000      24.027845631300      10.208901326200
       337    1        7.566800000000      26.212200000000       8.852150000000
       338    1       11.350200000000      19.659150000000       8.852150000000
       339    2        9.458500000000      18.566979368700       7.495398673800
       340    2       13.241900000000      25.120029368700       7.495398673800
       341    1        9.458500000000      16.382625000000       8.852150000000
       342    1       13.241900000000      16.382625000000       8.852150000000
       343    2       11.350200000000      15.290454368700       7.495398673800
       344    1        9.458500000000      22.935675000000       8.852150000000
       345    2       13.241900000000      18.566979368700       7.495398673800
       346    1       13.241900000000      22.935675000000       8.852150000000
       347    2        9.458500000000      25.120029368700       7.495398673800
       348    2        7.566800000000      21.843504368700       7.495398673800
       349    2        7.566800000000      17.474795631300      10.208901326200
       350    2       11.350200000000      24.027845631300      10.208901326200
       351    1       11.350200000000      26.212200000000       8.852150000000
       352    1        7.566800000000      19.659150000000       8.852150000000
       353    2       13.241900000000      14.198270631300      10.208901326200
       354    2        9.458500000000      20.751320631300      10.208901326200
       355    2        9.458500000000      14.198270631300      10.208901326200
       356    2       13.241900000000      20.751320631300      10.208901326200
       357    2        7.566800000000      15.290454368700       7.495398673800
       358    2       11.350200000000      21.843504368700       7.495398673800
       359    2       11.350200000000      17.474795631300      10.208901326200
       360    2        7.566800000000      24.027845631300      10.208901326200
       361    1       15.133600000000      26.212200000000       8.852150000000
       362    1       18.917000000000      19.659150000000       8.852150000000
       363    2       17.025300000000      18.566979368700       7.495398673800
       364    2       20.808700000000      25.120029368700       7.495398673800
       365    1       17.025300000000      16.382625000000       8.852150000000
       366    1       20.808700000000      16.382625000000       8.852150000000
       367    2       18.917000000000      15.290454368700       7.495398673800
       368    1       17.025300000000      22.935675000000       8.852150000000
       369    2       20.808700000000      18.566979368700       7.495398673800
       370    1       20.808700000000      22.935675000000       8.852150000000