 # Se16 Pd8
  
        2496  atoms
           2  atom types
 
      0.000000000000      97.106100000000  xlo xhi
      0.000000000000     103.503200000000  ylo yhi
      0.000000000000      17.618600000000  zlo zhi
 
Masses
 
            1   78.96000000             # Se
            2   106.42000000            # Pd
 
Atoms # atomic
 
         1    1        3.734850000000       2.156320979300       7.496238597800
         2    1        7.469700000000       8.625270979300       7.496238597800
         3    1        1.867425000000       5.390795979300       7.496238597800
         4    1        5.602275000000       5.390795979300       7.496238597800
         5    1        5.602275000000      11.859745979300       7.496238597800
         6    1        1.867425000000      11.859745979300       7.496238597800
         7    1        5.602275000000       1.078154020700      10.122361402200
         8    1        1.867425000000       7.547104020700      10.122361402200
         9    1        7.469700000000       2.156320979300       7.496238597800
        10    1        3.734850000000       8.625270979300       7.496238597800
        11    1        3.734850000000       4.312629020700      10.122361402200
        12    1        0.000000000000      10.781579020700      10.122361402200
        13    2        5.602275000000       3.234475000000       8.809300000000
        14    2        1.867425000000       9.703425000000       8.809300000000
        15    2        1.867425000000       3.234475000000       8.809300000000
        16    2        5.602275000000       9.703425000000       8.809300000000
        17    2        0.000000000000       0.000000000000       8.809300000000
        18    2        3.734850000000       6.468950000000       8.809300000000
        19    2        3.734850000000       0.000000000000       8.809300000000
        20    2        0.000000000000       6.468950000000       8.809300000000
        21    1        1.867425000000       1.078154020700      10.122361402200
        22    1        5.602275000000       7.547104020700      10.122361402200
        23    1        0.000000000000       4.312629020700      10.122361402200
        24    1        3.734850000000      10.781579020700      10.122361402200
        25    1       11.204550000000       2.156320979300       7.496238597800
        26    1       14.939400000000       8.625270979300       7.496238597800
        27    1        9.337125000000       5.390795979300       7.496238597800
        28    1       13.071975000000       5.390795979300       7.496238597800
        29    1       13.071975000000      11.859745979300       7.496238597800
        30    1        9.337125000000      11.859745979300       7.496238597800
        31    1       13.071975000000       1.078154020700      10.122361402200
        32    1        9.337125000000       7.547104020700      10.122361402200
        33    1       14.939400000000       2.156320979300       7.496238597800
        34    1       11.204550000000       8.625270979300       7.496238597800
        35    1       11.204550000000       4.312629020700      10.122361402200
        36    1        7.469700000000      10.781579020700      10.122361402200
        37    2       13.071975000000       3.234475000000       8.809300000000
        38    2        9.337125000000       9.703425000000       8.809300000000
        39    2        9.337125000000       3.234475000000       8.809300000000
        40    2       13.071975000000       9.703425000000       8.809300000000
        41    2        7.469700000000       0.000000000000       8.809300000000
        42    2       11.204550000000       6.468950000000       8.809300000000
        43    2       11.204550000000       0.000000000000       8.809300000000
        44    2        7.469700000000       6.468950000000       8.809300000000
        45    1        9.337125000000       1.078154020700      10.122361402200
        46    1       13.071975000000       7.547104020700      10.122361402200
        47    1        7.469700000000       4.312629020700      10.122361402200
        48    1       11.204550000000      10.781579020700      10.122361402200
        49    1       18.674250000000       2.156320979300       7.496238597800
        50    1       22.409100000000       8.625270979300       7.496238597800
        51    1       16.806825000000       5.390795979300       7.496238597800
        52    1       20.541675000000       5.390795979300       7.496238597800
        53    1       20.541675000000      11.859745979300       7.496238597800
        54    1       16.806825000000      11.859745979300       7.496238597800
        55    1       20.541675000000       1.078154020700      10.122361402200
        56    1       16.806825000000       7.547104020700      10.122361402200
        57    1       22.409100000000       2.156320979300       7.496238597800
        58    1       18.674250000000       8.625270979300       7.496238597800
        59    1       18.674250000000       4.312629020700      10.122361402200
        60    1       14.939400000000      10.781579020700      10.122361402200
        61    2       20.541675000000       3.234475000000       8.809300000000
        62    2       16.806825000000       9.703425000000       8.809300000000
        63    2       16.806825000000       3.234475000000       8.809300000000
        64    2       20.541675000000       9.703425000000       8.809300000000
        65    2       14.939400000000       0.000000000000       8.809300000000
        66    2       18.674250000000       6.468950000000       8.809300000000
        67    2       18.674250000000       0.000000000000       8.809300000000
        68    2       14.939400000000       6.468950000000       8.809300000000
        69    1       16.806825000000       1.078154020700      10.122361402200
        70    1       20.541675000000       7.547104020700      10.122361402200
        71    1       14.939400000000       4.312629020700      10.122361402200
        72    1       18.674250000000      10.781579020700      10.122361402200
        73    1       26.143950000000       2.156320979300       7.496238597800
        74    1       29.878800000000       8.625270979300       7.496238597800
        75    1       24.276525000000       5.390795979300       7.496238597800
        76    1       28.011375000000       5.390795979300       7.496238597800
        77    1       28.011375000000      11.859745979300       7.496238597800
        78    1       24.276525000000      11.859745979300       7.496238597800
        79    1       28.011375000000       1.078154020700      10.122361402200
        80    1       24.276525000000       7.547104020700      10.122361402200
        81    1       29.878800000000       2.156320979300       7.496238597800
        82    1       26.143950000000       8.625270979300       7.496238597800
        83    1       26.143950000000       4.312629020700      10.122361402200
        84    1       22.409100000000      10.781579020700      10.122361402200
        85    2       28.011375000000       3.234475000000       8.809300000000
        86    2       24.276525000000       9.703425000000       8.809300000000
        87    2       24.276525000000       3.234475000000       8.809300000000
        88    2       28.011375000000       9.703425000000       8.809300000000
        89    2       22.409100000000       0.000000000000       8.809300000000
        90    2       26.143950000000       6.468950000000       8.809300000000
        91    2       26.143950000000       0.000000000000       8.809300000000
        92    2       22.409100000000       6.468950000000       8.809300000000
        93    1       24.276525000000       1.078154020700      10.122361402200
        94    1       28.011375000000       7.547104020700      10.122361402200
        95    1       22.409100000000       4.312629020700      10.122361402200
        96    1       26.143950000000      10.781579020700      10.122361402200
        97    1       33.613650000000       2.156320979300       7.496238597800
        98    1       37.348500000000       8.625270979300       7.496238597800
        99    1       31.746225000000       5.390795979300       7.496238597800
       100    1       35.481075000000       5.390795979300       7.496238597800
       101    1       35.481075000000      11.859745979300       7.496238597800
       102    1       31.746225000000      11.859745979300       7.496238597800
       103    1       35.481075000000       1.078154020700      10.122361402200
       104    1       31.746225000000       7.547104020700      10.122361402200
       105    1       37.348500000000       2.156320979300       7.496238597800
       106    1       33.613650000000       8.625270979300       7.496238597800
       107    1       33.613650000000       4.312629020700      10.122361402200
       108    1       29.878800000000      10.781579020700      10.122361402200
       109    2       35.481075000000       3.234475000000       8.809300000000
       110    2       31.746225000000       9.703425000000       8.809300000000
       111    2       31.746225000000       3.234475000000       8.809300000000
       112    2       35.481075000000       9.703425000000       8.809300000000
       113    2       29.878800000000       0.000000000000       8.809300000000
       114    2       33.613650000000       6.468950000000       8.809300000000
       115    2       33.613650000000       0.000000000000       8.809300000000
       116    2       29.878800000000       6.468950000000       8.809300000000
       117    1       31.746225000000       1.078154020700      10.122361402200
       118    1       35.481075000000       7.547104020700      10.122361402200
       119    1       29.878800000000       4.312629020700      10.122361402200
       120    1       33.613650000000      10.781579020700      10.122361402200
       121    1       41.083350000000       2.156320979300       7.496238597800
       122    1       44.818200000000       8.625270979300       7.496238597800
       123    1       39.215925000000       5.390795979300       7.496238597800
       124    1       42.950775000000       5.390795979300       7.496238597800
       125    1       42.950775000000      11.859745979300       7.496238597800
       126    1       39.215925000000      11.859745979300       7.496238597800
       127    1       42.950775000000       1.078154020700      10.122361402200
       128    1       39.215925000000       7.547104020700      10.122361402200
       129    1       44.818200000000       2.156320979300       7.496238597800
       130    1       41.083350000000       8.625270979300       7.496238597800
       131    1       41.083350000000       4.312629020700      10.122361402200
       132    1       37.348500000000      10.781579020700      10.122361402200
       133    2       42.950775000000       3.234475000000       8.809300000000
       134    2       39.215925000000       9.703425000000       8.809300000000
       135    2       39.215925000000       3.234475000000       8.809300000000
       136    2       42.950775000000       9.703425000000       8.809300000000
       137    2       37.348500000000       0.000000000000       8.809300000000
       138    2       41.083350000000       6.468950000000       8.809300000000
       139    2       41.083350000000       0.000000000000       8.809300000000
       140    2       37.348500000000       6.468950000000       8.809300000000
       141    1       39.215925000000       1.078154020700      10.122361402200
       142    1       42.950775000000       7.547104020700      10.122361402200
       143    1       37.348500000000       4.312629020700      10.122361402200
       144    1       41.083350000000      10.781579020700      10.122361402200
       145    1       48.553050000000       2.156320979300       7.496238597800
       146    1       52.287900000000       8.625270979300       7.496238597800
       147    1       46.685625000000       5.390795979300       7.496238597800
       148    1       50.420475000000       5.390795979300       7.496238597800
       149    1       50.420475000000      11.859745979300       7.496238597800
       150    1       46.685625000000      11.859745979300       7.496238597800
       151    1       50.420475000000       1.078154020700      10.122361402200
       152    1       46.685625000000       7.547104020700      10.122361402200
       153    1       52.287900000000       2.156320979300       7.496238597800
       154    1       48.553050000000       8.625270979300       7.496238597800
       155    1       48.553050000000       4.312629020700      10.122361402200
       156    1       44.818200000000      10.781579020700      10.122361402200
       157    2       50.420475000000       3.234475000000       8.809300000000
       158    2       46.685625000000       9.703425000000       8.809300000000
       159    2       46.685625000000       3.234475000000       8.809300000000
       160    2       50.420475000000       9.703425000000       8.809300000000
       161    2       44.818200000000       0.000000000000       8.809300000000
       162    2       48.553050000000       6.468950000000       8.809300000000
       163    2       48.553050000000       0.000000000000       8.809300000000
       164    2       44.818200000000       6.468950000000       8.809300000000
       165    1       46.685625000000       1.078154020700      10.122361402200
       166    1       50.420475000000       7.547104020700      10.122361402200
       167    1       44.818200000000       4.312629020700      10.122361402200
       168    1       48.553050000000      10.781579020700      10.122361402200
       169    1       56.022750000000       2.156320979300       7.496238597800
       170    1       59.757600000000       8.625270979300       7.496238597800
       171    1       54.155325000000       5.390795979300       7.496238597800
       172    1       57.890175000000       5.390795979300       7.496238597800
       173    1       57.890175000000      11.859745979300       7.496238597800
       174    1       54.155325000000      11.859745979300       7.496238597800
       175    1       57.890175000000       1.078154020700      10.122361402200
       176    1       54.155325000000       7.547104020700      10.122361402200
       177    1       59.757600000000       2.156320979300       7.496238597800
       178    1       56.022750000000       8.625270979300       7.496238597800
       179    1       56.022750000000       4.312629020700      10.122361402200
       180    1       52.287900000000      10.781579020700      10.122361402200
       181    2       57.890175000000       3.234475000000       8.809300000000
       182    2       54.155325000000       9.703425000000       8.809300000000
       183    2       54.155325000000       3.234475000000       8.809300000000
       184    2       57.890175000000       9.703425000000       8.809300000000
       185    2       52.287900000000       0.000000000000       8.809300000000
       186    2       56.022750000000       6.468950000000       8.809300000000
       187    2       56.022750000000       0.000000000000       8.809300000000
       188    2       52.287900000000       6.468950000000       8.809300000000
       189    1       54.155325000000       1.078154020700      10.122361402200
       190    1       57.890175000000       7.547104020700      10.122361402200
       191    1       52.287900000000       4.312629020700      10.122361402200
       192    1       56.022750000000      10.781579020700      10.122361402200
       193    1       63.492450000000       2.156320979300       7.496238597800
       194    1       67.227300000000       8.625270979300       7.496238597800
       195    1       61.625025000000       5.390795979300       7.496238597800
       196    1       65.359875000000       5.390795979300       7.496238597800
       197    1       65.359875000000      11.859745979300       7.496238597800
       198    1       61.625025000000      11.859745979300       7.496238597800
       199    1       65.359875000000       1.078154020700      10.122361402200
       200    1       61.625025000000       7.547104020700      10.122361402200
       201    1       67.227300000000       2.156320979300       7.496238597800
       202    1       63.492450000000       8.625270979300       7.496238597800
       203    1       63.492450000000       4.312629020700      10.122361402200
       204    1       59.757600000000      10.781579020700      10.122361402200
       205    2       65.359875000000       3.234475000000       8.809300000000
       206    2       61.625025000000       9.703425000000       8.809300000000
       207    2       61.625025000000       3.234475000000       8.809300000000
       208    2       65.359875000000       9.703425000000       8.809300000000
       209    2       59.757600000000       0.000000000000       8.809300000000
       210    2       63.492450000000       6.468950000000       8.809300000000
       211    2       63.492450000000       0.000000000000       8.809300000000
       212    2       59.757600000000       6.468950000000       8.809300000000
       213    1       61.625025000000       1.078154020700      10.122361402200
       214    1       65.359875000000       7.547104020700      10.122361402200
       215    1       59.757600000000       4.312629020700      10.122361402200
       216    1       63.492450000000      10.781579020700      10.122361402200
       217    1       70.962150000000       2.156320979300       7.496238597800
       218    1       74.697000000000       8.625270979300       7.496238597800
       219    1       69.094725000000       5.390795979300       7.496238597800
       220    1       72.829575000000       5.390795979300       7.496238597800
       221    1       72.829575000000      11.859745979300       7.496238597800
       222    1       69.094725000000      11.859745979300       7.496238597800
       223    1       72.829575000000       1.078154020700      10.122361402200
       224    1       69.094725000000       7.547104020700      10.122361402200
       225    1       74.697000000000       2.156320979300       7.496238597800
       226    1       70.962150000000       8.625270979300       7.496238597800
       227    1       70.962150000000       4.312629020700      10.122361402200
       228    1       67.227300000000      10.781579020700      10.122361402200
       229    2       72.829575000000       3.234475000000       8.809300000000
       230    2       69.094725000000       9.703425000000       8.809300000000
       231    2       69.094725000000       3.234475000000       8.809300000000
       232    2       72.829575000000       9.703425000000       8.809300000000
       233    2       67.227300000000       0.000000000000       8.809300000000
       234    2       70.962150000000       6.468950000000       8.809300000000
       235    2       70.962150000000       0.000000000000       8.809300000000
       236    2       67.227300000000       6.468950000000       8.809300000000
       237    1       69.094725000000       1.078154020700      10.122361402200
       238    1       72.829575000000       7.547104020700      10.122361402200
       239    1       67.227300000000       4.312629020700      10.122361402200
       240    1       70.962150000000      10.781579020700      10.122361402200
       241    1       78.431850000000       2.156320979300       7.496238597800
       242    1       82.166700000000       8.625270979300       7.496238597800
       243    1       76.564425000000       5.390795979300       7.496238597800
       244    1       80.299275000000       5.390795979300       7.496238597800
       245    1       80.299275000000      11.859745979300       7.496238597800
       246    1       76.564425000000      11.859745979300       7.496238597800
       247    1       80.299275000000       1.078154020700      10.122361402200
       248    1       76.564425000000       7.547104020700      10.122361402200
       249    1       82.166700000000       2.156320979300       7.496238597800
       250    1       78.431850000000       8.625270979300       7.496238597800
       251    1       78.431850000000       4.312629020700      10.122361402200
       252    1       74.697000000000      10.781579020700      10.122361402200
       253    2       80.299275000000       3.234475000000       8.809300000000
       254    2       76.564425000000       9.703425000000       8.809300000000
       255    2       76.564425000000       3.234475000000       8.809300000000
       256    2       80.299275000000       9.703425000000       8.809300000000
       257    2       74.697000000000       0.000000000000       8.809300000000
       258    2       78.431850000000       6.468950000000       8.809300000000
       259    2       78.431850000000       0.000000000000       8.809300000000
       260    2       74.697000000000       6.468950000000       8.809300000000
       261    1       76.564425000000       1.078154020700      10.122361402200
       262    1       80.299275000000       7.547104020700      10.122361402200
       263    1       74.697000000000       4.312629020700      10.122361402200
       264    1       78.431850000000      10.781579020700      10.122361402200
       265    1       85.901550000000       2.156320979300       7.496238597800
       266    1       89.636400000000       8.625270979300       7.496238597800
       267    1       84.034125000000       5.390795979300       7.496238597800
       268    1       87.768975000000       5.390795979300       7.496238597800
       269    1       87.768975000000      11.859745979300       7.496238597800
       270    1       84.034125000000      11.859745979300       7.496238597800
       271    1       87.768975000000       1.078154020700      10.122361402200
       272    1       84.034125000000       7.547104020700      10.122361402200
       273    1       89.636400000000       2.156320979300       7.496238597800
       274    1       85.901550000000       8.625270979300       7.496238597800
       275    1       85.901550000000       4.312629020700      10.122361402200
       276    1       82.166700000000      10.781579020700      10.122361402200
       277    2       87.768975000000       3.234475000000       8.809300000000
       278    2       84.034125000000       9.703425000000       8.809300000000
       279    2       84.034125000000       3.234475000000       8.809300000000
       280    2       87.768975000000       9.703425000000       8.809300000000
       281    2       82.166700000000       0.000000000000       8.809300000000
       282    2       85.901550000000       6.468950000000       8.809300000000
       283    2       85.901550000000       0.000000000000       8.809300000000
       284    2       82.166700000000       6.468950000000       8.809300000000
       285    1       84.034125000000       1.078154020700      10.122361402200
       286    1       87.768975000000       7.547104020700      10.122361402200
       287    1       82.166700000000       4.312629020700      10.122361402200
       288    1       85.901550000000      10.781579020700      10.122361402200
       289    1       93.371250000000       2.156320979300       7.496238597800
       290    1       97.106100000000       8.625270979300       7.496238597800
       291    1       91.503825000000       5.390795979300       7.496238597800
       292    1       95.238675000000       5.390795979300       7.496238597800
       293    1       95.238675000000      11.859745979300       7.496238597800
       294    1       91.503825000000      11.859745979300       7.496238597800
       295    1       95.238675000000       1.078154020700      10.122361402200
       296    1       91.503825000000       7.547104020700      10.122361402200
       297    1       97.106100000000       2.156320979300       7.496238597800
       298    1       93.371250000000       8.625270979300       7.496238597800
       299    1       93.371250000000       4.312629020700      10.122361402200
       300    1       89.636400000000      10.781579020700      10.122361402200
       301    2       95.238675000000       3.234475000000       8.809300000000
       302    2       91.503825000000       9.703425000000       8.809300000000
       303    2       91.503825000000       3.234475000000       8.809300000000
       304    2       95.238675000000       9.703425000000       8.809300000000
       305    2       89.636400000000       0.000000000000       8.809300000000
       306    2       93.371250000000       6.468950000000       8.809300000000
       307    2       93.371250000000       0.000000000000       8.809300000000
       308    2       89.636400000000       6.468950000000       8.809300000000
       309    1       91.503825000000       1.078154020700      10.122361402200
       310    1       95.238675000000       7.547104020700      10.122361402200
       311    1       89.636400000000       4.312629020700      10.122361402200
       312    1       93.371250000000      10.781579020700      10.122361402200
       313    1        3.734850000000      15.094220979300       7.496238597800
       314    1        7.469700000000      21.563170979300       7.496238597800
       315    1        1.867425000000      18.328695979300       7.496238597800
       316    1        5.602275000000      18.328695979300       7.496238597800
       317    1        5.602275000000      24.797645979300       7.496238597800
       318    1        1.867425000000      24.797645979300       7.496238597800
       319    1        5.602275000000      14.016054020700      10.122361402200
       320    1        1.867425000000      20.485004020700      10.122361402200
       321    1        7.469700000000      15.094220979300       7.496238597800
       322    1        3.734850000000      21.563170979300       7.496238597800
       323    1        3.734850000000      17.250529020700      10.122361402200
       324    1        0.000000000000      23.719479020700      10.122361402200
       325    2        5.602275000000      16.172375000000       8.809300000000
       326    2        1.867425000000      22.641325000000       8.809300000000
       327    2        1.867425000000      16.172375000000       8.809300000000
       328    2        5.602275000000      22.641325000000       8.809300000000
       329    2        0.000000000000      12.937900000000       8.809300000000
       330    2        3.734850000000      19.406850000000       8.809300000000
       331    2        3.734850000000      12.937900000000       8.809300000000
       332    2        0.000000000000      19.406850000000       8.809300000000
       333    1        1.867425000000      14.016054020700      10.122361402200
       334    1        5.602275000000      20.485004020700      10.122361402200
       335    1        0.000000000000      17.250529020700      10.122361402200
       336    1        3.734850000000      23.719479020700      10.122361402200
       337    1       11.204550000000      15.094220979300       7.496238597800
       338    1       14.939400000000      21.563170979300       7.496238597800
       339    1        9.337125000000      18.328695979300       7.496238597800
       340    1       13.071975000000      18.328695979300       7.496238597800
       341    1       13.071975000000      24.797645979300       7.496238597800
       342    1        9.337125000000      24.797645979300       7.496238597800
       343    1       13.071975000000      14.016054020700      10.122361402200
       344    1        9.337125000000      20.485004020700      10.122361402200
       345    1       14.939400000000      15.094220979300       7.496238597800
       346    1       11.204550000000      21.563170979300       7.496238597800
       347    1       11.204550000000      17.250529020700      10.122361402200
       348    1        7.469700000000      23.719479020700      10.122361402200
       349    2       13.071975000000      16.172375000000       8.809300000000
       350    2        9.337125000000      22.641325000000       8.809300000000
       351    2        9.337125000000      16.172375000000       8.809300000000
       352    2       13.071975000000      22.641325000000       8.809300000000
       353    2        7.469700000000      12.937900000000       8.809300000000
       354    2       11.204550000000      19.406850000000       8.809300000000
       355    2       11.204550000000      12.937900000000       8.809300000000
       356    2        7.469700000000      19.406850000000       8.809300000000
       357    1        9.337125000000      14.016054020700      10.122361402200
       358    1       13.071975000000      20.485004020700      10.122361402200
       359    1        7.469700000000      17.250529020700      10.122361402200
       360    1       11.204550000000      23.719479020700      10.122361402200
       361    1       18.674250000000      15.094220979300       7.496238597800
       362    1       22.409100000000      21.563170979300       7.496238597800
       363    1       16.806825000000      18.328695979300       7.496238597800
       364    1       20.541675000000      18.328695979300       7.496238597800
       365    1       20.541675000000      24.797645979300       7.496238597800
       366    1       16.806825000000      24.797645979300       7.496238597800
       367    1       20.541675000000      14.016054020700      10.122361402200
       368    1       16.806825000000      20.485004020700      10.122361402200
       369    1       22.409100000000      15.094220979300       7.496238597800
       370    1       18.674250000000      21.563170979300       7.496238597800