 # Pd8 S16
  
        2688  atoms
           2  atom types
 
      0.000000000000      99.495200000000  xlo xhi
      0.000000000000      98.474400000000  ylo yhi
      0.000000000000      17.490100000000  zlo zhi
 
Masses
 
            1   106.42000000            # Pd
            2   32.06000000             # S
 
Atoms # atomic
 
         1    1        5.330100000000       3.077325000000       8.745050000000
         2    1        1.776700000000       9.231975000000       8.745050000000
         3    2        0.000000000000       2.051554103100       7.499982251300
         4    2        3.553400000000       8.206204103100       7.499982251300
         5    2        3.553400000000       2.051554103100       7.499982251300
         6    2        0.000000000000       4.103095896900       9.990117748700
         7    2        0.000000000000       8.206204103100       7.499982251300
         8    1        3.553400000000       0.000000000000       8.745050000000
         9    1        0.000000000000       6.154650000000       8.745050000000
        10    2        1.776700000000       5.128879103100       7.499982251300
        11    2        3.553400000000      10.257745896900       9.990117748700
        12    2        5.330100000000      11.283529103100       7.499982251300
        13    2        1.776700000000       1.025770896900       9.990117748700
        14    2        5.330100000000       7.180420896900       9.990117748700
        15    2        5.330100000000       5.128879103100       7.499982251300
        16    2        5.330100000000       1.025770896900       9.990117748700
        17    2        1.776700000000      11.283529103100       7.499982251300
        18    2        1.776700000000       7.180420896900       9.990117748700
        19    2        3.553400000000       4.103095896900       9.990117748700
        20    2        0.000000000000      10.257745896900       9.990117748700
        21    1        0.000000000000       0.000000000000       8.745050000000
        22    1        3.553400000000       6.154650000000       8.745050000000
        23    1        1.776700000000       3.077325000000       8.745050000000
        24    1        5.330100000000       9.231975000000       8.745050000000
        25    1       12.436900000000       3.077325000000       8.745050000000
        26    1        8.883500000000       9.231975000000       8.745050000000
        27    2        7.106800000000       2.051554103100       7.499982251300
        28    2       10.660200000000       8.206204103100       7.499982251300
        29    2       10.660200000000       2.051554103100       7.499982251300
        30    2        7.106800000000       4.103095896900       9.990117748700
        31    2        7.106800000000       8.206204103100       7.499982251300
        32    1       10.660200000000       0.000000000000       8.745050000000
        33    1        7.106800000000       6.154650000000       8.745050000000
        34    2        8.883500000000       5.128879103100       7.499982251300
        35    2       10.660200000000      10.257745896900       9.990117748700
        36    2       12.436900000000      11.283529103100       7.499982251300
        37    2        8.883500000000       1.025770896900       9.990117748700
        38    2       12.436900000000       7.180420896900       9.990117748700
        39    2       12.436900000000       5.128879103100       7.499982251300
        40    2       12.436900000000       1.025770896900       9.990117748700
        41    2        8.883500000000      11.283529103100       7.499982251300
        42    2        8.883500000000       7.180420896900       9.990117748700
        43    2       10.660200000000       4.103095896900       9.990117748700
        44    2        7.106800000000      10.257745896900       9.990117748700
        45    1        7.106800000000       0.000000000000       8.745050000000
        46    1       10.660200000000       6.154650000000       8.745050000000
        47    1        8.883500000000       3.077325000000       8.745050000000
        48    1       12.436900000000       9.231975000000       8.745050000000
        49    1       19.543700000000       3.077325000000       8.745050000000
        50    1       15.990300000000       9.231975000000       8.745050000000
        51    2       14.213600000000       2.051554103100       7.499982251300
        52    2       17.767000000000       8.206204103100       7.499982251300
        53    2       17.767000000000       2.051554103100       7.499982251300
        54    2       14.213600000000       4.103095896900       9.990117748700
        55    2       14.213600000000       8.206204103100       7.499982251300
        56    1       17.767000000000       0.000000000000       8.745050000000
        57    1       14.213600000000       6.154650000000       8.745050000000
        58    2       15.990300000000       5.128879103100       7.499982251300
        59    2       17.767000000000      10.257745896900       9.990117748700
        60    2       19.543700000000      11.283529103100       7.499982251300
        61    2       15.990300000000       1.025770896900       9.990117748700
        62    2       19.543700000000       7.180420896900       9.990117748700
        63    2       19.543700000000       5.128879103100       7.499982251300
        64    2       19.543700000000       1.025770896900       9.990117748700
        65    2       15.990300000000      11.283529103100       7.499982251300
        66    2       15.990300000000       7.180420896900       9.990117748700
        67    2       17.767000000000       4.103095896900       9.990117748700
        68    2       14.213600000000      10.257745896900       9.990117748700
        69    1       14.213600000000       0.000000000000       8.745050000000
        70    1       17.767000000000       6.154650000000       8.745050000000
        71    1       15.990300000000       3.077325000000       8.745050000000
        72    1       19.543700000000       9.231975000000       8.745050000000
        73    1       26.650500000000       3.077325000000       8.745050000000
        74    1       23.097100000000       9.231975000000       8.745050000000
        75    2       21.320400000000       2.051554103100       7.499982251300
        76    2       24.873800000000       8.206204103100       7.499982251300
        77    2       24.873800000000       2.051554103100       7.499982251300
        78    2       21.320400000000       4.103095896900       9.990117748700
        79    2       21.320400000000       8.206204103100       7.499982251300
        80    1       24.873800000000       0.000000000000       8.745050000000
        81    1       21.320400000000       6.154650000000       8.745050000000
        82    2       23.097100000000       5.128879103100       7.499982251300
        83    2       24.873800000000      10.257745896900       9.990117748700
        84    2       26.650500000000      11.283529103100       7.499982251300
        85    2       23.097100000000       1.025770896900       9.990117748700
        86    2       26.650500000000       7.180420896900       9.990117748700
        87    2       26.650500000000       5.128879103100       7.499982251300
        88    2       26.650500000000       1.025770896900       9.990117748700
        89    2       23.097100000000      11.283529103100       7.499982251300
        90    2       23.097100000000       7.180420896900       9.990117748700
        91    2       24.873800000000       4.103095896900       9.990117748700
        92    2       21.320400000000      10.257745896900       9.990117748700
        93    1       21.320400000000       0.000000000000       8.745050000000
        94    1       24.873800000000       6.154650000000       8.745050000000
        95    1       23.097100000000       3.077325000000       8.745050000000
        96    1       26.650500000000       9.231975000000       8.745050000000
        97    1       33.757300000000       3.077325000000       8.745050000000
        98    1       30.203900000000       9.231975000000       8.745050000000
        99    2       28.427200000000       2.051554103100       7.499982251300
       100    2       31.980600000000       8.206204103100       7.499982251300
       101    2       31.980600000000       2.051554103100       7.499982251300
       102    2       28.427200000000       4.103095896900       9.990117748700
       103    2       28.427200000000       8.206204103100       7.499982251300
       104    1       31.980600000000       0.000000000000       8.745050000000
       105    1       28.427200000000       6.154650000000       8.745050000000
       106    2       30.203900000000       5.128879103100       7.499982251300
       107    2       31.980600000000      10.257745896900       9.990117748700
       108    2       33.757300000000      11.283529103100       7.499982251300
       109    2       30.203900000000       1.025770896900       9.990117748700
       110    2       33.757300000000       7.180420896900       9.990117748700
       111    2       33.757300000000       5.128879103100       7.499982251300
       112    2       33.757300000000       1.025770896900       9.990117748700
       113    2       30.203900000000      11.283529103100       7.499982251300
       114    2       30.203900000000       7.180420896900       9.990117748700
       115    2       31.980600000000       4.103095896900       9.990117748700
       116    2       28.427200000000      10.257745896900       9.990117748700
       117    1       28.427200000000       0.000000000000       8.745050000000
       118    1       31.980600000000       6.154650000000       8.745050000000
       119    1       30.203900000000       3.077325000000       8.745050000000
       120    1       33.757300000000       9.231975000000       8.745050000000
       121    1       40.864100000000       3.077325000000       8.745050000000
       122    1       37.310700000000       9.231975000000       8.745050000000
       123    2       35.534000000000       2.051554103100       7.499982251300
       124    2       39.087400000000       8.206204103100       7.499982251300
       125    2       39.087400000000       2.051554103100       7.499982251300
       126    2       35.534000000000       4.103095896900       9.990117748700
       127    2       35.534000000000       8.206204103100       7.499982251300
       128    1       39.087400000000       0.000000000000       8.745050000000
       129    1       35.534000000000       6.154650000000       8.745050000000
       130    2       37.310700000000       5.128879103100       7.499982251300
       131    2       39.087400000000      10.257745896900       9.990117748700
       132    2       40.864100000000      11.283529103100       7.499982251300
       133    2       37.310700000000       1.025770896900       9.990117748700
       134    2       40.864100000000       7.180420896900       9.990117748700
       135    2       40.864100000000       5.128879103100       7.499982251300
       136    2       40.864100000000       1.025770896900       9.990117748700
       137    2       37.310700000000      11.283529103100       7.499982251300
       138    2       37.310700000000       7.180420896900       9.990117748700
       139    2       39.087400000000       4.103095896900       9.990117748700
       140    2       35.534000000000      10.257745896900       9.990117748700
       141    1       35.534000000000       0.000000000000       8.745050000000
       142    1       39.087400000000       6.154650000000       8.745050000000
       143    1       37.310700000000       3.077325000000       8.745050000000
       144    1       40.864100000000       9.231975000000       8.745050000000
       145    1       47.970900000000       3.077325000000       8.745050000000
       146    1       44.417500000000       9.231975000000       8.745050000000
       147    2       42.640800000000       2.051554103100       7.499982251300
       148    2       46.194200000000       8.206204103100       7.499982251300
       149    2       46.194200000000       2.051554103100       7.499982251300
       150    2       42.640800000000       4.103095896900       9.990117748700
       151    2       42.640800000000       8.206204103100       7.499982251300
       152    1       46.194200000000       0.000000000000       8.745050000000
       153    1       42.640800000000       6.154650000000       8.745050000000
       154    2       44.417500000000       5.128879103100       7.499982251300
       155    2       46.194200000000      10.257745896900       9.990117748700
       156    2       47.970900000000      11.283529103100       7.499982251300
       157    2       44.417500000000       1.025770896900       9.990117748700
       158    2       47.970900000000       7.180420896900       9.990117748700
       159    2       47.970900000000       5.128879103100       7.499982251300
       160    2       47.970900000000       1.025770896900       9.990117748700
       161    2       44.417500000000      11.283529103100       7.499982251300
       162    2       44.417500000000       7.180420896900       9.990117748700
       163    2       46.194200000000       4.103095896900       9.990117748700
       164    2       42.640800000000      10.257745896900       9.990117748700
       165    1       42.640800000000       0.000000000000       8.745050000000
       166    1       46.194200000000       6.154650000000       8.745050000000
       167    1       44.417500000000       3.077325000000       8.745050000000
       168    1       47.970900000000       9.231975000000       8.745050000000
       169    1       55.077700000000       3.077325000000       8.745050000000
       170    1       51.524300000000       9.231975000000       8.745050000000
       171    2       49.747600000000       2.051554103100       7.499982251300
       172    2       53.301000000000       8.206204103100       7.499982251300
       173    2       53.301000000000       2.051554103100       7.499982251300
       174    2       49.747600000000       4.103095896900       9.990117748700
       175    2       49.747600000000       8.206204103100       7.499982251300
       176    1       53.301000000000       0.000000000000       8.745050000000
       177    1       49.747600000000       6.154650000000       8.745050000000
       178    2       51.524300000000       5.128879103100       7.499982251300
       179    2       53.301000000000      10.257745896900       9.990117748700
       180    2       55.077700000000      11.283529103100       7.499982251300
       181    2       51.524300000000       1.025770896900       9.990117748700
       182    2       55.077700000000       7.180420896900       9.990117748700
       183    2       55.077700000000       5.128879103100       7.499982251300
       184    2       55.077700000000       1.025770896900       9.990117748700
       185    2       51.524300000000      11.283529103100       7.499982251300
       186    2       51.524300000000       7.180420896900       9.990117748700
       187    2       53.301000000000       4.103095896900       9.990117748700
       188    2       49.747600000000      10.257745896900       9.990117748700
       189    1       49.747600000000       0.000000000000       8.745050000000
       190    1       53.301000000000       6.154650000000       8.745050000000
       191    1       51.524300000000       3.077325000000       8.745050000000
       192    1       55.077700000000       9.231975000000       8.745050000000
       193    1       62.184500000000       3.077325000000       8.745050000000
       194    1       58.631100000000       9.231975000000       8.745050000000
       195    2       56.854400000000       2.051554103100       7.499982251300
       196    2       60.407800000000       8.206204103100       7.499982251300
       197    2       60.407800000000       2.051554103100       7.499982251300
       198    2       56.854400000000       4.103095896900       9.990117748700
       199    2       56.854400000000       8.206204103100       7.499982251300
       200    1       60.407800000000       0.000000000000       8.745050000000
       201    1       56.854400000000       6.154650000000       8.745050000000
       202    2       58.631100000000       5.128879103100       7.499982251300
       203    2       60.407800000000      10.257745896900       9.990117748700
       204    2       62.184500000000      11.283529103100       7.499982251300
       205    2       58.631100000000       1.025770896900       9.990117748700
       206    2       62.184500000000       7.180420896900       9.990117748700
       207    2       62.184500000000       5.128879103100       7.499982251300
       208    2       62.184500000000       1.025770896900       9.990117748700
       209    2       58.631100000000      11.283529103100       7.499982251300
       210    2       58.631100000000       7.180420896900       9.990117748700
       211    2       60.407800000000       4.103095896900       9.990117748700
       212    2       56.854400000000      10.257745896900       9.990117748700
       213    1       56.854400000000       0.000000000000       8.745050000000
       214    1       60.407800000000       6.154650000000       8.745050000000
       215    1       58.631100000000       3.077325000000       8.745050000000
       216    1       62.184500000000       9.231975000000       8.745050000000
       217    1       69.291300000000       3.077325000000       8.745050000000
       218    1       65.737900000000       9.231975000000       8.745050000000
       219    2       63.961200000000       2.051554103100       7.499982251300
       220    2       67.514600000000       8.206204103100       7.499982251300
       221    2       67.514600000000       2.051554103100       7.499982251300
       222    2       63.961200000000       4.103095896900       9.990117748700
       223    2       63.961200000000       8.206204103100       7.499982251300
       224    1       67.514600000000       0.000000000000       8.745050000000
       225    1       63.961200000000       6.154650000000       8.745050000000
       226    2       65.737900000000       5.128879103100       7.499982251300
       227    2       67.514600000000      10.257745896900       9.990117748700
       228    2       69.291300000000      11.283529103100       7.499982251300
       229    2       65.737900000000       1.025770896900       9.990117748700
       230    2       69.291300000000       7.180420896900       9.990117748700
       231    2       69.291300000000       5.128879103100       7.499982251300
       232    2       69.291300000000       1.025770896900       9.990117748700
       233    2       65.737900000000      11.283529103100       7.499982251300
       234    2       65.737900000000       7.180420896900       9.990117748700
       235    2       67.514600000000       4.103095896900       9.990117748700
       236    2       63.961200000000      10.257745896900       9.990117748700
       237    1       63.961200000000       0.000000000000       8.745050000000
       238    1       67.514600000000       6.154650000000       8.745050000000
       239    1       65.737900000000       3.077325000000       8.745050000000
       240    1       69.291300000000       9.231975000000       8.745050000000
       241    1       76.398100000000       3.077325000000       8.745050000000
       242    1       72.844700000000       9.231975000000       8.745050000000
       243    2       71.068000000000       2.051554103100       7.499982251300
       244    2       74.621400000000       8.206204103100       7.499982251300
       245    2       74.621400000000       2.051554103100       7.499982251300
       246    2       71.068000000000       4.103095896900       9.990117748700
       247    2       71.068000000000       8.206204103100       7.499982251300
       248    1       74.621400000000       0.000000000000       8.745050000000
       249    1       71.068000000000       6.154650000000       8.745050000000
       250    2       72.844700000000       5.128879103100       7.499982251300
       251    2       74.621400000000      10.257745896900       9.990117748700
       252    2       76.398100000000      11.283529103100       7.499982251300
       253    2       72.844700000000       1.025770896900       9.990117748700
       254    2       76.398100000000       7.180420896900       9.990117748700
       255    2       76.398100000000       5.128879103100       7.499982251300
       256    2       76.398100000000       1.025770896900       9.990117748700
       257    2       72.844700000000      11.283529103100       7.499982251300
       258    2       72.844700000000       7.180420896900       9.990117748700
       259    2       74.621400000000       4.103095896900       9.990117748700
       260    2       71.068000000000      10.257745896900       9.990117748700
       261    1       71.068000000000       0.000000000000       8.745050000000
       262    1       74.621400000000       6.154650000000       8.745050000000
       263    1       72.844700000000       3.077325000000       8.745050000000
       264    1       76.398100000000       9.231975000000       8.745050000000
       265    1       83.504900000000       3.077325000000       8.745050000000
       266    1       79.951500000000       9.231975000000       8.745050000000
       267    2       78.174800000000       2.051554103100       7.499982251300
       268    2       81.728200000000       8.206204103100       7.499982251300
       269    2       81.728200000000       2.051554103100       7.499982251300
       270    2       78.174800000000       4.103095896900       9.990117748700
       271    2       78.174800000000       8.206204103100       7.499982251300
       272    1       81.728200000000       0.000000000000       8.745050000000
       273    1       78.174800000000       6.154650000000       8.745050000000
       274    2       79.951500000000       5.128879103100       7.499982251300
       275    2       81.728200000000      10.257745896900       9.990117748700
       276    2       83.504900000000      11.283529103100       7.499982251300
       277    2       79.951500000000       1.025770896900       9.990117748700
       278    2       83.504900000000       7.180420896900       9.990117748700
       279    2       83.504900000000       5.128879103100       7.499982251300
       280    2       83.504900000000       1.025770896900       9.990117748700
       281    2       79.951500000000      11.283529103100       7.499982251300
       282    2       79.951500000000       7.180420896900       9.990117748700
       283    2       81.728200000000       4.103095896900       9.990117748700
       284    2       78.174800000000      10.257745896900       9.990117748700
       285    1       78.174800000000       0.000000000000       8.745050000000
       286    1       81.728200000000       6.154650000000       8.745050000000
       287    1       79.951500000000       3.077325000000       8.745050000000
       288    1       83.504900000000       9.231975000000       8.745050000000
       289    1       90.611700000000       3.077325000000       8.745050000000
       290    1       87.058300000000       9.231975000000       8.745050000000
       291    2       85.281600000000       2.051554103100       7.499982251300
       292    2       88.835000000000       8.206204103100       7.499982251300
       293    2       88.835000000000       2.051554103100       7.499982251300
       294    2       85.281600000000       4.103095896900       9.990117748700
       295    2       85.281600000000       8.206204103100       7.499982251300
       296    1       88.835000000000       0.000000000000       8.745050000000
       297    1       85.281600000000       6.154650000000       8.745050000000
       298    2       87.058300000000       5.128879103100       7.499982251300
       299    2       88.835000000000      10.257745896900       9.990117748700
       300    2       90.611700000000      11.283529103100       7.499982251300
       301    2       87.058300000000       1.025770896900       9.990117748700
       302    2       90.611700000000       7.180420896900       9.990117748700
       303    2       90.611700000000       5.128879103100       7.499982251300
       304    2       90.611700000000       1.025770896900       9.990117748700
       305    2       87.058300000000      11.283529103100       7.499982251300
       306    2       87.058300000000       7.180420896900       9.990117748700
       307    2       88.835000000000       4.103095896900       9.990117748700
       308    2       85.281600000000      10.257745896900       9.990117748700
       309    1       85.281600000000       0.000000000000       8.745050000000
       310    1       88.835000000000       6.154650000000       8.745050000000
       311    1       87.058300000000       3.077325000000       8.745050000000
       312    1       90.611700000000       9.231975000000       8.745050000000
       313    1       97.718500000000       3.077325000000       8.745050000000
       314    1       94.165100000000       9.231975000000       8.745050000000
       315    2       92.388400000000       2.051554103100       7.499982251300
       316    2       95.941800000000       8.206204103100       7.499982251300
       317    2       95.941800000000       2.051554103100       7.499982251300
       318    2       92.388400000000       4.103095896900       9.990117748700
       319    2       92.388400000000       8.206204103100       7.499982251300
       320    1       95.941800000000       0.000000000000       8.745050000000
       321    1       92.388400000000       6.154650000000       8.745050000000
       322    2       94.165100000000       5.128879103100       7.499982251300
       323    2       95.941800000000      10.257745896900       9.990117748700
       324    2       97.718500000000      11.283529103100       7.499982251300
       325    2       94.165100000000       1.025770896900       9.990117748700
       326    2       97.718500000000       7.180420896900       9.990117748700
       327    2       97.718500000000       5.128879103100       7.499982251300
       328    2       97.718500000000       1.025770896900       9.990117748700
       329    2       94.165100000000      11.283529103100       7.499982251300
       330    2       94.165100000000       7.180420896900       9.990117748700
       331    2       95.941800000000       4.103095896900       9.990117748700
       332    2       92.388400000000      10.257745896900       9.990117748700
       333    1       92.388400000000       0.000000000000       8.745050000000
       334    1       95.941800000000       6.154650000000       8.745050000000
       335    1       94.165100000000       3.077325000000       8.745050000000
       336    1       97.718500000000       9.231975000000       8.745050000000
       337    1        5.330100000000      15.386625000000       8.745050000000
       338    1        1.776700000000      21.541275000000       8.745050000000
       339    2        0.000000000000      14.360854103100       7.499982251300
       340    2        3.553400000000      20.515504103100       7.499982251300
       341    2        3.553400000000      14.360854103100       7.499982251300
       342    2        0.000000000000      16.412395896900       9.990117748700
       343    2        0.000000000000      20.515504103100       7.499982251300
       344    1        3.553400000000      12.309300000000       8.745050000000
       345    1        0.000000000000      18.463950000000       8.745050000000
       346    2        1.776700000000      17.438179103100       7.499982251300
       347    2        3.553400000000      22.567045896900       9.990117748700
       348    2        5.330100000000      23.592829103100       7.499982251300
       349    2        1.776700000000      13.335070896900       9.990117748700
       350    2        5.330100000000      19.489720896900       9.990117748700
       351    2        5.330100000000      17.438179103100       7.499982251300
       352    2        5.330100000000      13.335070896900       9.990117748700
       353    2        1.776700000000      23.592829103100       7.499982251300
       354    2        1.776700000000      19.489720896900       9.990117748700
       355    2        3.553400000000      16.412395896900       9.990117748700
       356    2        0.000000000000      22.567045896900       9.990117748700
       357    1        0.000000000000      12.309300000000       8.745050000000
       358    1        3.553400000000      18.463950000000       8.745050000000
       359    1        1.776700000000      15.386625000000       8.745050000000
       360    1        5.330100000000      21.541275000000       8.745050000000
       361    1       12.436900000000      15.386625000000       8.745050000000
       362    1        8.883500000000      21.541275000000       8.745050000000
       363    2        7.106800000000      14.360854103100       7.499982251300
       364    2       10.660200000000      20.515504103100       7.499982251300
       365    2       10.660200000000      14.360854103100       7.499982251300
       366    2        7.106800000000      16.412395896900       9.990117748700
       367    2        7.106800000000      20.515504103100       7.499982251300
       368    1       10.660200000000      12.309300000000       8.745050000000
       369    1        7.106800000000      18.463950000000       8.745050000000
       370    2        8.883500000000      17.438179103100       7.499982251300