 # Pt8 Te16
  
        2016  atoms
           2  atom types
 
      0.000000000000      96.379200000000  xlo xhi
      0.000000000000      97.378400000000  ylo yhi
      0.000000000000      17.769500000000  zlo zhi
 
Masses
 
            1   195.08400000            # Pt
            2   127.60000000            # Te
 
Atoms # atomic
 
         1    1        0.000000000000      13.911200000000       8.884750000000
         2    1        4.015800000000       6.955600000000       8.884750000000
         3    2        2.007900000000       1.159262029600      10.271961556500
         4    2        6.023700000000       8.114862029600      10.271961556500
         5    2        6.023700000000       1.159262029600      10.271961556500
         6    2        2.007900000000       8.114862029600      10.271961556500
         7    2        4.015800000000       4.637062029600      10.271961556500
         8    1        2.007900000000       3.477800000000       8.884750000000
         9    2        2.007900000000       5.796337970400       7.497538443500
        10    2        8.031600000000      11.592662029600      10.271961556500
        11    2        6.023700000000      12.751937970400       7.497538443500
        12    1        6.023700000000      10.433400000000       8.884750000000
        13    2        6.023700000000       5.796337970400       7.497538443500
        14    2        2.007900000000      12.751937970400       7.497538443500
        15    2        8.031600000000       2.318537970400       7.497538443500
        16    2        4.015800000000       9.274137970400       7.497538443500
        17    2        4.015800000000       2.318537970400       7.497538443500
        18    2        0.000000000000       9.274137970400       7.497538443500
        19    1        4.015800000000      13.911200000000       8.884750000000
        20    1        8.031600000000       6.955600000000       8.884750000000
        21    1        6.023700000000       3.477800000000       8.884750000000
        22    1        2.007900000000      10.433400000000       8.884750000000
        23    2        0.000000000000       4.637062029600      10.271961556500
        24    2        4.015800000000      11.592662029600      10.271961556500
        25    1        8.031600000000      13.911200000000       8.884750000000
        26    1       12.047400000000       6.955600000000       8.884750000000
        27    2       10.039500000000       1.159262029600      10.271961556500
        28    2       14.055300000000       8.114862029600      10.271961556500
        29    2       14.055300000000       1.159262029600      10.271961556500
        30    2       10.039500000000       8.114862029600      10.271961556500
        31    2       12.047400000000       4.637062029600      10.271961556500
        32    1       10.039500000000       3.477800000000       8.884750000000
        33    2       10.039500000000       5.796337970400       7.497538443500
        34    2       16.063200000000      11.592662029600      10.271961556500
        35    2       14.055300000000      12.751937970400       7.497538443500
        36    1       14.055300000000      10.433400000000       8.884750000000
        37    2       14.055300000000       5.796337970400       7.497538443500
        38    2       10.039500000000      12.751937970400       7.497538443500
        39    2       16.063200000000       2.318537970400       7.497538443500
        40    2       12.047400000000       9.274137970400       7.497538443500
        41    2       12.047400000000       2.318537970400       7.497538443500
        42    2        8.031600000000       9.274137970400       7.497538443500
        43    1       12.047400000000      13.911200000000       8.884750000000
        44    1       16.063200000000       6.955600000000       8.884750000000
        45    1       14.055300000000       3.477800000000       8.884750000000
        46    1       10.039500000000      10.433400000000       8.884750000000
        47    2        8.031600000000       4.637062029600      10.271961556500
        48    2       12.047400000000      11.592662029600      10.271961556500
        49    1       16.063200000000      13.911200000000       8.884750000000
        50    1       20.079000000000       6.955600000000       8.884750000000
        51    2       18.071100000000       1.159262029600      10.271961556500
        52    2       22.086900000000       8.114862029600      10.271961556500
        53    2       22.086900000000       1.159262029600      10.271961556500
        54    2       18.071100000000       8.114862029600      10.271961556500
        55    2       20.079000000000       4.637062029600      10.271961556500
        56    1       18.071100000000       3.477800000000       8.884750000000
        57    2       18.071100000000       5.796337970400       7.497538443500
        58    2       24.094800000000      11.592662029600      10.271961556500
        59    2       22.086900000000      12.751937970400       7.497538443500
        60    1       22.086900000000      10.433400000000       8.884750000000
        61    2       22.086900000000       5.796337970400       7.497538443500
        62    2       18.071100000000      12.751937970400       7.497538443500
        63    2       24.094800000000       2.318537970400       7.497538443500
        64    2       20.079000000000       9.274137970400       7.497538443500
        65    2       20.079000000000       2.318537970400       7.497538443500
        66    2       16.063200000000       9.274137970400       7.497538443500
        67    1       20.079000000000      13.911200000000       8.884750000000
        68    1       24.094800000000       6.955600000000       8.884750000000
        69    1       22.086900000000       3.477800000000       8.884750000000
        70    1       18.071100000000      10.433400000000       8.884750000000
        71    2       16.063200000000       4.637062029600      10.271961556500
        72    2       20.079000000000      11.592662029600      10.271961556500
        73    1       24.094800000000      13.911200000000       8.884750000000
        74    1       28.110600000000       6.955600000000       8.884750000000
        75    2       26.102700000000       1.159262029600      10.271961556500
        76    2       30.118500000000       8.114862029600      10.271961556500
        77    2       30.118500000000       1.159262029600      10.271961556500
        78    2       26.102700000000       8.114862029600      10.271961556500
        79    2       28.110600000000       4.637062029600      10.271961556500
        80    1       26.102700000000       3.477800000000       8.884750000000
        81    2       26.102700000000       5.796337970400       7.497538443500
        82    2       32.126400000000      11.592662029600      10.271961556500
        83    2       30.118500000000      12.751937970400       7.497538443500
        84    1       30.118500000000      10.433400000000       8.884750000000
        85    2       30.118500000000       5.796337970400       7.497538443500
        86    2       26.102700000000      12.751937970400       7.497538443500
        87    2       32.126400000000       2.318537970400       7.497538443500
        88    2       28.110600000000       9.274137970400       7.497538443500
        89    2       28.110600000000       2.318537970400       7.497538443500
        90    2       24.094800000000       9.274137970400       7.497538443500
        91    1       28.110600000000      13.911200000000       8.884750000000
        92    1       32.126400000000       6.955600000000       8.884750000000
        93    1       30.118500000000       3.477800000000       8.884750000000
        94    1       26.102700000000      10.433400000000       8.884750000000
        95    2       24.094800000000       4.637062029600      10.271961556500
        96    2       28.110600000000      11.592662029600      10.271961556500
        97    1       32.126400000000      13.911200000000       8.884750000000
        98    1       36.142200000000       6.955600000000       8.884750000000
        99    2       34.134300000000       1.159262029600      10.271961556500
       100    2       38.150100000000       8.114862029600      10.271961556500
       101    2       38.150100000000       1.159262029600      10.271961556500
       102    2       34.134300000000       8.114862029600      10.271961556500
       103    2       36.142200000000       4.637062029600      10.271961556500
       104    1       34.134300000000       3.477800000000       8.884750000000
       105    2       34.134300000000       5.796337970400       7.497538443500
       106    2       40.158000000000      11.592662029600      10.271961556500
       107    2       38.150100000000      12.751937970400       7.497538443500
       108    1       38.150100000000      10.433400000000       8.884750000000
       109    2       38.150100000000       5.796337970400       7.497538443500
       110    2       34.134300000000      12.751937970400       7.497538443500
       111    2       40.158000000000       2.318537970400       7.497538443500
       112    2       36.142200000000       9.274137970400       7.497538443500
       113    2       36.142200000000       2.318537970400       7.497538443500
       114    2       32.126400000000       9.274137970400       7.497538443500
       115    1       36.142200000000      13.911200000000       8.884750000000
       116    1       40.158000000000       6.955600000000       8.884750000000
       117    1       38.150100000000       3.477800000000       8.884750000000
       118    1       34.134300000000      10.433400000000       8.884750000000
       119    2       32.126400000000       4.637062029600      10.271961556500
       120    2       36.142200000000      11.592662029600      10.271961556500
       121    1       40.158000000000      13.911200000000       8.884750000000
       122    1       44.173800000000       6.955600000000       8.884750000000
       123    2       42.165900000000       1.159262029600      10.271961556500
       124    2       46.181700000000       8.114862029600      10.271961556500
       125    2       46.181700000000       1.159262029600      10.271961556500
       126    2       42.165900000000       8.114862029600      10.271961556500
       127    2       44.173800000000       4.637062029600      10.271961556500
       128    1       42.165900000000       3.477800000000       8.884750000000
       129    2       42.165900000000       5.796337970400       7.497538443500
       130    2       48.189600000000      11.592662029600      10.271961556500
       131    2       46.181700000000      12.751937970400       7.497538443500
       132    1       46.181700000000      10.433400000000       8.884750000000
       133    2       46.181700000000       5.796337970400       7.497538443500
       134    2       42.165900000000      12.751937970400       7.497538443500
       135    2       48.189600000000       2.318537970400       7.497538443500
       136    2       44.173800000000       9.274137970400       7.497538443500
       137    2       44.173800000000       2.318537970400       7.497538443500
       138    2       40.158000000000       9.274137970400       7.497538443500
       139    1       44.173800000000      13.911200000000       8.884750000000
       140    1       48.189600000000       6.955600000000       8.884750000000
       141    1       46.181700000000       3.477800000000       8.884750000000
       142    1       42.165900000000      10.433400000000       8.884750000000
       143    2       40.158000000000       4.637062029600      10.271961556500
       144    2       44.173800000000      11.592662029600      10.271961556500
       145    1       48.189600000000      13.911200000000       8.884750000000
       146    1       52.205400000000       6.955600000000       8.884750000000
       147    2       50.197500000000       1.159262029600      10.271961556500
       148    2       54.213300000000       8.114862029600      10.271961556500
       149    2       54.213300000000       1.159262029600      10.271961556500
       150    2       50.197500000000       8.114862029600      10.271961556500
       151    2       52.205400000000       4.637062029600      10.271961556500
       152    1       50.197500000000       3.477800000000       8.884750000000
       153    2       50.197500000000       5.796337970400       7.497538443500
       154    2       56.221200000000      11.592662029600      10.271961556500
       155    2       54.213300000000      12.751937970400       7.497538443500
       156    1       54.213300000000      10.433400000000       8.884750000000
       157    2       54.213300000000       5.796337970400       7.497538443500
       158    2       50.197500000000      12.751937970400       7.497538443500
       159    2       56.221200000000       2.318537970400       7.497538443500
       160    2       52.205400000000       9.274137970400       7.497538443500
       161    2       52.205400000000       2.318537970400       7.497538443500
       162    2       48.189600000000       9.274137970400       7.497538443500
       163    1       52.205400000000      13.911200000000       8.884750000000
       164    1       56.221200000000       6.955600000000       8.884750000000
       165    1       54.213300000000       3.477800000000       8.884750000000
       166    1       50.197500000000      10.433400000000       8.884750000000
       167    2       48.189600000000       4.637062029600      10.271961556500
       168    2       52.205400000000      11.592662029600      10.271961556500
       169    1       56.221200000000      13.911200000000       8.884750000000
       170    1       60.237000000000       6.955600000000       8.884750000000
       171    2       58.229100000000       1.159262029600      10.271961556500
       172    2       62.244900000000       8.114862029600      10.271961556500
       173    2       62.244900000000       1.159262029600      10.271961556500
       174    2       58.229100000000       8.114862029600      10.271961556500
       175    2       60.237000000000       4.637062029600      10.271961556500
       176    1       58.229100000000       3.477800000000       8.884750000000
       177    2       58.229100000000       5.796337970400       7.497538443500
       178    2       64.252800000000      11.592662029600      10.271961556500
       179    2       62.244900000000      12.751937970400       7.497538443500
       180    1       62.244900000000      10.433400000000       8.884750000000
       181    2       62.244900000000       5.796337970400       7.497538443500
       182    2       58.229100000000      12.751937970400       7.497538443500
       183    2       64.252800000000       2.318537970400       7.497538443500
       184    2       60.237000000000       9.274137970400       7.497538443500
       185    2       60.237000000000       2.318537970400       7.497538443500
       186    2       56.221200000000       9.274137970400       7.497538443500
       187    1       60.237000000000      13.911200000000       8.884750000000
       188    1       64.252800000000       6.955600000000       8.884750000000
       189    1       62.244900000000       3.477800000000       8.884750000000
       190    1       58.229100000000      10.433400000000       8.884750000000
       191    2       56.221200000000       4.637062029600      10.271961556500
       192    2       60.237000000000      11.592662029600      10.271961556500
       193    1       64.252800000000      13.911200000000       8.884750000000
       194    1       68.268600000000       6.955600000000       8.884750000000
       195    2       66.260700000000       1.159262029600      10.271961556500
       196    2       70.276500000000       8.114862029600      10.271961556500
       197    2       70.276500000000       1.159262029600      10.271961556500
       198    2       66.260700000000       8.114862029600      10.271961556500
       199    2       68.268600000000       4.637062029600      10.271961556500
       200    1       66.260700000000       3.477800000000       8.884750000000
       201    2       66.260700000000       5.796337970400       7.497538443500
       202    2       72.284400000000      11.592662029600      10.271961556500
       203    2       70.276500000000      12.751937970400       7.497538443500
       204    1       70.276500000000      10.433400000000       8.884750000000
       205    2       70.276500000000       5.796337970400       7.497538443500
       206    2       66.260700000000      12.751937970400       7.497538443500
       207    2       72.284400000000       2.318537970400       7.497538443500
       208    2       68.268600000000       9.274137970400       7.497538443500
       209    2       68.268600000000       2.318537970400       7.497538443500
       210    2       64.252800000000       9.274137970400       7.497538443500
       211    1       68.268600000000      13.911200000000       8.884750000000
       212    1       72.284400000000       6.955600000000       8.884750000000
       213    1       70.276500000000       3.477800000000       8.884750000000
       214    1       66.260700000000      10.433400000000       8.884750000000
       215    2       64.252800000000       4.637062029600      10.271961556500
       216    2       68.268600000000      11.592662029600      10.271961556500
       217    1       72.284400000000      13.911200000000       8.884750000000
       218    1       76.300200000000       6.955600000000       8.884750000000
       219    2       74.292300000000       1.159262029600      10.271961556500
       220    2       78.308100000000       8.114862029600      10.271961556500
       221    2       78.308100000000       1.159262029600      10.271961556500
       222    2       74.292300000000       8.114862029600      10.271961556500
       223    2       76.300200000000       4.637062029600      10.271961556500
       224    1       74.292300000000       3.477800000000       8.884750000000
       225    2       74.292300000000       5.796337970400       7.497538443500
       226    2       80.316000000000      11.592662029600      10.271961556500
       227    2       78.308100000000      12.751937970400       7.497538443500
       228    1       78.308100000000      10.433400000000       8.884750000000
       229    2       78.308100000000       5.796337970400       7.497538443500
       230    2       74.292300000000      12.751937970400       7.497538443500
       231    2       80.316000000000       2.318537970400       7.497538443500
       232    2       76.300200000000       9.274137970400       7.497538443500
       233    2       76.300200000000       2.318537970400       7.497538443500
       234    2       72.284400000000       9.274137970400       7.497538443500
       235    1       76.300200000000      13.911200000000       8.884750000000
       236    1       80.316000000000       6.955600000000       8.884750000000
       237    1       78.308100000000       3.477800000000       8.884750000000
       238    1       74.292300000000      10.433400000000       8.884750000000
       239    2       72.284400000000       4.637062029600      10.271961556500
       240    2       76.300200000000      11.592662029600      10.271961556500
       241    1       80.316000000000      13.911200000000       8.884750000000
       242    1       84.331800000000       6.955600000000       8.884750000000
       243    2       82.323900000000       1.159262029600      10.271961556500
       244    2       86.339700000000       8.114862029600      10.271961556500
       245    2       86.339700000000       1.159262029600      10.271961556500
       246    2       82.323900000000       8.114862029600      10.271961556500
       247    2       84.331800000000       4.637062029600      10.271961556500
       248    1       82.323900000000       3.477800000000       8.884750000000
       249    2       82.323900000000       5.796337970400       7.497538443500
       250    2       88.347600000000      11.592662029600      10.271961556500
       251    2       86.339700000000      12.751937970400       7.497538443500
       252    1       86.339700000000      10.433400000000       8.884750000000
       253    2       86.339700000000       5.796337970400       7.497538443500
       254    2       82.323900000000      12.751937970400       7.497538443500
       255    2       88.347600000000       2.318537970400       7.497538443500
       256    2       84.331800000000       9.274137970400       7.497538443500
       257    2       84.331800000000       2.318537970400       7.497538443500
       258    2       80.316000000000       9.274137970400       7.497538443500
       259    1       84.331800000000      13.911200000000       8.884750000000
       260    1       88.347600000000       6.955600000000       8.884750000000
       261    1       86.339700000000       3.477800000000       8.884750000000
       262    1       82.323900000000      10.433400000000       8.884750000000
       263    2       80.316000000000       4.637062029600      10.271961556500
       264    2       84.331800000000      11.592662029600      10.271961556500
       265    1       88.347600000000      13.911200000000       8.884750000000
       266    1       92.363400000000       6.955600000000       8.884750000000
       267    2       90.355500000000       1.159262029600      10.271961556500
       268    2       94.371300000000       8.114862029600      10.271961556500
       269    2       94.371300000000       1.159262029600      10.271961556500
       270    2       90.355500000000       8.114862029600      10.271961556500
       271    2       92.363400000000       4.637062029600      10.271961556500
       272    1       90.355500000000       3.477800000000       8.884750000000
       273    2       90.355500000000       5.796337970400       7.497538443500
       274    2       96.379200000000      11.592662029600      10.271961556500
       275    2       94.371300000000      12.751937970400       7.497538443500
       276    1       94.371300000000      10.433400000000       8.884750000000
       277    2       94.371300000000       5.796337970400       7.497538443500
       278    2       90.355500000000      12.751937970400       7.497538443500
       279    2       96.379200000000       2.318537970400       7.497538443500
       280    2       92.363400000000       9.274137970400       7.497538443500
       281    2       92.363400000000       2.318537970400       7.497538443500
       282    2       88.347600000000       9.274137970400       7.497538443500
       283    1       92.363400000000      13.911200000000       8.884750000000
       284    1       96.379200000000       6.955600000000       8.884750000000
       285    1       94.371300000000       3.477800000000       8.884750000000
       286    1       90.355500000000      10.433400000000       8.884750000000
       287    2       88.347600000000       4.637062029600      10.271961556500
       288    2       92.363400000000      11.592662029600      10.271961556500
       289    1        0.000000000000      27.822400000000       8.884750000000
       290    1        4.015800000000      20.866800000000       8.884750000000
       291    2        2.007900000000      15.070462029600      10.271961556500
       292    2        6.023700000000      22.026062029600      10.271961556500
       293    2        6.023700000000      15.070462029600      10.271961556500
       294    2        2.007900000000      22.026062029600      10.271961556500
       295    2        4.015800000000      18.548262029600      10.271961556500
       296    1        2.007900000000      17.389000000000       8.884750000000
       297    2        2.007900000000      19.707537970400       7.497538443500
       298    2        8.031600000000      25.503862029600      10.271961556500
       299    2        6.023700000000      26.663137970400       7.497538443500
       300    1        6.023700000000      24.344600000000       8.884750000000
       301    2        6.023700000000      19.707537970400       7.497538443500
       302    2        2.007900000000      26.663137970400       7.497538443500
       303    2        8.031600000000      16.229737970400       7.497538443500
       304    2        4.015800000000      23.185337970400       7.497538443500
       305    2        4.015800000000      16.229737970400       7.497538443500
       306    2        0.000000000000      23.185337970400       7.497538443500
       307    1        4.015800000000      27.822400000000       8.884750000000
       308    1        8.031600000000      20.866800000000       8.884750000000
       309    1        6.023700000000      17.389000000000       8.884750000000
       310    1        2.007900000000      24.344600000000       8.884750000000
       311    2        0.000000000000      18.548262029600      10.271961556500
       312    2        4.015800000000      25.503862029600      10.271961556500
       313    1        8.031600000000      27.822400000000       8.884750000000
       314    1       12.047400000000      20.866800000000       8.884750000000
       315    2       10.039500000000      15.070462029600      10.271961556500
       316    2       14.055300000000      22.026062029600      10.271961556500
       317    2       14.055300000000      15.070462029600      10.271961556500
       318    2       10.039500000000      22.026062029600      10.271961556500
       319    2       12.047400000000      18.548262029600      10.271961556500
       320    1       10.039500000000      17.389000000000       8.884750000000
       321    2       10.039500000000      19.707537970400       7.497538443500
       322    2       16.063200000000      25.503862029600      10.271961556500
       323    2       14.055300000000      26.663137970400       7.497538443500
       324    1       14.055300000000      24.344600000000       8.884750000000
       325    2       14.055300000000      19.707537970400       7.497538443500
       326    2       10.039500000000      26.663137970400       7.497538443500
       327    2       16.063200000000      16.229737970400       7.497538443500
       328    2       12.047400000000      23.185337970400       7.497538443500
       329    2       12.047400000000      16.229737970400       7.497538443500
       330    2        8.031600000000      23.185337970400       7.497538443500
       331    1       12.047400000000      27.822400000000       8.884750000000
       332    1       16.063200000000      20.866800000000       8.884750000000
       333    1       14.055300000000      17.389000000000       8.884750000000
       334    1       10.039500000000      24.344600000000       8.884750000000
       335    2        8.031600000000      18.548262029600      10.271961556500
       336    2       12.047400000000      25.503862029600      10.271961556500
       337    1       16.063200000000      27.822400000000       8.884750000000
       338    1       20.079000000000      20.866800000000       8.884750000000
       339    2       18.071100000000      15.070462029600      10.271961556500
       340    2       22.086900000000      22.026062029600      10.271961556500
       341    2       22.086900000000      15.070462029600      10.271961556500
       342    2       18.071100000000      22.026062029600      10.271961556500
       343    2       20.079000000000      18.548262029600      10.271961556500
       344    1       18.071100000000      17.389000000000       8.884750000000
       345    2       18.071100000000      19.707537970400       7.497538443500
       346    2       24.094800000000      25.503862029600      10.271961556500
       347    2       22.086900000000      26.663137970400       7.497538443500
       348    1       22.086900000000      24.344600000000       8.884750000000
       349    2       22.086900000000      19.707537970400       7.497538443500
       350    2       18.071100000000      26.663137970400       7.497538443500
       351    2       24.094800000000      16.229737970400       7.497538443500
       352    2       20.079000000000      23.185337970400       7.497538443500
       353    2       20.079000000000      16.229737970400       7.497538443500
       354    2       16.063200000000      23.185337970400       7.497538443500
       355    1       20.079000000000      27.822400000000       8.884750000000
       356    1       24.094800000000      20.866800000000       8.884750000000
       357    1       22.086900000000      17.389000000000       8.884750000000
       358    1       18.071100000000      24.344600000000       8.884750000000
       359    2       16.063200000000      18.548262029600      10.271961556500
       360    2       20.079000000000      25.503862029600      10.271961556500
       361    1       24.094800000000      27.822400000000       8.884750000000
       362    1       28.110600000000      20.866800000000       8.884750000000
       363    2       26.102700000000      15.070462029600      10.271961556500
       364    2       30.118500000000      22.026062029600      10.271961556500
       365    2       30.118500000000      15.070462029600      10.271961556500
       366    2       26.102700000000      22.026062029600      10.271961556500
       367    2       28.110600000000      18.548262029600      10.271961556500
       368    1       26.102700000000      17.389000000000       8.884750000000
       369    2       26.102700000000      19.707537970400       7.497538443500
       370    2       32.126400000000      25.503862029600      10.271961556500