 # Se16 Re8
  
        3456  atoms
           2  atom types
 
      0.000000000000     101.508800000000  xlo xhi
      0.000000000000      98.897400000000  ylo yhi
      0.000000000000      18.540100000000  zlo zhi
 
Masses
 
            1   78.96000000             # Se
            2   186.20700000            # Re
 
Atoms # atomic
 
         1    1        3.172150000000       1.831436996200       7.488272229600
         2    1        1.586075000000       4.578586996200       7.488272229600
         3    1        0.000000000000       7.325736996200       7.488272229600
         4    1        4.758225000000      10.072886996200       7.488272229600
         5    1        0.000000000000       1.831436996200       7.488272229600
         6    1        3.172150000000       7.325736996200       7.488272229600
         7    1        4.758225000000       4.578586996200       7.488272229600
         8    1        3.172150000000       3.662863003800      11.051827770400
         9    1        1.586075000000      10.072886996200       7.488272229600
        10    1        6.344300000000       9.157163003800      11.051827770400
        11    2        1.586075000000       2.747150000000       9.270050000000
        12    2        4.758225000000       8.241450000000       9.270050000000
        13    2        3.172150000000       0.000000000000       9.270050000000
        14    2        0.000000000000       5.494300000000       9.270050000000
        15    1        4.758225000000       0.915713003800      11.051827770400
        16    1        1.586075000000       6.410013003800      11.051827770400
        17    1        6.344300000000       3.662863003800      11.051827770400
        18    1        3.172150000000       9.157163003800      11.051827770400
        19    2        4.758225000000       2.747150000000       9.270050000000
        20    2        1.586075000000       8.241450000000       9.270050000000
        21    1        1.586075000000       0.915713003800      11.051827770400
        22    1        4.758225000000       6.410013003800      11.051827770400
        23    2        0.000000000000       0.000000000000       9.270050000000
        24    2        3.172150000000       5.494300000000       9.270050000000
        25    1        9.516450000000       1.831436996200       7.488272229600
        26    1        7.930375000000       4.578586996200       7.488272229600
        27    1        6.344300000000       7.325736996200       7.488272229600
        28    1       11.102525000000      10.072886996200       7.488272229600
        29    1        6.344300000000       1.831436996200       7.488272229600
        30    1        9.516450000000       7.325736996200       7.488272229600
        31    1       11.102525000000       4.578586996200       7.488272229600
        32    1        9.516450000000       3.662863003800      11.051827770400
        33    1        7.930375000000      10.072886996200       7.488272229600
        34    1       12.688600000000       9.157163003800      11.051827770400
        35    2        7.930375000000       2.747150000000       9.270050000000
        36    2       11.102525000000       8.241450000000       9.270050000000
        37    2        9.516450000000       0.000000000000       9.270050000000
        38    2        6.344300000000       5.494300000000       9.270050000000
        39    1       11.102525000000       0.915713003800      11.051827770400
        40    1        7.930375000000       6.410013003800      11.051827770400
        41    1       12.688600000000       3.662863003800      11.051827770400
        42    1        9.516450000000       9.157163003800      11.051827770400
        43    2       11.102525000000       2.747150000000       9.270050000000
        44    2        7.930375000000       8.241450000000       9.270050000000
        45    1        7.930375000000       0.915713003800      11.051827770400
        46    1       11.102525000000       6.410013003800      11.051827770400
        47    2        6.344300000000       0.000000000000       9.270050000000
        48    2        9.516450000000       5.494300000000       9.270050000000
        49    1       15.860750000000       1.831436996200       7.488272229600
        50    1       14.274675000000       4.578586996200       7.488272229600
        51    1       12.688600000000       7.325736996200       7.488272229600
        52    1       17.446825000000      10.072886996200       7.488272229600
        53    1       12.688600000000       1.831436996200       7.488272229600
        54    1       15.860750000000       7.325736996200       7.488272229600
        55    1       17.446825000000       4.578586996200       7.488272229600
        56    1       15.860750000000       3.662863003800      11.051827770400
        57    1       14.274675000000      10.072886996200       7.488272229600
        58    1       19.032900000000       9.157163003800      11.051827770400
        59    2       14.274675000000       2.747150000000       9.270050000000
        60    2       17.446825000000       8.241450000000       9.270050000000
        61    2       15.860750000000       0.000000000000       9.270050000000
        62    2       12.688600000000       5.494300000000       9.270050000000
        63    1       17.446825000000       0.915713003800      11.051827770400
        64    1       14.274675000000       6.410013003800      11.051827770400
        65    1       19.032900000000       3.662863003800      11.051827770400
        66    1       15.860750000000       9.157163003800      11.051827770400
        67    2       17.446825000000       2.747150000000       9.270050000000
        68    2       14.274675000000       8.241450000000       9.270050000000
        69    1       14.274675000000       0.915713003800      11.051827770400
        70    1       17.446825000000       6.410013003800      11.051827770400
        71    2       12.688600000000       0.000000000000       9.270050000000
        72    2       15.860750000000       5.494300000000       9.270050000000
        73    1       22.205050000000       1.831436996200       7.488272229600
        74    1       20.618975000000       4.578586996200       7.488272229600
        75    1       19.032900000000       7.325736996200       7.488272229600
        76    1       23.791125000000      10.072886996200       7.488272229600
        77    1       19.032900000000       1.831436996200       7.488272229600
        78    1       22.205050000000       7.325736996200       7.488272229600
        79    1       23.791125000000       4.578586996200       7.488272229600
        80    1       22.205050000000       3.662863003800      11.051827770400
        81    1       20.618975000000      10.072886996200       7.488272229600
        82    1       25.377200000000       9.157163003800      11.051827770400
        83    2       20.618975000000       2.747150000000       9.270050000000
        84    2       23.791125000000       8.241450000000       9.270050000000
        85    2       22.205050000000       0.000000000000       9.270050000000
        86    2       19.032900000000       5.494300000000       9.270050000000
        87    1       23.791125000000       0.915713003800      11.051827770400
        88    1       20.618975000000       6.410013003800      11.051827770400
        89    1       25.377200000000       3.662863003800      11.051827770400
        90    1       22.205050000000       9.157163003800      11.051827770400
        91    2       23.791125000000       2.747150000000       9.270050000000
        92    2       20.618975000000       8.241450000000       9.270050000000
        93    1       20.618975000000       0.915713003800      11.051827770400
        94    1       23.791125000000       6.410013003800      11.051827770400
        95    2       19.032900000000       0.000000000000       9.270050000000
        96    2       22.205050000000       5.494300000000       9.270050000000
        97    1       28.549350000000       1.831436996200       7.488272229600
        98    1       26.963275000000       4.578586996200       7.488272229600
        99    1       25.377200000000       7.325736996200       7.488272229600
       100    1       30.135425000000      10.072886996200       7.488272229600
       101    1       25.377200000000       1.831436996200       7.488272229600
       102    1       28.549350000000       7.325736996200       7.488272229600
       103    1       30.135425000000       4.578586996200       7.488272229600
       104    1       28.549350000000       3.662863003800      11.051827770400
       105    1       26.963275000000      10.072886996200       7.488272229600
       106    1       31.721500000000       9.157163003800      11.051827770400
       107    2       26.963275000000       2.747150000000       9.270050000000
       108    2       30.135425000000       8.241450000000       9.270050000000
       109    2       28.549350000000       0.000000000000       9.270050000000
       110    2       25.377200000000       5.494300000000       9.270050000000
       111    1       30.135425000000       0.915713003800      11.051827770400
       112    1       26.963275000000       6.410013003800      11.051827770400
       113    1       31.721500000000       3.662863003800      11.051827770400
       114    1       28.549350000000       9.157163003800      11.051827770400
       115    2       30.135425000000       2.747150000000       9.270050000000
       116    2       26.963275000000       8.241450000000       9.270050000000
       117    1       26.963275000000       0.915713003800      11.051827770400
       118    1       30.135425000000       6.410013003800      11.051827770400
       119    2       25.377200000000       0.000000000000       9.270050000000
       120    2       28.549350000000       5.494300000000       9.270050000000
       121    1       34.893650000000       1.831436996200       7.488272229600
       122    1       33.307575000000       4.578586996200       7.488272229600
       123    1       31.721500000000       7.325736996200       7.488272229600
       124    1       36.479725000000      10.072886996200       7.488272229600
       125    1       31.721500000000       1.831436996200       7.488272229600
       126    1       34.893650000000       7.325736996200       7.488272229600
       127    1       36.479725000000       4.578586996200       7.488272229600
       128    1       34.893650000000       3.662863003800      11.051827770400
       129    1       33.307575000000      10.072886996200       7.488272229600
       130    1       38.065800000000       9.157163003800      11.051827770400
       131    2       33.307575000000       2.747150000000       9.270050000000
       132    2       36.479725000000       8.241450000000       9.270050000000
       133    2       34.893650000000       0.000000000000       9.270050000000
       134    2       31.721500000000       5.494300000000       9.270050000000
       135    1       36.479725000000       0.915713003800      11.051827770400
       136    1       33.307575000000       6.410013003800      11.051827770400
       137    1       38.065800000000       3.662863003800      11.051827770400
       138    1       34.893650000000       9.157163003800      11.051827770400
       139    2       36.479725000000       2.747150000000       9.270050000000
       140    2       33.307575000000       8.241450000000       9.270050000000
       141    1       33.307575000000       0.915713003800      11.051827770400
       142    1       36.479725000000       6.410013003800      11.051827770400
       143    2       31.721500000000       0.000000000000       9.270050000000
       144    2       34.893650000000       5.494300000000       9.270050000000
       145    1       41.237950000000       1.831436996200       7.488272229600
       146    1       39.651875000000       4.578586996200       7.488272229600
       147    1       38.065800000000       7.325736996200       7.488272229600
       148    1       42.824025000000      10.072886996200       7.488272229600
       149    1       38.065800000000       1.831436996200       7.488272229600
       150    1       41.237950000000       7.325736996200       7.488272229600
       151    1       42.824025000000       4.578586996200       7.488272229600
       152    1       41.237950000000       3.662863003800      11.051827770400
       153    1       39.651875000000      10.072886996200       7.488272229600
       154    1       44.410100000000       9.157163003800      11.051827770400
       155    2       39.651875000000       2.747150000000       9.270050000000
       156    2       42.824025000000       8.241450000000       9.270050000000
       157    2       41.237950000000       0.000000000000       9.270050000000
       158    2       38.065800000000       5.494300000000       9.270050000000
       159    1       42.824025000000       0.915713003800      11.051827770400
       160    1       39.651875000000       6.410013003800      11.051827770400
       161    1       44.410100000000       3.662863003800      11.051827770400
       162    1       41.237950000000       9.157163003800      11.051827770400
       163    2       42.824025000000       2.747150000000       9.270050000000
       164    2       39.651875000000       8.241450000000       9.270050000000
       165    1       39.651875000000       0.915713003800      11.051827770400
       166    1       42.824025000000       6.410013003800      11.051827770400
       167    2       38.065800000000       0.000000000000       9.270050000000
       168    2       41.237950000000       5.494300000000       9.270050000000
       169    1       47.582250000000       1.831436996200       7.488272229600
       170    1       45.996175000000       4.578586996200       7.488272229600
       171    1       44.410100000000       7.325736996200       7.488272229600
       172    1       49.168325000000      10.072886996200       7.488272229600
       173    1       44.410100000000       1.831436996200       7.488272229600
       174    1       47.582250000000       7.325736996200       7.488272229600
       175    1       49.168325000000       4.578586996200       7.488272229600
       176    1       47.582250000000       3.662863003800      11.051827770400
       177    1       45.996175000000      10.072886996200       7.488272229600
       178    1       50.754400000000       9.157163003800      11.051827770400
       179    2       45.996175000000       2.747150000000       9.270050000000
       180    2       49.168325000000       8.241450000000       9.270050000000
       181    2       47.582250000000       0.000000000000       9.270050000000
       182    2       44.410100000000       5.494300000000       9.270050000000
       183    1       49.168325000000       0.915713003800      11.051827770400
       184    1       45.996175000000       6.410013003800      11.051827770400
       185    1       50.754400000000       3.662863003800      11.051827770400
       186    1       47.582250000000       9.157163003800      11.051827770400
       187    2       49.168325000000       2.747150000000       9.270050000000
       188    2       45.996175000000       8.241450000000       9.270050000000
       189    1       45.996175000000       0.915713003800      11.051827770400
       190    1       49.168325000000       6.410013003800      11.051827770400
       191    2       44.410100000000       0.000000000000       9.270050000000
       192    2       47.582250000000       5.494300000000       9.270050000000
       193    1       53.926550000000       1.831436996200       7.488272229600
       194    1       52.340475000000       4.578586996200       7.488272229600
       195    1       50.754400000000       7.325736996200       7.488272229600
       196    1       55.512625000000      10.072886996200       7.488272229600
       197    1       50.754400000000       1.831436996200       7.488272229600
       198    1       53.926550000000       7.325736996200       7.488272229600
       199    1       55.512625000000       4.578586996200       7.488272229600
       200    1       53.926550000000       3.662863003800      11.051827770400
       201    1       52.340475000000      10.072886996200       7.488272229600
       202    1       57.098700000000       9.157163003800      11.051827770400
       203    2       52.340475000000       2.747150000000       9.270050000000
       204    2       55.512625000000       8.241450000000       9.270050000000
       205    2       53.926550000000       0.000000000000       9.270050000000
       206    2       50.754400000000       5.494300000000       9.270050000000
       207    1       55.512625000000       0.915713003800      11.051827770400
       208    1       52.340475000000       6.410013003800      11.051827770400
       209    1       57.098700000000       3.662863003800      11.051827770400
       210    1       53.926550000000       9.157163003800      11.051827770400
       211    2       55.512625000000       2.747150000000       9.270050000000
       212    2       52.340475000000       8.241450000000       9.270050000000
       213    1       52.340475000000       0.915713003800      11.051827770400
       214    1       55.512625000000       6.410013003800      11.051827770400
       215    2       50.754400000000       0.000000000000       9.270050000000
       216    2       53.926550000000       5.494300000000       9.270050000000
       217    1       60.270850000000       1.831436996200       7.488272229600
       218    1       58.684775000000       4.578586996200       7.488272229600
       219    1       57.098700000000       7.325736996200       7.488272229600
       220    1       61.856925000000      10.072886996200       7.488272229600
       221    1       57.098700000000       1.831436996200       7.488272229600
       222    1       60.270850000000       7.325736996200       7.488272229600
       223    1       61.856925000000       4.578586996200       7.488272229600
       224    1       60.270850000000       3.662863003800      11.051827770400
       225    1       58.684775000000      10.072886996200       7.488272229600
       226    1       63.443000000000       9.157163003800      11.051827770400
       227    2       58.684775000000       2.747150000000       9.270050000000
       228    2       61.856925000000       8.241450000000       9.270050000000
       229    2       60.270850000000       0.000000000000       9.270050000000
       230    2       57.098700000000       5.494300000000       9.270050000000
       231    1       61.856925000000       0.915713003800      11.051827770400
       232    1       58.684775000000       6.410013003800      11.051827770400
       233    1       63.443000000000       3.662863003800      11.051827770400
       234    1       60.270850000000       9.157163003800      11.051827770400
       235    2       61.856925000000       2.747150000000       9.270050000000
       236    2       58.684775000000       8.241450000000       9.270050000000
       237    1       58.684775000000       0.915713003800      11.051827770400
       238    1       61.856925000000       6.410013003800      11.051827770400
       239    2       57.098700000000       0.000000000000       9.270050000000
       240    2       60.270850000000       5.494300000000       9.270050000000
       241    1       66.615150000000       1.831436996200       7.488272229600
       242    1       65.029075000000       4.578586996200       7.488272229600
       243    1       63.443000000000       7.325736996200       7.488272229600
       244    1       68.201225000000      10.072886996200       7.488272229600
       245    1       63.443000000000       1.831436996200       7.488272229600
       246    1       66.615150000000       7.325736996200       7.488272229600
       247    1       68.201225000000       4.578586996200       7.488272229600
       248    1       66.615150000000       3.662863003800      11.051827770400
       249    1       65.029075000000      10.072886996200       7.488272229600
       250    1       69.787300000000       9.157163003800      11.051827770400
       251    2       65.029075000000       2.747150000000       9.270050000000
       252    2       68.201225000000       8.241450000000       9.270050000000
       253    2       66.615150000000       0.000000000000       9.270050000000
       254    2       63.443000000000       5.494300000000       9.270050000000
       255    1       68.201225000000       0.915713003800      11.051827770400
       256    1       65.029075000000       6.410013003800      11.051827770400
       257    1       69.787300000000       3.662863003800      11.051827770400
       258    1       66.615150000000       9.157163003800      11.051827770400
       259    2       68.201225000000       2.747150000000       9.270050000000
       260    2       65.029075000000       8.241450000000       9.270050000000
       261    1       65.029075000000       0.915713003800      11.051827770400
       262    1       68.201225000000       6.410013003800      11.051827770400
       263    2       63.443000000000       0.000000000000       9.270050000000
       264    2       66.615150000000       5.494300000000       9.270050000000
       265    1       72.959450000000       1.831436996200       7.488272229600
       266    1       71.373375000000       4.578586996200       7.488272229600
       267    1       69.787300000000       7.325736996200       7.488272229600
       268    1       74.545525000000      10.072886996200       7.488272229600
       269    1       69.787300000000       1.831436996200       7.488272229600
       270    1       72.959450000000       7.325736996200       7.488272229600
       271    1       74.545525000000       4.578586996200       7.488272229600
       272    1       72.959450000000       3.662863003800      11.051827770400
       273    1       71.373375000000      10.072886996200       7.488272229600
       274    1       76.131600000000       9.157163003800      11.051827770400
       275    2       71.373375000000       2.747150000000       9.270050000000
       276    2       74.545525000000       8.241450000000       9.270050000000
       277    2       72.959450000000       0.000000000000       9.270050000000
       278    2       69.787300000000       5.494300000000       9.270050000000
       279    1       74.545525000000       0.915713003800      11.051827770400
       280    1       71.373375000000       6.410013003800      11.051827770400
       281    1       76.131600000000       3.662863003800      11.051827770400
       282    1       72.959450000000       9.157163003800      11.051827770400
       283    2       74.545525000000       2.747150000000       9.270050000000
       284    2       71.373375000000       8.241450000000       9.270050000000
       285    1       71.373375000000       0.915713003800      11.051827770400
       286    1       74.545525000000       6.410013003800      11.051827770400
       287    2       69.787300000000       0.000000000000       9.270050000000
       288    2       72.959450000000       5.494300000000       9.270050000000
       289    1       79.303750000000       1.831436996200       7.488272229600
       290    1       77.717675000000       4.578586996200       7.488272229600
       291    1       76.131600000000       7.325736996200       7.488272229600
       292    1       80.889825000000      10.072886996200       7.488272229600
       293    1       76.131600000000       1.831436996200       7.488272229600
       294    1       79.303750000000       7.325736996200       7.488272229600
       295    1       80.889825000000       4.578586996200       7.488272229600
       296    1       79.303750000000       3.662863003800      11.051827770400
       297    1       77.717675000000      10.072886996200       7.488272229600
       298    1       82.475900000000       9.157163003800      11.051827770400
       299    2       77.717675000000       2.747150000000       9.270050000000
       300    2       80.889825000000       8.241450000000       9.270050000000
       301    2       79.303750000000       0.000000000000       9.270050000000
       302    2       76.131600000000       5.494300000000       9.270050000000
       303    1       80.889825000000       0.915713003800      11.051827770400
       304    1       77.717675000000       6.410013003800      11.051827770400
       305    1       82.475900000000       3.662863003800      11.051827770400
       306    1       79.303750000000       9.157163003800      11.051827770400
       307    2       80.889825000000       2.747150000000       9.270050000000
       308    2       77.717675000000       8.241450000000       9.270050000000
       309    1       77.717675000000       0.915713003800      11.051827770400
       310    1       80.889825000000       6.410013003800      11.051827770400
       311    2       76.131600000000       0.000000000000       9.270050000000
       312    2       79.303750000000       5.494300000000       9.270050000000
       313    1       85.648050000000       1.831436996200       7.488272229600
       314    1       84.061975000000       4.578586996200       7.488272229600
       315    1       82.475900000000       7.325736996200       7.488272229600
       316    1       87.234125000000      10.072886996200       7.488272229600
       317    1       82.475900000000       1.831436996200       7.488272229600
       318    1       85.648050000000       7.325736996200       7.488272229600
       319    1       87.234125000000       4.578586996200       7.488272229600
       320    1       85.648050000000       3.662863003800      11.051827770400
       321    1       84.061975000000      10.072886996200       7.488272229600
       322    1       88.820200000000       9.157163003800      11.051827770400
       323    2       84.061975000000       2.747150000000       9.270050000000
       324    2       87.234125000000       8.241450000000       9.270050000000
       325    2       85.648050000000       0.000000000000       9.270050000000
       326    2       82.475900000000       5.494300000000       9.270050000000
       327    1       87.234125000000       0.915713003800      11.051827770400
       328    1       84.061975000000       6.410013003800      11.051827770400
       329    1       88.820200000000       3.662863003800      11.051827770400
       330    1       85.648050000000       9.157163003800      11.051827770400
       331    2       87.234125000000       2.747150000000       9.270050000000
       332    2       84.061975000000       8.241450000000       9.270050000000
       333    1       84.061975000000       0.915713003800      11.051827770400
       334    1       87.234125000000       6.410013003800      11.051827770400
       335    2       82.475900000000       0.000000000000       9.270050000000
       336    2       85.648050000000       5.494300000000       9.270050000000
       337    1       91.992350000000       1.831436996200       7.488272229600
       338    1       90.406275000000       4.578586996200       7.488272229600
       339    1       88.820200000000       7.325736996200       7.488272229600
       340    1       93.578425000000      10.072886996200       7.488272229600
       341    1       88.820200000000       1.831436996200       7.488272229600
       342    1       91.992350000000       7.325736996200       7.488272229600
       343    1       93.578425000000       4.578586996200       7.488272229600
       344    1       91.992350000000       3.662863003800      11.051827770400
       345    1       90.406275000000      10.072886996200       7.488272229600
       346    1       95.164500000000       9.157163003800      11.051827770400
       347    2       90.406275000000       2.747150000000       9.270050000000
       348    2       93.578425000000       8.241450000000       9.270050000000
       349    2       91.992350000000       0.000000000000       9.270050000000
       350    2       88.820200000000       5.494300000000       9.270050000000
       351    1       93.578425000000       0.915713003800      11.051827770400
       352    1       90.406275000000       6.410013003800      11.051827770400
       353    1       95.164500000000       3.662863003800      11.051827770400
       354    1       91.992350000000       9.157163003800      11.051827770400
       355    2       93.578425000000       2.747150000000       9.270050000000
       356    2       90.406275000000       8.241450000000       9.270050000000
       357    1       90.406275000000       0.915713003800      11.051827770400
       358    1       93.578425000000       6.410013003800      11.051827770400
       359    2       88.820200000000       0.000000000000       9.270050000000
       360    2       91.992350000000       5.494300000000       9.270050000000
       361    1       98.336650000000       1.831436996200       7.488272229600
       362    1       96.750575000000       4.578586996200       7.488272229600
       363    1       95.164500000000       7.325736996200       7.488272229600
       364    1       99.922725000000      10.072886996200       7.488272229600
       365    1       95.164500000000       1.831436996200       7.488272229600
       366    1       98.336650000000       7.325736996200       7.488272229600
       367    1       99.922725000000       4.578586996200       7.488272229600
       368    1       98.336650000000       3.662863003800      11.051827770400
       369    1       96.750575000000      10.072886996200       7.488272229600
       370    1      101.508800000000       9.157163003800      11.051827770400