 # Te16 Re8
  
        3240  atoms
           2  atom types
 
      0.000000000000     101.839500000000  xlo xhi
      0.000000000000     105.834600000000  ylo yhi
      0.000000000000      18.806200000000  zlo zhi
 
Masses
 
            1   127.60000000            # Te
            2   186.20700000            # Re
 
Atoms # atomic
 
         1    1        5.091975000000       0.979946080200      11.305140261800
         2    2        3.394650000000       0.000000000000       9.403100000000
         3    1        1.697325000000       6.859646080200      11.305140261800
         4    1        0.000000000000       3.919796080200      11.305140261800
         5    2        0.000000000000       5.879700000000       9.403100000000
         6    1        3.394650000000       9.799496080200      11.305140261800
         7    1        1.697325000000       0.979946080200      11.305140261800
         8    1        3.394650000000       3.919796080200      11.305140261800
         9    1        0.000000000000       9.799496080200      11.305140261800
        10    1        5.091975000000       6.859646080200      11.305140261800
        11    1        0.000000000000       1.959903919800       7.501059738200
        12    1        3.394650000000       7.839603919800       7.501059738200
        13    2        0.000000000000       0.000000000000       9.403100000000
        14    2        3.394650000000       5.879700000000       9.403100000000
        15    1        5.091975000000       4.899753919800       7.501059738200
        16    1        1.697325000000      10.779453919800       7.501059738200
        17    2        5.091975000000       2.939850000000       9.403100000000
        18    2        1.697325000000       8.819550000000       9.403100000000
        19    1        3.394650000000       1.959903919800       7.501059738200
        20    1        0.000000000000       7.839603919800       7.501059738200
        21    2        1.697325000000       2.939850000000       9.403100000000
        22    2        5.091975000000       8.819550000000       9.403100000000
        23    1        1.697325000000       4.899753919800       7.501059738200
        24    1        5.091975000000      10.779453919800       7.501059738200
        25    1       11.881275000000       0.979946080200      11.305140261800
        26    2       10.183950000000       0.000000000000       9.403100000000
        27    1        8.486625000000       6.859646080200      11.305140261800
        28    1        6.789300000000       3.919796080200      11.305140261800
        29    2        6.789300000000       5.879700000000       9.403100000000
        30    1       10.183950000000       9.799496080200      11.305140261800
        31    1        8.486625000000       0.979946080200      11.305140261800
        32    1       10.183950000000       3.919796080200      11.305140261800
        33    1        6.789300000000       9.799496080200      11.305140261800
        34    1       11.881275000000       6.859646080200      11.305140261800
        35    1        6.789300000000       1.959903919800       7.501059738200
        36    1       10.183950000000       7.839603919800       7.501059738200
        37    2        6.789300000000       0.000000000000       9.403100000000
        38    2       10.183950000000       5.879700000000       9.403100000000
        39    1       11.881275000000       4.899753919800       7.501059738200
        40    1        8.486625000000      10.779453919800       7.501059738200
        41    2       11.881275000000       2.939850000000       9.403100000000
        42    2        8.486625000000       8.819550000000       9.403100000000
        43    1       10.183950000000       1.959903919800       7.501059738200
        44    1        6.789300000000       7.839603919800       7.501059738200
        45    2        8.486625000000       2.939850000000       9.403100000000
        46    2       11.881275000000       8.819550000000       9.403100000000
        47    1        8.486625000000       4.899753919800       7.501059738200
        48    1       11.881275000000      10.779453919800       7.501059738200
        49    1       18.670575000000       0.979946080200      11.305140261800
        50    2       16.973250000000       0.000000000000       9.403100000000
        51    1       15.275925000000       6.859646080200      11.305140261800
        52    1       13.578600000000       3.919796080200      11.305140261800
        53    2       13.578600000000       5.879700000000       9.403100000000
        54    1       16.973250000000       9.799496080200      11.305140261800
        55    1       15.275925000000       0.979946080200      11.305140261800
        56    1       16.973250000000       3.919796080200      11.305140261800
        57    1       13.578600000000       9.799496080200      11.305140261800
        58    1       18.670575000000       6.859646080200      11.305140261800
        59    1       13.578600000000       1.959903919800       7.501059738200
        60    1       16.973250000000       7.839603919800       7.501059738200
        61    2       13.578600000000       0.000000000000       9.403100000000
        62    2       16.973250000000       5.879700000000       9.403100000000
        63    1       18.670575000000       4.899753919800       7.501059738200
        64    1       15.275925000000      10.779453919800       7.501059738200
        65    2       18.670575000000       2.939850000000       9.403100000000
        66    2       15.275925000000       8.819550000000       9.403100000000
        67    1       16.973250000000       1.959903919800       7.501059738200
        68    1       13.578600000000       7.839603919800       7.501059738200
        69    2       15.275925000000       2.939850000000       9.403100000000
        70    2       18.670575000000       8.819550000000       9.403100000000
        71    1       15.275925000000       4.899753919800       7.501059738200
        72    1       18.670575000000      10.779453919800       7.501059738200
        73    1       25.459875000000       0.979946080200      11.305140261800
        74    2       23.762550000000       0.000000000000       9.403100000000
        75    1       22.065225000000       6.859646080200      11.305140261800
        76    1       20.367900000000       3.919796080200      11.305140261800
        77    2       20.367900000000       5.879700000000       9.403100000000
        78    1       23.762550000000       9.799496080200      11.305140261800
        79    1       22.065225000000       0.979946080200      11.305140261800
        80    1       23.762550000000       3.919796080200      11.305140261800
        81    1       20.367900000000       9.799496080200      11.305140261800
        82    1       25.459875000000       6.859646080200      11.305140261800
        83    1       20.367900000000       1.959903919800       7.501059738200
        84    1       23.762550000000       7.839603919800       7.501059738200
        85    2       20.367900000000       0.000000000000       9.403100000000
        86    2       23.762550000000       5.879700000000       9.403100000000
        87    1       25.459875000000       4.899753919800       7.501059738200
        88    1       22.065225000000      10.779453919800       7.501059738200
        89    2       25.459875000000       2.939850000000       9.403100000000
        90    2       22.065225000000       8.819550000000       9.403100000000
        91    1       23.762550000000       1.959903919800       7.501059738200
        92    1       20.367900000000       7.839603919800       7.501059738200
        93    2       22.065225000000       2.939850000000       9.403100000000
        94    2       25.459875000000       8.819550000000       9.403100000000
        95    1       22.065225000000       4.899753919800       7.501059738200
        96    1       25.459875000000      10.779453919800       7.501059738200
        97    1       32.249175000000       0.979946080200      11.305140261800
        98    2       30.551850000000       0.000000000000       9.403100000000
        99    1       28.854525000000       6.859646080200      11.305140261800
       100    1       27.157200000000       3.919796080200      11.305140261800
       101    2       27.157200000000       5.879700000000       9.403100000000
       102    1       30.551850000000       9.799496080200      11.305140261800
       103    1       28.854525000000       0.979946080200      11.305140261800
       104    1       30.551850000000       3.919796080200      11.305140261800
       105    1       27.157200000000       9.799496080200      11.305140261800
       106    1       32.249175000000       6.859646080200      11.305140261800
       107    1       27.157200000000       1.959903919800       7.501059738200
       108    1       30.551850000000       7.839603919800       7.501059738200
       109    2       27.157200000000       0.000000000000       9.403100000000
       110    2       30.551850000000       5.879700000000       9.403100000000
       111    1       32.249175000000       4.899753919800       7.501059738200
       112    1       28.854525000000      10.779453919800       7.501059738200
       113    2       32.249175000000       2.939850000000       9.403100000000
       114    2       28.854525000000       8.819550000000       9.403100000000
       115    1       30.551850000000       1.959903919800       7.501059738200
       116    1       27.157200000000       7.839603919800       7.501059738200
       117    2       28.854525000000       2.939850000000       9.403100000000
       118    2       32.249175000000       8.819550000000       9.403100000000
       119    1       28.854525000000       4.899753919800       7.501059738200
       120    1       32.249175000000      10.779453919800       7.501059738200
       121    1       39.038475000000       0.979946080200      11.305140261800
       122    2       37.341150000000       0.000000000000       9.403100000000
       123    1       35.643825000000       6.859646080200      11.305140261800
       124    1       33.946500000000       3.919796080200      11.305140261800
       125    2       33.946500000000       5.879700000000       9.403100000000
       126    1       37.341150000000       9.799496080200      11.305140261800
       127    1       35.643825000000       0.979946080200      11.305140261800
       128    1       37.341150000000       3.919796080200      11.305140261800
       129    1       33.946500000000       9.799496080200      11.305140261800
       130    1       39.038475000000       6.859646080200      11.305140261800
       131    1       33.946500000000       1.959903919800       7.501059738200
       132    1       37.341150000000       7.839603919800       7.501059738200
       133    2       33.946500000000       0.000000000000       9.403100000000
       134    2       37.341150000000       5.879700000000       9.403100000000
       135    1       39.038475000000       4.899753919800       7.501059738200
       136    1       35.643825000000      10.779453919800       7.501059738200
       137    2       39.038475000000       2.939850000000       9.403100000000
       138    2       35.643825000000       8.819550000000       9.403100000000
       139    1       37.341150000000       1.959903919800       7.501059738200
       140    1       33.946500000000       7.839603919800       7.501059738200
       141    2       35.643825000000       2.939850000000       9.403100000000
       142    2       39.038475000000       8.819550000000       9.403100000000
       143    1       35.643825000000       4.899753919800       7.501059738200
       144    1       39.038475000000      10.779453919800       7.501059738200
       145    1       45.827775000000       0.979946080200      11.305140261800
       146    2       44.130450000000       0.000000000000       9.403100000000
       147    1       42.433125000000       6.859646080200      11.305140261800
       148    1       40.735800000000       3.919796080200      11.305140261800
       149    2       40.735800000000       5.879700000000       9.403100000000
       150    1       44.130450000000       9.799496080200      11.305140261800
       151    1       42.433125000000       0.979946080200      11.305140261800
       152    1       44.130450000000       3.919796080200      11.305140261800
       153    1       40.735800000000       9.799496080200      11.305140261800
       154    1       45.827775000000       6.859646080200      11.305140261800
       155    1       40.735800000000       1.959903919800       7.501059738200
       156    1       44.130450000000       7.839603919800       7.501059738200
       157    2       40.735800000000       0.000000000000       9.403100000000
       158    2       44.130450000000       5.879700000000       9.403100000000
       159    1       45.827775000000       4.899753919800       7.501059738200
       160    1       42.433125000000      10.779453919800       7.501059738200
       161    2       45.827775000000       2.939850000000       9.403100000000
       162    2       42.433125000000       8.819550000000       9.403100000000
       163    1       44.130450000000       1.959903919800       7.501059738200
       164    1       40.735800000000       7.839603919800       7.501059738200
       165    2       42.433125000000       2.939850000000       9.403100000000
       166    2       45.827775000000       8.819550000000       9.403100000000
       167    1       42.433125000000       4.899753919800       7.501059738200
       168    1       45.827775000000      10.779453919800       7.501059738200
       169    1       52.617075000000       0.979946080200      11.305140261800
       170    2       50.919750000000       0.000000000000       9.403100000000
       171    1       49.222425000000       6.859646080200      11.305140261800
       172    1       47.525100000000       3.919796080200      11.305140261800
       173    2       47.525100000000       5.879700000000       9.403100000000
       174    1       50.919750000000       9.799496080200      11.305140261800
       175    1       49.222425000000       0.979946080200      11.305140261800
       176    1       50.919750000000       3.919796080200      11.305140261800
       177    1       47.525100000000       9.799496080200      11.305140261800
       178    1       52.617075000000       6.859646080200      11.305140261800
       179    1       47.525100000000       1.959903919800       7.501059738200
       180    1       50.919750000000       7.839603919800       7.501059738200
       181    2       47.525100000000       0.000000000000       9.403100000000
       182    2       50.919750000000       5.879700000000       9.403100000000
       183    1       52.617075000000       4.899753919800       7.501059738200
       184    1       49.222425000000      10.779453919800       7.501059738200
       185    2       52.617075000000       2.939850000000       9.403100000000
       186    2       49.222425000000       8.819550000000       9.403100000000
       187    1       50.919750000000       1.959903919800       7.501059738200
       188    1       47.525100000000       7.839603919800       7.501059738200
       189    2       49.222425000000       2.939850000000       9.403100000000
       190    2       52.617075000000       8.819550000000       9.403100000000
       191    1       49.222425000000       4.899753919800       7.501059738200
       192    1       52.617075000000      10.779453919800       7.501059738200
       193    1       59.406375000000       0.979946080200      11.305140261800
       194    2       57.709050000000       0.000000000000       9.403100000000
       195    1       56.011725000000       6.859646080200      11.305140261800
       196    1       54.314400000000       3.919796080200      11.305140261800
       197    2       54.314400000000       5.879700000000       9.403100000000
       198    1       57.709050000000       9.799496080200      11.305140261800
       199    1       56.011725000000       0.979946080200      11.305140261800
       200    1       57.709050000000       3.919796080200      11.305140261800
       201    1       54.314400000000       9.799496080200      11.305140261800
       202    1       59.406375000000       6.859646080200      11.305140261800
       203    1       54.314400000000       1.959903919800       7.501059738200
       204    1       57.709050000000       7.839603919800       7.501059738200
       205    2       54.314400000000       0.000000000000       9.403100000000
       206    2       57.709050000000       5.879700000000       9.403100000000
       207    1       59.406375000000       4.899753919800       7.501059738200
       208    1       56.011725000000      10.779453919800       7.501059738200
       209    2       59.406375000000       2.939850000000       9.403100000000
       210    2       56.011725000000       8.819550000000       9.403100000000
       211    1       57.709050000000       1.959903919800       7.501059738200
       212    1       54.314400000000       7.839603919800       7.501059738200
       213    2       56.011725000000       2.939850000000       9.403100000000
       214    2       59.406375000000       8.819550000000       9.403100000000
       215    1       56.011725000000       4.899753919800       7.501059738200
       216    1       59.406375000000      10.779453919800       7.501059738200
       217    1       66.195675000000       0.979946080200      11.305140261800
       218    2       64.498350000000       0.000000000000       9.403100000000
       219    1       62.801025000000       6.859646080200      11.305140261800
       220    1       61.103700000000       3.919796080200      11.305140261800
       221    2       61.103700000000       5.879700000000       9.403100000000
       222    1       64.498350000000       9.799496080200      11.305140261800
       223    1       62.801025000000       0.979946080200      11.305140261800
       224    1       64.498350000000       3.919796080200      11.305140261800
       225    1       61.103700000000       9.799496080200      11.305140261800
       226    1       66.195675000000       6.859646080200      11.305140261800
       227    1       61.103700000000       1.959903919800       7.501059738200
       228    1       64.498350000000       7.839603919800       7.501059738200
       229    2       61.103700000000       0.000000000000       9.403100000000
       230    2       64.498350000000       5.879700000000       9.403100000000
       231    1       66.195675000000       4.899753919800       7.501059738200
       232    1       62.801025000000      10.779453919800       7.501059738200
       233    2       66.195675000000       2.939850000000       9.403100000000
       234    2       62.801025000000       8.819550000000       9.403100000000
       235    1       64.498350000000       1.959903919800       7.501059738200
       236    1       61.103700000000       7.839603919800       7.501059738200
       237    2       62.801025000000       2.939850000000       9.403100000000
       238    2       66.195675000000       8.819550000000       9.403100000000
       239    1       62.801025000000       4.899753919800       7.501059738200
       240    1       66.195675000000      10.779453919800       7.501059738200
       241    1       72.984975000000       0.979946080200      11.305140261800
       242    2       71.287650000000       0.000000000000       9.403100000000
       243    1       69.590325000000       6.859646080200      11.305140261800
       244    1       67.893000000000       3.919796080200      11.305140261800
       245    2       67.893000000000       5.879700000000       9.403100000000
       246    1       71.287650000000       9.799496080200      11.305140261800
       247    1       69.590325000000       0.979946080200      11.305140261800
       248    1       71.287650000000       3.919796080200      11.305140261800
       249    1       67.893000000000       9.799496080200      11.305140261800
       250    1       72.984975000000       6.859646080200      11.305140261800
       251    1       67.893000000000       1.959903919800       7.501059738200
       252    1       71.287650000000       7.839603919800       7.501059738200
       253    2       67.893000000000       0.000000000000       9.403100000000
       254    2       71.287650000000       5.879700000000       9.403100000000
       255    1       72.984975000000       4.899753919800       7.501059738200
       256    1       69.590325000000      10.779453919800       7.501059738200
       257    2       72.984975000000       2.939850000000       9.403100000000
       258    2       69.590325000000       8.819550000000       9.403100000000
       259    1       71.287650000000       1.959903919800       7.501059738200
       260    1       67.893000000000       7.839603919800       7.501059738200
       261    2       69.590325000000       2.939850000000       9.403100000000
       262    2       72.984975000000       8.819550000000       9.403100000000
       263    1       69.590325000000       4.899753919800       7.501059738200
       264    1       72.984975000000      10.779453919800       7.501059738200
       265    1       79.774275000000       0.979946080200      11.305140261800
       266    2       78.076950000000       0.000000000000       9.403100000000
       267    1       76.379625000000       6.859646080200      11.305140261800
       268    1       74.682300000000       3.919796080200      11.305140261800
       269    2       74.682300000000       5.879700000000       9.403100000000
       270    1       78.076950000000       9.799496080200      11.305140261800
       271    1       76.379625000000       0.979946080200      11.305140261800
       272    1       78.076950000000       3.919796080200      11.305140261800
       273    1       74.682300000000       9.799496080200      11.305140261800
       274    1       79.774275000000       6.859646080200      11.305140261800
       275    1       74.682300000000       1.959903919800       7.501059738200
       276    1       78.076950000000       7.839603919800       7.501059738200
       277    2       74.682300000000       0.000000000000       9.403100000000
       278    2       78.076950000000       5.879700000000       9.403100000000
       279    1       79.774275000000       4.899753919800       7.501059738200
       280    1       76.379625000000      10.779453919800       7.501059738200
       281    2       79.774275000000       2.939850000000       9.403100000000
       282    2       76.379625000000       8.819550000000       9.403100000000
       283    1       78.076950000000       1.959903919800       7.501059738200
       284    1       74.682300000000       7.839603919800       7.501059738200
       285    2       76.379625000000       2.939850000000       9.403100000000
       286    2       79.774275000000       8.819550000000       9.403100000000
       287    1       76.379625000000       4.899753919800       7.501059738200
       288    1       79.774275000000      10.779453919800       7.501059738200
       289    1       86.563575000000       0.979946080200      11.305140261800
       290    2       84.866250000000       0.000000000000       9.403100000000
       291    1       83.168925000000       6.859646080200      11.305140261800
       292    1       81.471600000000       3.919796080200      11.305140261800
       293    2       81.471600000000       5.879700000000       9.403100000000
       294    1       84.866250000000       9.799496080200      11.305140261800
       295    1       83.168925000000       0.979946080200      11.305140261800
       296    1       84.866250000000       3.919796080200      11.305140261800
       297    1       81.471600000000       9.799496080200      11.305140261800
       298    1       86.563575000000       6.859646080200      11.305140261800
       299    1       81.471600000000       1.959903919800       7.501059738200
       300    1       84.866250000000       7.839603919800       7.501059738200
       301    2       81.471600000000       0.000000000000       9.403100000000
       302    2       84.866250000000       5.879700000000       9.403100000000
       303    1       86.563575000000       4.899753919800       7.501059738200
       304    1       83.168925000000      10.779453919800       7.501059738200
       305    2       86.563575000000       2.939850000000       9.403100000000
       306    2       83.168925000000       8.819550000000       9.403100000000
       307    1       84.866250000000       1.959903919800       7.501059738200
       308    1       81.471600000000       7.839603919800       7.501059738200
       309    2       83.168925000000       2.939850000000       9.403100000000
       310    2       86.563575000000       8.819550000000       9.403100000000
       311    1       83.168925000000       4.899753919800       7.501059738200
       312    1       86.563575000000      10.779453919800       7.501059738200
       313    1       93.352875000000       0.979946080200      11.305140261800
       314    2       91.655550000000       0.000000000000       9.403100000000
       315    1       89.958225000000       6.859646080200      11.305140261800
       316    1       88.260900000000       3.919796080200      11.305140261800
       317    2       88.260900000000       5.879700000000       9.403100000000
       318    1       91.655550000000       9.799496080200      11.305140261800
       319    1       89.958225000000       0.979946080200      11.305140261800
       320    1       91.655550000000       3.919796080200      11.305140261800
       321    1       88.260900000000       9.799496080200      11.305140261800
       322    1       93.352875000000       6.859646080200      11.305140261800
       323    1       88.260900000000       1.959903919800       7.501059738200
       324    1       91.655550000000       7.839603919800       7.501059738200
       325    2       88.260900000000       0.000000000000       9.403100000000
       326    2       91.655550000000       5.879700000000       9.403100000000
       327    1       93.352875000000       4.899753919800       7.501059738200
       328    1       89.958225000000      10.779453919800       7.501059738200
       329    2       93.352875000000       2.939850000000       9.403100000000
       330    2       89.958225000000       8.819550000000       9.403100000000
       331    1       91.655550000000       1.959903919800       7.501059738200
       332    1       88.260900000000       7.839603919800       7.501059738200
       333    2       89.958225000000       2.939850000000       9.403100000000
       334    2       93.352875000000       8.819550000000       9.403100000000
       335    1       89.958225000000       4.899753919800       7.501059738200
       336    1       93.352875000000      10.779453919800       7.501059738200
       337    1      100.142175000000       0.979946080200      11.305140261800
       338    2       98.444850000000       0.000000000000       9.403100000000
       339    1       96.747525000000       6.859646080200      11.305140261800
       340    1       95.050200000000       3.919796080200      11.305140261800
       341    2       95.050200000000       5.879700000000       9.403100000000
       342    1       98.444850000000       9.799496080200      11.305140261800
       343    1       96.747525000000       0.979946080200      11.305140261800
       344    1       98.444850000000       3.919796080200      11.305140261800
       345    1       95.050200000000       9.799496080200      11.305140261800
       346    1      100.142175000000       6.859646080200      11.305140261800
       347    1       95.050200000000       1.959903919800       7.501059738200
       348    1       98.444850000000       7.839603919800       7.501059738200
       349    2       95.050200000000       0.000000000000       9.403100000000
       350    2       98.444850000000       5.879700000000       9.403100000000
       351    1      100.142175000000       4.899753919800       7.501059738200
       352    1       96.747525000000      10.779453919800       7.501059738200
       353    2      100.142175000000       2.939850000000       9.403100000000
       354    2       96.747525000000       8.819550000000       9.403100000000
       355    1       98.444850000000       1.959903919800       7.501059738200
       356    1       95.050200000000       7.839603919800       7.501059738200
       357    2       96.747525000000       2.939850000000       9.403100000000
       358    2      100.142175000000       8.819550000000       9.403100000000
       359    1       96.747525000000       4.899753919800       7.501059738200
       360    1      100.142175000000      10.779453919800       7.501059738200
       361    1        5.091975000000      12.739346080200      11.305140261800
       362    2        3.394650000000      11.759400000000       9.403100000000
       363    1        1.697325000000      18.619046080200      11.305140261800
       364    1        0.000000000000      15.679196080200      11.305140261800
       365    2        0.000000000000      17.639100000000       9.403100000000
       366    1        3.394650000000      21.558896080200      11.305140261800
       367    1        1.697325000000      12.739346080200      11.305140261800
       368    1        3.394650000000      15.679196080200      11.305140261800
       369    1        0.000000000000      21.558896080200      11.305140261800
       370    1        5.091975000000      18.619046080200      11.305140261800