 # Re8 S16
  
        3456  atoms
           2  atom types
 
      0.000000000000      99.014400000000  xlo xhi
      0.000000000000      96.467400000000  ylo yhi
      0.000000000000      18.270600000000  zlo zhi
 
Masses
 
            1   186.20700000            # Re
            2   32.06000000             # S
 
Atoms # atomic
 
         1    1        0.000000000000      10.718600000000       9.135300000000
         2    1        3.094200000000       5.359300000000       9.135300000000
         3    2        4.641300000000       0.893213093800      10.771377418200
         4    2        1.547100000000       6.252513093800      10.771377418200
         5    2        1.547100000000       0.893213093800      10.771377418200
         6    2        0.000000000000       1.786436906200       7.499222581800
         7    2        4.641300000000       4.466086906200       7.499222581800
         8    2        4.641300000000       6.252513093800      10.771377418200
         9    2        1.547100000000       9.825386906200       7.499222581800
        10    1        1.547100000000       2.679650000000       9.135300000000
        11    2        3.094200000000       7.145736906200       7.499222581800
        12    2        3.094200000000       1.786436906200       7.499222581800
        13    1        4.641300000000       8.038950000000       9.135300000000
        14    2        6.188400000000       7.145736906200       7.499222581800
        15    2        1.547100000000       4.466086906200       7.499222581800
        16    2        4.641300000000       9.825386906200       7.499222581800
        17    2        3.094200000000       3.572863093800      10.771377418200
        18    2        0.000000000000       8.932163093800      10.771377418200
        19    1        4.641300000000       2.679650000000       9.135300000000
        20    1        3.094200000000      10.718600000000       9.135300000000
        21    1        1.547100000000       8.038950000000       9.135300000000
        22    1        6.188400000000       5.359300000000       9.135300000000
        23    2        0.000000000000       3.572863093800      10.771377418200
        24    2        3.094200000000       8.932163093800      10.771377418200
        25    1        6.188400000000      10.718600000000       9.135300000000
        26    1        9.282600000000       5.359300000000       9.135300000000
        27    2       10.829700000000       0.893213093800      10.771377418200
        28    2        7.735500000000       6.252513093800      10.771377418200
        29    2        7.735500000000       0.893213093800      10.771377418200
        30    2        6.188400000000       1.786436906200       7.499222581800
        31    2       10.829700000000       4.466086906200       7.499222581800
        32    2       10.829700000000       6.252513093800      10.771377418200
        33    2        7.735500000000       9.825386906200       7.499222581800
        34    1        7.735500000000       2.679650000000       9.135300000000
        35    2        9.282600000000       7.145736906200       7.499222581800
        36    2        9.282600000000       1.786436906200       7.499222581800
        37    1       10.829700000000       8.038950000000       9.135300000000
        38    2       12.376800000000       7.145736906200       7.499222581800
        39    2        7.735500000000       4.466086906200       7.499222581800
        40    2       10.829700000000       9.825386906200       7.499222581800
        41    2        9.282600000000       3.572863093800      10.771377418200
        42    2        6.188400000000       8.932163093800      10.771377418200
        43    1       10.829700000000       2.679650000000       9.135300000000
        44    1        9.282600000000      10.718600000000       9.135300000000
        45    1        7.735500000000       8.038950000000       9.135300000000
        46    1       12.376800000000       5.359300000000       9.135300000000
        47    2        6.188400000000       3.572863093800      10.771377418200
        48    2        9.282600000000       8.932163093800      10.771377418200
        49    1       12.376800000000      10.718600000000       9.135300000000
        50    1       15.471000000000       5.359300000000       9.135300000000
        51    2       17.018100000000       0.893213093800      10.771377418200
        52    2       13.923900000000       6.252513093800      10.771377418200
        53    2       13.923900000000       0.893213093800      10.771377418200
        54    2       12.376800000000       1.786436906200       7.499222581800
        55    2       17.018100000000       4.466086906200       7.499222581800
        56    2       17.018100000000       6.252513093800      10.771377418200
        57    2       13.923900000000       9.825386906200       7.499222581800
        58    1       13.923900000000       2.679650000000       9.135300000000
        59    2       15.471000000000       7.145736906200       7.499222581800
        60    2       15.471000000000       1.786436906200       7.499222581800
        61    1       17.018100000000       8.038950000000       9.135300000000
        62    2       18.565200000000       7.145736906200       7.499222581800
        63    2       13.923900000000       4.466086906200       7.499222581800
        64    2       17.018100000000       9.825386906200       7.499222581800
        65    2       15.471000000000       3.572863093800      10.771377418200
        66    2       12.376800000000       8.932163093800      10.771377418200
        67    1       17.018100000000       2.679650000000       9.135300000000
        68    1       15.471000000000      10.718600000000       9.135300000000
        69    1       13.923900000000       8.038950000000       9.135300000000
        70    1       18.565200000000       5.359300000000       9.135300000000
        71    2       12.376800000000       3.572863093800      10.771377418200
        72    2       15.471000000000       8.932163093800      10.771377418200
        73    1       18.565200000000      10.718600000000       9.135300000000
        74    1       21.659400000000       5.359300000000       9.135300000000
        75    2       23.206500000000       0.893213093800      10.771377418200
        76    2       20.112300000000       6.252513093800      10.771377418200
        77    2       20.112300000000       0.893213093800      10.771377418200
        78    2       18.565200000000       1.786436906200       7.499222581800
        79    2       23.206500000000       4.466086906200       7.499222581800
        80    2       23.206500000000       6.252513093800      10.771377418200
        81    2       20.112300000000       9.825386906200       7.499222581800
        82    1       20.112300000000       2.679650000000       9.135300000000
        83    2       21.659400000000       7.145736906200       7.499222581800
        84    2       21.659400000000       1.786436906200       7.499222581800
        85    1       23.206500000000       8.038950000000       9.135300000000
        86    2       24.753600000000       7.145736906200       7.499222581800
        87    2       20.112300000000       4.466086906200       7.499222581800
        88    2       23.206500000000       9.825386906200       7.499222581800
        89    2       21.659400000000       3.572863093800      10.771377418200
        90    2       18.565200000000       8.932163093800      10.771377418200
        91    1       23.206500000000       2.679650000000       9.135300000000
        92    1       21.659400000000      10.718600000000       9.135300000000
        93    1       20.112300000000       8.038950000000       9.135300000000
        94    1       24.753600000000       5.359300000000       9.135300000000
        95    2       18.565200000000       3.572863093800      10.771377418200
        96    2       21.659400000000       8.932163093800      10.771377418200
        97    1       24.753600000000      10.718600000000       9.135300000000
        98    1       27.847800000000       5.359300000000       9.135300000000
        99    2       29.394900000000       0.893213093800      10.771377418200
       100    2       26.300700000000       6.252513093800      10.771377418200
       101    2       26.300700000000       0.893213093800      10.771377418200
       102    2       24.753600000000       1.786436906200       7.499222581800
       103    2       29.394900000000       4.466086906200       7.499222581800
       104    2       29.394900000000       6.252513093800      10.771377418200
       105    2       26.300700000000       9.825386906200       7.499222581800
       106    1       26.300700000000       2.679650000000       9.135300000000
       107    2       27.847800000000       7.145736906200       7.499222581800
       108    2       27.847800000000       1.786436906200       7.499222581800
       109    1       29.394900000000       8.038950000000       9.135300000000
       110    2       30.942000000000       7.145736906200       7.499222581800
       111    2       26.300700000000       4.466086906200       7.499222581800
       112    2       29.394900000000       9.825386906200       7.499222581800
       113    2       27.847800000000       3.572863093800      10.771377418200
       114    2       24.753600000000       8.932163093800      10.771377418200
       115    1       29.394900000000       2.679650000000       9.135300000000
       116    1       27.847800000000      10.718600000000       9.135300000000
       117    1       26.300700000000       8.038950000000       9.135300000000
       118    1       30.942000000000       5.359300000000       9.135300000000
       119    2       24.753600000000       3.572863093800      10.771377418200
       120    2       27.847800000000       8.932163093800      10.771377418200
       121    1       30.942000000000      10.718600000000       9.135300000000
       122    1       34.036200000000       5.359300000000       9.135300000000
       123    2       35.583300000000       0.893213093800      10.771377418200
       124    2       32.489100000000       6.252513093800      10.771377418200
       125    2       32.489100000000       0.893213093800      10.771377418200
       126    2       30.942000000000       1.786436906200       7.499222581800
       127    2       35.583300000000       4.466086906200       7.499222581800
       128    2       35.583300000000       6.252513093800      10.771377418200
       129    2       32.489100000000       9.825386906200       7.499222581800
       130    1       32.489100000000       2.679650000000       9.135300000000
       131    2       34.036200000000       7.145736906200       7.499222581800
       132    2       34.036200000000       1.786436906200       7.499222581800
       133    1       35.583300000000       8.038950000000       9.135300000000
       134    2       37.130400000000       7.145736906200       7.499222581800
       135    2       32.489100000000       4.466086906200       7.499222581800
       136    2       35.583300000000       9.825386906200       7.499222581800
       137    2       34.036200000000       3.572863093800      10.771377418200
       138    2       30.942000000000       8.932163093800      10.771377418200
       139    1       35.583300000000       2.679650000000       9.135300000000
       140    1       34.036200000000      10.718600000000       9.135300000000
       141    1       32.489100000000       8.038950000000       9.135300000000
       142    1       37.130400000000       5.359300000000       9.135300000000
       143    2       30.942000000000       3.572863093800      10.771377418200
       144    2       34.036200000000       8.932163093800      10.771377418200
       145    1       37.130400000000      10.718600000000       9.135300000000
       146    1       40.224600000000       5.359300000000       9.135300000000
       147    2       41.771700000000       0.893213093800      10.771377418200
       148    2       38.677500000000       6.252513093800      10.771377418200
       149    2       38.677500000000       0.893213093800      10.771377418200
       150    2       37.130400000000       1.786436906200       7.499222581800
       151    2       41.771700000000       4.466086906200       7.499222581800
       152    2       41.771700000000       6.252513093800      10.771377418200
       153    2       38.677500000000       9.825386906200       7.499222581800
       154    1       38.677500000000       2.679650000000       9.135300000000
       155    2       40.224600000000       7.145736906200       7.499222581800
       156    2       40.224600000000       1.786436906200       7.499222581800
       157    1       41.771700000000       8.038950000000       9.135300000000
       158    2       43.318800000000       7.145736906200       7.499222581800
       159    2       38.677500000000       4.466086906200       7.499222581800
       160    2       41.771700000000       9.825386906200       7.499222581800
       161    2       40.224600000000       3.572863093800      10.771377418200
       162    2       37.130400000000       8.932163093800      10.771377418200
       163    1       41.771700000000       2.679650000000       9.135300000000
       164    1       40.224600000000      10.718600000000       9.135300000000
       165    1       38.677500000000       8.038950000000       9.135300000000
       166    1       43.318800000000       5.359300000000       9.135300000000
       167    2       37.130400000000       3.572863093800      10.771377418200
       168    2       40.224600000000       8.932163093800      10.771377418200
       169    1       43.318800000000      10.718600000000       9.135300000000
       170    1       46.413000000000       5.359300000000       9.135300000000
       171    2       47.960100000000       0.893213093800      10.771377418200
       172    2       44.865900000000       6.252513093800      10.771377418200
       173    2       44.865900000000       0.893213093800      10.771377418200
       174    2       43.318800000000       1.786436906200       7.499222581800
       175    2       47.960100000000       4.466086906200       7.499222581800
       176    2       47.960100000000       6.252513093800      10.771377418200
       177    2       44.865900000000       9.825386906200       7.499222581800
       178    1       44.865900000000       2.679650000000       9.135300000000
       179    2       46.413000000000       7.145736906200       7.499222581800
       180    2       46.413000000000       1.786436906200       7.499222581800
       181    1       47.960100000000       8.038950000000       9.135300000000
       182    2       49.507200000000       7.145736906200       7.499222581800
       183    2       44.865900000000       4.466086906200       7.499222581800
       184    2       47.960100000000       9.825386906200       7.499222581800
       185    2       46.413000000000       3.572863093800      10.771377418200
       186    2       43.318800000000       8.932163093800      10.771377418200
       187    1       47.960100000000       2.679650000000       9.135300000000
       188    1       46.413000000000      10.718600000000       9.135300000000
       189    1       44.865900000000       8.038950000000       9.135300000000
       190    1       49.507200000000       5.359300000000       9.135300000000
       191    2       43.318800000000       3.572863093800      10.771377418200
       192    2       46.413000000000       8.932163093800      10.771377418200
       193    1       49.507200000000      10.718600000000       9.135300000000
       194    1       52.601400000000       5.359300000000       9.135300000000
       195    2       54.148500000000       0.893213093800      10.771377418200
       196    2       51.054300000000       6.252513093800      10.771377418200
       197    2       51.054300000000       0.893213093800      10.771377418200
       198    2       49.507200000000       1.786436906200       7.499222581800
       199    2       54.148500000000       4.466086906200       7.499222581800
       200    2       54.148500000000       6.252513093800      10.771377418200
       201    2       51.054300000000       9.825386906200       7.499222581800
       202    1       51.054300000000       2.679650000000       9.135300000000
       203    2       52.601400000000       7.145736906200       7.499222581800
       204    2       52.601400000000       1.786436906200       7.499222581800
       205    1       54.148500000000       8.038950000000       9.135300000000
       206    2       55.695600000000       7.145736906200       7.499222581800
       207    2       51.054300000000       4.466086906200       7.499222581800
       208    2       54.148500000000       9.825386906200       7.499222581800
       209    2       52.601400000000       3.572863093800      10.771377418200
       210    2       49.507200000000       8.932163093800      10.771377418200
       211    1       54.148500000000       2.679650000000       9.135300000000
       212    1       52.601400000000      10.718600000000       9.135300000000
       213    1       51.054300000000       8.038950000000       9.135300000000
       214    1       55.695600000000       5.359300000000       9.135300000000
       215    2       49.507200000000       3.572863093800      10.771377418200
       216    2       52.601400000000       8.932163093800      10.771377418200
       217    1       55.695600000000      10.718600000000       9.135300000000
       218    1       58.789800000000       5.359300000000       9.135300000000
       219    2       60.336900000000       0.893213093800      10.771377418200
       220    2       57.242700000000       6.252513093800      10.771377418200
       221    2       57.242700000000       0.893213093800      10.771377418200
       222    2       55.695600000000       1.786436906200       7.499222581800
       223    2       60.336900000000       4.466086906200       7.499222581800
       224    2       60.336900000000       6.252513093800      10.771377418200
       225    2       57.242700000000       9.825386906200       7.499222581800
       226    1       57.242700000000       2.679650000000       9.135300000000
       227    2       58.789800000000       7.145736906200       7.499222581800
       228    2       58.789800000000       1.786436906200       7.499222581800
       229    1       60.336900000000       8.038950000000       9.135300000000
       230    2       61.884000000000       7.145736906200       7.499222581800
       231    2       57.242700000000       4.466086906200       7.499222581800
       232    2       60.336900000000       9.825386906200       7.499222581800
       233    2       58.789800000000       3.572863093800      10.771377418200
       234    2       55.695600000000       8.932163093800      10.771377418200
       235    1       60.336900000000       2.679650000000       9.135300000000
       236    1       58.789800000000      10.718600000000       9.135300000000
       237    1       57.242700000000       8.038950000000       9.135300000000
       238    1       61.884000000000       5.359300000000       9.135300000000
       239    2       55.695600000000       3.572863093800      10.771377418200
       240    2       58.789800000000       8.932163093800      10.771377418200
       241    1       61.884000000000      10.718600000000       9.135300000000
       242    1       64.978200000000       5.359300000000       9.135300000000
       243    2       66.525300000000       0.893213093800      10.771377418200
       244    2       63.431100000000       6.252513093800      10.771377418200
       245    2       63.431100000000       0.893213093800      10.771377418200
       246    2       61.884000000000       1.786436906200       7.499222581800
       247    2       66.525300000000       4.466086906200       7.499222581800
       248    2       66.525300000000       6.252513093800      10.771377418200
       249    2       63.431100000000       9.825386906200       7.499222581800
       250    1       63.431100000000       2.679650000000       9.135300000000
       251    2       64.978200000000       7.145736906200       7.499222581800
       252    2       64.978200000000       1.786436906200       7.499222581800
       253    1       66.525300000000       8.038950000000       9.135300000000
       254    2       68.072400000000       7.145736906200       7.499222581800
       255    2       63.431100000000       4.466086906200       7.499222581800
       256    2       66.525300000000       9.825386906200       7.499222581800
       257    2       64.978200000000       3.572863093800      10.771377418200
       258    2       61.884000000000       8.932163093800      10.771377418200
       259    1       66.525300000000       2.679650000000       9.135300000000
       260    1       64.978200000000      10.718600000000       9.135300000000
       261    1       63.431100000000       8.038950000000       9.135300000000
       262    1       68.072400000000       5.359300000000       9.135300000000
       263    2       61.884000000000       3.572863093800      10.771377418200
       264    2       64.978200000000       8.932163093800      10.771377418200
       265    1       68.072400000000      10.718600000000       9.135300000000
       266    1       71.166600000000       5.359300000000       9.135300000000
       267    2       72.713700000000       0.893213093800      10.771377418200
       268    2       69.619500000000       6.252513093800      10.771377418200
       269    2       69.619500000000       0.893213093800      10.771377418200
       270    2       68.072400000000       1.786436906200       7.499222581800
       271    2       72.713700000000       4.466086906200       7.499222581800
       272    2       72.713700000000       6.252513093800      10.771377418200
       273    2       69.619500000000       9.825386906200       7.499222581800
       274    1       69.619500000000       2.679650000000       9.135300000000
       275    2       71.166600000000       7.145736906200       7.499222581800
       276    2       71.166600000000       1.786436906200       7.499222581800
       277    1       72.713700000000       8.038950000000       9.135300000000
       278    2       74.260800000000       7.145736906200       7.499222581800
       279    2       69.619500000000       4.466086906200       7.499222581800
       280    2       72.713700000000       9.825386906200       7.499222581800
       281    2       71.166600000000       3.572863093800      10.771377418200
       282    2       68.072400000000       8.932163093800      10.771377418200
       283    1       72.713700000000       2.679650000000       9.135300000000
       284    1       71.166600000000      10.718600000000       9.135300000000
       285    1       69.619500000000       8.038950000000       9.135300000000
       286    1       74.260800000000       5.359300000000       9.135300000000
       287    2       68.072400000000       3.572863093800      10.771377418200
       288    2       71.166600000000       8.932163093800      10.771377418200
       289    1       74.260800000000      10.718600000000       9.135300000000
       290    1       77.355000000000       5.359300000000       9.135300000000
       291    2       78.902100000000       0.893213093800      10.771377418200
       292    2       75.807900000000       6.252513093800      10.771377418200
       293    2       75.807900000000       0.893213093800      10.771377418200
       294    2       74.260800000000       1.786436906200       7.499222581800
       295    2       78.902100000000       4.466086906200       7.499222581800
       296    2       78.902100000000       6.252513093800      10.771377418200
       297    2       75.807900000000       9.825386906200       7.499222581800
       298    1       75.807900000000       2.679650000000       9.135300000000
       299    2       77.355000000000       7.145736906200       7.499222581800
       300    2       77.355000000000       1.786436906200       7.499222581800
       301    1       78.902100000000       8.038950000000       9.135300000000
       302    2       80.449200000000       7.145736906200       7.499222581800
       303    2       75.807900000000       4.466086906200       7.499222581800
       304    2       78.902100000000       9.825386906200       7.499222581800
       305    2       77.355000000000       3.572863093800      10.771377418200
       306    2       74.260800000000       8.932163093800      10.771377418200
       307    1       78.902100000000       2.679650000000       9.135300000000
       308    1       77.355000000000      10.718600000000       9.135300000000
       309    1       75.807900000000       8.038950000000       9.135300000000
       310    1       80.449200000000       5.359300000000       9.135300000000
       311    2       74.260800000000       3.572863093800      10.771377418200
       312    2       77.355000000000       8.932163093800      10.771377418200
       313    1       80.449200000000      10.718600000000       9.135300000000
       314    1       83.543400000000       5.359300000000       9.135300000000
       315    2       85.090500000000       0.893213093800      10.771377418200
       316    2       81.996300000000       6.252513093800      10.771377418200
       317    2       81.996300000000       0.893213093800      10.771377418200
       318    2       80.449200000000       1.786436906200       7.499222581800
       319    2       85.090500000000       4.466086906200       7.499222581800
       320    2       85.090500000000       6.252513093800      10.771377418200
       321    2       81.996300000000       9.825386906200       7.499222581800
       322    1       81.996300000000       2.679650000000       9.135300000000
       323    2       83.543400000000       7.145736906200       7.499222581800
       324    2       83.543400000000       1.786436906200       7.499222581800
       325    1       85.090500000000       8.038950000000       9.135300000000
       326    2       86.637600000000       7.145736906200       7.499222581800
       327    2       81.996300000000       4.466086906200       7.499222581800
       328    2       85.090500000000       9.825386906200       7.499222581800
       329    2       83.543400000000       3.572863093800      10.771377418200
       330    2       80.449200000000       8.932163093800      10.771377418200
       331    1       85.090500000000       2.679650000000       9.135300000000
       332    1       83.543400000000      10.718600000000       9.135300000000
       333    1       81.996300000000       8.038950000000       9.135300000000
       334    1       86.637600000000       5.359300000000       9.135300000000
       335    2       80.449200000000       3.572863093800      10.771377418200
       336    2       83.543400000000       8.932163093800      10.771377418200
       337    1       86.637600000000      10.718600000000       9.135300000000
       338    1       89.731800000000       5.359300000000       9.135300000000
       339    2       91.278900000000       0.893213093800      10.771377418200
       340    2       88.184700000000       6.252513093800      10.771377418200
       341    2       88.184700000000       0.893213093800      10.771377418200
       342    2       86.637600000000       1.786436906200       7.499222581800
       343    2       91.278900000000       4.466086906200       7.499222581800
       344    2       91.278900000000       6.252513093800      10.771377418200
       345    2       88.184700000000       9.825386906200       7.499222581800
       346    1       88.184700000000       2.679650000000       9.135300000000
       347    2       89.731800000000       7.145736906200       7.499222581800
       348    2       89.731800000000       1.786436906200       7.499222581800
       349    1       91.278900000000       8.038950000000       9.135300000000
       350    2       92.826000000000       7.145736906200       7.499222581800
       351    2       88.184700000000       4.466086906200       7.499222581800
       352    2       91.278900000000       9.825386906200       7.499222581800
       353    2       89.731800000000       3.572863093800      10.771377418200
       354    2       86.637600000000       8.932163093800      10.771377418200
       355    1       91.278900000000       2.679650000000       9.135300000000
       356    1       89.731800000000      10.718600000000       9.135300000000
       357    1       88.184700000000       8.038950000000       9.135300000000
       358    1       92.826000000000       5.359300000000       9.135300000000
       359    2       86.637600000000       3.572863093800      10.771377418200
       360    2       89.731800000000       8.932163093800      10.771377418200
       361    1       92.826000000000      10.718600000000       9.135300000000
       362    1       95.920200000000       5.359300000000       9.135300000000
       363    2       97.467300000000       0.893213093800      10.771377418200
       364    2       94.373100000000       6.252513093800      10.771377418200
       365    2       94.373100000000       0.893213093800      10.771377418200
       366    2       92.826000000000       1.786436906200       7.499222581800
       367    2       97.467300000000       4.466086906200       7.499222581800
       368    2       97.467300000000       6.252513093800      10.771377418200
       369    2       94.373100000000       9.825386906200       7.499222581800
       370    1       94.373100000000       2.679650000000       9.135300000000