 # Rh8 Te16
  
        2496  atoms
           2  atom types
 
      0.000000000000      98.780500000000  xlo xhi
      0.000000000000     105.288000000000  ylo yhi
      0.000000000000      17.944900000000  zlo zhi
 
Masses
 
            1   102.90550000            # Rh
            2   127.60000000            # Te
 
Atoms # atomic
 
         1    1        0.000000000000       0.000000000000       8.972450000000
         2    1        3.799250000000       6.580500000000       8.972450000000
         3    2        3.799250000000       2.193504387000       7.462494334400
         4    2        0.000000000000       8.774004387000       7.462494334400
         5    1        3.799250000000       0.000000000000       8.972450000000
         6    1        0.000000000000       6.580500000000       8.972450000000
         7    2        0.000000000000       2.193504387000       7.462494334400
         8    2        3.799250000000       8.774004387000       7.462494334400
         9    2        1.899625000000       5.483754387000       7.462494334400
        10    2        3.799250000000       4.386995613000      10.482405665600
        11    2        5.698875000000       5.483754387000       7.462494334400
        12    2        5.698875000000      12.064254387000       7.462494334400
        13    2        0.000000000000      10.967495613000      10.482405665600
        14    2        1.899625000000      12.064254387000       7.462494334400
        15    1        5.698875000000       3.290250000000       8.972450000000
        16    1        1.899625000000       9.870750000000       8.972450000000
        17    1        1.899625000000       3.290250000000       8.972450000000
        18    2        0.000000000000       4.386995613000      10.482405665600
        19    1        5.698875000000       9.870750000000       8.972450000000
        20    2        3.799250000000      10.967495613000      10.482405665600
        21    2        1.899625000000       1.096745613000      10.482405665600
        22    2        5.698875000000       7.677245613000      10.482405665600
        23    2        5.698875000000       1.096745613000      10.482405665600
        24    2        1.899625000000       7.677245613000      10.482405665600
        25    1        7.598500000000       0.000000000000       8.972450000000
        26    1       11.397750000000       6.580500000000       8.972450000000
        27    2       11.397750000000       2.193504387000       7.462494334400
        28    2        7.598500000000       8.774004387000       7.462494334400
        29    1       11.397750000000       0.000000000000       8.972450000000
        30    1        7.598500000000       6.580500000000       8.972450000000
        31    2        7.598500000000       2.193504387000       7.462494334400
        32    2       11.397750000000       8.774004387000       7.462494334400
        33    2        9.498125000000       5.483754387000       7.462494334400
        34    2       11.397750000000       4.386995613000      10.482405665600
        35    2       13.297375000000       5.483754387000       7.462494334400
        36    2       13.297375000000      12.064254387000       7.462494334400
        37    2        7.598500000000      10.967495613000      10.482405665600
        38    2        9.498125000000      12.064254387000       7.462494334400
        39    1       13.297375000000       3.290250000000       8.972450000000
        40    1        9.498125000000       9.870750000000       8.972450000000
        41    1        9.498125000000       3.290250000000       8.972450000000
        42    2        7.598500000000       4.386995613000      10.482405665600
        43    1       13.297375000000       9.870750000000       8.972450000000
        44    2       11.397750000000      10.967495613000      10.482405665600
        45    2        9.498125000000       1.096745613000      10.482405665600
        46    2       13.297375000000       7.677245613000      10.482405665600
        47    2       13.297375000000       1.096745613000      10.482405665600
        48    2        9.498125000000       7.677245613000      10.482405665600
        49    1       15.197000000000       0.000000000000       8.972450000000
        50    1       18.996250000000       6.580500000000       8.972450000000
        51    2       18.996250000000       2.193504387000       7.462494334400
        52    2       15.197000000000       8.774004387000       7.462494334400
        53    1       18.996250000000       0.000000000000       8.972450000000
        54    1       15.197000000000       6.580500000000       8.972450000000
        55    2       15.197000000000       2.193504387000       7.462494334400
        56    2       18.996250000000       8.774004387000       7.462494334400
        57    2       17.096625000000       5.483754387000       7.462494334400
        58    2       18.996250000000       4.386995613000      10.482405665600
        59    2       20.895875000000       5.483754387000       7.462494334400
        60    2       20.895875000000      12.064254387000       7.462494334400
        61    2       15.197000000000      10.967495613000      10.482405665600
        62    2       17.096625000000      12.064254387000       7.462494334400
        63    1       20.895875000000       3.290250000000       8.972450000000
        64    1       17.096625000000       9.870750000000       8.972450000000
        65    1       17.096625000000       3.290250000000       8.972450000000
        66    2       15.197000000000       4.386995613000      10.482405665600
        67    1       20.895875000000       9.870750000000       8.972450000000
        68    2       18.996250000000      10.967495613000      10.482405665600
        69    2       17.096625000000       1.096745613000      10.482405665600
        70    2       20.895875000000       7.677245613000      10.482405665600
        71    2       20.895875000000       1.096745613000      10.482405665600
        72    2       17.096625000000       7.677245613000      10.482405665600
        73    1       22.795500000000       0.000000000000       8.972450000000
        74    1       26.594750000000       6.580500000000       8.972450000000
        75    2       26.594750000000       2.193504387000       7.462494334400
        76    2       22.795500000000       8.774004387000       7.462494334400
        77    1       26.594750000000       0.000000000000       8.972450000000
        78    1       22.795500000000       6.580500000000       8.972450000000
        79    2       22.795500000000       2.193504387000       7.462494334400
        80    2       26.594750000000       8.774004387000       7.462494334400
        81    2       24.695125000000       5.483754387000       7.462494334400
        82    2       26.594750000000       4.386995613000      10.482405665600
        83    2       28.494375000000       5.483754387000       7.462494334400
        84    2       28.494375000000      12.064254387000       7.462494334400
        85    2       22.795500000000      10.967495613000      10.482405665600
        86    2       24.695125000000      12.064254387000       7.462494334400
        87    1       28.494375000000       3.290250000000       8.972450000000
        88    1       24.695125000000       9.870750000000       8.972450000000
        89    1       24.695125000000       3.290250000000       8.972450000000
        90    2       22.795500000000       4.386995613000      10.482405665600
        91    1       28.494375000000       9.870750000000       8.972450000000
        92    2       26.594750000000      10.967495613000      10.482405665600
        93    2       24.695125000000       1.096745613000      10.482405665600
        94    2       28.494375000000       7.677245613000      10.482405665600
        95    2       28.494375000000       1.096745613000      10.482405665600
        96    2       24.695125000000       7.677245613000      10.482405665600
        97    1       30.394000000000       0.000000000000       8.972450000000
        98    1       34.193250000000       6.580500000000       8.972450000000
        99    2       34.193250000000       2.193504387000       7.462494334400
       100    2       30.394000000000       8.774004387000       7.462494334400
       101    1       34.193250000000       0.000000000000       8.972450000000
       102    1       30.394000000000       6.580500000000       8.972450000000
       103    2       30.394000000000       2.193504387000       7.462494334400
       104    2       34.193250000000       8.774004387000       7.462494334400
       105    2       32.293625000000       5.483754387000       7.462494334400
       106    2       34.193250000000       4.386995613000      10.482405665600
       107    2       36.092875000000       5.483754387000       7.462494334400
       108    2       36.092875000000      12.064254387000       7.462494334400
       109    2       30.394000000000      10.967495613000      10.482405665600
       110    2       32.293625000000      12.064254387000       7.462494334400
       111    1       36.092875000000       3.290250000000       8.972450000000
       112    1       32.293625000000       9.870750000000       8.972450000000
       113    1       32.293625000000       3.290250000000       8.972450000000
       114    2       30.394000000000       4.386995613000      10.482405665600
       115    1       36.092875000000       9.870750000000       8.972450000000
       116    2       34.193250000000      10.967495613000      10.482405665600
       117    2       32.293625000000       1.096745613000      10.482405665600
       118    2       36.092875000000       7.677245613000      10.482405665600
       119    2       36.092875000000       1.096745613000      10.482405665600
       120    2       32.293625000000       7.677245613000      10.482405665600
       121    1       37.992500000000       0.000000000000       8.972450000000
       122    1       41.791750000000       6.580500000000       8.972450000000
       123    2       41.791750000000       2.193504387000       7.462494334400
       124    2       37.992500000000       8.774004387000       7.462494334400
       125    1       41.791750000000       0.000000000000       8.972450000000
       126    1       37.992500000000       6.580500000000       8.972450000000
       127    2       37.992500000000       2.193504387000       7.462494334400
       128    2       41.791750000000       8.774004387000       7.462494334400
       129    2       39.892125000000       5.483754387000       7.462494334400
       130    2       41.791750000000       4.386995613000      10.482405665600
       131    2       43.691375000000       5.483754387000       7.462494334400
       132    2       43.691375000000      12.064254387000       7.462494334400
       133    2       37.992500000000      10.967495613000      10.482405665600
       134    2       39.892125000000      12.064254387000       7.462494334400
       135    1       43.691375000000       3.290250000000       8.972450000000
       136    1       39.892125000000       9.870750000000       8.972450000000
       137    1       39.892125000000       3.290250000000       8.972450000000
       138    2       37.992500000000       4.386995613000      10.482405665600
       139    1       43.691375000000       9.870750000000       8.972450000000
       140    2       41.791750000000      10.967495613000      10.482405665600
       141    2       39.892125000000       1.096745613000      10.482405665600
       142    2       43.691375000000       7.677245613000      10.482405665600
       143    2       43.691375000000       1.096745613000      10.482405665600
       144    2       39.892125000000       7.677245613000      10.482405665600
       145    1       45.591000000000       0.000000000000       8.972450000000
       146    1       49.390250000000       6.580500000000       8.972450000000
       147    2       49.390250000000       2.193504387000       7.462494334400
       148    2       45.591000000000       8.774004387000       7.462494334400
       149    1       49.390250000000       0.000000000000       8.972450000000
       150    1       45.591000000000       6.580500000000       8.972450000000
       151    2       45.591000000000       2.193504387000       7.462494334400
       152    2       49.390250000000       8.774004387000       7.462494334400
       153    2       47.490625000000       5.483754387000       7.462494334400
       154    2       49.390250000000       4.386995613000      10.482405665600
       155    2       51.289875000000       5.483754387000       7.462494334400
       156    2       51.289875000000      12.064254387000       7.462494334400
       157    2       45.591000000000      10.967495613000      10.482405665600
       158    2       47.490625000000      12.064254387000       7.462494334400
       159    1       51.289875000000       3.290250000000       8.972450000000
       160    1       47.490625000000       9.870750000000       8.972450000000
       161    1       47.490625000000       3.290250000000       8.972450000000
       162    2       45.591000000000       4.386995613000      10.482405665600
       163    1       51.289875000000       9.870750000000       8.972450000000
       164    2       49.390250000000      10.967495613000      10.482405665600
       165    2       47.490625000000       1.096745613000      10.482405665600
       166    2       51.289875000000       7.677245613000      10.482405665600
       167    2       51.289875000000       1.096745613000      10.482405665600
       168    2       47.490625000000       7.677245613000      10.482405665600
       169    1       53.189500000000       0.000000000000       8.972450000000
       170    1       56.988750000000       6.580500000000       8.972450000000
       171    2       56.988750000000       2.193504387000       7.462494334400
       172    2       53.189500000000       8.774004387000       7.462494334400
       173    1       56.988750000000       0.000000000000       8.972450000000
       174    1       53.189500000000       6.580500000000       8.972450000000
       175    2       53.189500000000       2.193504387000       7.462494334400
       176    2       56.988750000000       8.774004387000       7.462494334400
       177    2       55.089125000000       5.483754387000       7.462494334400
       178    2       56.988750000000       4.386995613000      10.482405665600
       179    2       58.888375000000       5.483754387000       7.462494334400
       180    2       58.888375000000      12.064254387000       7.462494334400
       181    2       53.189500000000      10.967495613000      10.482405665600
       182    2       55.089125000000      12.064254387000       7.462494334400
       183    1       58.888375000000       3.290250000000       8.972450000000
       184    1       55.089125000000       9.870750000000       8.972450000000
       185    1       55.089125000000       3.290250000000       8.972450000000
       186    2       53.189500000000       4.386995613000      10.482405665600
       187    1       58.888375000000       9.870750000000       8.972450000000
       188    2       56.988750000000      10.967495613000      10.482405665600
       189    2       55.089125000000       1.096745613000      10.482405665600
       190    2       58.888375000000       7.677245613000      10.482405665600
       191    2       58.888375000000       1.096745613000      10.482405665600
       192    2       55.089125000000       7.677245613000      10.482405665600
       193    1       60.788000000000       0.000000000000       8.972450000000
       194    1       64.587250000000       6.580500000000       8.972450000000
       195    2       64.587250000000       2.193504387000       7.462494334400
       196    2       60.788000000000       8.774004387000       7.462494334400
       197    1       64.587250000000       0.000000000000       8.972450000000
       198    1       60.788000000000       6.580500000000       8.972450000000
       199    2       60.788000000000       2.193504387000       7.462494334400
       200    2       64.587250000000       8.774004387000       7.462494334400
       201    2       62.687625000000       5.483754387000       7.462494334400
       202    2       64.587250000000       4.386995613000      10.482405665600
       203    2       66.486875000000       5.483754387000       7.462494334400
       204    2       66.486875000000      12.064254387000       7.462494334400
       205    2       60.788000000000      10.967495613000      10.482405665600
       206    2       62.687625000000      12.064254387000       7.462494334400
       207    1       66.486875000000       3.290250000000       8.972450000000
       208    1       62.687625000000       9.870750000000       8.972450000000
       209    1       62.687625000000       3.290250000000       8.972450000000
       210    2       60.788000000000       4.386995613000      10.482405665600
       211    1       66.486875000000       9.870750000000       8.972450000000
       212    2       64.587250000000      10.967495613000      10.482405665600
       213    2       62.687625000000       1.096745613000      10.482405665600
       214    2       66.486875000000       7.677245613000      10.482405665600
       215    2       66.486875000000       1.096745613000      10.482405665600
       216    2       62.687625000000       7.677245613000      10.482405665600
       217    1       68.386500000000       0.000000000000       8.972450000000
       218    1       72.185750000000       6.580500000000       8.972450000000
       219    2       72.185750000000       2.193504387000       7.462494334400
       220    2       68.386500000000       8.774004387000       7.462494334400
       221    1       72.185750000000       0.000000000000       8.972450000000
       222    1       68.386500000000       6.580500000000       8.972450000000
       223    2       68.386500000000       2.193504387000       7.462494334400
       224    2       72.185750000000       8.774004387000       7.462494334400
       225    2       70.286125000000       5.483754387000       7.462494334400
       226    2       72.185750000000       4.386995613000      10.482405665600
       227    2       74.085375000000       5.483754387000       7.462494334400
       228    2       74.085375000000      12.064254387000       7.462494334400
       229    2       68.386500000000      10.967495613000      10.482405665600
       230    2       70.286125000000      12.064254387000       7.462494334400
       231    1       74.085375000000       3.290250000000       8.972450000000
       232    1       70.286125000000       9.870750000000       8.972450000000
       233    1       70.286125000000       3.290250000000       8.972450000000
       234    2       68.386500000000       4.386995613000      10.482405665600
       235    1       74.085375000000       9.870750000000       8.972450000000
       236    2       72.185750000000      10.967495613000      10.482405665600
       237    2       70.286125000000       1.096745613000      10.482405665600
       238    2       74.085375000000       7.677245613000      10.482405665600
       239    2       74.085375000000       1.096745613000      10.482405665600
       240    2       70.286125000000       7.677245613000      10.482405665600
       241    1       75.985000000000       0.000000000000       8.972450000000
       242    1       79.784250000000       6.580500000000       8.972450000000
       243    2       79.784250000000       2.193504387000       7.462494334400
       244    2       75.985000000000       8.774004387000       7.462494334400
       245    1       79.784250000000       0.000000000000       8.972450000000
       246    1       75.985000000000       6.580500000000       8.972450000000
       247    2       75.985000000000       2.193504387000       7.462494334400
       248    2       79.784250000000       8.774004387000       7.462494334400
       249    2       77.884625000000       5.483754387000       7.462494334400
       250    2       79.784250000000       4.386995613000      10.482405665600
       251    2       81.683875000000       5.483754387000       7.462494334400
       252    2       81.683875000000      12.064254387000       7.462494334400
       253    2       75.985000000000      10.967495613000      10.482405665600
       254    2       77.884625000000      12.064254387000       7.462494334400
       255    1       81.683875000000       3.290250000000       8.972450000000
       256    1       77.884625000000       9.870750000000       8.972450000000
       257    1       77.884625000000       3.290250000000       8.972450000000
       258    2       75.985000000000       4.386995613000      10.482405665600
       259    1       81.683875000000       9.870750000000       8.972450000000
       260    2       79.784250000000      10.967495613000      10.482405665600
       261    2       77.884625000000       1.096745613000      10.482405665600
       262    2       81.683875000000       7.677245613000      10.482405665600
       263    2       81.683875000000       1.096745613000      10.482405665600
       264    2       77.884625000000       7.677245613000      10.482405665600
       265    1       83.583500000000       0.000000000000       8.972450000000
       266    1       87.382750000000       6.580500000000       8.972450000000
       267    2       87.382750000000       2.193504387000       7.462494334400
       268    2       83.583500000000       8.774004387000       7.462494334400
       269    1       87.382750000000       0.000000000000       8.972450000000
       270    1       83.583500000000       6.580500000000       8.972450000000
       271    2       83.583500000000       2.193504387000       7.462494334400
       272    2       87.382750000000       8.774004387000       7.462494334400
       273    2       85.483125000000       5.483754387000       7.462494334400
       274    2       87.382750000000       4.386995613000      10.482405665600
       275    2       89.282375000000       5.483754387000       7.462494334400
       276    2       89.282375000000      12.064254387000       7.462494334400
       277    2       83.583500000000      10.967495613000      10.482405665600
       278    2       85.483125000000      12.064254387000       7.462494334400
       279    1       89.282375000000       3.290250000000       8.972450000000
       280    1       85.483125000000       9.870750000000       8.972450000000
       281    1       85.483125000000       3.290250000000       8.972450000000
       282    2       83.583500000000       4.386995613000      10.482405665600
       283    1       89.282375000000       9.870750000000       8.972450000000
       284    2       87.382750000000      10.967495613000      10.482405665600
       285    2       85.483125000000       1.096745613000      10.482405665600
       286    2       89.282375000000       7.677245613000      10.482405665600
       287    2       89.282375000000       1.096745613000      10.482405665600
       288    2       85.483125000000       7.677245613000      10.482405665600
       289    1       91.182000000000       0.000000000000       8.972450000000
       290    1       94.981250000000       6.580500000000       8.972450000000
       291    2       94.981250000000       2.193504387000       7.462494334400
       292    2       91.182000000000       8.774004387000       7.462494334400
       293    1       94.981250000000       0.000000000000       8.972450000000
       294    1       91.182000000000       6.580500000000       8.972450000000
       295    2       91.182000000000       2.193504387000       7.462494334400
       296    2       94.981250000000       8.774004387000       7.462494334400
       297    2       93.081625000000       5.483754387000       7.462494334400
       298    2       94.981250000000       4.386995613000      10.482405665600
       299    2       96.880875000000       5.483754387000       7.462494334400
       300    2       96.880875000000      12.064254387000       7.462494334400
       301    2       91.182000000000      10.967495613000      10.482405665600
       302    2       93.081625000000      12.064254387000       7.462494334400
       303    1       96.880875000000       3.290250000000       8.972450000000
       304    1       93.081625000000       9.870750000000       8.972450000000
       305    1       93.081625000000       3.290250000000       8.972450000000
       306    2       91.182000000000       4.386995613000      10.482405665600
       307    1       96.880875000000       9.870750000000       8.972450000000
       308    2       94.981250000000      10.967495613000      10.482405665600
       309    2       93.081625000000       1.096745613000      10.482405665600
       310    2       96.880875000000       7.677245613000      10.482405665600
       311    2       96.880875000000       1.096745613000      10.482405665600
       312    2       93.081625000000       7.677245613000      10.482405665600
       313    1        0.000000000000      13.161000000000       8.972450000000
       314    1        3.799250000000      19.741500000000       8.972450000000
       315    2        3.799250000000      15.354504387000       7.462494334400
       316    2        0.000000000000      21.935004387000       7.462494334400
       317    1        3.799250000000      13.161000000000       8.972450000000
       318    1        0.000000000000      19.741500000000       8.972450000000
       319    2        0.000000000000      15.354504387000       7.462494334400
       320    2        3.799250000000      21.935004387000       7.462494334400
       321    2        1.899625000000      18.644754387000       7.462494334400
       322    2        3.799250000000      17.547995613000      10.482405665600
       323    2        5.698875000000      18.644754387000       7.462494334400
       324    2        5.698875000000      25.225254387000       7.462494334400
       325    2        0.000000000000      24.128495613000      10.482405665600
       326    2        1.899625000000      25.225254387000       7.462494334400
       327    1        5.698875000000      16.451250000000       8.972450000000
       328    1        1.899625000000      23.031750000000       8.972450000000
       329    1        1.899625000000      16.451250000000       8.972450000000
       330    2        0.000000000000      17.547995613000      10.482405665600
       331    1        5.698875000000      23.031750000000       8.972450000000
       332    2        3.799250000000      24.128495613000      10.482405665600
       333    2        1.899625000000      14.257745613000      10.482405665600
       334    2        5.698875000000      20.838245613000      10.482405665600
       335    2        5.698875000000      14.257745613000      10.482405665600
       336    2        1.899625000000      20.838245613000      10.482405665600
       337    1        7.598500000000      13.161000000000       8.972450000000
       338    1       11.397750000000      19.741500000000       8.972450000000
       339    2       11.397750000000      15.354504387000       7.462494334400
       340    2        7.598500000000      21.935004387000       7.462494334400
       341    1       11.397750000000      13.161000000000       8.972450000000
       342    1        7.598500000000      19.741500000000       8.972450000000
       343    2        7.598500000000      15.354504387000       7.462494334400
       344    2       11.397750000000      21.935004387000       7.462494334400
       345    2        9.498125000000      18.644754387000       7.462494334400
       346    2       11.397750000000      17.547995613000      10.482405665600
       347    2       13.297375000000      18.644754387000       7.462494334400
       348    2       13.297375000000      25.225254387000       7.462494334400
       349    2        7.598500000000      24.128495613000      10.482405665600
       350    2        9.498125000000      25.225254387000       7.462494334400
       351    1       13.297375000000      16.451250000000       8.972450000000
       352    1        9.498125000000      23.031750000000       8.972450000000
       353    1        9.498125000000      16.451250000000       8.972450000000
       354    2        7.598500000000      17.547995613000      10.482405665600
       355    1       13.297375000000      23.031750000000       8.972450000000
       356    2       11.397750000000      24.128495613000      10.482405665600
       357    2        9.498125000000      14.257745613000      10.482405665600
       358    2       13.297375000000      20.838245613000      10.482405665600
       359    2       13.297375000000      14.257745613000      10.482405665600
       360    2        9.498125000000      20.838245613000      10.482405665600
       361    1       15.197000000000      13.161000000000       8.972450000000
       362    1       18.996250000000      19.741500000000       8.972450000000
       363    2       18.996250000000      15.354504387000       7.462494334400
       364    2       15.197000000000      21.935004387000       7.462494334400
       365    1       18.996250000000      13.161000000000       8.972450000000
       366    1       15.197000000000      19.741500000000       8.972450000000
       367    2       15.197000000000      15.354504387000       7.462494334400
       368    2       18.996250000000      21.935004387000       7.462494334400
       369    2       17.096625000000      18.644754387000       7.462494334400
       370    2       18.996250000000      17.547995613000      10.482405665600