 # Sc8 Se16
  
        2184  atoms
           2  atom types
 
      0.000000000000     100.548500000000  xlo xhi
      0.000000000000      93.776200000000  ylo yhi
      0.000000000000      18.023800000000  zlo zhi
 
Masses
 
            1   44.95591200             # Sc
            2   78.96000000             # Se
 
Atoms # atomic
 
         1    1        0.000000000000       0.000000000000       9.011900000000
         2    1        3.867250000000       6.698300000000       9.011900000000
         3    2        7.734500000000       2.232771132200       7.527928450800
         4    2        3.867250000000       8.931071132200       7.527928450800
         5    2        5.800875000000       5.581921132200       7.527928450800
         6    2        1.933625000000      12.280221132200       7.527928450800
         7    1        5.800875000000       3.349150000000       9.011900000000
         8    1        1.933625000000      10.047450000000       9.011900000000
         9    2        3.867250000000       2.232771132200       7.527928450800
        10    2        7.734500000000       8.931071132200       7.527928450800
        11    1        3.867250000000       0.000000000000       9.011900000000
        12    1        7.734500000000       6.698300000000       9.011900000000
        13    2        1.933625000000       1.116378867800      10.495871549200
        14    2        5.800875000000       7.814678867800      10.495871549200
        15    2        5.800875000000       1.116378867800      10.495871549200
        16    2        1.933625000000       7.814678867800      10.495871549200
        17    1        1.933625000000       3.349150000000       9.011900000000
        18    1        5.800875000000      10.047450000000       9.011900000000
        19    2        1.933625000000       5.581921132200       7.527928450800
        20    2        5.800875000000      12.280221132200       7.527928450800
        21    2        3.867250000000       4.465528867800      10.495871549200
        22    2        7.734500000000      11.163828867800      10.495871549200
        23    2        7.734500000000       4.465528867800      10.495871549200
        24    2        3.867250000000      11.163828867800      10.495871549200
        25    1        7.734500000000       0.000000000000       9.011900000000
        26    1       11.601750000000       6.698300000000       9.011900000000
        27    2       15.469000000000       2.232771132200       7.527928450800
        28    2       11.601750000000       8.931071132200       7.527928450800
        29    2       13.535375000000       5.581921132200       7.527928450800
        30    2        9.668125000000      12.280221132200       7.527928450800
        31    1       13.535375000000       3.349150000000       9.011900000000
        32    1        9.668125000000      10.047450000000       9.011900000000
        33    2       11.601750000000       2.232771132200       7.527928450800
        34    2       15.469000000000       8.931071132200       7.527928450800
        35    1       11.601750000000       0.000000000000       9.011900000000
        36    1       15.469000000000       6.698300000000       9.011900000000
        37    2        9.668125000000       1.116378867800      10.495871549200
        38    2       13.535375000000       7.814678867800      10.495871549200
        39    2       13.535375000000       1.116378867800      10.495871549200
        40    2        9.668125000000       7.814678867800      10.495871549200
        41    1        9.668125000000       3.349150000000       9.011900000000
        42    1       13.535375000000      10.047450000000       9.011900000000
        43    2        9.668125000000       5.581921132200       7.527928450800
        44    2       13.535375000000      12.280221132200       7.527928450800
        45    2       11.601750000000       4.465528867800      10.495871549200
        46    2       15.469000000000      11.163828867800      10.495871549200
        47    2       15.469000000000       4.465528867800      10.495871549200
        48    2       11.601750000000      11.163828867800      10.495871549200
        49    1       15.469000000000       0.000000000000       9.011900000000
        50    1       19.336250000000       6.698300000000       9.011900000000
        51    2       23.203500000000       2.232771132200       7.527928450800
        52    2       19.336250000000       8.931071132200       7.527928450800
        53    2       21.269875000000       5.581921132200       7.527928450800
        54    2       17.402625000000      12.280221132200       7.527928450800
        55    1       21.269875000000       3.349150000000       9.011900000000
        56    1       17.402625000000      10.047450000000       9.011900000000
        57    2       19.336250000000       2.232771132200       7.527928450800
        58    2       23.203500000000       8.931071132200       7.527928450800
        59    1       19.336250000000       0.000000000000       9.011900000000
        60    1       23.203500000000       6.698300000000       9.011900000000
        61    2       17.402625000000       1.116378867800      10.495871549200
        62    2       21.269875000000       7.814678867800      10.495871549200
        63    2       21.269875000000       1.116378867800      10.495871549200
        64    2       17.402625000000       7.814678867800      10.495871549200
        65    1       17.402625000000       3.349150000000       9.011900000000
        66    1       21.269875000000      10.047450000000       9.011900000000
        67    2       17.402625000000       5.581921132200       7.527928450800
        68    2       21.269875000000      12.280221132200       7.527928450800
        69    2       19.336250000000       4.465528867800      10.495871549200
        70    2       23.203500000000      11.163828867800      10.495871549200
        71    2       23.203500000000       4.465528867800      10.495871549200
        72    2       19.336250000000      11.163828867800      10.495871549200
        73    1       23.203500000000       0.000000000000       9.011900000000
        74    1       27.070750000000       6.698300000000       9.011900000000
        75    2       30.938000000000       2.232771132200       7.527928450800
        76    2       27.070750000000       8.931071132200       7.527928450800
        77    2       29.004375000000       5.581921132200       7.527928450800
        78    2       25.137125000000      12.280221132200       7.527928450800
        79    1       29.004375000000       3.349150000000       9.011900000000
        80    1       25.137125000000      10.047450000000       9.011900000000
        81    2       27.070750000000       2.232771132200       7.527928450800
        82    2       30.938000000000       8.931071132200       7.527928450800
        83    1       27.070750000000       0.000000000000       9.011900000000
        84    1       30.938000000000       6.698300000000       9.011900000000
        85    2       25.137125000000       1.116378867800      10.495871549200
        86    2       29.004375000000       7.814678867800      10.495871549200
        87    2       29.004375000000       1.116378867800      10.495871549200
        88    2       25.137125000000       7.814678867800      10.495871549200
        89    1       25.137125000000       3.349150000000       9.011900000000
        90    1       29.004375000000      10.047450000000       9.011900000000
        91    2       25.137125000000       5.581921132200       7.527928450800
        92    2       29.004375000000      12.280221132200       7.527928450800
        93    2       27.070750000000       4.465528867800      10.495871549200
        94    2       30.938000000000      11.163828867800      10.495871549200
        95    2       30.938000000000       4.465528867800      10.495871549200
        96    2       27.070750000000      11.163828867800      10.495871549200
        97    1       30.938000000000       0.000000000000       9.011900000000
        98    1       34.805250000000       6.698300000000       9.011900000000
        99    2       38.672500000000       2.232771132200       7.527928450800
       100    2       34.805250000000       8.931071132200       7.527928450800
       101    2       36.738875000000       5.581921132200       7.527928450800
       102    2       32.871625000000      12.280221132200       7.527928450800
       103    1       36.738875000000       3.349150000000       9.011900000000
       104    1       32.871625000000      10.047450000000       9.011900000000
       105    2       34.805250000000       2.232771132200       7.527928450800
       106    2       38.672500000000       8.931071132200       7.527928450800
       107    1       34.805250000000       0.000000000000       9.011900000000
       108    1       38.672500000000       6.698300000000       9.011900000000
       109    2       32.871625000000       1.116378867800      10.495871549200
       110    2       36.738875000000       7.814678867800      10.495871549200
       111    2       36.738875000000       1.116378867800      10.495871549200
       112    2       32.871625000000       7.814678867800      10.495871549200
       113    1       32.871625000000       3.349150000000       9.011900000000
       114    1       36.738875000000      10.047450000000       9.011900000000
       115    2       32.871625000000       5.581921132200       7.527928450800
       116    2       36.738875000000      12.280221132200       7.527928450800
       117    2       34.805250000000       4.465528867800      10.495871549200
       118    2       38.672500000000      11.163828867800      10.495871549200
       119    2       38.672500000000       4.465528867800      10.495871549200
       120    2       34.805250000000      11.163828867800      10.495871549200
       121    1       38.672500000000       0.000000000000       9.011900000000
       122    1       42.539750000000       6.698300000000       9.011900000000
       123    2       46.407000000000       2.232771132200       7.527928450800
       124    2       42.539750000000       8.931071132200       7.527928450800
       125    2       44.473375000000       5.581921132200       7.527928450800
       126    2       40.606125000000      12.280221132200       7.527928450800
       127    1       44.473375000000       3.349150000000       9.011900000000
       128    1       40.606125000000      10.047450000000       9.011900000000
       129    2       42.539750000000       2.232771132200       7.527928450800
       130    2       46.407000000000       8.931071132200       7.527928450800
       131    1       42.539750000000       0.000000000000       9.011900000000
       132    1       46.407000000000       6.698300000000       9.011900000000
       133    2       40.606125000000       1.116378867800      10.495871549200
       134    2       44.473375000000       7.814678867800      10.495871549200
       135    2       44.473375000000       1.116378867800      10.495871549200
       136    2       40.606125000000       7.814678867800      10.495871549200
       137    1       40.606125000000       3.349150000000       9.011900000000
       138    1       44.473375000000      10.047450000000       9.011900000000
       139    2       40.606125000000       5.581921132200       7.527928450800
       140    2       44.473375000000      12.280221132200       7.527928450800
       141    2       42.539750000000       4.465528867800      10.495871549200
       142    2       46.407000000000      11.163828867800      10.495871549200
       143    2       46.407000000000       4.465528867800      10.495871549200
       144    2       42.539750000000      11.163828867800      10.495871549200
       145    1       46.407000000000       0.000000000000       9.011900000000
       146    1       50.274250000000       6.698300000000       9.011900000000
       147    2       54.141500000000       2.232771132200       7.527928450800
       148    2       50.274250000000       8.931071132200       7.527928450800
       149    2       52.207875000000       5.581921132200       7.527928450800
       150    2       48.340625000000      12.280221132200       7.527928450800
       151    1       52.207875000000       3.349150000000       9.011900000000
       152    1       48.340625000000      10.047450000000       9.011900000000
       153    2       50.274250000000       2.232771132200       7.527928450800
       154    2       54.141500000000       8.931071132200       7.527928450800
       155    1       50.274250000000       0.000000000000       9.011900000000
       156    1       54.141500000000       6.698300000000       9.011900000000
       157    2       48.340625000000       1.116378867800      10.495871549200
       158    2       52.207875000000       7.814678867800      10.495871549200
       159    2       52.207875000000       1.116378867800      10.495871549200
       160    2       48.340625000000       7.814678867800      10.495871549200
       161    1       48.340625000000       3.349150000000       9.011900000000
       162    1       52.207875000000      10.047450000000       9.011900000000
       163    2       48.340625000000       5.581921132200       7.527928450800
       164    2       52.207875000000      12.280221132200       7.527928450800
       165    2       50.274250000000       4.465528867800      10.495871549200
       166    2       54.141500000000      11.163828867800      10.495871549200
       167    2       54.141500000000       4.465528867800      10.495871549200
       168    2       50.274250000000      11.163828867800      10.495871549200
       169    1       54.141500000000       0.000000000000       9.011900000000
       170    1       58.008750000000       6.698300000000       9.011900000000
       171    2       61.876000000000       2.232771132200       7.527928450800
       172    2       58.008750000000       8.931071132200       7.527928450800
       173    2       59.942375000000       5.581921132200       7.527928450800
       174    2       56.075125000000      12.280221132200       7.527928450800
       175    1       59.942375000000       3.349150000000       9.011900000000
       176    1       56.075125000000      10.047450000000       9.011900000000
       177    2       58.008750000000       2.232771132200       7.527928450800
       178    2       61.876000000000       8.931071132200       7.527928450800
       179    1       58.008750000000       0.000000000000       9.011900000000
       180    1       61.876000000000       6.698300000000       9.011900000000
       181    2       56.075125000000       1.116378867800      10.495871549200
       182    2       59.942375000000       7.814678867800      10.495871549200
       183    2       59.942375000000       1.116378867800      10.495871549200
       184    2       56.075125000000       7.814678867800      10.495871549200
       185    1       56.075125000000       3.349150000000       9.011900000000
       186    1       59.942375000000      10.047450000000       9.011900000000
       187    2       56.075125000000       5.581921132200       7.527928450800
       188    2       59.942375000000      12.280221132200       7.527928450800
       189    2       58.008750000000       4.465528867800      10.495871549200
       190    2       61.876000000000      11.163828867800      10.495871549200
       191    2       61.876000000000       4.465528867800      10.495871549200
       192    2       58.008750000000      11.163828867800      10.495871549200
       193    1       61.876000000000       0.000000000000       9.011900000000
       194    1       65.743250000000       6.698300000000       9.011900000000
       195    2       69.610500000000       2.232771132200       7.527928450800
       196    2       65.743250000000       8.931071132200       7.527928450800
       197    2       67.676875000000       5.581921132200       7.527928450800
       198    2       63.809625000000      12.280221132200       7.527928450800
       199    1       67.676875000000       3.349150000000       9.011900000000
       200    1       63.809625000000      10.047450000000       9.011900000000
       201    2       65.743250000000       2.232771132200       7.527928450800
       202    2       69.610500000000       8.931071132200       7.527928450800
       203    1       65.743250000000       0.000000000000       9.011900000000
       204    1       69.610500000000       6.698300000000       9.011900000000
       205    2       63.809625000000       1.116378867800      10.495871549200
       206    2       67.676875000000       7.814678867800      10.495871549200
       207    2       67.676875000000       1.116378867800      10.495871549200
       208    2       63.809625000000       7.814678867800      10.495871549200
       209    1       63.809625000000       3.349150000000       9.011900000000
       210    1       67.676875000000      10.047450000000       9.011900000000
       211    2       63.809625000000       5.581921132200       7.527928450800
       212    2       67.676875000000      12.280221132200       7.527928450800
       213    2       65.743250000000       4.465528867800      10.495871549200
       214    2       69.610500000000      11.163828867800      10.495871549200
       215    2       69.610500000000       4.465528867800      10.495871549200
       216    2       65.743250000000      11.163828867800      10.495871549200
       217    1       69.610500000000       0.000000000000       9.011900000000
       218    1       73.477750000000       6.698300000000       9.011900000000
       219    2       77.345000000000       2.232771132200       7.527928450800
       220    2       73.477750000000       8.931071132200       7.527928450800
       221    2       75.411375000000       5.581921132200       7.527928450800
       222    2       71.544125000000      12.280221132200       7.527928450800
       223    1       75.411375000000       3.349150000000       9.011900000000
       224    1       71.544125000000      10.047450000000       9.011900000000
       225    2       73.477750000000       2.232771132200       7.527928450800
       226    2       77.345000000000       8.931071132200       7.527928450800
       227    1       73.477750000000       0.000000000000       9.011900000000
       228    1       77.345000000000       6.698300000000       9.011900000000
       229    2       71.544125000000       1.116378867800      10.495871549200
       230    2       75.411375000000       7.814678867800      10.495871549200
       231    2       75.411375000000       1.116378867800      10.495871549200
       232    2       71.544125000000       7.814678867800      10.495871549200
       233    1       71.544125000000       3.349150000000       9.011900000000
       234    1       75.411375000000      10.047450000000       9.011900000000
       235    2       71.544125000000       5.581921132200       7.527928450800
       236    2       75.411375000000      12.280221132200       7.527928450800
       237    2       73.477750000000       4.465528867800      10.495871549200
       238    2       77.345000000000      11.163828867800      10.495871549200
       239    2       77.345000000000       4.465528867800      10.495871549200
       240    2       73.477750000000      11.163828867800      10.495871549200
       241    1       77.345000000000       0.000000000000       9.011900000000
       242    1       81.212250000000       6.698300000000       9.011900000000
       243    2       85.079500000000       2.232771132200       7.527928450800
       244    2       81.212250000000       8.931071132200       7.527928450800
       245    2       83.145875000000       5.581921132200       7.527928450800
       246    2       79.278625000000      12.280221132200       7.527928450800
       247    1       83.145875000000       3.349150000000       9.011900000000
       248    1       79.278625000000      10.047450000000       9.011900000000
       249    2       81.212250000000       2.232771132200       7.527928450800
       250    2       85.079500000000       8.931071132200       7.527928450800
       251    1       81.212250000000       0.000000000000       9.011900000000
       252    1       85.079500000000       6.698300000000       9.011900000000
       253    2       79.278625000000       1.116378867800      10.495871549200
       254    2       83.145875000000       7.814678867800      10.495871549200
       255    2       83.145875000000       1.116378867800      10.495871549200
       256    2       79.278625000000       7.814678867800      10.495871549200
       257    1       79.278625000000       3.349150000000       9.011900000000
       258    1       83.145875000000      10.047450000000       9.011900000000
       259    2       79.278625000000       5.581921132200       7.527928450800
       260    2       83.145875000000      12.280221132200       7.527928450800
       261    2       81.212250000000       4.465528867800      10.495871549200
       262    2       85.079500000000      11.163828867800      10.495871549200
       263    2       85.079500000000       4.465528867800      10.495871549200
       264    2       81.212250000000      11.163828867800      10.495871549200
       265    1       85.079500000000       0.000000000000       9.011900000000
       266    1       88.946750000000       6.698300000000       9.011900000000
       267    2       92.814000000000       2.232771132200       7.527928450800
       268    2       88.946750000000       8.931071132200       7.527928450800
       269    2       90.880375000000       5.581921132200       7.527928450800
       270    2       87.013125000000      12.280221132200       7.527928450800
       271    1       90.880375000000       3.349150000000       9.011900000000
       272    1       87.013125000000      10.047450000000       9.011900000000
       273    2       88.946750000000       2.232771132200       7.527928450800
       274    2       92.814000000000       8.931071132200       7.527928450800
       275    1       88.946750000000       0.000000000000       9.011900000000
       276    1       92.814000000000       6.698300000000       9.011900000000
       277    2       87.013125000000       1.116378867800      10.495871549200
       278    2       90.880375000000       7.814678867800      10.495871549200
       279    2       90.880375000000       1.116378867800      10.495871549200
       280    2       87.013125000000       7.814678867800      10.495871549200
       281    1       87.013125000000       3.349150000000       9.011900000000
       282    1       90.880375000000      10.047450000000       9.011900000000
       283    2       87.013125000000       5.581921132200       7.527928450800
       284    2       90.880375000000      12.280221132200       7.527928450800
       285    2       88.946750000000       4.465528867800      10.495871549200
       286    2       92.814000000000      11.163828867800      10.495871549200
       287    2       92.814000000000       4.465528867800      10.495871549200
       288    2       88.946750000000      11.163828867800      10.495871549200
       289    1       92.814000000000       0.000000000000       9.011900000000
       290    1       96.681250000000       6.698300000000       9.011900000000
       291    2      100.548500000000       2.232771132200       7.527928450800
       292    2       96.681250000000       8.931071132200       7.527928450800
       293    2       98.614875000000       5.581921132200       7.527928450800
       294    2       94.747625000000      12.280221132200       7.527928450800
       295    1       98.614875000000       3.349150000000       9.011900000000
       296    1       94.747625000000      10.047450000000       9.011900000000
       297    2       96.681250000000       2.232771132200       7.527928450800
       298    2      100.548500000000       8.931071132200       7.527928450800
       299    1       96.681250000000       0.000000000000       9.011900000000
       300    1      100.548500000000       6.698300000000       9.011900000000
       301    2       94.747625000000       1.116378867800      10.495871549200
       302    2       98.614875000000       7.814678867800      10.495871549200
       303    2       98.614875000000       1.116378867800      10.495871549200
       304    2       94.747625000000       7.814678867800      10.495871549200
       305    1       94.747625000000       3.349150000000       9.011900000000
       306    1       98.614875000000      10.047450000000       9.011900000000
       307    2       94.747625000000       5.581921132200       7.527928450800
       308    2       98.614875000000      12.280221132200       7.527928450800
       309    2       96.681250000000       4.465528867800      10.495871549200
       310    2      100.548500000000      11.163828867800      10.495871549200
       311    2      100.548500000000       4.465528867800      10.495871549200
       312    2       96.681250000000      11.163828867800      10.495871549200
       313    1        0.000000000000      13.396600000000       9.011900000000
       314    1        3.867250000000      20.094900000000       9.011900000000
       315    2        7.734500000000      15.629371132200       7.527928450800
       316    2        3.867250000000      22.327671132200       7.527928450800
       317    2        5.800875000000      18.978521132200       7.527928450800
       318    2        1.933625000000      25.676821132200       7.527928450800
       319    1        5.800875000000      16.745750000000       9.011900000000
       320    1        1.933625000000      23.444050000000       9.011900000000
       321    2        3.867250000000      15.629371132200       7.527928450800
       322    2        7.734500000000      22.327671132200       7.527928450800
       323    1        3.867250000000      13.396600000000       9.011900000000
       324    1        7.734500000000      20.094900000000       9.011900000000
       325    2        1.933625000000      14.512978867800      10.495871549200
       326    2        5.800875000000      21.211278867800      10.495871549200
       327    2        5.800875000000      14.512978867800      10.495871549200
       328    2        1.933625000000      21.211278867800      10.495871549200
       329    1        1.933625000000      16.745750000000       9.011900000000
       330    1        5.800875000000      23.444050000000       9.011900000000
       331    2        1.933625000000      18.978521132200       7.527928450800
       332    2        5.800875000000      25.676821132200       7.527928450800
       333    2        3.867250000000      17.862128867800      10.495871549200
       334    2        7.734500000000      24.560428867800      10.495871549200
       335    2        7.734500000000      17.862128867800      10.495871549200
       336    2        3.867250000000      24.560428867800      10.495871549200
       337    1        7.734500000000      13.396600000000       9.011900000000
       338    1       11.601750000000      20.094900000000       9.011900000000
       339    2       15.469000000000      15.629371132200       7.527928450800
       340    2       11.601750000000      22.327671132200       7.527928450800
       341    2       13.535375000000      18.978521132200       7.527928450800
       342    2        9.668125000000      25.676821132200       7.527928450800
       343    1       13.535375000000      16.745750000000       9.011900000000
       344    1        9.668125000000      23.444050000000       9.011900000000
       345    2       11.601750000000      15.629371132200       7.527928450800
       346    2       15.469000000000      22.327671132200       7.527928450800
       347    1       11.601750000000      13.396600000000       9.011900000000
       348    1       15.469000000000      20.094900000000       9.011900000000
       349    2        9.668125000000      14.512978867800      10.495871549200
       350    2       13.535375000000      21.211278867800      10.495871549200
       351    2       13.535375000000      14.512978867800      10.495871549200
       352    2        9.668125000000      21.211278867800      10.495871549200
       353    1        9.668125000000      16.745750000000       9.011900000000
       354    1       13.535375000000      23.444050000000       9.011900000000
       355    2        9.668125000000      18.978521132200       7.527928450800
       356    2       13.535375000000      25.676821132200       7.527928450800
       357    2       11.601750000000      17.862128867800      10.495871549200
       358    2       15.469000000000      24.560428867800      10.495871549200
       359    2       15.469000000000      17.862128867800      10.495871549200
       360    2       11.601750000000      24.560428867800      10.495871549200
       361    1       15.469000000000      13.396600000000       9.011900000000
       362    1       19.336250000000      20.094900000000       9.011900000000
       363    2       23.203500000000      15.629371132200       7.527928450800
       364    2       19.336250000000      22.327671132200       7.527928450800
       365    2       21.269875000000      18.978521132200       7.527928450800
       366    2       17.402625000000      25.676821132200       7.527928450800
       367    1       21.269875000000      16.745750000000       9.011900000000
       368    1       17.402625000000      23.444050000000       9.011900000000
       369    2       19.336250000000      15.629371132200       7.527928450800
       370    2       23.203500000000      22.327671132200       7.527928450800