 # Sc8 O16
  
        3240  atoms
           2  atom types
 
      0.000000000000      98.313000000000  xlo xhi
      0.000000000000     102.169800000000  ylo yhi
      0.000000000000      16.874700000000  zlo zhi
 
Masses
 
            1   44.95591200             # Sc
            2   15.99900000             # O
 
Atoms # atomic
 
         1    1        3.277100000000      11.352200000000       8.437350000000
         2    2        6.554200000000       1.892037117400       7.500044788500
         3    1        0.000000000000       5.676100000000       8.437350000000
         4    2        3.277100000000       7.568137117400       7.500044788500
         5    2        3.277100000000       1.892037117400       7.500044788500
         6    1        1.638550000000       2.838050000000       8.437350000000
         7    2        4.915650000000       4.730087117400       7.500044788500
         8    2        0.000000000000       3.784062882600       9.374655211500
         9    2        0.000000000000       7.568137117400       7.500044788500
        10    2        1.638550000000      10.406187117400       7.500044788500
        11    1        4.915650000000       8.514150000000       8.437350000000
        12    2        3.277100000000       9.460162882600       9.374655211500
        13    2        1.638550000000       4.730087117400       7.500044788500
        14    2        4.915650000000      10.406187117400       7.500044788500
        15    2        1.638550000000       0.946012882600       9.374655211500
        16    2        4.915650000000       6.622112882600       9.374655211500
        17    2        4.915650000000       0.946012882600       9.374655211500
        18    2        1.638550000000       6.622112882600       9.374655211500
        19    1        0.000000000000      11.352200000000       8.437350000000
        20    1        3.277100000000       5.676100000000       8.437350000000
        21    1        4.915650000000       2.838050000000       8.437350000000
        22    1        1.638550000000       8.514150000000       8.437350000000
        23    2        3.277100000000       3.784062882600       9.374655211500
        24    2        6.554200000000       9.460162882600       9.374655211500
        25    1        9.831300000000      11.352200000000       8.437350000000
        26    2       13.108400000000       1.892037117400       7.500044788500
        27    1        6.554200000000       5.676100000000       8.437350000000
        28    2        9.831300000000       7.568137117400       7.500044788500
        29    2        9.831300000000       1.892037117400       7.500044788500
        30    1        8.192750000000       2.838050000000       8.437350000000
        31    2       11.469850000000       4.730087117400       7.500044788500
        32    2        6.554200000000       3.784062882600       9.374655211500
        33    2        6.554200000000       7.568137117400       7.500044788500
        34    2        8.192750000000      10.406187117400       7.500044788500
        35    1       11.469850000000       8.514150000000       8.437350000000
        36    2        9.831300000000       9.460162882600       9.374655211500
        37    2        8.192750000000       4.730087117400       7.500044788500
        38    2       11.469850000000      10.406187117400       7.500044788500
        39    2        8.192750000000       0.946012882600       9.374655211500
        40    2       11.469850000000       6.622112882600       9.374655211500
        41    2       11.469850000000       0.946012882600       9.374655211500
        42    2        8.192750000000       6.622112882600       9.374655211500
        43    1        6.554200000000      11.352200000000       8.437350000000
        44    1        9.831300000000       5.676100000000       8.437350000000
        45    1       11.469850000000       2.838050000000       8.437350000000
        46    1        8.192750000000       8.514150000000       8.437350000000
        47    2        9.831300000000       3.784062882600       9.374655211500
        48    2       13.108400000000       9.460162882600       9.374655211500
        49    1       16.385500000000      11.352200000000       8.437350000000
        50    2       19.662600000000       1.892037117400       7.500044788500
        51    1       13.108400000000       5.676100000000       8.437350000000
        52    2       16.385500000000       7.568137117400       7.500044788500
        53    2       16.385500000000       1.892037117400       7.500044788500
        54    1       14.746950000000       2.838050000000       8.437350000000
        55    2       18.024050000000       4.730087117400       7.500044788500
        56    2       13.108400000000       3.784062882600       9.374655211500
        57    2       13.108400000000       7.568137117400       7.500044788500
        58    2       14.746950000000      10.406187117400       7.500044788500
        59    1       18.024050000000       8.514150000000       8.437350000000
        60    2       16.385500000000       9.460162882600       9.374655211500
        61    2       14.746950000000       4.730087117400       7.500044788500
        62    2       18.024050000000      10.406187117400       7.500044788500
        63    2       14.746950000000       0.946012882600       9.374655211500
        64    2       18.024050000000       6.622112882600       9.374655211500
        65    2       18.024050000000       0.946012882600       9.374655211500
        66    2       14.746950000000       6.622112882600       9.374655211500
        67    1       13.108400000000      11.352200000000       8.437350000000
        68    1       16.385500000000       5.676100000000       8.437350000000
        69    1       18.024050000000       2.838050000000       8.437350000000
        70    1       14.746950000000       8.514150000000       8.437350000000
        71    2       16.385500000000       3.784062882600       9.374655211500
        72    2       19.662600000000       9.460162882600       9.374655211500
        73    1       22.939700000000      11.352200000000       8.437350000000
        74    2       26.216800000000       1.892037117400       7.500044788500
        75    1       19.662600000000       5.676100000000       8.437350000000
        76    2       22.939700000000       7.568137117400       7.500044788500
        77    2       22.939700000000       1.892037117400       7.500044788500
        78    1       21.301150000000       2.838050000000       8.437350000000
        79    2       24.578250000000       4.730087117400       7.500044788500
        80    2       19.662600000000       3.784062882600       9.374655211500
        81    2       19.662600000000       7.568137117400       7.500044788500
        82    2       21.301150000000      10.406187117400       7.500044788500
        83    1       24.578250000000       8.514150000000       8.437350000000
        84    2       22.939700000000       9.460162882600       9.374655211500
        85    2       21.301150000000       4.730087117400       7.500044788500
        86    2       24.578250000000      10.406187117400       7.500044788500
        87    2       21.301150000000       0.946012882600       9.374655211500
        88    2       24.578250000000       6.622112882600       9.374655211500
        89    2       24.578250000000       0.946012882600       9.374655211500
        90    2       21.301150000000       6.622112882600       9.374655211500
        91    1       19.662600000000      11.352200000000       8.437350000000
        92    1       22.939700000000       5.676100000000       8.437350000000
        93    1       24.578250000000       2.838050000000       8.437350000000
        94    1       21.301150000000       8.514150000000       8.437350000000
        95    2       22.939700000000       3.784062882600       9.374655211500
        96    2       26.216800000000       9.460162882600       9.374655211500
        97    1       29.493900000000      11.352200000000       8.437350000000
        98    2       32.771000000000       1.892037117400       7.500044788500
        99    1       26.216800000000       5.676100000000       8.437350000000
       100    2       29.493900000000       7.568137117400       7.500044788500
       101    2       29.493900000000       1.892037117400       7.500044788500
       102    1       27.855350000000       2.838050000000       8.437350000000
       103    2       31.132450000000       4.730087117400       7.500044788500
       104    2       26.216800000000       3.784062882600       9.374655211500
       105    2       26.216800000000       7.568137117400       7.500044788500
       106    2       27.855350000000      10.406187117400       7.500044788500
       107    1       31.132450000000       8.514150000000       8.437350000000
       108    2       29.493900000000       9.460162882600       9.374655211500
       109    2       27.855350000000       4.730087117400       7.500044788500
       110    2       31.132450000000      10.406187117400       7.500044788500
       111    2       27.855350000000       0.946012882600       9.374655211500
       112    2       31.132450000000       6.622112882600       9.374655211500
       113    2       31.132450000000       0.946012882600       9.374655211500
       114    2       27.855350000000       6.622112882600       9.374655211500
       115    1       26.216800000000      11.352200000000       8.437350000000
       116    1       29.493900000000       5.676100000000       8.437350000000
       117    1       31.132450000000       2.838050000000       8.437350000000
       118    1       27.855350000000       8.514150000000       8.437350000000
       119    2       29.493900000000       3.784062882600       9.374655211500
       120    2       32.771000000000       9.460162882600       9.374655211500
       121    1       36.048100000000      11.352200000000       8.437350000000
       122    2       39.325200000000       1.892037117400       7.500044788500
       123    1       32.771000000000       5.676100000000       8.437350000000
       124    2       36.048100000000       7.568137117400       7.500044788500
       125    2       36.048100000000       1.892037117400       7.500044788500
       126    1       34.409550000000       2.838050000000       8.437350000000
       127    2       37.686650000000       4.730087117400       7.500044788500
       128    2       32.771000000000       3.784062882600       9.374655211500
       129    2       32.771000000000       7.568137117400       7.500044788500
       130    2       34.409550000000      10.406187117400       7.500044788500
       131    1       37.686650000000       8.514150000000       8.437350000000
       132    2       36.048100000000       9.460162882600       9.374655211500
       133    2       34.409550000000       4.730087117400       7.500044788500
       134    2       37.686650000000      10.406187117400       7.500044788500
       135    2       34.409550000000       0.946012882600       9.374655211500
       136    2       37.686650000000       6.622112882600       9.374655211500
       137    2       37.686650000000       0.946012882600       9.374655211500
       138    2       34.409550000000       6.622112882600       9.374655211500
       139    1       32.771000000000      11.352200000000       8.437350000000
       140    1       36.048100000000       5.676100000000       8.437350000000
       141    1       37.686650000000       2.838050000000       8.437350000000
       142    1       34.409550000000       8.514150000000       8.437350000000
       143    2       36.048100000000       3.784062882600       9.374655211500
       144    2       39.325200000000       9.460162882600       9.374655211500
       145    1       42.602300000000      11.352200000000       8.437350000000
       146    2       45.879400000000       1.892037117400       7.500044788500
       147    1       39.325200000000       5.676100000000       8.437350000000
       148    2       42.602300000000       7.568137117400       7.500044788500
       149    2       42.602300000000       1.892037117400       7.500044788500
       150    1       40.963750000000       2.838050000000       8.437350000000
       151    2       44.240850000000       4.730087117400       7.500044788500
       152    2       39.325200000000       3.784062882600       9.374655211500
       153    2       39.325200000000       7.568137117400       7.500044788500
       154    2       40.963750000000      10.406187117400       7.500044788500
       155    1       44.240850000000       8.514150000000       8.437350000000
       156    2       42.602300000000       9.460162882600       9.374655211500
       157    2       40.963750000000       4.730087117400       7.500044788500
       158    2       44.240850000000      10.406187117400       7.500044788500
       159    2       40.963750000000       0.946012882600       9.374655211500
       160    2       44.240850000000       6.622112882600       9.374655211500
       161    2       44.240850000000       0.946012882600       9.374655211500
       162    2       40.963750000000       6.622112882600       9.374655211500
       163    1       39.325200000000      11.352200000000       8.437350000000
       164    1       42.602300000000       5.676100000000       8.437350000000
       165    1       44.240850000000       2.838050000000       8.437350000000
       166    1       40.963750000000       8.514150000000       8.437350000000
       167    2       42.602300000000       3.784062882600       9.374655211500
       168    2       45.879400000000       9.460162882600       9.374655211500
       169    1       49.156500000000      11.352200000000       8.437350000000
       170    2       52.433600000000       1.892037117400       7.500044788500
       171    1       45.879400000000       5.676100000000       8.437350000000
       172    2       49.156500000000       7.568137117400       7.500044788500
       173    2       49.156500000000       1.892037117400       7.500044788500
       174    1       47.517950000000       2.838050000000       8.437350000000
       175    2       50.795050000000       4.730087117400       7.500044788500
       176    2       45.879400000000       3.784062882600       9.374655211500
       177    2       45.879400000000       7.568137117400       7.500044788500
       178    2       47.517950000000      10.406187117400       7.500044788500
       179    1       50.795050000000       8.514150000000       8.437350000000
       180    2       49.156500000000       9.460162882600       9.374655211500
       181    2       47.517950000000       4.730087117400       7.500044788500
       182    2       50.795050000000      10.406187117400       7.500044788500
       183    2       47.517950000000       0.946012882600       9.374655211500
       184    2       50.795050000000       6.622112882600       9.374655211500
       185    2       50.795050000000       0.946012882600       9.374655211500
       186    2       47.517950000000       6.622112882600       9.374655211500
       187    1       45.879400000000      11.352200000000       8.437350000000
       188    1       49.156500000000       5.676100000000       8.437350000000
       189    1       50.795050000000       2.838050000000       8.437350000000
       190    1       47.517950000000       8.514150000000       8.437350000000
       191    2       49.156500000000       3.784062882600       9.374655211500
       192    2       52.433600000000       9.460162882600       9.374655211500
       193    1       55.710700000000      11.352200000000       8.437350000000
       194    2       58.987800000000       1.892037117400       7.500044788500
       195    1       52.433600000000       5.676100000000       8.437350000000
       196    2       55.710700000000       7.568137117400       7.500044788500
       197    2       55.710700000000       1.892037117400       7.500044788500
       198    1       54.072150000000       2.838050000000       8.437350000000
       199    2       57.349250000000       4.730087117400       7.500044788500
       200    2       52.433600000000       3.784062882600       9.374655211500
       201    2       52.433600000000       7.568137117400       7.500044788500
       202    2       54.072150000000      10.406187117400       7.500044788500
       203    1       57.349250000000       8.514150000000       8.437350000000
       204    2       55.710700000000       9.460162882600       9.374655211500
       205    2       54.072150000000       4.730087117400       7.500044788500
       206    2       57.349250000000      10.406187117400       7.500044788500
       207    2       54.072150000000       0.946012882600       9.374655211500
       208    2       57.349250000000       6.622112882600       9.374655211500
       209    2       57.349250000000       0.946012882600       9.374655211500
       210    2       54.072150000000       6.622112882600       9.374655211500
       211    1       52.433600000000      11.352200000000       8.437350000000
       212    1       55.710700000000       5.676100000000       8.437350000000
       213    1       57.349250000000       2.838050000000       8.437350000000
       214    1       54.072150000000       8.514150000000       8.437350000000
       215    2       55.710700000000       3.784062882600       9.374655211500
       216    2       58.987800000000       9.460162882600       9.374655211500
       217    1       62.264900000000      11.352200000000       8.437350000000
       218    2       65.542000000000       1.892037117400       7.500044788500
       219    1       58.987800000000       5.676100000000       8.437350000000
       220    2       62.264900000000       7.568137117400       7.500044788500
       221    2       62.264900000000       1.892037117400       7.500044788500
       222    1       60.626350000000       2.838050000000       8.437350000000
       223    2       63.903450000000       4.730087117400       7.500044788500
       224    2       58.987800000000       3.784062882600       9.374655211500
       225    2       58.987800000000       7.568137117400       7.500044788500
       226    2       60.626350000000      10.406187117400       7.500044788500
       227    1       63.903450000000       8.514150000000       8.437350000000
       228    2       62.264900000000       9.460162882600       9.374655211500
       229    2       60.626350000000       4.730087117400       7.500044788500
       230    2       63.903450000000      10.406187117400       7.500044788500
       231    2       60.626350000000       0.946012882600       9.374655211500
       232    2       63.903450000000       6.622112882600       9.374655211500
       233    2       63.903450000000       0.946012882600       9.374655211500
       234    2       60.626350000000       6.622112882600       9.374655211500
       235    1       58.987800000000      11.352200000000       8.437350000000
       236    1       62.264900000000       5.676100000000       8.437350000000
       237    1       63.903450000000       2.838050000000       8.437350000000
       238    1       60.626350000000       8.514150000000       8.437350000000
       239    2       62.264900000000       3.784062882600       9.374655211500
       240    2       65.542000000000       9.460162882600       9.374655211500
       241    1       68.819100000000      11.352200000000       8.437350000000
       242    2       72.096200000000       1.892037117400       7.500044788500
       243    1       65.542000000000       5.676100000000       8.437350000000
       244    2       68.819100000000       7.568137117400       7.500044788500
       245    2       68.819100000000       1.892037117400       7.500044788500
       246    1       67.180550000000       2.838050000000       8.437350000000
       247    2       70.457650000000       4.730087117400       7.500044788500
       248    2       65.542000000000       3.784062882600       9.374655211500
       249    2       65.542000000000       7.568137117400       7.500044788500
       250    2       67.180550000000      10.406187117400       7.500044788500
       251    1       70.457650000000       8.514150000000       8.437350000000
       252    2       68.819100000000       9.460162882600       9.374655211500
       253    2       67.180550000000       4.730087117400       7.500044788500
       254    2       70.457650000000      10.406187117400       7.500044788500
       255    2       67.180550000000       0.946012882600       9.374655211500
       256    2       70.457650000000       6.622112882600       9.374655211500
       257    2       70.457650000000       0.946012882600       9.374655211500
       258    2       67.180550000000       6.622112882600       9.374655211500
       259    1       65.542000000000      11.352200000000       8.437350000000
       260    1       68.819100000000       5.676100000000       8.437350000000
       261    1       70.457650000000       2.838050000000       8.437350000000
       262    1       67.180550000000       8.514150000000       8.437350000000
       263    2       68.819100000000       3.784062882600       9.374655211500
       264    2       72.096200000000       9.460162882600       9.374655211500
       265    1       75.373300000000      11.352200000000       8.437350000000
       266    2       78.650400000000       1.892037117400       7.500044788500
       267    1       72.096200000000       5.676100000000       8.437350000000
       268    2       75.373300000000       7.568137117400       7.500044788500
       269    2       75.373300000000       1.892037117400       7.500044788500
       270    1       73.734750000000       2.838050000000       8.437350000000
       271    2       77.011850000000       4.730087117400       7.500044788500
       272    2       72.096200000000       3.784062882600       9.374655211500
       273    2       72.096200000000       7.568137117400       7.500044788500
       274    2       73.734750000000      10.406187117400       7.500044788500
       275    1       77.011850000000       8.514150000000       8.437350000000
       276    2       75.373300000000       9.460162882600       9.374655211500
       277    2       73.734750000000       4.730087117400       7.500044788500
       278    2       77.011850000000      10.406187117400       7.500044788500
       279    2       73.734750000000       0.946012882600       9.374655211500
       280    2       77.011850000000       6.622112882600       9.374655211500
       281    2       77.011850000000       0.946012882600       9.374655211500
       282    2       73.734750000000       6.622112882600       9.374655211500
       283    1       72.096200000000      11.352200000000       8.437350000000
       284    1       75.373300000000       5.676100000000       8.437350000000
       285    1       77.011850000000       2.838050000000       8.437350000000
       286    1       73.734750000000       8.514150000000       8.437350000000
       287    2       75.373300000000       3.784062882600       9.374655211500
       288    2       78.650400000000       9.460162882600       9.374655211500
       289    1       81.927500000000      11.352200000000       8.437350000000
       290    2       85.204600000000       1.892037117400       7.500044788500
       291    1       78.650400000000       5.676100000000       8.437350000000
       292    2       81.927500000000       7.568137117400       7.500044788500
       293    2       81.927500000000       1.892037117400       7.500044788500
       294    1       80.288950000000       2.838050000000       8.437350000000
       295    2       83.566050000000       4.730087117400       7.500044788500
       296    2       78.650400000000       3.784062882600       9.374655211500
       297    2       78.650400000000       7.568137117400       7.500044788500
       298    2       80.288950000000      10.406187117400       7.500044788500
       299    1       83.566050000000       8.514150000000       8.437350000000
       300    2       81.927500000000       9.460162882600       9.374655211500
       301    2       80.288950000000       4.730087117400       7.500044788500
       302    2       83.566050000000      10.406187117400       7.500044788500
       303    2       80.288950000000       0.946012882600       9.374655211500
       304    2       83.566050000000       6.622112882600       9.374655211500
       305    2       83.566050000000       0.946012882600       9.374655211500
       306    2       80.288950000000       6.622112882600       9.374655211500
       307    1       78.650400000000      11.352200000000       8.437350000000
       308    1       81.927500000000       5.676100000000       8.437350000000
       309    1       83.566050000000       2.838050000000       8.437350000000
       310    1       80.288950000000       8.514150000000       8.437350000000
       311    2       81.927500000000       3.784062882600       9.374655211500
       312    2       85.204600000000       9.460162882600       9.374655211500
       313    1       88.481700000000      11.352200000000       8.437350000000
       314    2       91.758800000000       1.892037117400       7.500044788500
       315    1       85.204600000000       5.676100000000       8.437350000000
       316    2       88.481700000000       7.568137117400       7.500044788500
       317    2       88.481700000000       1.892037117400       7.500044788500
       318    1       86.843150000000       2.838050000000       8.437350000000
       319    2       90.120250000000       4.730087117400       7.500044788500
       320    2       85.204600000000       3.784062882600       9.374655211500
       321    2       85.204600000000       7.568137117400       7.500044788500
       322    2       86.843150000000      10.406187117400       7.500044788500
       323    1       90.120250000000       8.514150000000       8.437350000000
       324    2       88.481700000000       9.460162882600       9.374655211500
       325    2       86.843150000000       4.730087117400       7.500044788500
       326    2       90.120250000000      10.406187117400       7.500044788500
       327    2       86.843150000000       0.946012882600       9.374655211500
       328    2       90.120250000000       6.622112882600       9.374655211500
       329    2       90.120250000000       0.946012882600       9.374655211500
       330    2       86.843150000000       6.622112882600       9.374655211500
       331    1       85.204600000000      11.352200000000       8.437350000000
       332    1       88.481700000000       5.676100000000       8.437350000000
       333    1       90.120250000000       2.838050000000       8.437350000000
       334    1       86.843150000000       8.514150000000       8.437350000000
       335    2       88.481700000000       3.784062882600       9.374655211500
       336    2       91.758800000000       9.460162882600       9.374655211500
       337    1       95.035900000000      11.352200000000       8.437350000000
       338    2       98.313000000000       1.892037117400       7.500044788500
       339    1       91.758800000000       5.676100000000       8.437350000000
       340    2       95.035900000000       7.568137117400       7.500044788500
       341    2       95.035900000000       1.892037117400       7.500044788500
       342    1       93.397350000000       2.838050000000       8.437350000000
       343    2       96.674450000000       4.730087117400       7.500044788500
       344    2       91.758800000000       3.784062882600       9.374655211500
       345    2       91.758800000000       7.568137117400       7.500044788500
       346    2       93.397350000000      10.406187117400       7.500044788500
       347    1       96.674450000000       8.514150000000       8.437350000000
       348    2       95.035900000000       9.460162882600       9.374655211500
       349    2       93.397350000000       4.730087117400       7.500044788500
       350    2       96.674450000000      10.406187117400       7.500044788500
       351    2       93.397350000000       0.946012882600       9.374655211500
       352    2       96.674450000000       6.622112882600       9.374655211500
       353    2       96.674450000000       0.946012882600       9.374655211500
       354    2       93.397350000000       6.622112882600       9.374655211500
       355    1       91.758800000000      11.352200000000       8.437350000000
       356    1       95.035900000000       5.676100000000       8.437350000000
       357    1       96.674450000000       2.838050000000       8.437350000000
       358    1       93.397350000000       8.514150000000       8.437350000000
       359    2       95.035900000000       3.784062882600       9.374655211500
       360    2       98.313000000000       9.460162882600       9.374655211500
       361    1        3.277100000000      22.704400000000       8.437350000000
       362    2        6.554200000000      13.244237117400       7.500044788500
       363    1        0.000000000000      17.028300000000       8.437350000000
       364    2        3.277100000000      18.920337117400       7.500044788500
       365    2        3.277100000000      13.244237117400       7.500044788500
       366    1        1.638550000000      14.190250000000       8.437350000000
       367    2        4.915650000000      16.082287117400       7.500044788500
       368    2        0.000000000000      15.136262882600       9.374655211500
       369    2        0.000000000000      18.920337117400       7.500044788500
       370    2        1.638550000000      21.758387117400       7.500044788500