 # Te16 Sc8
  
        2496  atoms
           2  atom types
 
      0.000000000000      99.517600000000  xlo xhi
      0.000000000000     106.073600000000  ylo yhi
      0.000000000000      18.824000000000  zlo zhi
 
Masses
 
            1   127.60000000            # Te
            2   44.95591200             # Sc
 
Atoms # atomic
 
         1    1        3.827600000000       2.209871086400       7.512733696000
         2    1        7.655200000000       8.839471086400       7.512733696000
         3    1        7.655200000000       4.419728913600      11.311266304000
         4    1        5.741400000000       1.104928913600      11.311266304000
         5    1        5.741400000000       5.524671086400       7.512733696000
         6    2        5.741400000000       3.314800000000       9.412000000000
         7    1        3.827600000000      11.049328913600      11.311266304000
         8    1        1.913800000000       1.104928913600      11.311266304000
         9    1        1.913800000000       7.734528913600      11.311266304000
        10    1        1.913800000000      12.154271086400       7.512733696000
        11    1        1.913800000000       5.524671086400       7.512733696000
        12    1        5.741400000000       7.734528913600      11.311266304000
        13    2        1.913800000000       3.314800000000       9.412000000000
        14    2        1.913800000000       9.944400000000       9.412000000000
        15    2        3.827600000000       0.000000000000       9.412000000000
        16    1        3.827600000000       4.419728913600      11.311266304000
        17    1        5.741400000000      12.154271086400       7.512733696000
        18    2        7.655200000000       6.629600000000       9.412000000000
        19    2        5.741400000000       9.944400000000       9.412000000000
        20    1        7.655200000000      11.049328913600      11.311266304000
        21    1        7.655200000000       2.209871086400       7.512733696000
        22    1        3.827600000000       8.839471086400       7.512733696000
        23    2        7.655200000000       0.000000000000       9.412000000000
        24    2        3.827600000000       6.629600000000       9.412000000000
        25    1       11.482800000000       2.209871086400       7.512733696000
        26    1       15.310400000000       8.839471086400       7.512733696000
        27    1       15.310400000000       4.419728913600      11.311266304000
        28    1       13.396600000000       1.104928913600      11.311266304000
        29    1       13.396600000000       5.524671086400       7.512733696000
        30    2       13.396600000000       3.314800000000       9.412000000000
        31    1       11.482800000000      11.049328913600      11.311266304000
        32    1        9.569000000000       1.104928913600      11.311266304000
        33    1        9.569000000000       7.734528913600      11.311266304000
        34    1        9.569000000000      12.154271086400       7.512733696000
        35    1        9.569000000000       5.524671086400       7.512733696000
        36    1       13.396600000000       7.734528913600      11.311266304000
        37    2        9.569000000000       3.314800000000       9.412000000000
        38    2        9.569000000000       9.944400000000       9.412000000000
        39    2       11.482800000000       0.000000000000       9.412000000000
        40    1       11.482800000000       4.419728913600      11.311266304000
        41    1       13.396600000000      12.154271086400       7.512733696000
        42    2       15.310400000000       6.629600000000       9.412000000000
        43    2       13.396600000000       9.944400000000       9.412000000000
        44    1       15.310400000000      11.049328913600      11.311266304000
        45    1       15.310400000000       2.209871086400       7.512733696000
        46    1       11.482800000000       8.839471086400       7.512733696000
        47    2       15.310400000000       0.000000000000       9.412000000000
        48    2       11.482800000000       6.629600000000       9.412000000000
        49    1       19.138000000000       2.209871086400       7.512733696000
        50    1       22.965600000000       8.839471086400       7.512733696000
        51    1       22.965600000000       4.419728913600      11.311266304000
        52    1       21.051800000000       1.104928913600      11.311266304000
        53    1       21.051800000000       5.524671086400       7.512733696000
        54    2       21.051800000000       3.314800000000       9.412000000000
        55    1       19.138000000000      11.049328913600      11.311266304000
        56    1       17.224200000000       1.104928913600      11.311266304000
        57    1       17.224200000000       7.734528913600      11.311266304000
        58    1       17.224200000000      12.154271086400       7.512733696000
        59    1       17.224200000000       5.524671086400       7.512733696000
        60    1       21.051800000000       7.734528913600      11.311266304000
        61    2       17.224200000000       3.314800000000       9.412000000000
        62    2       17.224200000000       9.944400000000       9.412000000000
        63    2       19.138000000000       0.000000000000       9.412000000000
        64    1       19.138000000000       4.419728913600      11.311266304000
        65    1       21.051800000000      12.154271086400       7.512733696000
        66    2       22.965600000000       6.629600000000       9.412000000000
        67    2       21.051800000000       9.944400000000       9.412000000000
        68    1       22.965600000000      11.049328913600      11.311266304000
        69    1       22.965600000000       2.209871086400       7.512733696000
        70    1       19.138000000000       8.839471086400       7.512733696000
        71    2       22.965600000000       0.000000000000       9.412000000000
        72    2       19.138000000000       6.629600000000       9.412000000000
        73    1       26.793200000000       2.209871086400       7.512733696000
        74    1       30.620800000000       8.839471086400       7.512733696000
        75    1       30.620800000000       4.419728913600      11.311266304000
        76    1       28.707000000000       1.104928913600      11.311266304000
        77    1       28.707000000000       5.524671086400       7.512733696000
        78    2       28.707000000000       3.314800000000       9.412000000000
        79    1       26.793200000000      11.049328913600      11.311266304000
        80    1       24.879400000000       1.104928913600      11.311266304000
        81    1       24.879400000000       7.734528913600      11.311266304000
        82    1       24.879400000000      12.154271086400       7.512733696000
        83    1       24.879400000000       5.524671086400       7.512733696000
        84    1       28.707000000000       7.734528913600      11.311266304000
        85    2       24.879400000000       3.314800000000       9.412000000000
        86    2       24.879400000000       9.944400000000       9.412000000000
        87    2       26.793200000000       0.000000000000       9.412000000000
        88    1       26.793200000000       4.419728913600      11.311266304000
        89    1       28.707000000000      12.154271086400       7.512733696000
        90    2       30.620800000000       6.629600000000       9.412000000000
        91    2       28.707000000000       9.944400000000       9.412000000000
        92    1       30.620800000000      11.049328913600      11.311266304000
        93    1       30.620800000000       2.209871086400       7.512733696000
        94    1       26.793200000000       8.839471086400       7.512733696000
        95    2       30.620800000000       0.000000000000       9.412000000000
        96    2       26.793200000000       6.629600000000       9.412000000000
        97    1       34.448400000000       2.209871086400       7.512733696000
        98    1       38.276000000000       8.839471086400       7.512733696000
        99    1       38.276000000000       4.419728913600      11.311266304000
       100    1       36.362200000000       1.104928913600      11.311266304000
       101    1       36.362200000000       5.524671086400       7.512733696000
       102    2       36.362200000000       3.314800000000       9.412000000000
       103    1       34.448400000000      11.049328913600      11.311266304000
       104    1       32.534600000000       1.104928913600      11.311266304000
       105    1       32.534600000000       7.734528913600      11.311266304000
       106    1       32.534600000000      12.154271086400       7.512733696000
       107    1       32.534600000000       5.524671086400       7.512733696000
       108    1       36.362200000000       7.734528913600      11.311266304000
       109    2       32.534600000000       3.314800000000       9.412000000000
       110    2       32.534600000000       9.944400000000       9.412000000000
       111    2       34.448400000000       0.000000000000       9.412000000000
       112    1       34.448400000000       4.419728913600      11.311266304000
       113    1       36.362200000000      12.154271086400       7.512733696000
       114    2       38.276000000000       6.629600000000       9.412000000000
       115    2       36.362200000000       9.944400000000       9.412000000000
       116    1       38.276000000000      11.049328913600      11.311266304000
       117    1       38.276000000000       2.209871086400       7.512733696000
       118    1       34.448400000000       8.839471086400       7.512733696000
       119    2       38.276000000000       0.000000000000       9.412000000000
       120    2       34.448400000000       6.629600000000       9.412000000000
       121    1       42.103600000000       2.209871086400       7.512733696000
       122    1       45.931200000000       8.839471086400       7.512733696000
       123    1       45.931200000000       4.419728913600      11.311266304000
       124    1       44.017400000000       1.104928913600      11.311266304000
       125    1       44.017400000000       5.524671086400       7.512733696000
       126    2       44.017400000000       3.314800000000       9.412000000000
       127    1       42.103600000000      11.049328913600      11.311266304000
       128    1       40.189800000000       1.104928913600      11.311266304000
       129    1       40.189800000000       7.734528913600      11.311266304000
       130    1       40.189800000000      12.154271086400       7.512733696000
       131    1       40.189800000000       5.524671086400       7.512733696000
       132    1       44.017400000000       7.734528913600      11.311266304000
       133    2       40.189800000000       3.314800000000       9.412000000000
       134    2       40.189800000000       9.944400000000       9.412000000000
       135    2       42.103600000000       0.000000000000       9.412000000000
       136    1       42.103600000000       4.419728913600      11.311266304000
       137    1       44.017400000000      12.154271086400       7.512733696000
       138    2       45.931200000000       6.629600000000       9.412000000000
       139    2       44.017400000000       9.944400000000       9.412000000000
       140    1       45.931200000000      11.049328913600      11.311266304000
       141    1       45.931200000000       2.209871086400       7.512733696000
       142    1       42.103600000000       8.839471086400       7.512733696000
       143    2       45.931200000000       0.000000000000       9.412000000000
       144    2       42.103600000000       6.629600000000       9.412000000000
       145    1       49.758800000000       2.209871086400       7.512733696000
       146    1       53.586400000000       8.839471086400       7.512733696000
       147    1       53.586400000000       4.419728913600      11.311266304000
       148    1       51.672600000000       1.104928913600      11.311266304000
       149    1       51.672600000000       5.524671086400       7.512733696000
       150    2       51.672600000000       3.314800000000       9.412000000000
       151    1       49.758800000000      11.049328913600      11.311266304000
       152    1       47.845000000000       1.104928913600      11.311266304000
       153    1       47.845000000000       7.734528913600      11.311266304000
       154    1       47.845000000000      12.154271086400       7.512733696000
       155    1       47.845000000000       5.524671086400       7.512733696000
       156    1       51.672600000000       7.734528913600      11.311266304000
       157    2       47.845000000000       3.314800000000       9.412000000000
       158    2       47.845000000000       9.944400000000       9.412000000000
       159    2       49.758800000000       0.000000000000       9.412000000000
       160    1       49.758800000000       4.419728913600      11.311266304000
       161    1       51.672600000000      12.154271086400       7.512733696000
       162    2       53.586400000000       6.629600000000       9.412000000000
       163    2       51.672600000000       9.944400000000       9.412000000000
       164    1       53.586400000000      11.049328913600      11.311266304000
       165    1       53.586400000000       2.209871086400       7.512733696000
       166    1       49.758800000000       8.839471086400       7.512733696000
       167    2       53.586400000000       0.000000000000       9.412000000000
       168    2       49.758800000000       6.629600000000       9.412000000000
       169    1       57.414000000000       2.209871086400       7.512733696000
       170    1       61.241600000000       8.839471086400       7.512733696000
       171    1       61.241600000000       4.419728913600      11.311266304000
       172    1       59.327800000000       1.104928913600      11.311266304000
       173    1       59.327800000000       5.524671086400       7.512733696000
       174    2       59.327800000000       3.314800000000       9.412000000000
       175    1       57.414000000000      11.049328913600      11.311266304000
       176    1       55.500200000000       1.104928913600      11.311266304000
       177    1       55.500200000000       7.734528913600      11.311266304000
       178    1       55.500200000000      12.154271086400       7.512733696000
       179    1       55.500200000000       5.524671086400       7.512733696000
       180    1       59.327800000000       7.734528913600      11.311266304000
       181    2       55.500200000000       3.314800000000       9.412000000000
       182    2       55.500200000000       9.944400000000       9.412000000000
       183    2       57.414000000000       0.000000000000       9.412000000000
       184    1       57.414000000000       4.419728913600      11.311266304000
       185    1       59.327800000000      12.154271086400       7.512733696000
       186    2       61.241600000000       6.629600000000       9.412000000000
       187    2       59.327800000000       9.944400000000       9.412000000000
       188    1       61.241600000000      11.049328913600      11.311266304000
       189    1       61.241600000000       2.209871086400       7.512733696000
       190    1       57.414000000000       8.839471086400       7.512733696000
       191    2       61.241600000000       0.000000000000       9.412000000000
       192    2       57.414000000000       6.629600000000       9.412000000000
       193    1       65.069200000000       2.209871086400       7.512733696000
       194    1       68.896800000000       8.839471086400       7.512733696000
       195    1       68.896800000000       4.419728913600      11.311266304000
       196    1       66.983000000000       1.104928913600      11.311266304000
       197    1       66.983000000000       5.524671086400       7.512733696000
       198    2       66.983000000000       3.314800000000       9.412000000000
       199    1       65.069200000000      11.049328913600      11.311266304000
       200    1       63.155400000000       1.104928913600      11.311266304000
       201    1       63.155400000000       7.734528913600      11.311266304000
       202    1       63.155400000000      12.154271086400       7.512733696000
       203    1       63.155400000000       5.524671086400       7.512733696000
       204    1       66.983000000000       7.734528913600      11.311266304000
       205    2       63.155400000000       3.314800000000       9.412000000000
       206    2       63.155400000000       9.944400000000       9.412000000000
       207    2       65.069200000000       0.000000000000       9.412000000000
       208    1       65.069200000000       4.419728913600      11.311266304000
       209    1       66.983000000000      12.154271086400       7.512733696000
       210    2       68.896800000000       6.629600000000       9.412000000000
       211    2       66.983000000000       9.944400000000       9.412000000000
       212    1       68.896800000000      11.049328913600      11.311266304000
       213    1       68.896800000000       2.209871086400       7.512733696000
       214    1       65.069200000000       8.839471086400       7.512733696000
       215    2       68.896800000000       0.000000000000       9.412000000000
       216    2       65.069200000000       6.629600000000       9.412000000000
       217    1       72.724400000000       2.209871086400       7.512733696000
       218    1       76.552000000000       8.839471086400       7.512733696000
       219    1       76.552000000000       4.419728913600      11.311266304000
       220    1       74.638200000000       1.104928913600      11.311266304000
       221    1       74.638200000000       5.524671086400       7.512733696000
       222    2       74.638200000000       3.314800000000       9.412000000000
       223    1       72.724400000000      11.049328913600      11.311266304000
       224    1       70.810600000000       1.104928913600      11.311266304000
       225    1       70.810600000000       7.734528913600      11.311266304000
       226    1       70.810600000000      12.154271086400       7.512733696000
       227    1       70.810600000000       5.524671086400       7.512733696000
       228    1       74.638200000000       7.734528913600      11.311266304000
       229    2       70.810600000000       3.314800000000       9.412000000000
       230    2       70.810600000000       9.944400000000       9.412000000000
       231    2       72.724400000000       0.000000000000       9.412000000000
       232    1       72.724400000000       4.419728913600      11.311266304000
       233    1       74.638200000000      12.154271086400       7.512733696000
       234    2       76.552000000000       6.629600000000       9.412000000000
       235    2       74.638200000000       9.944400000000       9.412000000000
       236    1       76.552000000000      11.049328913600      11.311266304000
       237    1       76.552000000000       2.209871086400       7.512733696000
       238    1       72.724400000000       8.839471086400       7.512733696000
       239    2       76.552000000000       0.000000000000       9.412000000000
       240    2       72.724400000000       6.629600000000       9.412000000000
       241    1       80.379600000000       2.209871086400       7.512733696000
       242    1       84.207200000000       8.839471086400       7.512733696000
       243    1       84.207200000000       4.419728913600      11.311266304000
       244    1       82.293400000000       1.104928913600      11.311266304000
       245    1       82.293400000000       5.524671086400       7.512733696000
       246    2       82.293400000000       3.314800000000       9.412000000000
       247    1       80.379600000000      11.049328913600      11.311266304000
       248    1       78.465800000000       1.104928913600      11.311266304000
       249    1       78.465800000000       7.734528913600      11.311266304000
       250    1       78.465800000000      12.154271086400       7.512733696000
       251    1       78.465800000000       5.524671086400       7.512733696000
       252    1       82.293400000000       7.734528913600      11.311266304000
       253    2       78.465800000000       3.314800000000       9.412000000000
       254    2       78.465800000000       9.944400000000       9.412000000000
       255    2       80.379600000000       0.000000000000       9.412000000000
       256    1       80.379600000000       4.419728913600      11.311266304000
       257    1       82.293400000000      12.154271086400       7.512733696000
       258    2       84.207200000000       6.629600000000       9.412000000000
       259    2       82.293400000000       9.944400000000       9.412000000000
       260    1       84.207200000000      11.049328913600      11.311266304000
       261    1       84.207200000000       2.209871086400       7.512733696000
       262    1       80.379600000000       8.839471086400       7.512733696000
       263    2       84.207200000000       0.000000000000       9.412000000000
       264    2       80.379600000000       6.629600000000       9.412000000000
       265    1       88.034800000000       2.209871086400       7.512733696000
       266    1       91.862400000000       8.839471086400       7.512733696000
       267    1       91.862400000000       4.419728913600      11.311266304000
       268    1       89.948600000000       1.104928913600      11.311266304000
       269    1       89.948600000000       5.524671086400       7.512733696000
       270    2       89.948600000000       3.314800000000       9.412000000000
       271    1       88.034800000000      11.049328913600      11.311266304000
       272    1       86.121000000000       1.104928913600      11.311266304000
       273    1       86.121000000000       7.734528913600      11.311266304000
       274    1       86.121000000000      12.154271086400       7.512733696000
       275    1       86.121000000000       5.524671086400       7.512733696000
       276    1       89.948600000000       7.734528913600      11.311266304000
       277    2       86.121000000000       3.314800000000       9.412000000000
       278    2       86.121000000000       9.944400000000       9.412000000000
       279    2       88.034800000000       0.000000000000       9.412000000000
       280    1       88.034800000000       4.419728913600      11.311266304000
       281    1       89.948600000000      12.154271086400       7.512733696000
       282    2       91.862400000000       6.629600000000       9.412000000000
       283    2       89.948600000000       9.944400000000       9.412000000000
       284    1       91.862400000000      11.049328913600      11.311266304000
       285    1       91.862400000000       2.209871086400       7.512733696000
       286    1       88.034800000000       8.839471086400       7.512733696000
       287    2       91.862400000000       0.000000000000       9.412000000000
       288    2       88.034800000000       6.629600000000       9.412000000000
       289    1       95.690000000000       2.209871086400       7.512733696000
       290    1       99.517600000000       8.839471086400       7.512733696000
       291    1       99.517600000000       4.419728913600      11.311266304000
       292    1       97.603800000000       1.104928913600      11.311266304000
       293    1       97.603800000000       5.524671086400       7.512733696000
       294    2       97.603800000000       3.314800000000       9.412000000000
       295    1       95.690000000000      11.049328913600      11.311266304000
       296    1       93.776200000000       1.104928913600      11.311266304000
       297    1       93.776200000000       7.734528913600      11.311266304000
       298    1       93.776200000000      12.154271086400       7.512733696000
       299    1       93.776200000000       5.524671086400       7.512733696000
       300    1       97.603800000000       7.734528913600      11.311266304000
       301    2       93.776200000000       3.314800000000       9.412000000000
       302    2       93.776200000000       9.944400000000       9.412000000000
       303    2       95.690000000000       0.000000000000       9.412000000000
       304    1       95.690000000000       4.419728913600      11.311266304000
       305    1       97.603800000000      12.154271086400       7.512733696000
       306    2       99.517600000000       6.629600000000       9.412000000000
       307    2       97.603800000000       9.944400000000       9.412000000000
       308    1       99.517600000000      11.049328913600      11.311266304000
       309    1       99.517600000000       2.209871086400       7.512733696000
       310    1       95.690000000000       8.839471086400       7.512733696000
       311    2       99.517600000000       0.000000000000       9.412000000000
       312    2       95.690000000000       6.629600000000       9.412000000000
       313    1        3.827600000000      15.469071086400       7.512733696000
       314    1        7.655200000000      22.098671086400       7.512733696000
       315    1        7.655200000000      17.678928913600      11.311266304000
       316    1        5.741400000000      14.364128913600      11.311266304000
       317    1        5.741400000000      18.783871086400       7.512733696000
       318    2        5.741400000000      16.574000000000       9.412000000000
       319    1        3.827600000000      24.308528913600      11.311266304000
       320    1        1.913800000000      14.364128913600      11.311266304000
       321    1        1.913800000000      20.993728913600      11.311266304000
       322    1        1.913800000000      25.413471086400       7.512733696000
       323    1        1.913800000000      18.783871086400       7.512733696000
       324    1        5.741400000000      20.993728913600      11.311266304000
       325    2        1.913800000000      16.574000000000       9.412000000000
       326    2        1.913800000000      23.203600000000       9.412000000000
       327    2        3.827600000000      13.259200000000       9.412000000000
       328    1        3.827600000000      17.678928913600      11.311266304000
       329    1        5.741400000000      25.413471086400       7.512733696000
       330    2        7.655200000000      19.888800000000       9.412000000000
       331    2        5.741400000000      23.203600000000       9.412000000000
       332    1        7.655200000000      24.308528913600      11.311266304000
       333    1        7.655200000000      15.469071086400       7.512733696000
       334    1        3.827600000000      22.098671086400       7.512733696000
       335    2        7.655200000000      13.259200000000       9.412000000000
       336    2        3.827600000000      19.888800000000       9.412000000000
       337    1       11.482800000000      15.469071086400       7.512733696000
       338    1       15.310400000000      22.098671086400       7.512733696000
       339    1       15.310400000000      17.678928913600      11.311266304000
       340    1       13.396600000000      14.364128913600      11.311266304000
       341    1       13.396600000000      18.783871086400       7.512733696000
       342    2       13.396600000000      16.574000000000       9.412000000000
       343    1       11.482800000000      24.308528913600      11.311266304000
       344    1        9.569000000000      14.364128913600      11.311266304000
       345    1        9.569000000000      20.993728913600      11.311266304000
       346    1        9.569000000000      25.413471086400       7.512733696000
       347    1        9.569000000000      18.783871086400       7.512733696000
       348    1       13.396600000000      20.993728913600      11.311266304000
       349    2        9.569000000000      16.574000000000       9.412000000000
       350    2        9.569000000000      23.203600000000       9.412000000000
       351    2       11.482800000000      13.259200000000       9.412000000000
       352    1       11.482800000000      17.678928913600      11.311266304000
       353    1       13.396600000000      25.413471086400       7.512733696000
       354    2       15.310400000000      19.888800000000       9.412000000000
       355    2       13.396600000000      23.203600000000       9.412000000000
       356    1       15.310400000000      24.308528913600      11.311266304000
       357    1       15.310400000000      15.469071086400       7.512733696000
       358    1       11.482800000000      22.098671086400       7.512733696000
       359    2       15.310400000000      13.259200000000       9.412000000000
       360    2       11.482800000000      19.888800000000       9.412000000000
       361    1       19.138000000000      15.469071086400       7.512733696000
       362    1       22.965600000000      22.098671086400       7.512733696000
       363    1       22.965600000000      17.678928913600      11.311266304000
       364    1       21.051800000000      14.364128913600      11.311266304000
       365    1       21.051800000000      18.783871086400       7.512733696000
       366    2       21.051800000000      16.574000000000       9.412000000000
       367    1       19.138000000000      24.308528913600      11.311266304000
       368    1       17.224200000000      14.364128913600      11.311266304000
       369    1       17.224200000000      20.993728913600      11.311266304000
       370    1       17.224200000000      25.413471086400       7.512733696000