 # S16 Ta8
  
        3240  atoms
           2  atom types
 
      0.000000000000     101.445000000000  xlo xhi
      0.000000000000     105.424200000000  ylo yhi
      0.000000000000      18.058900000000  zlo zhi
 
Masses
 
            1   32.06000000             # S
            2   180.94788000            # Ta
 
Atoms # atomic
 
         1    1        5.072250000000       4.880753904600       7.495978506500
         2    2        1.690750000000       2.928450000000       9.029450000000
         3    1        1.690750000000      10.737653904600       7.495978506500
         4    2        3.381500000000       0.000000000000       9.029450000000
         5    2        0.000000000000       5.856900000000       9.029450000000
         6    2        5.072250000000       8.785350000000       9.029450000000
         7    1        0.000000000000       3.904596095400      10.562921493500
         8    1        5.072250000000       0.976146095400      10.562921493500
         9    1        1.690750000000       6.833046095400      10.562921493500
        10    1        3.381500000000       9.761496095400      10.562921493500
        11    1        0.000000000000       1.952303904600       7.495978506500
        12    1        3.381500000000       7.809203904600       7.495978506500
        13    1        3.381500000000       1.952303904600       7.495978506500
        14    1        0.000000000000       7.809203904600       7.495978506500
        15    2        5.072250000000       2.928450000000       9.029450000000
        16    2        1.690750000000       8.785350000000       9.029450000000
        17    1        1.690750000000       0.976146095400      10.562921493500
        18    1        5.072250000000       6.833046095400      10.562921493500
        19    1        1.690750000000       4.880753904600       7.495978506500
        20    1        5.072250000000      10.737653904600       7.495978506500
        21    2        0.000000000000       0.000000000000       9.029450000000
        22    2        3.381500000000       5.856900000000       9.029450000000
        23    1        3.381500000000       3.904596095400      10.562921493500
        24    1        0.000000000000       9.761496095400      10.562921493500
        25    1       11.835250000000       4.880753904600       7.495978506500
        26    2        8.453750000000       2.928450000000       9.029450000000
        27    1        8.453750000000      10.737653904600       7.495978506500
        28    2       10.144500000000       0.000000000000       9.029450000000
        29    2        6.763000000000       5.856900000000       9.029450000000
        30    2       11.835250000000       8.785350000000       9.029450000000
        31    1        6.763000000000       3.904596095400      10.562921493500
        32    1       11.835250000000       0.976146095400      10.562921493500
        33    1        8.453750000000       6.833046095400      10.562921493500
        34    1       10.144500000000       9.761496095400      10.562921493500
        35    1        6.763000000000       1.952303904600       7.495978506500
        36    1       10.144500000000       7.809203904600       7.495978506500
        37    1       10.144500000000       1.952303904600       7.495978506500
        38    1        6.763000000000       7.809203904600       7.495978506500
        39    2       11.835250000000       2.928450000000       9.029450000000
        40    2        8.453750000000       8.785350000000       9.029450000000
        41    1        8.453750000000       0.976146095400      10.562921493500
        42    1       11.835250000000       6.833046095400      10.562921493500
        43    1        8.453750000000       4.880753904600       7.495978506500
        44    1       11.835250000000      10.737653904600       7.495978506500
        45    2        6.763000000000       0.000000000000       9.029450000000
        46    2       10.144500000000       5.856900000000       9.029450000000
        47    1       10.144500000000       3.904596095400      10.562921493500
        48    1        6.763000000000       9.761496095400      10.562921493500
        49    1       18.598250000000       4.880753904600       7.495978506500
        50    2       15.216750000000       2.928450000000       9.029450000000
        51    1       15.216750000000      10.737653904600       7.495978506500
        52    2       16.907500000000       0.000000000000       9.029450000000
        53    2       13.526000000000       5.856900000000       9.029450000000
        54    2       18.598250000000       8.785350000000       9.029450000000
        55    1       13.526000000000       3.904596095400      10.562921493500
        56    1       18.598250000000       0.976146095400      10.562921493500
        57    1       15.216750000000       6.833046095400      10.562921493500
        58    1       16.907500000000       9.761496095400      10.562921493500
        59    1       13.526000000000       1.952303904600       7.495978506500
        60    1       16.907500000000       7.809203904600       7.495978506500
        61    1       16.907500000000       1.952303904600       7.495978506500
        62    1       13.526000000000       7.809203904600       7.495978506500
        63    2       18.598250000000       2.928450000000       9.029450000000
        64    2       15.216750000000       8.785350000000       9.029450000000
        65    1       15.216750000000       0.976146095400      10.562921493500
        66    1       18.598250000000       6.833046095400      10.562921493500
        67    1       15.216750000000       4.880753904600       7.495978506500
        68    1       18.598250000000      10.737653904600       7.495978506500
        69    2       13.526000000000       0.000000000000       9.029450000000
        70    2       16.907500000000       5.856900000000       9.029450000000
        71    1       16.907500000000       3.904596095400      10.562921493500
        72    1       13.526000000000       9.761496095400      10.562921493500
        73    1       25.361250000000       4.880753904600       7.495978506500
        74    2       21.979750000000       2.928450000000       9.029450000000
        75    1       21.979750000000      10.737653904600       7.495978506500
        76    2       23.670500000000       0.000000000000       9.029450000000
        77    2       20.289000000000       5.856900000000       9.029450000000
        78    2       25.361250000000       8.785350000000       9.029450000000
        79    1       20.289000000000       3.904596095400      10.562921493500
        80    1       25.361250000000       0.976146095400      10.562921493500
        81    1       21.979750000000       6.833046095400      10.562921493500
        82    1       23.670500000000       9.761496095400      10.562921493500
        83    1       20.289000000000       1.952303904600       7.495978506500
        84    1       23.670500000000       7.809203904600       7.495978506500
        85    1       23.670500000000       1.952303904600       7.495978506500
        86    1       20.289000000000       7.809203904600       7.495978506500
        87    2       25.361250000000       2.928450000000       9.029450000000
        88    2       21.979750000000       8.785350000000       9.029450000000
        89    1       21.979750000000       0.976146095400      10.562921493500
        90    1       25.361250000000       6.833046095400      10.562921493500
        91    1       21.979750000000       4.880753904600       7.495978506500
        92    1       25.361250000000      10.737653904600       7.495978506500
        93    2       20.289000000000       0.000000000000       9.029450000000
        94    2       23.670500000000       5.856900000000       9.029450000000
        95    1       23.670500000000       3.904596095400      10.562921493500
        96    1       20.289000000000       9.761496095400      10.562921493500
        97    1       32.124250000000       4.880753904600       7.495978506500
        98    2       28.742750000000       2.928450000000       9.029450000000
        99    1       28.742750000000      10.737653904600       7.495978506500
       100    2       30.433500000000       0.000000000000       9.029450000000
       101    2       27.052000000000       5.856900000000       9.029450000000
       102    2       32.124250000000       8.785350000000       9.029450000000
       103    1       27.052000000000       3.904596095400      10.562921493500
       104    1       32.124250000000       0.976146095400      10.562921493500
       105    1       28.742750000000       6.833046095400      10.562921493500
       106    1       30.433500000000       9.761496095400      10.562921493500
       107    1       27.052000000000       1.952303904600       7.495978506500
       108    1       30.433500000000       7.809203904600       7.495978506500
       109    1       30.433500000000       1.952303904600       7.495978506500
       110    1       27.052000000000       7.809203904600       7.495978506500
       111    2       32.124250000000       2.928450000000       9.029450000000
       112    2       28.742750000000       8.785350000000       9.029450000000
       113    1       28.742750000000       0.976146095400      10.562921493500
       114    1       32.124250000000       6.833046095400      10.562921493500
       115    1       28.742750000000       4.880753904600       7.495978506500
       116    1       32.124250000000      10.737653904600       7.495978506500
       117    2       27.052000000000       0.000000000000       9.029450000000
       118    2       30.433500000000       5.856900000000       9.029450000000
       119    1       30.433500000000       3.904596095400      10.562921493500
       120    1       27.052000000000       9.761496095400      10.562921493500
       121    1       38.887250000000       4.880753904600       7.495978506500
       122    2       35.505750000000       2.928450000000       9.029450000000
       123    1       35.505750000000      10.737653904600       7.495978506500
       124    2       37.196500000000       0.000000000000       9.029450000000
       125    2       33.815000000000       5.856900000000       9.029450000000
       126    2       38.887250000000       8.785350000000       9.029450000000
       127    1       33.815000000000       3.904596095400      10.562921493500
       128    1       38.887250000000       0.976146095400      10.562921493500
       129    1       35.505750000000       6.833046095400      10.562921493500
       130    1       37.196500000000       9.761496095400      10.562921493500
       131    1       33.815000000000       1.952303904600       7.495978506500
       132    1       37.196500000000       7.809203904600       7.495978506500
       133    1       37.196500000000       1.952303904600       7.495978506500
       134    1       33.815000000000       7.809203904600       7.495978506500
       135    2       38.887250000000       2.928450000000       9.029450000000
       136    2       35.505750000000       8.785350000000       9.029450000000
       137    1       35.505750000000       0.976146095400      10.562921493500
       138    1       38.887250000000       6.833046095400      10.562921493500
       139    1       35.505750000000       4.880753904600       7.495978506500
       140    1       38.887250000000      10.737653904600       7.495978506500
       141    2       33.815000000000       0.000000000000       9.029450000000
       142    2       37.196500000000       5.856900000000       9.029450000000
       143    1       37.196500000000       3.904596095400      10.562921493500
       144    1       33.815000000000       9.761496095400      10.562921493500
       145    1       45.650250000000       4.880753904600       7.495978506500
       146    2       42.268750000000       2.928450000000       9.029450000000
       147    1       42.268750000000      10.737653904600       7.495978506500
       148    2       43.959500000000       0.000000000000       9.029450000000
       149    2       40.578000000000       5.856900000000       9.029450000000
       150    2       45.650250000000       8.785350000000       9.029450000000
       151    1       40.578000000000       3.904596095400      10.562921493500
       152    1       45.650250000000       0.976146095400      10.562921493500
       153    1       42.268750000000       6.833046095400      10.562921493500
       154    1       43.959500000000       9.761496095400      10.562921493500
       155    1       40.578000000000       1.952303904600       7.495978506500
       156    1       43.959500000000       7.809203904600       7.495978506500
       157    1       43.959500000000       1.952303904600       7.495978506500
       158    1       40.578000000000       7.809203904600       7.495978506500
       159    2       45.650250000000       2.928450000000       9.029450000000
       160    2       42.268750000000       8.785350000000       9.029450000000
       161    1       42.268750000000       0.976146095400      10.562921493500
       162    1       45.650250000000       6.833046095400      10.562921493500
       163    1       42.268750000000       4.880753904600       7.495978506500
       164    1       45.650250000000      10.737653904600       7.495978506500
       165    2       40.578000000000       0.000000000000       9.029450000000
       166    2       43.959500000000       5.856900000000       9.029450000000
       167    1       43.959500000000       3.904596095400      10.562921493500
       168    1       40.578000000000       9.761496095400      10.562921493500
       169    1       52.413250000000       4.880753904600       7.495978506500
       170    2       49.031750000000       2.928450000000       9.029450000000
       171    1       49.031750000000      10.737653904600       7.495978506500
       172    2       50.722500000000       0.000000000000       9.029450000000
       173    2       47.341000000000       5.856900000000       9.029450000000
       174    2       52.413250000000       8.785350000000       9.029450000000
       175    1       47.341000000000       3.904596095400      10.562921493500
       176    1       52.413250000000       0.976146095400      10.562921493500
       177    1       49.031750000000       6.833046095400      10.562921493500
       178    1       50.722500000000       9.761496095400      10.562921493500
       179    1       47.341000000000       1.952303904600       7.495978506500
       180    1       50.722500000000       7.809203904600       7.495978506500
       181    1       50.722500000000       1.952303904600       7.495978506500
       182    1       47.341000000000       7.809203904600       7.495978506500
       183    2       52.413250000000       2.928450000000       9.029450000000
       184    2       49.031750000000       8.785350000000       9.029450000000
       185    1       49.031750000000       0.976146095400      10.562921493500
       186    1       52.413250000000       6.833046095400      10.562921493500
       187    1       49.031750000000       4.880753904600       7.495978506500
       188    1       52.413250000000      10.737653904600       7.495978506500
       189    2       47.341000000000       0.000000000000       9.029450000000
       190    2       50.722500000000       5.856900000000       9.029450000000
       191    1       50.722500000000       3.904596095400      10.562921493500
       192    1       47.341000000000       9.761496095400      10.562921493500
       193    1       59.176250000000       4.880753904600       7.495978506500
       194    2       55.794750000000       2.928450000000       9.029450000000
       195    1       55.794750000000      10.737653904600       7.495978506500
       196    2       57.485500000000       0.000000000000       9.029450000000
       197    2       54.104000000000       5.856900000000       9.029450000000
       198    2       59.176250000000       8.785350000000       9.029450000000
       199    1       54.104000000000       3.904596095400      10.562921493500
       200    1       59.176250000000       0.976146095400      10.562921493500
       201    1       55.794750000000       6.833046095400      10.562921493500
       202    1       57.485500000000       9.761496095400      10.562921493500
       203    1       54.104000000000       1.952303904600       7.495978506500
       204    1       57.485500000000       7.809203904600       7.495978506500
       205    1       57.485500000000       1.952303904600       7.495978506500
       206    1       54.104000000000       7.809203904600       7.495978506500
       207    2       59.176250000000       2.928450000000       9.029450000000
       208    2       55.794750000000       8.785350000000       9.029450000000
       209    1       55.794750000000       0.976146095400      10.562921493500
       210    1       59.176250000000       6.833046095400      10.562921493500
       211    1       55.794750000000       4.880753904600       7.495978506500
       212    1       59.176250000000      10.737653904600       7.495978506500
       213    2       54.104000000000       0.000000000000       9.029450000000
       214    2       57.485500000000       5.856900000000       9.029450000000
       215    1       57.485500000000       3.904596095400      10.562921493500
       216    1       54.104000000000       9.761496095400      10.562921493500
       217    1       65.939250000000       4.880753904600       7.495978506500
       218    2       62.557750000000       2.928450000000       9.029450000000
       219    1       62.557750000000      10.737653904600       7.495978506500
       220    2       64.248500000000       0.000000000000       9.029450000000
       221    2       60.867000000000       5.856900000000       9.029450000000
       222    2       65.939250000000       8.785350000000       9.029450000000
       223    1       60.867000000000       3.904596095400      10.562921493500
       224    1       65.939250000000       0.976146095400      10.562921493500
       225    1       62.557750000000       6.833046095400      10.562921493500
       226    1       64.248500000000       9.761496095400      10.562921493500
       227    1       60.867000000000       1.952303904600       7.495978506500
       228    1       64.248500000000       7.809203904600       7.495978506500
       229    1       64.248500000000       1.952303904600       7.495978506500
       230    1       60.867000000000       7.809203904600       7.495978506500
       231    2       65.939250000000       2.928450000000       9.029450000000
       232    2       62.557750000000       8.785350000000       9.029450000000
       233    1       62.557750000000       0.976146095400      10.562921493500
       234    1       65.939250000000       6.833046095400      10.562921493500
       235    1       62.557750000000       4.880753904600       7.495978506500
       236    1       65.939250000000      10.737653904600       7.495978506500
       237    2       60.867000000000       0.000000000000       9.029450000000
       238    2       64.248500000000       5.856900000000       9.029450000000
       239    1       64.248500000000       3.904596095400      10.562921493500
       240    1       60.867000000000       9.761496095400      10.562921493500
       241    1       72.702250000000       4.880753904600       7.495978506500
       242    2       69.320750000000       2.928450000000       9.029450000000
       243    1       69.320750000000      10.737653904600       7.495978506500
       244    2       71.011500000000       0.000000000000       9.029450000000
       245    2       67.630000000000       5.856900000000       9.029450000000
       246    2       72.702250000000       8.785350000000       9.029450000000
       247    1       67.630000000000       3.904596095400      10.562921493500
       248    1       72.702250000000       0.976146095400      10.562921493500
       249    1       69.320750000000       6.833046095400      10.562921493500
       250    1       71.011500000000       9.761496095400      10.562921493500
       251    1       67.630000000000       1.952303904600       7.495978506500
       252    1       71.011500000000       7.809203904600       7.495978506500
       253    1       71.011500000000       1.952303904600       7.495978506500
       254    1       67.630000000000       7.809203904600       7.495978506500
       255    2       72.702250000000       2.928450000000       9.029450000000
       256    2       69.320750000000       8.785350000000       9.029450000000
       257    1       69.320750000000       0.976146095400      10.562921493500
       258    1       72.702250000000       6.833046095400      10.562921493500
       259    1       69.320750000000       4.880753904600       7.495978506500
       260    1       72.702250000000      10.737653904600       7.495978506500
       261    2       67.630000000000       0.000000000000       9.029450000000
       262    2       71.011500000000       5.856900000000       9.029450000000
       263    1       71.011500000000       3.904596095400      10.562921493500
       264    1       67.630000000000       9.761496095400      10.562921493500
       265    1       79.465250000000       4.880753904600       7.495978506500
       266    2       76.083750000000       2.928450000000       9.029450000000
       267    1       76.083750000000      10.737653904600       7.495978506500
       268    2       77.774500000000       0.000000000000       9.029450000000
       269    2       74.393000000000       5.856900000000       9.029450000000
       270    2       79.465250000000       8.785350000000       9.029450000000
       271    1       74.393000000000       3.904596095400      10.562921493500
       272    1       79.465250000000       0.976146095400      10.562921493500
       273    1       76.083750000000       6.833046095400      10.562921493500
       274    1       77.774500000000       9.761496095400      10.562921493500
       275    1       74.393000000000       1.952303904600       7.495978506500
       276    1       77.774500000000       7.809203904600       7.495978506500
       277    1       77.774500000000       1.952303904600       7.495978506500
       278    1       74.393000000000       7.809203904600       7.495978506500
       279    2       79.465250000000       2.928450000000       9.029450000000
       280    2       76.083750000000       8.785350000000       9.029450000000
       281    1       76.083750000000       0.976146095400      10.562921493500
       282    1       79.465250000000       6.833046095400      10.562921493500
       283    1       76.083750000000       4.880753904600       7.495978506500
       284    1       79.465250000000      10.737653904600       7.495978506500
       285    2       74.393000000000       0.000000000000       9.029450000000
       286    2       77.774500000000       5.856900000000       9.029450000000
       287    1       77.774500000000       3.904596095400      10.562921493500
       288    1       74.393000000000       9.761496095400      10.562921493500
       289    1       86.228250000000       4.880753904600       7.495978506500
       290    2       82.846750000000       2.928450000000       9.029450000000
       291    1       82.846750000000      10.737653904600       7.495978506500
       292    2       84.537500000000       0.000000000000       9.029450000000
       293    2       81.156000000000       5.856900000000       9.029450000000
       294    2       86.228250000000       8.785350000000       9.029450000000
       295    1       81.156000000000       3.904596095400      10.562921493500
       296    1       86.228250000000       0.976146095400      10.562921493500
       297    1       82.846750000000       6.833046095400      10.562921493500
       298    1       84.537500000000       9.761496095400      10.562921493500
       299    1       81.156000000000       1.952303904600       7.495978506500
       300    1       84.537500000000       7.809203904600       7.495978506500
       301    1       84.537500000000       1.952303904600       7.495978506500
       302    1       81.156000000000       7.809203904600       7.495978506500
       303    2       86.228250000000       2.928450000000       9.029450000000
       304    2       82.846750000000       8.785350000000       9.029450000000
       305    1       82.846750000000       0.976146095400      10.562921493500
       306    1       86.228250000000       6.833046095400      10.562921493500
       307    1       82.846750000000       4.880753904600       7.495978506500
       308    1       86.228250000000      10.737653904600       7.495978506500
       309    2       81.156000000000       0.000000000000       9.029450000000
       310    2       84.537500000000       5.856900000000       9.029450000000
       311    1       84.537500000000       3.904596095400      10.562921493500
       312    1       81.156000000000       9.761496095400      10.562921493500
       313    1       92.991250000000       4.880753904600       7.495978506500
       314    2       89.609750000000       2.928450000000       9.029450000000
       315    1       89.609750000000      10.737653904600       7.495978506500
       316    2       91.300500000000       0.000000000000       9.029450000000
       317    2       87.919000000000       5.856900000000       9.029450000000
       318    2       92.991250000000       8.785350000000       9.029450000000
       319    1       87.919000000000       3.904596095400      10.562921493500
       320    1       92.991250000000       0.976146095400      10.562921493500
       321    1       89.609750000000       6.833046095400      10.562921493500
       322    1       91.300500000000       9.761496095400      10.562921493500
       323    1       87.919000000000       1.952303904600       7.495978506500
       324    1       91.300500000000       7.809203904600       7.495978506500
       325    1       91.300500000000       1.952303904600       7.495978506500
       326    1       87.919000000000       7.809203904600       7.495978506500
       327    2       92.991250000000       2.928450000000       9.029450000000
       328    2       89.609750000000       8.785350000000       9.029450000000
       329    1       89.609750000000       0.976146095400      10.562921493500
       330    1       92.991250000000       6.833046095400      10.562921493500
       331    1       89.609750000000       4.880753904600       7.495978506500
       332    1       92.991250000000      10.737653904600       7.495978506500
       333    2       87.919000000000       0.000000000000       9.029450000000
       334    2       91.300500000000       5.856900000000       9.029450000000
       335    1       91.300500000000       3.904596095400      10.562921493500
       336    1       87.919000000000       9.761496095400      10.562921493500
       337    1       99.754250000000       4.880753904600       7.495978506500
       338    2       96.372750000000       2.928450000000       9.029450000000
       339    1       96.372750000000      10.737653904600       7.495978506500
       340    2       98.063500000000       0.000000000000       9.029450000000
       341    2       94.682000000000       5.856900000000       9.029450000000
       342    2       99.754250000000       8.785350000000       9.029450000000
       343    1       94.682000000000       3.904596095400      10.562921493500
       344    1       99.754250000000       0.976146095400      10.562921493500
       345    1       96.372750000000       6.833046095400      10.562921493500
       346    1       98.063500000000       9.761496095400      10.562921493500
       347    1       94.682000000000       1.952303904600       7.495978506500
       348    1       98.063500000000       7.809203904600       7.495978506500
       349    1       98.063500000000       1.952303904600       7.495978506500
       350    1       94.682000000000       7.809203904600       7.495978506500
       351    2       99.754250000000       2.928450000000       9.029450000000
       352    2       96.372750000000       8.785350000000       9.029450000000
       353    1       96.372750000000       0.976146095400      10.562921493500
       354    1       99.754250000000       6.833046095400      10.562921493500
       355    1       96.372750000000       4.880753904600       7.495978506500
       356    1       99.754250000000      10.737653904600       7.495978506500
       357    2       94.682000000000       0.000000000000       9.029450000000
       358    2       98.063500000000       5.856900000000       9.029450000000
       359    1       98.063500000000       3.904596095400      10.562921493500
       360    1       94.682000000000       9.761496095400      10.562921493500
       361    1        5.072250000000      16.594553904600       7.495978506500
       362    2        1.690750000000      14.642250000000       9.029450000000
       363    1        1.690750000000      22.451453904600       7.495978506500
       364    2        3.381500000000      11.713800000000       9.029450000000
       365    2        0.000000000000      17.570700000000       9.029450000000
       366    2        5.072250000000      20.499150000000       9.029450000000
       367    1        0.000000000000      15.618396095400      10.562921493500
       368    1        5.072250000000      12.689946095400      10.562921493500
       369    1        1.690750000000      18.546846095400      10.562921493500
       370    1        3.381500000000      21.475296095400      10.562921493500