 # S16 Tc8
  
        3456  atoms
           2  atom types
 
      0.000000000000      98.214400000000  xlo xhi
      0.000000000000      95.688000000000  ylo yhi
      0.000000000000     106.000000000000  zlo zhi
 
Masses
 
            1   32.06000000             # S
            2   98.90600000             # Tc
 
Atoms # atomic
 
         1    1        1.534600000000       0.885996456000      54.607384000000
         2    1        4.603800000000       6.201996456000      54.607384000000
         3    2        1.534600000000       2.658000000000      53.000000000000
         4    2        3.069200000000       0.000000000000      53.000000000000
         5    2        4.603800000000       2.658000000000      53.000000000000
         6    2        0.000000000000       5.316000000000      53.000000000000
         7    2        4.603800000000       7.974000000000      53.000000000000
         8    2        1.534600000000       7.974000000000      53.000000000000
         9    1        0.000000000000       3.543996456000      54.607384000000
        10    1        4.603800000000       4.430003544000      51.392616000000
        11    1        1.534600000000       9.746003544000      51.392616000000
        12    1        3.069200000000       3.543996456000      54.607384000000
        13    1        3.069200000000       8.859996456000      54.607384000000
        14    1        0.000000000000       8.859996456000      54.607384000000
        15    1        4.603800000000       0.885996456000      54.607384000000
        16    1        1.534600000000       6.201996456000      54.607384000000
        17    1        1.534600000000       4.430003544000      51.392616000000
        18    1        4.603800000000       9.746003544000      51.392616000000
        19    2        0.000000000000       0.000000000000      53.000000000000
        20    2        3.069200000000       5.316000000000      53.000000000000
        21    1        6.138400000000       1.772003544000      51.392616000000
        22    1        3.069200000000       7.088003544000      51.392616000000
        23    1        3.069200000000       1.772003544000      51.392616000000
        24    1        0.000000000000       7.088003544000      51.392616000000
        25    1        7.673000000000       0.885996456000      54.607384000000
        26    1       10.742200000000       6.201996456000      54.607384000000
        27    2        7.673000000000       2.658000000000      53.000000000000
        28    2        9.207600000000       0.000000000000      53.000000000000
        29    2       10.742200000000       2.658000000000      53.000000000000
        30    2        6.138400000000       5.316000000000      53.000000000000
        31    2       10.742200000000       7.974000000000      53.000000000000
        32    2        7.673000000000       7.974000000000      53.000000000000
        33    1        6.138400000000       3.543996456000      54.607384000000
        34    1       10.742200000000       4.430003544000      51.392616000000
        35    1        7.673000000000       9.746003544000      51.392616000000
        36    1        9.207600000000       3.543996456000      54.607384000000
        37    1        9.207600000000       8.859996456000      54.607384000000
        38    1        6.138400000000       8.859996456000      54.607384000000
        39    1       10.742200000000       0.885996456000      54.607384000000
        40    1        7.673000000000       6.201996456000      54.607384000000
        41    1        7.673000000000       4.430003544000      51.392616000000
        42    1       10.742200000000       9.746003544000      51.392616000000
        43    2        6.138400000000       0.000000000000      53.000000000000
        44    2        9.207600000000       5.316000000000      53.000000000000
        45    1       12.276800000000       1.772003544000      51.392616000000
        46    1        9.207600000000       7.088003544000      51.392616000000
        47    1        9.207600000000       1.772003544000      51.392616000000
        48    1        6.138400000000       7.088003544000      51.392616000000
        49    1       13.811400000000       0.885996456000      54.607384000000
        50    1       16.880600000000       6.201996456000      54.607384000000
        51    2       13.811400000000       2.658000000000      53.000000000000
        52    2       15.346000000000       0.000000000000      53.000000000000
        53    2       16.880600000000       2.658000000000      53.000000000000
        54    2       12.276800000000       5.316000000000      53.000000000000
        55    2       16.880600000000       7.974000000000      53.000000000000
        56    2       13.811400000000       7.974000000000      53.000000000000
        57    1       12.276800000000       3.543996456000      54.607384000000
        58    1       16.880600000000       4.430003544000      51.392616000000
        59    1       13.811400000000       9.746003544000      51.392616000000
        60    1       15.346000000000       3.543996456000      54.607384000000
        61    1       15.346000000000       8.859996456000      54.607384000000
        62    1       12.276800000000       8.859996456000      54.607384000000
        63    1       16.880600000000       0.885996456000      54.607384000000
        64    1       13.811400000000       6.201996456000      54.607384000000
        65    1       13.811400000000       4.430003544000      51.392616000000
        66    1       16.880600000000       9.746003544000      51.392616000000
        67    2       12.276800000000       0.000000000000      53.000000000000
        68    2       15.346000000000       5.316000000000      53.000000000000
        69    1       18.415200000000       1.772003544000      51.392616000000
        70    1       15.346000000000       7.088003544000      51.392616000000
        71    1       15.346000000000       1.772003544000      51.392616000000
        72    1       12.276800000000       7.088003544000      51.392616000000
        73    1       19.949800000000       0.885996456000      54.607384000000
        74    1       23.019000000000       6.201996456000      54.607384000000
        75    2       19.949800000000       2.658000000000      53.000000000000
        76    2       21.484400000000       0.000000000000      53.000000000000
        77    2       23.019000000000       2.658000000000      53.000000000000
        78    2       18.415200000000       5.316000000000      53.000000000000
        79    2       23.019000000000       7.974000000000      53.000000000000
        80    2       19.949800000000       7.974000000000      53.000000000000
        81    1       18.415200000000       3.543996456000      54.607384000000
        82    1       23.019000000000       4.430003544000      51.392616000000
        83    1       19.949800000000       9.746003544000      51.392616000000
        84    1       21.484400000000       3.543996456000      54.607384000000
        85    1       21.484400000000       8.859996456000      54.607384000000
        86    1       18.415200000000       8.859996456000      54.607384000000
        87    1       23.019000000000       0.885996456000      54.607384000000
        88    1       19.949800000000       6.201996456000      54.607384000000
        89    1       19.949800000000       4.430003544000      51.392616000000
        90    1       23.019000000000       9.746003544000      51.392616000000
        91    2       18.415200000000       0.000000000000      53.000000000000
        92    2       21.484400000000       5.316000000000      53.000000000000
        93    1       24.553600000000       1.772003544000      51.392616000000
        94    1       21.484400000000       7.088003544000      51.392616000000
        95    1       21.484400000000       1.772003544000      51.392616000000
        96    1       18.415200000000       7.088003544000      51.392616000000
        97    1       26.088200000000       0.885996456000      54.607384000000
        98    1       29.157400000000       6.201996456000      54.607384000000
        99    2       26.088200000000       2.658000000000      53.000000000000
       100    2       27.622800000000       0.000000000000      53.000000000000
       101    2       29.157400000000       2.658000000000      53.000000000000
       102    2       24.553600000000       5.316000000000      53.000000000000
       103    2       29.157400000000       7.974000000000      53.000000000000
       104    2       26.088200000000       7.974000000000      53.000000000000
       105    1       24.553600000000       3.543996456000      54.607384000000
       106    1       29.157400000000       4.430003544000      51.392616000000
       107    1       26.088200000000       9.746003544000      51.392616000000
       108    1       27.622800000000       3.543996456000      54.607384000000
       109    1       27.622800000000       8.859996456000      54.607384000000
       110    1       24.553600000000       8.859996456000      54.607384000000
       111    1       29.157400000000       0.885996456000      54.607384000000
       112    1       26.088200000000       6.201996456000      54.607384000000
       113    1       26.088200000000       4.430003544000      51.392616000000
       114    1       29.157400000000       9.746003544000      51.392616000000
       115    2       24.553600000000       0.000000000000      53.000000000000
       116    2       27.622800000000       5.316000000000      53.000000000000
       117    1       30.692000000000       1.772003544000      51.392616000000
       118    1       27.622800000000       7.088003544000      51.392616000000
       119    1       27.622800000000       1.772003544000      51.392616000000
       120    1       24.553600000000       7.088003544000      51.392616000000
       121    1       32.226600000000       0.885996456000      54.607384000000
       122    1       35.295800000000       6.201996456000      54.607384000000
       123    2       32.226600000000       2.658000000000      53.000000000000
       124    2       33.761200000000       0.000000000000      53.000000000000
       125    2       35.295800000000       2.658000000000      53.000000000000
       126    2       30.692000000000       5.316000000000      53.000000000000
       127    2       35.295800000000       7.974000000000      53.000000000000
       128    2       32.226600000000       7.974000000000      53.000000000000
       129    1       30.692000000000       3.543996456000      54.607384000000
       130    1       35.295800000000       4.430003544000      51.392616000000
       131    1       32.226600000000       9.746003544000      51.392616000000
       132    1       33.761200000000       3.543996456000      54.607384000000
       133    1       33.761200000000       8.859996456000      54.607384000000
       134    1       30.692000000000       8.859996456000      54.607384000000
       135    1       35.295800000000       0.885996456000      54.607384000000
       136    1       32.226600000000       6.201996456000      54.607384000000
       137    1       32.226600000000       4.430003544000      51.392616000000
       138    1       35.295800000000       9.746003544000      51.392616000000
       139    2       30.692000000000       0.000000000000      53.000000000000
       140    2       33.761200000000       5.316000000000      53.000000000000
       141    1       36.830400000000       1.772003544000      51.392616000000
       142    1       33.761200000000       7.088003544000      51.392616000000
       143    1       33.761200000000       1.772003544000      51.392616000000
       144    1       30.692000000000       7.088003544000      51.392616000000
       145    1       38.365000000000       0.885996456000      54.607384000000
       146    1       41.434200000000       6.201996456000      54.607384000000
       147    2       38.365000000000       2.658000000000      53.000000000000
       148    2       39.899600000000       0.000000000000      53.000000000000
       149    2       41.434200000000       2.658000000000      53.000000000000
       150    2       36.830400000000       5.316000000000      53.000000000000
       151    2       41.434200000000       7.974000000000      53.000000000000
       152    2       38.365000000000       7.974000000000      53.000000000000
       153    1       36.830400000000       3.543996456000      54.607384000000
       154    1       41.434200000000       4.430003544000      51.392616000000
       155    1       38.365000000000       9.746003544000      51.392616000000
       156    1       39.899600000000       3.543996456000      54.607384000000
       157    1       39.899600000000       8.859996456000      54.607384000000
       158    1       36.830400000000       8.859996456000      54.607384000000
       159    1       41.434200000000       0.885996456000      54.607384000000
       160    1       38.365000000000       6.201996456000      54.607384000000
       161    1       38.365000000000       4.430003544000      51.392616000000
       162    1       41.434200000000       9.746003544000      51.392616000000
       163    2       36.830400000000       0.000000000000      53.000000000000
       164    2       39.899600000000       5.316000000000      53.000000000000
       165    1       42.968800000000       1.772003544000      51.392616000000
       166    1       39.899600000000       7.088003544000      51.392616000000
       167    1       39.899600000000       1.772003544000      51.392616000000
       168    1       36.830400000000       7.088003544000      51.392616000000
       169    1       44.503400000000       0.885996456000      54.607384000000
       170    1       47.572600000000       6.201996456000      54.607384000000
       171    2       44.503400000000       2.658000000000      53.000000000000
       172    2       46.038000000000       0.000000000000      53.000000000000
       173    2       47.572600000000       2.658000000000      53.000000000000
       174    2       42.968800000000       5.316000000000      53.000000000000
       175    2       47.572600000000       7.974000000000      53.000000000000
       176    2       44.503400000000       7.974000000000      53.000000000000
       177    1       42.968800000000       3.543996456000      54.607384000000
       178    1       47.572600000000       4.430003544000      51.392616000000
       179    1       44.503400000000       9.746003544000      51.392616000000
       180    1       46.038000000000       3.543996456000      54.607384000000
       181    1       46.038000000000       8.859996456000      54.607384000000
       182    1       42.968800000000       8.859996456000      54.607384000000
       183    1       47.572600000000       0.885996456000      54.607384000000
       184    1       44.503400000000       6.201996456000      54.607384000000
       185    1       44.503400000000       4.430003544000      51.392616000000
       186    1       47.572600000000       9.746003544000      51.392616000000
       187    2       42.968800000000       0.000000000000      53.000000000000
       188    2       46.038000000000       5.316000000000      53.000000000000
       189    1       49.107200000000       1.772003544000      51.392616000000
       190    1       46.038000000000       7.088003544000      51.392616000000
       191    1       46.038000000000       1.772003544000      51.392616000000
       192    1       42.968800000000       7.088003544000      51.392616000000
       193    1       50.641800000000       0.885996456000      54.607384000000
       194    1       53.711000000000       6.201996456000      54.607384000000
       195    2       50.641800000000       2.658000000000      53.000000000000
       196    2       52.176400000000       0.000000000000      53.000000000000
       197    2       53.711000000000       2.658000000000      53.000000000000
       198    2       49.107200000000       5.316000000000      53.000000000000
       199    2       53.711000000000       7.974000000000      53.000000000000
       200    2       50.641800000000       7.974000000000      53.000000000000
       201    1       49.107200000000       3.543996456000      54.607384000000
       202    1       53.711000000000       4.430003544000      51.392616000000
       203    1       50.641800000000       9.746003544000      51.392616000000
       204    1       52.176400000000       3.543996456000      54.607384000000
       205    1       52.176400000000       8.859996456000      54.607384000000
       206    1       49.107200000000       8.859996456000      54.607384000000
       207    1       53.711000000000       0.885996456000      54.607384000000
       208    1       50.641800000000       6.201996456000      54.607384000000
       209    1       50.641800000000       4.430003544000      51.392616000000
       210    1       53.711000000000       9.746003544000      51.392616000000
       211    2       49.107200000000       0.000000000000      53.000000000000
       212    2       52.176400000000       5.316000000000      53.000000000000
       213    1       55.245600000000       1.772003544000      51.392616000000
       214    1       52.176400000000       7.088003544000      51.392616000000
       215    1       52.176400000000       1.772003544000      51.392616000000
       216    1       49.107200000000       7.088003544000      51.392616000000
       217    1       56.780200000000       0.885996456000      54.607384000000
       218    1       59.849400000000       6.201996456000      54.607384000000
       219    2       56.780200000000       2.658000000000      53.000000000000
       220    2       58.314800000000       0.000000000000      53.000000000000
       221    2       59.849400000000       2.658000000000      53.000000000000
       222    2       55.245600000000       5.316000000000      53.000000000000
       223    2       59.849400000000       7.974000000000      53.000000000000
       224    2       56.780200000000       7.974000000000      53.000000000000
       225    1       55.245600000000       3.543996456000      54.607384000000
       226    1       59.849400000000       4.430003544000      51.392616000000
       227    1       56.780200000000       9.746003544000      51.392616000000
       228    1       58.314800000000       3.543996456000      54.607384000000
       229    1       58.314800000000       8.859996456000      54.607384000000
       230    1       55.245600000000       8.859996456000      54.607384000000
       231    1       59.849400000000       0.885996456000      54.607384000000
       232    1       56.780200000000       6.201996456000      54.607384000000
       233    1       56.780200000000       4.430003544000      51.392616000000
       234    1       59.849400000000       9.746003544000      51.392616000000
       235    2       55.245600000000       0.000000000000      53.000000000000
       236    2       58.314800000000       5.316000000000      53.000000000000
       237    1       61.384000000000       1.772003544000      51.392616000000
       238    1       58.314800000000       7.088003544000      51.392616000000
       239    1       58.314800000000       1.772003544000      51.392616000000
       240    1       55.245600000000       7.088003544000      51.392616000000
       241    1       62.918600000000       0.885996456000      54.607384000000
       242    1       65.987800000000       6.201996456000      54.607384000000
       243    2       62.918600000000       2.658000000000      53.000000000000
       244    2       64.453200000000       0.000000000000      53.000000000000
       245    2       65.987800000000       2.658000000000      53.000000000000
       246    2       61.384000000000       5.316000000000      53.000000000000
       247    2       65.987800000000       7.974000000000      53.000000000000
       248    2       62.918600000000       7.974000000000      53.000000000000
       249    1       61.384000000000       3.543996456000      54.607384000000
       250    1       65.987800000000       4.430003544000      51.392616000000
       251    1       62.918600000000       9.746003544000      51.392616000000
       252    1       64.453200000000       3.543996456000      54.607384000000
       253    1       64.453200000000       8.859996456000      54.607384000000
       254    1       61.384000000000       8.859996456000      54.607384000000
       255    1       65.987800000000       0.885996456000      54.607384000000
       256    1       62.918600000000       6.201996456000      54.607384000000
       257    1       62.918600000000       4.430003544000      51.392616000000
       258    1       65.987800000000       9.746003544000      51.392616000000
       259    2       61.384000000000       0.000000000000      53.000000000000
       260    2       64.453200000000       5.316000000000      53.000000000000
       261    1       67.522400000000       1.772003544000      51.392616000000
       262    1       64.453200000000       7.088003544000      51.392616000000
       263    1       64.453200000000       1.772003544000      51.392616000000
       264    1       61.384000000000       7.088003544000      51.392616000000
       265    1       69.057000000000       0.885996456000      54.607384000000
       266    1       72.126200000000       6.201996456000      54.607384000000
       267    2       69.057000000000       2.658000000000      53.000000000000
       268    2       70.591600000000       0.000000000000      53.000000000000
       269    2       72.126200000000       2.658000000000      53.000000000000
       270    2       67.522400000000       5.316000000000      53.000000000000
       271    2       72.126200000000       7.974000000000      53.000000000000
       272    2       69.057000000000       7.974000000000      53.000000000000
       273    1       67.522400000000       3.543996456000      54.607384000000
       274    1       72.126200000000       4.430003544000      51.392616000000
       275    1       69.057000000000       9.746003544000      51.392616000000
       276    1       70.591600000000       3.543996456000      54.607384000000
       277    1       70.591600000000       8.859996456000      54.607384000000
       278    1       67.522400000000       8.859996456000      54.607384000000
       279    1       72.126200000000       0.885996456000      54.607384000000
       280    1       69.057000000000       6.201996456000      54.607384000000
       281    1       69.057000000000       4.430003544000      51.392616000000
       282    1       72.126200000000       9.746003544000      51.392616000000
       283    2       67.522400000000       0.000000000000      53.000000000000
       284    2       70.591600000000       5.316000000000      53.000000000000
       285    1       73.660800000000       1.772003544000      51.392616000000
       286    1       70.591600000000       7.088003544000      51.392616000000
       287    1       70.591600000000       1.772003544000      51.392616000000
       288    1       67.522400000000       7.088003544000      51.392616000000
       289    1       75.195400000000       0.885996456000      54.607384000000
       290    1       78.264600000000       6.201996456000      54.607384000000
       291    2       75.195400000000       2.658000000000      53.000000000000
       292    2       76.730000000000       0.000000000000      53.000000000000
       293    2       78.264600000000       2.658000000000      53.000000000000
       294    2       73.660800000000       5.316000000000      53.000000000000
       295    2       78.264600000000       7.974000000000      53.000000000000
       296    2       75.195400000000       7.974000000000      53.000000000000
       297    1       73.660800000000       3.543996456000      54.607384000000
       298    1       78.264600000000       4.430003544000      51.392616000000
       299    1       75.195400000000       9.746003544000      51.392616000000
       300    1       76.730000000000       3.543996456000      54.607384000000
       301    1       76.730000000000       8.859996456000      54.607384000000
       302    1       73.660800000000       8.859996456000      54.607384000000
       303    1       78.264600000000       0.885996456000      54.607384000000
       304    1       75.195400000000       6.201996456000      54.607384000000
       305    1       75.195400000000       4.430003544000      51.392616000000
       306    1       78.264600000000       9.746003544000      51.392616000000
       307    2       73.660800000000       0.000000000000      53.000000000000
       308    2       76.730000000000       5.316000000000      53.000000000000
       309    1       79.799200000000       1.772003544000      51.392616000000
       310    1       76.730000000000       7.088003544000      51.392616000000
       311    1       76.730000000000       1.772003544000      51.392616000000
       312    1       73.660800000000       7.088003544000      51.392616000000
       313    1       81.333800000000       0.885996456000      54.607384000000
       314    1       84.403000000000       6.201996456000      54.607384000000
       315    2       81.333800000000       2.658000000000      53.000000000000
       316    2       82.868400000000       0.000000000000      53.000000000000
       317    2       84.403000000000       2.658000000000      53.000000000000
       318    2       79.799200000000       5.316000000000      53.000000000000
       319    2       84.403000000000       7.974000000000      53.000000000000
       320    2       81.333800000000       7.974000000000      53.000000000000
       321    1       79.799200000000       3.543996456000      54.607384000000
       322    1       84.403000000000       4.430003544000      51.392616000000
       323    1       81.333800000000       9.746003544000      51.392616000000
       324    1       82.868400000000       3.543996456000      54.607384000000
       325    1       82.868400000000       8.859996456000      54.607384000000
       326    1       79.799200000000       8.859996456000      54.607384000000
       327    1       84.403000000000       0.885996456000      54.607384000000
       328    1       81.333800000000       6.201996456000      54.607384000000
       329    1       81.333800000000       4.430003544000      51.392616000000
       330    1       84.403000000000       9.746003544000      51.392616000000
       331    2       79.799200000000       0.000000000000      53.000000000000
       332    2       82.868400000000       5.316000000000      53.000000000000
       333    1       85.937600000000       1.772003544000      51.392616000000
       334    1       82.868400000000       7.088003544000      51.392616000000
       335    1       82.868400000000       1.772003544000      51.392616000000
       336    1       79.799200000000       7.088003544000      51.392616000000
       337    1       87.472200000000       0.885996456000      54.607384000000
       338    1       90.541400000000       6.201996456000      54.607384000000
       339    2       87.472200000000       2.658000000000      53.000000000000
       340    2       89.006800000000       0.000000000000      53.000000000000
       341    2       90.541400000000       2.658000000000      53.000000000000
       342    2       85.937600000000       5.316000000000      53.000000000000
       343    2       90.541400000000       7.974000000000      53.000000000000
       344    2       87.472200000000       7.974000000000      53.000000000000
       345    1       85.937600000000       3.543996456000      54.607384000000
       346    1       90.541400000000       4.430003544000      51.392616000000
       347    1       87.472200000000       9.746003544000      51.392616000000
       348    1       89.006800000000       3.543996456000      54.607384000000
       349    1       89.006800000000       8.859996456000      54.607384000000
       350    1       85.937600000000       8.859996456000      54.607384000000
       351    1       90.541400000000       0.885996456000      54.607384000000
       352    1       87.472200000000       6.201996456000      54.607384000000
       353    1       87.472200000000       4.430003544000      51.392616000000
       354    1       90.541400000000       9.746003544000      51.392616000000
       355    2       85.937600000000       0.000000000000      53.000000000000
       356    2       89.006800000000       5.316000000000      53.000000000000
       357    1       92.076000000000       1.772003544000      51.392616000000
       358    1       89.006800000000       7.088003544000      51.392616000000
       359    1       89.006800000000       1.772003544000      51.392616000000
       360    1       85.937600000000       7.088003544000      51.392616000000
       361    1       93.610600000000       0.885996456000      54.607384000000
       362    1       96.679800000000       6.201996456000      54.607384000000
       363    2       93.610600000000       2.658000000000      53.000000000000
       364    2       95.145200000000       0.000000000000      53.000000000000
       365    2       96.679800000000       2.658000000000      53.000000000000
       366    2       92.076000000000       5.316000000000      53.000000000000
       367    2       96.679800000000       7.974000000000      53.000000000000
       368    2       93.610600000000       7.974000000000      53.000000000000
       369    1       92.076000000000       3.543996456000      54.607384000000
       370    1       96.679800000000       4.430003544000      51.392616000000