 # Tc8 Te8
  
        1920  atoms
           2  atom types
 
      0.000000000000     102.447000000000  xlo xhi
      0.000000000000      94.636800000000  ylo yhi
      0.000000000000     106.000000000000  zlo zhi
 
Masses
 
            1   98.90600000             # Tc
            2   127.60000000            # Te
 
Atoms # atomic
 
         1    1        0.000000000000       0.000000000000      53.000000000000
         2    1        3.414900000000       5.914800000000      53.000000000000
         3    2        0.000000000000       3.943196056800      54.829984000000
         4    2        3.414900000000       9.857996056800      54.829984000000
         5    2        5.122350000000       0.985796056800      54.829984000000
         6    2        1.707450000000       6.900596056800      54.829984000000
         7    1        5.122350000000       2.957400000000      53.000000000000
         8    1        1.707450000000       8.872200000000      53.000000000000
         9    1        3.414900000000       0.000000000000      53.000000000000
        10    1        0.000000000000       5.914800000000      53.000000000000
        11    1        1.707450000000       2.957400000000      53.000000000000
        12    1        5.122350000000       8.872200000000      53.000000000000
        13    2        1.707450000000       0.985796056800      54.829984000000
        14    2        5.122350000000       6.900596056800      54.829984000000
        15    2        3.414900000000       3.943196056800      54.829984000000
        16    2        0.000000000000       9.857996056800      54.829984000000
        17    1        6.829800000000       0.000000000000      53.000000000000
        18    1       10.244700000000       5.914800000000      53.000000000000
        19    2        6.829800000000       3.943196056800      54.829984000000
        20    2       10.244700000000       9.857996056800      54.829984000000
        21    2       11.952150000000       0.985796056800      54.829984000000
        22    2        8.537250000000       6.900596056800      54.829984000000
        23    1       11.952150000000       2.957400000000      53.000000000000
        24    1        8.537250000000       8.872200000000      53.000000000000
        25    1       10.244700000000       0.000000000000      53.000000000000
        26    1        6.829800000000       5.914800000000      53.000000000000
        27    1        8.537250000000       2.957400000000      53.000000000000
        28    1       11.952150000000       8.872200000000      53.000000000000
        29    2        8.537250000000       0.985796056800      54.829984000000
        30    2       11.952150000000       6.900596056800      54.829984000000
        31    2       10.244700000000       3.943196056800      54.829984000000
        32    2        6.829800000000       9.857996056800      54.829984000000
        33    1       13.659600000000       0.000000000000      53.000000000000
        34    1       17.074500000000       5.914800000000      53.000000000000
        35    2       13.659600000000       3.943196056800      54.829984000000
        36    2       17.074500000000       9.857996056800      54.829984000000
        37    2       18.781950000000       0.985796056800      54.829984000000
        38    2       15.367050000000       6.900596056800      54.829984000000
        39    1       18.781950000000       2.957400000000      53.000000000000
        40    1       15.367050000000       8.872200000000      53.000000000000
        41    1       17.074500000000       0.000000000000      53.000000000000
        42    1       13.659600000000       5.914800000000      53.000000000000
        43    1       15.367050000000       2.957400000000      53.000000000000
        44    1       18.781950000000       8.872200000000      53.000000000000
        45    2       15.367050000000       0.985796056800      54.829984000000
        46    2       18.781950000000       6.900596056800      54.829984000000
        47    2       17.074500000000       3.943196056800      54.829984000000
        48    2       13.659600000000       9.857996056800      54.829984000000
        49    1       20.489400000000       0.000000000000      53.000000000000
        50    1       23.904300000000       5.914800000000      53.000000000000
        51    2       20.489400000000       3.943196056800      54.829984000000
        52    2       23.904300000000       9.857996056800      54.829984000000
        53    2       25.611750000000       0.985796056800      54.829984000000
        54    2       22.196850000000       6.900596056800      54.829984000000
        55    1       25.611750000000       2.957400000000      53.000000000000
        56    1       22.196850000000       8.872200000000      53.000000000000
        57    1       23.904300000000       0.000000000000      53.000000000000
        58    1       20.489400000000       5.914800000000      53.000000000000
        59    1       22.196850000000       2.957400000000      53.000000000000
        60    1       25.611750000000       8.872200000000      53.000000000000
        61    2       22.196850000000       0.985796056800      54.829984000000
        62    2       25.611750000000       6.900596056800      54.829984000000
        63    2       23.904300000000       3.943196056800      54.829984000000
        64    2       20.489400000000       9.857996056800      54.829984000000
        65    1       27.319200000000       0.000000000000      53.000000000000
        66    1       30.734100000000       5.914800000000      53.000000000000
        67    2       27.319200000000       3.943196056800      54.829984000000
        68    2       30.734100000000       9.857996056800      54.829984000000
        69    2       32.441550000000       0.985796056800      54.829984000000
        70    2       29.026650000000       6.900596056800      54.829984000000
        71    1       32.441550000000       2.957400000000      53.000000000000
        72    1       29.026650000000       8.872200000000      53.000000000000
        73    1       30.734100000000       0.000000000000      53.000000000000
        74    1       27.319200000000       5.914800000000      53.000000000000
        75    1       29.026650000000       2.957400000000      53.000000000000
        76    1       32.441550000000       8.872200000000      53.000000000000
        77    2       29.026650000000       0.985796056800      54.829984000000
        78    2       32.441550000000       6.900596056800      54.829984000000
        79    2       30.734100000000       3.943196056800      54.829984000000
        80    2       27.319200000000       9.857996056800      54.829984000000
        81    1       34.149000000000       0.000000000000      53.000000000000
        82    1       37.563900000000       5.914800000000      53.000000000000
        83    2       34.149000000000       3.943196056800      54.829984000000
        84    2       37.563900000000       9.857996056800      54.829984000000
        85    2       39.271350000000       0.985796056800      54.829984000000
        86    2       35.856450000000       6.900596056800      54.829984000000
        87    1       39.271350000000       2.957400000000      53.000000000000
        88    1       35.856450000000       8.872200000000      53.000000000000
        89    1       37.563900000000       0.000000000000      53.000000000000
        90    1       34.149000000000       5.914800000000      53.000000000000
        91    1       35.856450000000       2.957400000000      53.000000000000
        92    1       39.271350000000       8.872200000000      53.000000000000
        93    2       35.856450000000       0.985796056800      54.829984000000
        94    2       39.271350000000       6.900596056800      54.829984000000
        95    2       37.563900000000       3.943196056800      54.829984000000
        96    2       34.149000000000       9.857996056800      54.829984000000
        97    1       40.978800000000       0.000000000000      53.000000000000
        98    1       44.393700000000       5.914800000000      53.000000000000
        99    2       40.978800000000       3.943196056800      54.829984000000
       100    2       44.393700000000       9.857996056800      54.829984000000
       101    2       46.101150000000       0.985796056800      54.829984000000
       102    2       42.686250000000       6.900596056800      54.829984000000
       103    1       46.101150000000       2.957400000000      53.000000000000
       104    1       42.686250000000       8.872200000000      53.000000000000
       105    1       44.393700000000       0.000000000000      53.000000000000
       106    1       40.978800000000       5.914800000000      53.000000000000
       107    1       42.686250000000       2.957400000000      53.000000000000
       108    1       46.101150000000       8.872200000000      53.000000000000
       109    2       42.686250000000       0.985796056800      54.829984000000
       110    2       46.101150000000       6.900596056800      54.829984000000
       111    2       44.393700000000       3.943196056800      54.829984000000
       112    2       40.978800000000       9.857996056800      54.829984000000
       113    1       47.808600000000       0.000000000000      53.000000000000
       114    1       51.223500000000       5.914800000000      53.000000000000
       115    2       47.808600000000       3.943196056800      54.829984000000
       116    2       51.223500000000       9.857996056800      54.829984000000
       117    2       52.930950000000       0.985796056800      54.829984000000
       118    2       49.516050000000       6.900596056800      54.829984000000
       119    1       52.930950000000       2.957400000000      53.000000000000
       120    1       49.516050000000       8.872200000000      53.000000000000
       121    1       51.223500000000       0.000000000000      53.000000000000
       122    1       47.808600000000       5.914800000000      53.000000000000
       123    1       49.516050000000       2.957400000000      53.000000000000
       124    1       52.930950000000       8.872200000000      53.000000000000
       125    2       49.516050000000       0.985796056800      54.829984000000
       126    2       52.930950000000       6.900596056800      54.829984000000
       127    2       51.223500000000       3.943196056800      54.829984000000
       128    2       47.808600000000       9.857996056800      54.829984000000
       129    1       54.638400000000       0.000000000000      53.000000000000
       130    1       58.053300000000       5.914800000000      53.000000000000
       131    2       54.638400000000       3.943196056800      54.829984000000
       132    2       58.053300000000       9.857996056800      54.829984000000
       133    2       59.760750000000       0.985796056800      54.829984000000
       134    2       56.345850000000       6.900596056800      54.829984000000
       135    1       59.760750000000       2.957400000000      53.000000000000
       136    1       56.345850000000       8.872200000000      53.000000000000
       137    1       58.053300000000       0.000000000000      53.000000000000
       138    1       54.638400000000       5.914800000000      53.000000000000
       139    1       56.345850000000       2.957400000000      53.000000000000
       140    1       59.760750000000       8.872200000000      53.000000000000
       141    2       56.345850000000       0.985796056800      54.829984000000
       142    2       59.760750000000       6.900596056800      54.829984000000
       143    2       58.053300000000       3.943196056800      54.829984000000
       144    2       54.638400000000       9.857996056800      54.829984000000
       145    1       61.468200000000       0.000000000000      53.000000000000
       146    1       64.883100000000       5.914800000000      53.000000000000
       147    2       61.468200000000       3.943196056800      54.829984000000
       148    2       64.883100000000       9.857996056800      54.829984000000
       149    2       66.590550000000       0.985796056800      54.829984000000
       150    2       63.175650000000       6.900596056800      54.829984000000
       151    1       66.590550000000       2.957400000000      53.000000000000
       152    1       63.175650000000       8.872200000000      53.000000000000
       153    1       64.883100000000       0.000000000000      53.000000000000
       154    1       61.468200000000       5.914800000000      53.000000000000
       155    1       63.175650000000       2.957400000000      53.000000000000
       156    1       66.590550000000       8.872200000000      53.000000000000
       157    2       63.175650000000       0.985796056800      54.829984000000
       158    2       66.590550000000       6.900596056800      54.829984000000
       159    2       64.883100000000       3.943196056800      54.829984000000
       160    2       61.468200000000       9.857996056800      54.829984000000
       161    1       68.298000000000       0.000000000000      53.000000000000
       162    1       71.712900000000       5.914800000000      53.000000000000
       163    2       68.298000000000       3.943196056800      54.829984000000
       164    2       71.712900000000       9.857996056800      54.829984000000
       165    2       73.420350000000       0.985796056800      54.829984000000
       166    2       70.005450000000       6.900596056800      54.829984000000
       167    1       73.420350000000       2.957400000000      53.000000000000
       168    1       70.005450000000       8.872200000000      53.000000000000
       169    1       71.712900000000       0.000000000000      53.000000000000
       170    1       68.298000000000       5.914800000000      53.000000000000
       171    1       70.005450000000       2.957400000000      53.000000000000
       172    1       73.420350000000       8.872200000000      53.000000000000
       173    2       70.005450000000       0.985796056800      54.829984000000
       174    2       73.420350000000       6.900596056800      54.829984000000
       175    2       71.712900000000       3.943196056800      54.829984000000
       176    2       68.298000000000       9.857996056800      54.829984000000
       177    1       75.127800000000       0.000000000000      53.000000000000
       178    1       78.542700000000       5.914800000000      53.000000000000
       179    2       75.127800000000       3.943196056800      54.829984000000
       180    2       78.542700000000       9.857996056800      54.829984000000
       181    2       80.250150000000       0.985796056800      54.829984000000
       182    2       76.835250000000       6.900596056800      54.829984000000
       183    1       80.250150000000       2.957400000000      53.000000000000
       184    1       76.835250000000       8.872200000000      53.000000000000
       185    1       78.542700000000       0.000000000000      53.000000000000
       186    1       75.127800000000       5.914800000000      53.000000000000
       187    1       76.835250000000       2.957400000000      53.000000000000
       188    1       80.250150000000       8.872200000000      53.000000000000
       189    2       76.835250000000       0.985796056800      54.829984000000
       190    2       80.250150000000       6.900596056800      54.829984000000
       191    2       78.542700000000       3.943196056800      54.829984000000
       192    2       75.127800000000       9.857996056800      54.829984000000
       193    1       81.957600000000       0.000000000000      53.000000000000
       194    1       85.372500000000       5.914800000000      53.000000000000
       195    2       81.957600000000       3.943196056800      54.829984000000
       196    2       85.372500000000       9.857996056800      54.829984000000
       197    2       87.079950000000       0.985796056800      54.829984000000
       198    2       83.665050000000       6.900596056800      54.829984000000
       199    1       87.079950000000       2.957400000000      53.000000000000
       200    1       83.665050000000       8.872200000000      53.000000000000
       201    1       85.372500000000       0.000000000000      53.000000000000
       202    1       81.957600000000       5.914800000000      53.000000000000
       203    1       83.665050000000       2.957400000000      53.000000000000
       204    1       87.079950000000       8.872200000000      53.000000000000
       205    2       83.665050000000       0.985796056800      54.829984000000
       206    2       87.079950000000       6.900596056800      54.829984000000
       207    2       85.372500000000       3.943196056800      54.829984000000
       208    2       81.957600000000       9.857996056800      54.829984000000
       209    1       88.787400000000       0.000000000000      53.000000000000
       210    1       92.202300000000       5.914800000000      53.000000000000
       211    2       88.787400000000       3.943196056800      54.829984000000
       212    2       92.202300000000       9.857996056800      54.829984000000
       213    2       93.909750000000       0.985796056800      54.829984000000
       214    2       90.494850000000       6.900596056800      54.829984000000
       215    1       93.909750000000       2.957400000000      53.000000000000
       216    1       90.494850000000       8.872200000000      53.000000000000
       217    1       92.202300000000       0.000000000000      53.000000000000
       218    1       88.787400000000       5.914800000000      53.000000000000
       219    1       90.494850000000       2.957400000000      53.000000000000
       220    1       93.909750000000       8.872200000000      53.000000000000
       221    2       90.494850000000       0.985796056800      54.829984000000
       222    2       93.909750000000       6.900596056800      54.829984000000
       223    2       92.202300000000       3.943196056800      54.829984000000
       224    2       88.787400000000       9.857996056800      54.829984000000
       225    1       95.617200000000       0.000000000000      53.000000000000
       226    1       99.032100000000       5.914800000000      53.000000000000
       227    2       95.617200000000       3.943196056800      54.829984000000
       228    2       99.032100000000       9.857996056800      54.829984000000
       229    2      100.739550000000       0.985796056800      54.829984000000
       230    2       97.324650000000       6.900596056800      54.829984000000
       231    1      100.739550000000       2.957400000000      53.000000000000
       232    1       97.324650000000       8.872200000000      53.000000000000
       233    1       99.032100000000       0.000000000000      53.000000000000
       234    1       95.617200000000       5.914800000000      53.000000000000
       235    1       97.324650000000       2.957400000000      53.000000000000
       236    1      100.739550000000       8.872200000000      53.000000000000
       237    2       97.324650000000       0.985796056800      54.829984000000
       238    2      100.739550000000       6.900596056800      54.829984000000
       239    2       99.032100000000       3.943196056800      54.829984000000
       240    2       95.617200000000       9.857996056800      54.829984000000
       241    1        0.000000000000      11.829600000000      53.000000000000
       242    1        3.414900000000      17.744400000000      53.000000000000
       243    2        0.000000000000      15.772796056800      54.829984000000
       244    2        3.414900000000      21.687596056800      54.829984000000
       245    2        5.122350000000      12.815396056800      54.829984000000
       246    2        1.707450000000      18.730196056800      54.829984000000
       247    1        5.122350000000      14.787000000000      53.000000000000
       248    1        1.707450000000      20.701800000000      53.000000000000
       249    1        3.414900000000      11.829600000000      53.000000000000
       250    1        0.000000000000      17.744400000000      53.000000000000
       251    1        1.707450000000      14.787000000000      53.000000000000
       252    1        5.122350000000      20.701800000000      53.000000000000
       253    2        1.707450000000      12.815396056800      54.829984000000
       254    2        5.122350000000      18.730196056800      54.829984000000
       255    2        3.414900000000      15.772796056800      54.829984000000
       256    2        0.000000000000      21.687596056800      54.829984000000
       257    1        6.829800000000      11.829600000000      53.000000000000
       258    1       10.244700000000      17.744400000000      53.000000000000
       259    2        6.829800000000      15.772796056800      54.829984000000
       260    2       10.244700000000      21.687596056800      54.829984000000
       261    2       11.952150000000      12.815396056800      54.829984000000
       262    2        8.537250000000      18.730196056800      54.829984000000
       263    1       11.952150000000      14.787000000000      53.000000000000
       264    1        8.537250000000      20.701800000000      53.000000000000
       265    1       10.244700000000      11.829600000000      53.000000000000
       266    1        6.829800000000      17.744400000000      53.000000000000
       267    1        8.537250000000      14.787000000000      53.000000000000
       268    1       11.952150000000      20.701800000000      53.000000000000
       269    2        8.537250000000      12.815396056800      54.829984000000
       270    2       11.952150000000      18.730196056800      54.829984000000
       271    2       10.244700000000      15.772796056800      54.829984000000
       272    2        6.829800000000      21.687596056800      54.829984000000
       273    1       13.659600000000      11.829600000000      53.000000000000
       274    1       17.074500000000      17.744400000000      53.000000000000
       275    2       13.659600000000      15.772796056800      54.829984000000
       276    2       17.074500000000      21.687596056800      54.829984000000
       277    2       18.781950000000      12.815396056800      54.829984000000
       278    2       15.367050000000      18.730196056800      54.829984000000
       279    1       18.781950000000      14.787000000000      53.000000000000
       280    1       15.367050000000      20.701800000000      53.000000000000
       281    1       17.074500000000      11.829600000000      53.000000000000
       282    1       13.659600000000      17.744400000000      53.000000000000
       283    1       15.367050000000      14.787000000000      53.000000000000
       284    1       18.781950000000      20.701800000000      53.000000000000
       285    2       15.367050000000      12.815396056800      54.829984000000
       286    2       18.781950000000      18.730196056800      54.829984000000
       287    2       17.074500000000      15.772796056800      54.829984000000
       288    2       13.659600000000      21.687596056800      54.829984000000
       289    1       20.489400000000      11.829600000000      53.000000000000
       290    1       23.904300000000      17.744400000000      53.000000000000
       291    2       20.489400000000      15.772796056800      54.829984000000
       292    2       23.904300000000      21.687596056800      54.829984000000
       293    2       25.611750000000      12.815396056800      54.829984000000
       294    2       22.196850000000      18.730196056800      54.829984000000
       295    1       25.611750000000      14.787000000000      53.000000000000
       296    1       22.196850000000      20.701800000000      53.000000000000
       297    1       23.904300000000      11.829600000000      53.000000000000
       298    1       20.489400000000      17.744400000000      53.000000000000
       299    1       22.196850000000      14.787000000000      53.000000000000
       300    1       25.611750000000      20.701800000000      53.000000000000
       301    2       22.196850000000      12.815396056800      54.829984000000
       302    2       25.611750000000      18.730196056800      54.829984000000
       303    2       23.904300000000      15.772796056800      54.829984000000
       304    2       20.489400000000      21.687596056800      54.829984000000
       305    1       27.319200000000      11.829600000000      53.000000000000
       306    1       30.734100000000      17.744400000000      53.000000000000
       307    2       27.319200000000      15.772796056800      54.829984000000
       308    2       30.734100000000      21.687596056800      54.829984000000
       309    2       32.441550000000      12.815396056800      54.829984000000
       310    2       29.026650000000      18.730196056800      54.829984000000
       311    1       32.441550000000      14.787000000000      53.000000000000
       312    1       29.026650000000      20.701800000000      53.000000000000
       313    1       30.734100000000      11.829600000000      53.000000000000
       314    1       27.319200000000      17.744400000000      53.000000000000
       315    1       29.026650000000      14.787000000000      53.000000000000
       316    1       32.441550000000      20.701800000000      53.000000000000
       317    2       29.026650000000      12.815396056800      54.829984000000
       318    2       32.441550000000      18.730196056800      54.829984000000
       319    2       30.734100000000      15.772796056800      54.829984000000
       320    2       27.319200000000      21.687596056800      54.829984000000
       321    1       34.149000000000      11.829600000000      53.000000000000
       322    1       37.563900000000      17.744400000000      53.000000000000
       323    2       34.149000000000      15.772796056800      54.829984000000
       324    2       37.563900000000      21.687596056800      54.829984000000
       325    2       39.271350000000      12.815396056800      54.829984000000
       326    2       35.856450000000      18.730196056800      54.829984000000
       327    1       39.271350000000      14.787000000000      53.000000000000
       328    1       35.856450000000      20.701800000000      53.000000000000
       329    1       37.563900000000      11.829600000000      53.000000000000
       330    1       34.149000000000      17.744400000000      53.000000000000
       331    1       35.856450000000      14.787000000000      53.000000000000
       332    1       39.271350000000      20.701800000000      53.000000000000
       333    2       35.856450000000      12.815396056800      54.829984000000
       334    2       39.271350000000      18.730196056800      54.829984000000
       335    2       37.563900000000      15.772796056800      54.829984000000
       336    2       34.149000000000      21.687596056800      54.829984000000
       337    1       40.978800000000      11.829600000000      53.000000000000
       338    1       44.393700000000      17.744400000000      53.000000000000
       339    2       40.978800000000      15.772796056800      54.829984000000
       340    2       44.393700000000      21.687596056800      54.829984000000
       341    2       46.101150000000      12.815396056800      54.829984000000
       342    2       42.686250000000      18.730196056800      54.829984000000
       343    1       46.101150000000      14.787000000000      53.000000000000
       344    1       42.686250000000      20.701800000000      53.000000000000
       345    1       44.393700000000      11.829600000000      53.000000000000
       346    1       40.978800000000      17.744400000000      53.000000000000
       347    1       42.686250000000      14.787000000000      53.000000000000
       348    1       46.101150000000      20.701800000000      53.000000000000
       349    2       42.686250000000      12.815396056800      54.829984000000
       350    2       46.101150000000      18.730196056800      54.829984000000
       351    2       44.393700000000      15.772796056800      54.829984000000
       352    2       40.978800000000      21.687596056800      54.829984000000
       353    1       47.808600000000      11.829600000000      53.000000000000
       354    1       51.223500000000      17.744400000000      53.000000000000
       355    2       47.808600000000      15.772796056800      54.829984000000
       356    2       51.223500000000      21.687596056800      54.829984000000
       357    2       52.930950000000      12.815396056800      54.829984000000
       358    2       49.516050000000      18.730196056800      54.829984000000
       359    1       52.930950000000      14.787000000000      53.000000000000
       360    1       49.516050000000      20.701800000000      53.000000000000
       361    1       51.223500000000      11.829600000000      53.000000000000
       362    1       47.808600000000      17.744400000000      53.000000000000
       363    1       49.516050000000      14.787000000000      53.000000000000
       364    1       52.930950000000      20.701800000000      53.000000000000
       365    2       49.516050000000      12.815396056800      54.829984000000
       366    2       52.930950000000      18.730196056800      54.829984000000
       367    2       51.223500000000      15.772796056800      54.829984000000
       368    2       47.808600000000      21.687596056800      54.829984000000
       369    1       54.638400000000      11.829600000000      53.000000000000
       370    1       58.053300000000      17.744400000000      53.000000000000