 # Se16 Ti8
  
        2688  atoms
           2  atom types
 
      0.000000000000      99.013600000000  xlo xhi
      0.000000000000      97.998400000000  ylo yhi
      0.000000000000      18.105200000000  zlo zhi
 
Masses
 
            1   78.96000000             # Se
            2   47.86700000             # Ti
 
Atoms # atomic
 
         1    1        3.536200000000       2.041637416600       7.500006679200
         2    1        0.000000000000       8.166537416600       7.500006679200
         3    1        5.304300000000       5.104087416600       7.500006679200
         4    1        1.768100000000      11.228987416600       7.500006679200
         5    2        5.304300000000       3.062450000000       9.052600000000
         6    2        1.768100000000       9.187350000000       9.052600000000
         7    2        3.536200000000      12.249800000000       9.052600000000
         8    2        0.000000000000       6.124900000000       9.052600000000
         9    1        0.000000000000       2.041637416600       7.500006679200
        10    1        3.536200000000       8.166537416600       7.500006679200
        11    2        0.000000000000      12.249800000000       9.052600000000
        12    2        3.536200000000       6.124900000000       9.052600000000
        13    1        3.536200000000       4.083262583400      10.605193320800
        14    1        0.000000000000      10.208162583400      10.605193320800
        15    1        1.768100000000       1.020812583400      10.605193320800
        16    1        1.768100000000       5.104087416600       7.500006679200
        17    1        7.072400000000       4.083262583400      10.605193320800
        18    1        5.304300000000       1.020812583400      10.605193320800
        19    1        5.304300000000       7.145712583400      10.605193320800
        20    1        1.768100000000       7.145712583400      10.605193320800
        21    1        5.304300000000      11.228987416600       7.500006679200
        22    1        3.536200000000      10.208162583400      10.605193320800
        23    2        1.768100000000       3.062450000000       9.052600000000
        24    2        5.304300000000       9.187350000000       9.052600000000
        25    1       10.608600000000       2.041637416600       7.500006679200
        26    1        7.072400000000       8.166537416600       7.500006679200
        27    1       12.376700000000       5.104087416600       7.500006679200
        28    1        8.840500000000      11.228987416600       7.500006679200
        29    2       12.376700000000       3.062450000000       9.052600000000
        30    2        8.840500000000       9.187350000000       9.052600000000
        31    2       10.608600000000      12.249800000000       9.052600000000
        32    2        7.072400000000       6.124900000000       9.052600000000
        33    1        7.072400000000       2.041637416600       7.500006679200
        34    1       10.608600000000       8.166537416600       7.500006679200
        35    2        7.072400000000      12.249800000000       9.052600000000
        36    2       10.608600000000       6.124900000000       9.052600000000
        37    1       10.608600000000       4.083262583400      10.605193320800
        38    1        7.072400000000      10.208162583400      10.605193320800
        39    1        8.840500000000       1.020812583400      10.605193320800
        40    1        8.840500000000       5.104087416600       7.500006679200
        41    1       14.144800000000       4.083262583400      10.605193320800
        42    1       12.376700000000       1.020812583400      10.605193320800
        43    1       12.376700000000       7.145712583400      10.605193320800
        44    1        8.840500000000       7.145712583400      10.605193320800
        45    1       12.376700000000      11.228987416600       7.500006679200
        46    1       10.608600000000      10.208162583400      10.605193320800
        47    2        8.840500000000       3.062450000000       9.052600000000
        48    2       12.376700000000       9.187350000000       9.052600000000
        49    1       17.681000000000       2.041637416600       7.500006679200
        50    1       14.144800000000       8.166537416600       7.500006679200
        51    1       19.449100000000       5.104087416600       7.500006679200
        52    1       15.912900000000      11.228987416600       7.500006679200
        53    2       19.449100000000       3.062450000000       9.052600000000
        54    2       15.912900000000       9.187350000000       9.052600000000
        55    2       17.681000000000      12.249800000000       9.052600000000
        56    2       14.144800000000       6.124900000000       9.052600000000
        57    1       14.144800000000       2.041637416600       7.500006679200
        58    1       17.681000000000       8.166537416600       7.500006679200
        59    2       14.144800000000      12.249800000000       9.052600000000
        60    2       17.681000000000       6.124900000000       9.052600000000
        61    1       17.681000000000       4.083262583400      10.605193320800
        62    1       14.144800000000      10.208162583400      10.605193320800
        63    1       15.912900000000       1.020812583400      10.605193320800
        64    1       15.912900000000       5.104087416600       7.500006679200
        65    1       21.217200000000       4.083262583400      10.605193320800
        66    1       19.449100000000       1.020812583400      10.605193320800
        67    1       19.449100000000       7.145712583400      10.605193320800
        68    1       15.912900000000       7.145712583400      10.605193320800
        69    1       19.449100000000      11.228987416600       7.500006679200
        70    1       17.681000000000      10.208162583400      10.605193320800
        71    2       15.912900000000       3.062450000000       9.052600000000
        72    2       19.449100000000       9.187350000000       9.052600000000
        73    1       24.753400000000       2.041637416600       7.500006679200
        74    1       21.217200000000       8.166537416600       7.500006679200
        75    1       26.521500000000       5.104087416600       7.500006679200
        76    1       22.985300000000      11.228987416600       7.500006679200
        77    2       26.521500000000       3.062450000000       9.052600000000
        78    2       22.985300000000       9.187350000000       9.052600000000
        79    2       24.753400000000      12.249800000000       9.052600000000
        80    2       21.217200000000       6.124900000000       9.052600000000
        81    1       21.217200000000       2.041637416600       7.500006679200
        82    1       24.753400000000       8.166537416600       7.500006679200
        83    2       21.217200000000      12.249800000000       9.052600000000
        84    2       24.753400000000       6.124900000000       9.052600000000
        85    1       24.753400000000       4.083262583400      10.605193320800
        86    1       21.217200000000      10.208162583400      10.605193320800
        87    1       22.985300000000       1.020812583400      10.605193320800
        88    1       22.985300000000       5.104087416600       7.500006679200
        89    1       28.289600000000       4.083262583400      10.605193320800
        90    1       26.521500000000       1.020812583400      10.605193320800
        91    1       26.521500000000       7.145712583400      10.605193320800
        92    1       22.985300000000       7.145712583400      10.605193320800
        93    1       26.521500000000      11.228987416600       7.500006679200
        94    1       24.753400000000      10.208162583400      10.605193320800
        95    2       22.985300000000       3.062450000000       9.052600000000
        96    2       26.521500000000       9.187350000000       9.052600000000
        97    1       31.825800000000       2.041637416600       7.500006679200
        98    1       28.289600000000       8.166537416600       7.500006679200
        99    1       33.593900000000       5.104087416600       7.500006679200
       100    1       30.057700000000      11.228987416600       7.500006679200
       101    2       33.593900000000       3.062450000000       9.052600000000
       102    2       30.057700000000       9.187350000000       9.052600000000
       103    2       31.825800000000      12.249800000000       9.052600000000
       104    2       28.289600000000       6.124900000000       9.052600000000
       105    1       28.289600000000       2.041637416600       7.500006679200
       106    1       31.825800000000       8.166537416600       7.500006679200
       107    2       28.289600000000      12.249800000000       9.052600000000
       108    2       31.825800000000       6.124900000000       9.052600000000
       109    1       31.825800000000       4.083262583400      10.605193320800
       110    1       28.289600000000      10.208162583400      10.605193320800
       111    1       30.057700000000       1.020812583400      10.605193320800
       112    1       30.057700000000       5.104087416600       7.500006679200
       113    1       35.362000000000       4.083262583400      10.605193320800
       114    1       33.593900000000       1.020812583400      10.605193320800
       115    1       33.593900000000       7.145712583400      10.605193320800
       116    1       30.057700000000       7.145712583400      10.605193320800
       117    1       33.593900000000      11.228987416600       7.500006679200
       118    1       31.825800000000      10.208162583400      10.605193320800
       119    2       30.057700000000       3.062450000000       9.052600000000
       120    2       33.593900000000       9.187350000000       9.052600000000
       121    1       38.898200000000       2.041637416600       7.500006679200
       122    1       35.362000000000       8.166537416600       7.500006679200
       123    1       40.666300000000       5.104087416600       7.500006679200
       124    1       37.130100000000      11.228987416600       7.500006679200
       125    2       40.666300000000       3.062450000000       9.052600000000
       126    2       37.130100000000       9.187350000000       9.052600000000
       127    2       38.898200000000      12.249800000000       9.052600000000
       128    2       35.362000000000       6.124900000000       9.052600000000
       129    1       35.362000000000       2.041637416600       7.500006679200
       130    1       38.898200000000       8.166537416600       7.500006679200
       131    2       35.362000000000      12.249800000000       9.052600000000
       132    2       38.898200000000       6.124900000000       9.052600000000
       133    1       38.898200000000       4.083262583400      10.605193320800
       134    1       35.362000000000      10.208162583400      10.605193320800
       135    1       37.130100000000       1.020812583400      10.605193320800
       136    1       37.130100000000       5.104087416600       7.500006679200
       137    1       42.434400000000       4.083262583400      10.605193320800
       138    1       40.666300000000       1.020812583400      10.605193320800
       139    1       40.666300000000       7.145712583400      10.605193320800
       140    1       37.130100000000       7.145712583400      10.605193320800
       141    1       40.666300000000      11.228987416600       7.500006679200
       142    1       38.898200000000      10.208162583400      10.605193320800
       143    2       37.130100000000       3.062450000000       9.052600000000
       144    2       40.666300000000       9.187350000000       9.052600000000
       145    1       45.970600000000       2.041637416600       7.500006679200
       146    1       42.434400000000       8.166537416600       7.500006679200
       147    1       47.738700000000       5.104087416600       7.500006679200
       148    1       44.202500000000      11.228987416600       7.500006679200
       149    2       47.738700000000       3.062450000000       9.052600000000
       150    2       44.202500000000       9.187350000000       9.052600000000
       151    2       45.970600000000      12.249800000000       9.052600000000
       152    2       42.434400000000       6.124900000000       9.052600000000
       153    1       42.434400000000       2.041637416600       7.500006679200
       154    1       45.970600000000       8.166537416600       7.500006679200
       155    2       42.434400000000      12.249800000000       9.052600000000
       156    2       45.970600000000       6.124900000000       9.052600000000
       157    1       45.970600000000       4.083262583400      10.605193320800
       158    1       42.434400000000      10.208162583400      10.605193320800
       159    1       44.202500000000       1.020812583400      10.605193320800
       160    1       44.202500000000       5.104087416600       7.500006679200
       161    1       49.506800000000       4.083262583400      10.605193320800
       162    1       47.738700000000       1.020812583400      10.605193320800
       163    1       47.738700000000       7.145712583400      10.605193320800
       164    1       44.202500000000       7.145712583400      10.605193320800
       165    1       47.738700000000      11.228987416600       7.500006679200
       166    1       45.970600000000      10.208162583400      10.605193320800
       167    2       44.202500000000       3.062450000000       9.052600000000
       168    2       47.738700000000       9.187350000000       9.052600000000
       169    1       53.043000000000       2.041637416600       7.500006679200
       170    1       49.506800000000       8.166537416600       7.500006679200
       171    1       54.811100000000       5.104087416600       7.500006679200
       172    1       51.274900000000      11.228987416600       7.500006679200
       173    2       54.811100000000       3.062450000000       9.052600000000
       174    2       51.274900000000       9.187350000000       9.052600000000
       175    2       53.043000000000      12.249800000000       9.052600000000
       176    2       49.506800000000       6.124900000000       9.052600000000
       177    1       49.506800000000       2.041637416600       7.500006679200
       178    1       53.043000000000       8.166537416600       7.500006679200
       179    2       49.506800000000      12.249800000000       9.052600000000
       180    2       53.043000000000       6.124900000000       9.052600000000
       181    1       53.043000000000       4.083262583400      10.605193320800
       182    1       49.506800000000      10.208162583400      10.605193320800
       183    1       51.274900000000       1.020812583400      10.605193320800
       184    1       51.274900000000       5.104087416600       7.500006679200
       185    1       56.579200000000       4.083262583400      10.605193320800
       186    1       54.811100000000       1.020812583400      10.605193320800
       187    1       54.811100000000       7.145712583400      10.605193320800
       188    1       51.274900000000       7.145712583400      10.605193320800
       189    1       54.811100000000      11.228987416600       7.500006679200
       190    1       53.043000000000      10.208162583400      10.605193320800
       191    2       51.274900000000       3.062450000000       9.052600000000
       192    2       54.811100000000       9.187350000000       9.052600000000
       193    1       60.115400000000       2.041637416600       7.500006679200
       194    1       56.579200000000       8.166537416600       7.500006679200
       195    1       61.883500000000       5.104087416600       7.500006679200
       196    1       58.347300000000      11.228987416600       7.500006679200
       197    2       61.883500000000       3.062450000000       9.052600000000
       198    2       58.347300000000       9.187350000000       9.052600000000
       199    2       60.115400000000      12.249800000000       9.052600000000
       200    2       56.579200000000       6.124900000000       9.052600000000
       201    1       56.579200000000       2.041637416600       7.500006679200
       202    1       60.115400000000       8.166537416600       7.500006679200
       203    2       56.579200000000      12.249800000000       9.052600000000
       204    2       60.115400000000       6.124900000000       9.052600000000
       205    1       60.115400000000       4.083262583400      10.605193320800
       206    1       56.579200000000      10.208162583400      10.605193320800
       207    1       58.347300000000       1.020812583400      10.605193320800
       208    1       58.347300000000       5.104087416600       7.500006679200
       209    1       63.651600000000       4.083262583400      10.605193320800
       210    1       61.883500000000       1.020812583400      10.605193320800
       211    1       61.883500000000       7.145712583400      10.605193320800
       212    1       58.347300000000       7.145712583400      10.605193320800
       213    1       61.883500000000      11.228987416600       7.500006679200
       214    1       60.115400000000      10.208162583400      10.605193320800
       215    2       58.347300000000       3.062450000000       9.052600000000
       216    2       61.883500000000       9.187350000000       9.052600000000
       217    1       67.187800000000       2.041637416600       7.500006679200
       218    1       63.651600000000       8.166537416600       7.500006679200
       219    1       68.955900000000       5.104087416600       7.500006679200
       220    1       65.419700000000      11.228987416600       7.500006679200
       221    2       68.955900000000       3.062450000000       9.052600000000
       222    2       65.419700000000       9.187350000000       9.052600000000
       223    2       67.187800000000      12.249800000000       9.052600000000
       224    2       63.651600000000       6.124900000000       9.052600000000
       225    1       63.651600000000       2.041637416600       7.500006679200
       226    1       67.187800000000       8.166537416600       7.500006679200
       227    2       63.651600000000      12.249800000000       9.052600000000
       228    2       67.187800000000       6.124900000000       9.052600000000
       229    1       67.187800000000       4.083262583400      10.605193320800
       230    1       63.651600000000      10.208162583400      10.605193320800
       231    1       65.419700000000       1.020812583400      10.605193320800
       232    1       65.419700000000       5.104087416600       7.500006679200
       233    1       70.724000000000       4.083262583400      10.605193320800
       234    1       68.955900000000       1.020812583400      10.605193320800
       235    1       68.955900000000       7.145712583400      10.605193320800
       236    1       65.419700000000       7.145712583400      10.605193320800
       237    1       68.955900000000      11.228987416600       7.500006679200
       238    1       67.187800000000      10.208162583400      10.605193320800
       239    2       65.419700000000       3.062450000000       9.052600000000
       240    2       68.955900000000       9.187350000000       9.052600000000
       241    1       74.260200000000       2.041637416600       7.500006679200
       242    1       70.724000000000       8.166537416600       7.500006679200
       243    1       76.028300000000       5.104087416600       7.500006679200
       244    1       72.492100000000      11.228987416600       7.500006679200
       245    2       76.028300000000       3.062450000000       9.052600000000
       246    2       72.492100000000       9.187350000000       9.052600000000
       247    2       74.260200000000      12.249800000000       9.052600000000
       248    2       70.724000000000       6.124900000000       9.052600000000
       249    1       70.724000000000       2.041637416600       7.500006679200
       250    1       74.260200000000       8.166537416600       7.500006679200
       251    2       70.724000000000      12.249800000000       9.052600000000
       252    2       74.260200000000       6.124900000000       9.052600000000
       253    1       74.260200000000       4.083262583400      10.605193320800
       254    1       70.724000000000      10.208162583400      10.605193320800
       255    1       72.492100000000       1.020812583400      10.605193320800
       256    1       72.492100000000       5.104087416600       7.500006679200
       257    1       77.796400000000       4.083262583400      10.605193320800
       258    1       76.028300000000       1.020812583400      10.605193320800
       259    1       76.028300000000       7.145712583400      10.605193320800
       260    1       72.492100000000       7.145712583400      10.605193320800
       261    1       76.028300000000      11.228987416600       7.500006679200
       262    1       74.260200000000      10.208162583400      10.605193320800
       263    2       72.492100000000       3.062450000000       9.052600000000
       264    2       76.028300000000       9.187350000000       9.052600000000
       265    1       81.332600000000       2.041637416600       7.500006679200
       266    1       77.796400000000       8.166537416600       7.500006679200
       267    1       83.100700000000       5.104087416600       7.500006679200
       268    1       79.564500000000      11.228987416600       7.500006679200
       269    2       83.100700000000       3.062450000000       9.052600000000
       270    2       79.564500000000       9.187350000000       9.052600000000
       271    2       81.332600000000      12.249800000000       9.052600000000
       272    2       77.796400000000       6.124900000000       9.052600000000
       273    1       77.796400000000       2.041637416600       7.500006679200
       274    1       81.332600000000       8.166537416600       7.500006679200
       275    2       77.796400000000      12.249800000000       9.052600000000
       276    2       81.332600000000       6.124900000000       9.052600000000
       277    1       81.332600000000       4.083262583400      10.605193320800
       278    1       77.796400000000      10.208162583400      10.605193320800
       279    1       79.564500000000       1.020812583400      10.605193320800
       280    1       79.564500000000       5.104087416600       7.500006679200
       281    1       84.868800000000       4.083262583400      10.605193320800
       282    1       83.100700000000       1.020812583400      10.605193320800
       283    1       83.100700000000       7.145712583400      10.605193320800
       284    1       79.564500000000       7.145712583400      10.605193320800
       285    1       83.100700000000      11.228987416600       7.500006679200
       286    1       81.332600000000      10.208162583400      10.605193320800
       287    2       79.564500000000       3.062450000000       9.052600000000
       288    2       83.100700000000       9.187350000000       9.052600000000
       289    1       88.405000000000       2.041637416600       7.500006679200
       290    1       84.868800000000       8.166537416600       7.500006679200
       291    1       90.173100000000       5.104087416600       7.500006679200
       292    1       86.636900000000      11.228987416600       7.500006679200
       293    2       90.173100000000       3.062450000000       9.052600000000
       294    2       86.636900000000       9.187350000000       9.052600000000
       295    2       88.405000000000      12.249800000000       9.052600000000
       296    2       84.868800000000       6.124900000000       9.052600000000
       297    1       84.868800000000       2.041637416600       7.500006679200
       298    1       88.405000000000       8.166537416600       7.500006679200
       299    2       84.868800000000      12.249800000000       9.052600000000
       300    2       88.405000000000       6.124900000000       9.052600000000
       301    1       88.405000000000       4.083262583400      10.605193320800
       302    1       84.868800000000      10.208162583400      10.605193320800
       303    1       86.636900000000       1.020812583400      10.605193320800
       304    1       86.636900000000       5.104087416600       7.500006679200
       305    1       91.941200000000       4.083262583400      10.605193320800
       306    1       90.173100000000       1.020812583400      10.605193320800
       307    1       90.173100000000       7.145712583400      10.605193320800
       308    1       86.636900000000       7.145712583400      10.605193320800
       309    1       90.173100000000      11.228987416600       7.500006679200
       310    1       88.405000000000      10.208162583400      10.605193320800
       311    2       86.636900000000       3.062450000000       9.052600000000
       312    2       90.173100000000       9.187350000000       9.052600000000
       313    1       95.477400000000       2.041637416600       7.500006679200
       314    1       91.941200000000       8.166537416600       7.500006679200
       315    1       97.245500000000       5.104087416600       7.500006679200
       316    1       93.709300000000      11.228987416600       7.500006679200
       317    2       97.245500000000       3.062450000000       9.052600000000
       318    2       93.709300000000       9.187350000000       9.052600000000
       319    2       95.477400000000      12.249800000000       9.052600000000
       320    2       91.941200000000       6.124900000000       9.052600000000
       321    1       91.941200000000       2.041637416600       7.500006679200
       322    1       95.477400000000       8.166537416600       7.500006679200
       323    2       91.941200000000      12.249800000000       9.052600000000
       324    2       95.477400000000       6.124900000000       9.052600000000
       325    1       95.477400000000       4.083262583400      10.605193320800
       326    1       91.941200000000      10.208162583400      10.605193320800
       327    1       93.709300000000       1.020812583400      10.605193320800
       328    1       93.709300000000       5.104087416600       7.500006679200
       329    1       99.013600000000       4.083262583400      10.605193320800
       330    1       97.245500000000       1.020812583400      10.605193320800
       331    1       97.245500000000       7.145712583400      10.605193320800
       332    1       93.709300000000       7.145712583400      10.605193320800
       333    1       97.245500000000      11.228987416600       7.500006679200
       334    1       95.477400000000      10.208162583400      10.605193320800
       335    2       93.709300000000       3.062450000000       9.052600000000
       336    2       97.245500000000       9.187350000000       9.052600000000
       337    1        3.536200000000      14.291437416600       7.500006679200
       338    1        0.000000000000      20.416337416600       7.500006679200
       339    1        5.304300000000      17.353887416600       7.500006679200
       340    1        1.768100000000      23.478787416600       7.500006679200
       341    2        5.304300000000      15.312250000000       9.052600000000
       342    2        1.768100000000      21.437150000000       9.052600000000
       343    2        3.536200000000      24.499600000000       9.052600000000
       344    2        0.000000000000      18.374700000000       9.052600000000
       345    1        0.000000000000      14.291437416600       7.500006679200
       346    1        3.536200000000      20.416337416600       7.500006679200
       347    2        0.000000000000      24.499600000000       9.052600000000
       348    2        3.536200000000      18.374700000000       9.052600000000
       349    1        3.536200000000      16.333062583400      10.605193320800
       350    1        0.000000000000      22.457962583400      10.605193320800
       351    1        1.768100000000      13.270612583400      10.605193320800
       352    1        1.768100000000      17.353887416600       7.500006679200
       353    1        7.072400000000      16.333062583400      10.605193320800
       354    1        5.304300000000      13.270612583400      10.605193320800
       355    1        5.304300000000      19.395512583400      10.605193320800
       356    1        1.768100000000      19.395512583400      10.605193320800
       357    1        5.304300000000      23.478787416600       7.500006679200
       358    1        3.536200000000      22.457962583400      10.605193320800
       359    2        1.768100000000      15.312250000000       9.052600000000
       360    2        5.304300000000      21.437150000000       9.052600000000
       361    1       10.608600000000      14.291437416600       7.500006679200
       362    1        7.072400000000      20.416337416600       7.500006679200
       363    1       12.376700000000      17.353887416600       7.500006679200
       364    1        8.840500000000      23.478787416600       7.500006679200
       365    2       12.376700000000      15.312250000000       9.052600000000
       366    2        8.840500000000      21.437150000000       9.052600000000
       367    2       10.608600000000      24.499600000000       9.052600000000
       368    2        7.072400000000      18.374700000000       9.052600000000
       369    1        7.072400000000      14.291437416600       7.500006679200
       370    1       10.608600000000      20.416337416600       7.500006679200