 # Se16 V8
  
        3240  atoms
           2  atom types
 
      0.000000000000     100.420500000000  xlo xhi
      0.000000000000     104.359500000000  ylo yhi
      0.000000000000      18.173800000000  zlo zhi
 
Masses
 
            1   78.96000000             # Se
            2   50.94150000             # V
 
Atoms # atomic
 
         1    1        3.347350000000       3.865162801500      10.667602602600
         2    2        5.021025000000       2.898875000000       9.086900000000
         3    1        0.000000000000       9.662912801500      10.667602602600
         4    1        3.347350000000       1.932587198500       7.506197397400
         5    2        1.673675000000       8.696625000000       9.086900000000
         6    1        0.000000000000       7.730337198500       7.506197397400
         7    1        1.673675000000       4.831462198500       7.506197397400
         8    1        5.021025000000      10.629212198500       7.506197397400
         9    1        5.021025000000       4.831462198500       7.506197397400
        10    1        1.673675000000       0.966287801500      10.667602602600
        11    1        1.673675000000      10.629212198500       7.506197397400
        12    1        5.021025000000       6.764037801500      10.667602602600
        13    1        6.694700000000       3.865162801500      10.667602602600
        14    1        3.347350000000       9.662912801500      10.667602602600
        15    2        1.673675000000       2.898875000000       9.086900000000
        16    2        5.021025000000       8.696625000000       9.086900000000
        17    2        0.000000000000       0.000000000000       9.086900000000
        18    2        3.347350000000       5.797750000000       9.086900000000
        19    1        0.000000000000       1.932587198500       7.506197397400
        20    1        3.347350000000       7.730337198500       7.506197397400
        21    2        3.347350000000       0.000000000000       9.086900000000
        22    2        0.000000000000       5.797750000000       9.086900000000
        23    1        5.021025000000       0.966287801500      10.667602602600
        24    1        1.673675000000       6.764037801500      10.667602602600
        25    1       10.042050000000       3.865162801500      10.667602602600
        26    2       11.715725000000       2.898875000000       9.086900000000
        27    1        6.694700000000       9.662912801500      10.667602602600
        28    1       10.042050000000       1.932587198500       7.506197397400
        29    2        8.368375000000       8.696625000000       9.086900000000
        30    1        6.694700000000       7.730337198500       7.506197397400
        31    1        8.368375000000       4.831462198500       7.506197397400
        32    1       11.715725000000      10.629212198500       7.506197397400
        33    1       11.715725000000       4.831462198500       7.506197397400
        34    1        8.368375000000       0.966287801500      10.667602602600
        35    1        8.368375000000      10.629212198500       7.506197397400
        36    1       11.715725000000       6.764037801500      10.667602602600
        37    1       13.389400000000       3.865162801500      10.667602602600
        38    1       10.042050000000       9.662912801500      10.667602602600
        39    2        8.368375000000       2.898875000000       9.086900000000
        40    2       11.715725000000       8.696625000000       9.086900000000
        41    2        6.694700000000       0.000000000000       9.086900000000
        42    2       10.042050000000       5.797750000000       9.086900000000
        43    1        6.694700000000       1.932587198500       7.506197397400
        44    1       10.042050000000       7.730337198500       7.506197397400
        45    2       10.042050000000       0.000000000000       9.086900000000
        46    2        6.694700000000       5.797750000000       9.086900000000
        47    1       11.715725000000       0.966287801500      10.667602602600
        48    1        8.368375000000       6.764037801500      10.667602602600
        49    1       16.736750000000       3.865162801500      10.667602602600
        50    2       18.410425000000       2.898875000000       9.086900000000
        51    1       13.389400000000       9.662912801500      10.667602602600
        52    1       16.736750000000       1.932587198500       7.506197397400
        53    2       15.063075000000       8.696625000000       9.086900000000
        54    1       13.389400000000       7.730337198500       7.506197397400
        55    1       15.063075000000       4.831462198500       7.506197397400
        56    1       18.410425000000      10.629212198500       7.506197397400
        57    1       18.410425000000       4.831462198500       7.506197397400
        58    1       15.063075000000       0.966287801500      10.667602602600
        59    1       15.063075000000      10.629212198500       7.506197397400
        60    1       18.410425000000       6.764037801500      10.667602602600
        61    1       20.084100000000       3.865162801500      10.667602602600
        62    1       16.736750000000       9.662912801500      10.667602602600
        63    2       15.063075000000       2.898875000000       9.086900000000
        64    2       18.410425000000       8.696625000000       9.086900000000
        65    2       13.389400000000       0.000000000000       9.086900000000
        66    2       16.736750000000       5.797750000000       9.086900000000
        67    1       13.389400000000       1.932587198500       7.506197397400
        68    1       16.736750000000       7.730337198500       7.506197397400
        69    2       16.736750000000       0.000000000000       9.086900000000
        70    2       13.389400000000       5.797750000000       9.086900000000
        71    1       18.410425000000       0.966287801500      10.667602602600
        72    1       15.063075000000       6.764037801500      10.667602602600
        73    1       23.431450000000       3.865162801500      10.667602602600
        74    2       25.105125000000       2.898875000000       9.086900000000
        75    1       20.084100000000       9.662912801500      10.667602602600
        76    1       23.431450000000       1.932587198500       7.506197397400
        77    2       21.757775000000       8.696625000000       9.086900000000
        78    1       20.084100000000       7.730337198500       7.506197397400
        79    1       21.757775000000       4.831462198500       7.506197397400
        80    1       25.105125000000      10.629212198500       7.506197397400
        81    1       25.105125000000       4.831462198500       7.506197397400
        82    1       21.757775000000       0.966287801500      10.667602602600
        83    1       21.757775000000      10.629212198500       7.506197397400
        84    1       25.105125000000       6.764037801500      10.667602602600
        85    1       26.778800000000       3.865162801500      10.667602602600
        86    1       23.431450000000       9.662912801500      10.667602602600
        87    2       21.757775000000       2.898875000000       9.086900000000
        88    2       25.105125000000       8.696625000000       9.086900000000
        89    2       20.084100000000       0.000000000000       9.086900000000
        90    2       23.431450000000       5.797750000000       9.086900000000
        91    1       20.084100000000       1.932587198500       7.506197397400
        92    1       23.431450000000       7.730337198500       7.506197397400
        93    2       23.431450000000       0.000000000000       9.086900000000
        94    2       20.084100000000       5.797750000000       9.086900000000
        95    1       25.105125000000       0.966287801500      10.667602602600
        96    1       21.757775000000       6.764037801500      10.667602602600
        97    1       30.126150000000       3.865162801500      10.667602602600
        98    2       31.799825000000       2.898875000000       9.086900000000
        99    1       26.778800000000       9.662912801500      10.667602602600
       100    1       30.126150000000       1.932587198500       7.506197397400
       101    2       28.452475000000       8.696625000000       9.086900000000
       102    1       26.778800000000       7.730337198500       7.506197397400
       103    1       28.452475000000       4.831462198500       7.506197397400
       104    1       31.799825000000      10.629212198500       7.506197397400
       105    1       31.799825000000       4.831462198500       7.506197397400
       106    1       28.452475000000       0.966287801500      10.667602602600
       107    1       28.452475000000      10.629212198500       7.506197397400
       108    1       31.799825000000       6.764037801500      10.667602602600
       109    1       33.473500000000       3.865162801500      10.667602602600
       110    1       30.126150000000       9.662912801500      10.667602602600
       111    2       28.452475000000       2.898875000000       9.086900000000
       112    2       31.799825000000       8.696625000000       9.086900000000
       113    2       26.778800000000       0.000000000000       9.086900000000
       114    2       30.126150000000       5.797750000000       9.086900000000
       115    1       26.778800000000       1.932587198500       7.506197397400
       116    1       30.126150000000       7.730337198500       7.506197397400
       117    2       30.126150000000       0.000000000000       9.086900000000
       118    2       26.778800000000       5.797750000000       9.086900000000
       119    1       31.799825000000       0.966287801500      10.667602602600
       120    1       28.452475000000       6.764037801500      10.667602602600
       121    1       36.820850000000       3.865162801500      10.667602602600
       122    2       38.494525000000       2.898875000000       9.086900000000
       123    1       33.473500000000       9.662912801500      10.667602602600
       124    1       36.820850000000       1.932587198500       7.506197397400
       125    2       35.147175000000       8.696625000000       9.086900000000
       126    1       33.473500000000       7.730337198500       7.506197397400
       127    1       35.147175000000       4.831462198500       7.506197397400
       128    1       38.494525000000      10.629212198500       7.506197397400
       129    1       38.494525000000       4.831462198500       7.506197397400
       130    1       35.147175000000       0.966287801500      10.667602602600
       131    1       35.147175000000      10.629212198500       7.506197397400
       132    1       38.494525000000       6.764037801500      10.667602602600
       133    1       40.168200000000       3.865162801500      10.667602602600
       134    1       36.820850000000       9.662912801500      10.667602602600
       135    2       35.147175000000       2.898875000000       9.086900000000
       136    2       38.494525000000       8.696625000000       9.086900000000
       137    2       33.473500000000       0.000000000000       9.086900000000
       138    2       36.820850000000       5.797750000000       9.086900000000
       139    1       33.473500000000       1.932587198500       7.506197397400
       140    1       36.820850000000       7.730337198500       7.506197397400
       141    2       36.820850000000       0.000000000000       9.086900000000
       142    2       33.473500000000       5.797750000000       9.086900000000
       143    1       38.494525000000       0.966287801500      10.667602602600
       144    1       35.147175000000       6.764037801500      10.667602602600
       145    1       43.515550000000       3.865162801500      10.667602602600
       146    2       45.189225000000       2.898875000000       9.086900000000
       147    1       40.168200000000       9.662912801500      10.667602602600
       148    1       43.515550000000       1.932587198500       7.506197397400
       149    2       41.841875000000       8.696625000000       9.086900000000
       150    1       40.168200000000       7.730337198500       7.506197397400
       151    1       41.841875000000       4.831462198500       7.506197397400
       152    1       45.189225000000      10.629212198500       7.506197397400
       153    1       45.189225000000       4.831462198500       7.506197397400
       154    1       41.841875000000       0.966287801500      10.667602602600
       155    1       41.841875000000      10.629212198500       7.506197397400
       156    1       45.189225000000       6.764037801500      10.667602602600
       157    1       46.862900000000       3.865162801500      10.667602602600
       158    1       43.515550000000       9.662912801500      10.667602602600
       159    2       41.841875000000       2.898875000000       9.086900000000
       160    2       45.189225000000       8.696625000000       9.086900000000
       161    2       40.168200000000       0.000000000000       9.086900000000
       162    2       43.515550000000       5.797750000000       9.086900000000
       163    1       40.168200000000       1.932587198500       7.506197397400
       164    1       43.515550000000       7.730337198500       7.506197397400
       165    2       43.515550000000       0.000000000000       9.086900000000
       166    2       40.168200000000       5.797750000000       9.086900000000
       167    1       45.189225000000       0.966287801500      10.667602602600
       168    1       41.841875000000       6.764037801500      10.667602602600
       169    1       50.210250000000       3.865162801500      10.667602602600
       170    2       51.883925000000       2.898875000000       9.086900000000
       171    1       46.862900000000       9.662912801500      10.667602602600
       172    1       50.210250000000       1.932587198500       7.506197397400
       173    2       48.536575000000       8.696625000000       9.086900000000
       174    1       46.862900000000       7.730337198500       7.506197397400
       175    1       48.536575000000       4.831462198500       7.506197397400
       176    1       51.883925000000      10.629212198500       7.506197397400
       177    1       51.883925000000       4.831462198500       7.506197397400
       178    1       48.536575000000       0.966287801500      10.667602602600
       179    1       48.536575000000      10.629212198500       7.506197397400
       180    1       51.883925000000       6.764037801500      10.667602602600
       181    1       53.557600000000       3.865162801500      10.667602602600
       182    1       50.210250000000       9.662912801500      10.667602602600
       183    2       48.536575000000       2.898875000000       9.086900000000
       184    2       51.883925000000       8.696625000000       9.086900000000
       185    2       46.862900000000       0.000000000000       9.086900000000
       186    2       50.210250000000       5.797750000000       9.086900000000
       187    1       46.862900000000       1.932587198500       7.506197397400
       188    1       50.210250000000       7.730337198500       7.506197397400
       189    2       50.210250000000       0.000000000000       9.086900000000
       190    2       46.862900000000       5.797750000000       9.086900000000
       191    1       51.883925000000       0.966287801500      10.667602602600
       192    1       48.536575000000       6.764037801500      10.667602602600
       193    1       56.904950000000       3.865162801500      10.667602602600
       194    2       58.578625000000       2.898875000000       9.086900000000
       195    1       53.557600000000       9.662912801500      10.667602602600
       196    1       56.904950000000       1.932587198500       7.506197397400
       197    2       55.231275000000       8.696625000000       9.086900000000
       198    1       53.557600000000       7.730337198500       7.506197397400
       199    1       55.231275000000       4.831462198500       7.506197397400
       200    1       58.578625000000      10.629212198500       7.506197397400
       201    1       58.578625000000       4.831462198500       7.506197397400
       202    1       55.231275000000       0.966287801500      10.667602602600
       203    1       55.231275000000      10.629212198500       7.506197397400
       204    1       58.578625000000       6.764037801500      10.667602602600
       205    1       60.252300000000       3.865162801500      10.667602602600
       206    1       56.904950000000       9.662912801500      10.667602602600
       207    2       55.231275000000       2.898875000000       9.086900000000
       208    2       58.578625000000       8.696625000000       9.086900000000
       209    2       53.557600000000       0.000000000000       9.086900000000
       210    2       56.904950000000       5.797750000000       9.086900000000
       211    1       53.557600000000       1.932587198500       7.506197397400
       212    1       56.904950000000       7.730337198500       7.506197397400
       213    2       56.904950000000       0.000000000000       9.086900000000
       214    2       53.557600000000       5.797750000000       9.086900000000
       215    1       58.578625000000       0.966287801500      10.667602602600
       216    1       55.231275000000       6.764037801500      10.667602602600
       217    1       63.599650000000       3.865162801500      10.667602602600
       218    2       65.273325000000       2.898875000000       9.086900000000
       219    1       60.252300000000       9.662912801500      10.667602602600
       220    1       63.599650000000       1.932587198500       7.506197397400
       221    2       61.925975000000       8.696625000000       9.086900000000
       222    1       60.252300000000       7.730337198500       7.506197397400
       223    1       61.925975000000       4.831462198500       7.506197397400
       224    1       65.273325000000      10.629212198500       7.506197397400
       225    1       65.273325000000       4.831462198500       7.506197397400
       226    1       61.925975000000       0.966287801500      10.667602602600
       227    1       61.925975000000      10.629212198500       7.506197397400
       228    1       65.273325000000       6.764037801500      10.667602602600
       229    1       66.947000000000       3.865162801500      10.667602602600
       230    1       63.599650000000       9.662912801500      10.667602602600
       231    2       61.925975000000       2.898875000000       9.086900000000
       232    2       65.273325000000       8.696625000000       9.086900000000
       233    2       60.252300000000       0.000000000000       9.086900000000
       234    2       63.599650000000       5.797750000000       9.086900000000
       235    1       60.252300000000       1.932587198500       7.506197397400
       236    1       63.599650000000       7.730337198500       7.506197397400
       237    2       63.599650000000       0.000000000000       9.086900000000
       238    2       60.252300000000       5.797750000000       9.086900000000
       239    1       65.273325000000       0.966287801500      10.667602602600
       240    1       61.925975000000       6.764037801500      10.667602602600
       241    1       70.294350000000       3.865162801500      10.667602602600
       242    2       71.968025000000       2.898875000000       9.086900000000
       243    1       66.947000000000       9.662912801500      10.667602602600
       244    1       70.294350000000       1.932587198500       7.506197397400
       245    2       68.620675000000       8.696625000000       9.086900000000
       246    1       66.947000000000       7.730337198500       7.506197397400
       247    1       68.620675000000       4.831462198500       7.506197397400
       248    1       71.968025000000      10.629212198500       7.506197397400
       249    1       71.968025000000       4.831462198500       7.506197397400
       250    1       68.620675000000       0.966287801500      10.667602602600
       251    1       68.620675000000      10.629212198500       7.506197397400
       252    1       71.968025000000       6.764037801500      10.667602602600
       253    1       73.641700000000       3.865162801500      10.667602602600
       254    1       70.294350000000       9.662912801500      10.667602602600
       255    2       68.620675000000       2.898875000000       9.086900000000
       256    2       71.968025000000       8.696625000000       9.086900000000
       257    2       66.947000000000       0.000000000000       9.086900000000
       258    2       70.294350000000       5.797750000000       9.086900000000
       259    1       66.947000000000       1.932587198500       7.506197397400
       260    1       70.294350000000       7.730337198500       7.506197397400
       261    2       70.294350000000       0.000000000000       9.086900000000
       262    2       66.947000000000       5.797750000000       9.086900000000
       263    1       71.968025000000       0.966287801500      10.667602602600
       264    1       68.620675000000       6.764037801500      10.667602602600
       265    1       76.989050000000       3.865162801500      10.667602602600
       266    2       78.662725000000       2.898875000000       9.086900000000
       267    1       73.641700000000       9.662912801500      10.667602602600
       268    1       76.989050000000       1.932587198500       7.506197397400
       269    2       75.315375000000       8.696625000000       9.086900000000
       270    1       73.641700000000       7.730337198500       7.506197397400
       271    1       75.315375000000       4.831462198500       7.506197397400
       272    1       78.662725000000      10.629212198500       7.506197397400
       273    1       78.662725000000       4.831462198500       7.506197397400
       274    1       75.315375000000       0.966287801500      10.667602602600
       275    1       75.315375000000      10.629212198500       7.506197397400
       276    1       78.662725000000       6.764037801500      10.667602602600
       277    1       80.336400000000       3.865162801500      10.667602602600
       278    1       76.989050000000       9.662912801500      10.667602602600
       279    2       75.315375000000       2.898875000000       9.086900000000
       280    2       78.662725000000       8.696625000000       9.086900000000
       281    2       73.641700000000       0.000000000000       9.086900000000
       282    2       76.989050000000       5.797750000000       9.086900000000
       283    1       73.641700000000       1.932587198500       7.506197397400
       284    1       76.989050000000       7.730337198500       7.506197397400
       285    2       76.989050000000       0.000000000000       9.086900000000
       286    2       73.641700000000       5.797750000000       9.086900000000
       287    1       78.662725000000       0.966287801500      10.667602602600
       288    1       75.315375000000       6.764037801500      10.667602602600
       289    1       83.683750000000       3.865162801500      10.667602602600
       290    2       85.357425000000       2.898875000000       9.086900000000
       291    1       80.336400000000       9.662912801500      10.667602602600
       292    1       83.683750000000       1.932587198500       7.506197397400
       293    2       82.010075000000       8.696625000000       9.086900000000
       294    1       80.336400000000       7.730337198500       7.506197397400
       295    1       82.010075000000       4.831462198500       7.506197397400
       296    1       85.357425000000      10.629212198500       7.506197397400
       297    1       85.357425000000       4.831462198500       7.506197397400
       298    1       82.010075000000       0.966287801500      10.667602602600
       299    1       82.010075000000      10.629212198500       7.506197397400
       300    1       85.357425000000       6.764037801500      10.667602602600
       301    1       87.031100000000       3.865162801500      10.667602602600
       302    1       83.683750000000       9.662912801500      10.667602602600
       303    2       82.010075000000       2.898875000000       9.086900000000
       304    2       85.357425000000       8.696625000000       9.086900000000
       305    2       80.336400000000       0.000000000000       9.086900000000
       306    2       83.683750000000       5.797750000000       9.086900000000
       307    1       80.336400000000       1.932587198500       7.506197397400
       308    1       83.683750000000       7.730337198500       7.506197397400
       309    2       83.683750000000       0.000000000000       9.086900000000
       310    2       80.336400000000       5.797750000000       9.086900000000
       311    1       85.357425000000       0.966287801500      10.667602602600
       312    1       82.010075000000       6.764037801500      10.667602602600
       313    1       90.378450000000       3.865162801500      10.667602602600
       314    2       92.052125000000       2.898875000000       9.086900000000
       315    1       87.031100000000       9.662912801500      10.667602602600
       316    1       90.378450000000       1.932587198500       7.506197397400
       317    2       88.704775000000       8.696625000000       9.086900000000
       318    1       87.031100000000       7.730337198500       7.506197397400
       319    1       88.704775000000       4.831462198500       7.506197397400
       320    1       92.052125000000      10.629212198500       7.506197397400
       321    1       92.052125000000       4.831462198500       7.506197397400
       322    1       88.704775000000       0.966287801500      10.667602602600
       323    1       88.704775000000      10.629212198500       7.506197397400
       324    1       92.052125000000       6.764037801500      10.667602602600
       325    1       93.725800000000       3.865162801500      10.667602602600
       326    1       90.378450000000       9.662912801500      10.667602602600
       327    2       88.704775000000       2.898875000000       9.086900000000
       328    2       92.052125000000       8.696625000000       9.086900000000
       329    2       87.031100000000       0.000000000000       9.086900000000
       330    2       90.378450000000       5.797750000000       9.086900000000
       331    1       87.031100000000       1.932587198500       7.506197397400
       332    1       90.378450000000       7.730337198500       7.506197397400
       333    2       90.378450000000       0.000000000000       9.086900000000
       334    2       87.031100000000       5.797750000000       9.086900000000
       335    1       92.052125000000       0.966287801500      10.667602602600
       336    1       88.704775000000       6.764037801500      10.667602602600
       337    1       97.073150000000       3.865162801500      10.667602602600
       338    2       98.746825000000       2.898875000000       9.086900000000
       339    1       93.725800000000       9.662912801500      10.667602602600
       340    1       97.073150000000       1.932587198500       7.506197397400
       341    2       95.399475000000       8.696625000000       9.086900000000
       342    1       93.725800000000       7.730337198500       7.506197397400
       343    1       95.399475000000       4.831462198500       7.506197397400
       344    1       98.746825000000      10.629212198500       7.506197397400
       345    1       98.746825000000       4.831462198500       7.506197397400
       346    1       95.399475000000       0.966287801500      10.667602602600
       347    1       95.399475000000      10.629212198500       7.506197397400
       348    1       98.746825000000       6.764037801500      10.667602602600
       349    1      100.420500000000       3.865162801500      10.667602602600
       350    1       97.073150000000       9.662912801500      10.667602602600
       351    2       95.399475000000       2.898875000000       9.086900000000
       352    2       98.746825000000       8.696625000000       9.086900000000
       353    2       93.725800000000       0.000000000000       9.086900000000
       354    2       97.073150000000       5.797750000000       9.086900000000
       355    1       93.725800000000       1.932587198500       7.506197397400
       356    1       97.073150000000       7.730337198500       7.506197397400
       357    2       97.073150000000       0.000000000000       9.086900000000
       358    2       93.725800000000       5.797750000000       9.086900000000
       359    1       98.746825000000       0.966287801500      10.667602602600
       360    1       95.399475000000       6.764037801500      10.667602602600
       361    1        3.347350000000      15.460662801500      10.667602602600
       362    2        5.021025000000      14.494375000000       9.086900000000
       363    1        0.000000000000      21.258412801500      10.667602602600
       364    1        3.347350000000      13.528087198500       7.506197397400
       365    2        1.673675000000      20.292125000000       9.086900000000
       366    1        0.000000000000      19.325837198500       7.506197397400
       367    1        1.673675000000      16.426962198500       7.506197397400
       368    1        5.021025000000      22.224712198500       7.506197397400
       369    1        5.021025000000      16.426962198500       7.506197397400
       370    1        1.673675000000      12.561787801500      10.667602602600