 # V8 Te16
  
        2688  atoms
           2  atom types
 
      0.000000000000     100.795800000000  xlo xhi
      0.000000000000      99.762400000000  ylo yhi
      0.000000000000      18.492600000000  zlo zhi
 
Masses
 
            1   50.94150000             # V
            2   127.60000000            # Te
 
Atoms # atomic
 
         1    1        7.199700000000       0.000000000000       9.246300000000
         2    1        3.599850000000       6.235150000000       9.246300000000
         3    2        0.000000000000       2.078387490100       7.513802276400
         4    2        3.599850000000       8.313537490100       7.513802276400
         5    2        5.399775000000       1.039187509900      10.978797723600
         6    2        1.799925000000       7.274337509900      10.978797723600
         7    2        3.599850000000       2.078387490100       7.513802276400
         8    2        7.199700000000       8.313537490100       7.513802276400
         9    1        5.399775000000       3.117575000000       9.246300000000
        10    1        1.799925000000       9.352725000000       9.246300000000
        11    2        5.399775000000       5.195962490100       7.513802276400
        12    2        1.799925000000      11.431112490100       7.513802276400
        13    2        0.000000000000       4.156762509900      10.978797723600
        14    2        3.599850000000      10.391912509900      10.978797723600
        15    1        3.599850000000       0.000000000000       9.246300000000
        16    1        7.199700000000       6.235150000000       9.246300000000
        17    2        1.799925000000       5.195962490100       7.513802276400
        18    2        5.399775000000      11.431112490100       7.513802276400
        19    2        3.599850000000       4.156762509900      10.978797723600
        20    2        7.199700000000      10.391912509900      10.978797723600
        21    2        1.799925000000       1.039187509900      10.978797723600
        22    2        5.399775000000       7.274337509900      10.978797723600
        23    1        1.799925000000       3.117575000000       9.246300000000
        24    1        5.399775000000       9.352725000000       9.246300000000
        25    1       14.399400000000       0.000000000000       9.246300000000
        26    1       10.799550000000       6.235150000000       9.246300000000
        27    2        7.199700000000       2.078387490100       7.513802276400
        28    2       10.799550000000       8.313537490100       7.513802276400
        29    2       12.599475000000       1.039187509900      10.978797723600
        30    2        8.999625000000       7.274337509900      10.978797723600
        31    2       10.799550000000       2.078387490100       7.513802276400
        32    2       14.399400000000       8.313537490100       7.513802276400
        33    1       12.599475000000       3.117575000000       9.246300000000
        34    1        8.999625000000       9.352725000000       9.246300000000
        35    2       12.599475000000       5.195962490100       7.513802276400
        36    2        8.999625000000      11.431112490100       7.513802276400
        37    2        7.199700000000       4.156762509900      10.978797723600
        38    2       10.799550000000      10.391912509900      10.978797723600
        39    1       10.799550000000       0.000000000000       9.246300000000
        40    1       14.399400000000       6.235150000000       9.246300000000
        41    2        8.999625000000       5.195962490100       7.513802276400
        42    2       12.599475000000      11.431112490100       7.513802276400
        43    2       10.799550000000       4.156762509900      10.978797723600
        44    2       14.399400000000      10.391912509900      10.978797723600
        45    2        8.999625000000       1.039187509900      10.978797723600
        46    2       12.599475000000       7.274337509900      10.978797723600
        47    1        8.999625000000       3.117575000000       9.246300000000
        48    1       12.599475000000       9.352725000000       9.246300000000
        49    1       21.599100000000       0.000000000000       9.246300000000
        50    1       17.999250000000       6.235150000000       9.246300000000
        51    2       14.399400000000       2.078387490100       7.513802276400
        52    2       17.999250000000       8.313537490100       7.513802276400
        53    2       19.799175000000       1.039187509900      10.978797723600
        54    2       16.199325000000       7.274337509900      10.978797723600
        55    2       17.999250000000       2.078387490100       7.513802276400
        56    2       21.599100000000       8.313537490100       7.513802276400
        57    1       19.799175000000       3.117575000000       9.246300000000
        58    1       16.199325000000       9.352725000000       9.246300000000
        59    2       19.799175000000       5.195962490100       7.513802276400
        60    2       16.199325000000      11.431112490100       7.513802276400
        61    2       14.399400000000       4.156762509900      10.978797723600
        62    2       17.999250000000      10.391912509900      10.978797723600
        63    1       17.999250000000       0.000000000000       9.246300000000
        64    1       21.599100000000       6.235150000000       9.246300000000
        65    2       16.199325000000       5.195962490100       7.513802276400
        66    2       19.799175000000      11.431112490100       7.513802276400
        67    2       17.999250000000       4.156762509900      10.978797723600
        68    2       21.599100000000      10.391912509900      10.978797723600
        69    2       16.199325000000       1.039187509900      10.978797723600
        70    2       19.799175000000       7.274337509900      10.978797723600
        71    1       16.199325000000       3.117575000000       9.246300000000
        72    1       19.799175000000       9.352725000000       9.246300000000
        73    1       28.798800000000       0.000000000000       9.246300000000
        74    1       25.198950000000       6.235150000000       9.246300000000
        75    2       21.599100000000       2.078387490100       7.513802276400
        76    2       25.198950000000       8.313537490100       7.513802276400
        77    2       26.998875000000       1.039187509900      10.978797723600
        78    2       23.399025000000       7.274337509900      10.978797723600
        79    2       25.198950000000       2.078387490100       7.513802276400
        80    2       28.798800000000       8.313537490100       7.513802276400
        81    1       26.998875000000       3.117575000000       9.246300000000
        82    1       23.399025000000       9.352725000000       9.246300000000
        83    2       26.998875000000       5.195962490100       7.513802276400
        84    2       23.399025000000      11.431112490100       7.513802276400
        85    2       21.599100000000       4.156762509900      10.978797723600
        86    2       25.198950000000      10.391912509900      10.978797723600
        87    1       25.198950000000       0.000000000000       9.246300000000
        88    1       28.798800000000       6.235150000000       9.246300000000
        89    2       23.399025000000       5.195962490100       7.513802276400
        90    2       26.998875000000      11.431112490100       7.513802276400
        91    2       25.198950000000       4.156762509900      10.978797723600
        92    2       28.798800000000      10.391912509900      10.978797723600
        93    2       23.399025000000       1.039187509900      10.978797723600
        94    2       26.998875000000       7.274337509900      10.978797723600
        95    1       23.399025000000       3.117575000000       9.246300000000
        96    1       26.998875000000       9.352725000000       9.246300000000
        97    1       35.998500000000       0.000000000000       9.246300000000
        98    1       32.398650000000       6.235150000000       9.246300000000
        99    2       28.798800000000       2.078387490100       7.513802276400
       100    2       32.398650000000       8.313537490100       7.513802276400
       101    2       34.198575000000       1.039187509900      10.978797723600
       102    2       30.598725000000       7.274337509900      10.978797723600
       103    2       32.398650000000       2.078387490100       7.513802276400
       104    2       35.998500000000       8.313537490100       7.513802276400
       105    1       34.198575000000       3.117575000000       9.246300000000
       106    1       30.598725000000       9.352725000000       9.246300000000
       107    2       34.198575000000       5.195962490100       7.513802276400
       108    2       30.598725000000      11.431112490100       7.513802276400
       109    2       28.798800000000       4.156762509900      10.978797723600
       110    2       32.398650000000      10.391912509900      10.978797723600
       111    1       32.398650000000       0.000000000000       9.246300000000
       112    1       35.998500000000       6.235150000000       9.246300000000
       113    2       30.598725000000       5.195962490100       7.513802276400
       114    2       34.198575000000      11.431112490100       7.513802276400
       115    2       32.398650000000       4.156762509900      10.978797723600
       116    2       35.998500000000      10.391912509900      10.978797723600
       117    2       30.598725000000       1.039187509900      10.978797723600
       118    2       34.198575000000       7.274337509900      10.978797723600
       119    1       30.598725000000       3.117575000000       9.246300000000
       120    1       34.198575000000       9.352725000000       9.246300000000
       121    1       43.198200000000       0.000000000000       9.246300000000
       122    1       39.598350000000       6.235150000000       9.246300000000
       123    2       35.998500000000       2.078387490100       7.513802276400
       124    2       39.598350000000       8.313537490100       7.513802276400
       125    2       41.398275000000       1.039187509900      10.978797723600
       126    2       37.798425000000       7.274337509900      10.978797723600
       127    2       39.598350000000       2.078387490100       7.513802276400
       128    2       43.198200000000       8.313537490100       7.513802276400
       129    1       41.398275000000       3.117575000000       9.246300000000
       130    1       37.798425000000       9.352725000000       9.246300000000
       131    2       41.398275000000       5.195962490100       7.513802276400
       132    2       37.798425000000      11.431112490100       7.513802276400
       133    2       35.998500000000       4.156762509900      10.978797723600
       134    2       39.598350000000      10.391912509900      10.978797723600
       135    1       39.598350000000       0.000000000000       9.246300000000
       136    1       43.198200000000       6.235150000000       9.246300000000
       137    2       37.798425000000       5.195962490100       7.513802276400
       138    2       41.398275000000      11.431112490100       7.513802276400
       139    2       39.598350000000       4.156762509900      10.978797723600
       140    2       43.198200000000      10.391912509900      10.978797723600
       141    2       37.798425000000       1.039187509900      10.978797723600
       142    2       41.398275000000       7.274337509900      10.978797723600
       143    1       37.798425000000       3.117575000000       9.246300000000
       144    1       41.398275000000       9.352725000000       9.246300000000
       145    1       50.397900000000       0.000000000000       9.246300000000
       146    1       46.798050000000       6.235150000000       9.246300000000
       147    2       43.198200000000       2.078387490100       7.513802276400
       148    2       46.798050000000       8.313537490100       7.513802276400
       149    2       48.597975000000       1.039187509900      10.978797723600
       150    2       44.998125000000       7.274337509900      10.978797723600
       151    2       46.798050000000       2.078387490100       7.513802276400
       152    2       50.397900000000       8.313537490100       7.513802276400
       153    1       48.597975000000       3.117575000000       9.246300000000
       154    1       44.998125000000       9.352725000000       9.246300000000
       155    2       48.597975000000       5.195962490100       7.513802276400
       156    2       44.998125000000      11.431112490100       7.513802276400
       157    2       43.198200000000       4.156762509900      10.978797723600
       158    2       46.798050000000      10.391912509900      10.978797723600
       159    1       46.798050000000       0.000000000000       9.246300000000
       160    1       50.397900000000       6.235150000000       9.246300000000
       161    2       44.998125000000       5.195962490100       7.513802276400
       162    2       48.597975000000      11.431112490100       7.513802276400
       163    2       46.798050000000       4.156762509900      10.978797723600
       164    2       50.397900000000      10.391912509900      10.978797723600
       165    2       44.998125000000       1.039187509900      10.978797723600
       166    2       48.597975000000       7.274337509900      10.978797723600
       167    1       44.998125000000       3.117575000000       9.246300000000
       168    1       48.597975000000       9.352725000000       9.246300000000
       169    1       57.597600000000       0.000000000000       9.246300000000
       170    1       53.997750000000       6.235150000000       9.246300000000
       171    2       50.397900000000       2.078387490100       7.513802276400
       172    2       53.997750000000       8.313537490100       7.513802276400
       173    2       55.797675000000       1.039187509900      10.978797723600
       174    2       52.197825000000       7.274337509900      10.978797723600
       175    2       53.997750000000       2.078387490100       7.513802276400
       176    2       57.597600000000       8.313537490100       7.513802276400
       177    1       55.797675000000       3.117575000000       9.246300000000
       178    1       52.197825000000       9.352725000000       9.246300000000
       179    2       55.797675000000       5.195962490100       7.513802276400
       180    2       52.197825000000      11.431112490100       7.513802276400
       181    2       50.397900000000       4.156762509900      10.978797723600
       182    2       53.997750000000      10.391912509900      10.978797723600
       183    1       53.997750000000       0.000000000000       9.246300000000
       184    1       57.597600000000       6.235150000000       9.246300000000
       185    2       52.197825000000       5.195962490100       7.513802276400
       186    2       55.797675000000      11.431112490100       7.513802276400
       187    2       53.997750000000       4.156762509900      10.978797723600
       188    2       57.597600000000      10.391912509900      10.978797723600
       189    2       52.197825000000       1.039187509900      10.978797723600
       190    2       55.797675000000       7.274337509900      10.978797723600
       191    1       52.197825000000       3.117575000000       9.246300000000
       192    1       55.797675000000       9.352725000000       9.246300000000
       193    1       64.797300000000       0.000000000000       9.246300000000
       194    1       61.197450000000       6.235150000000       9.246300000000
       195    2       57.597600000000       2.078387490100       7.513802276400
       196    2       61.197450000000       8.313537490100       7.513802276400
       197    2       62.997375000000       1.039187509900      10.978797723600
       198    2       59.397525000000       7.274337509900      10.978797723600
       199    2       61.197450000000       2.078387490100       7.513802276400
       200    2       64.797300000000       8.313537490100       7.513802276400
       201    1       62.997375000000       3.117575000000       9.246300000000
       202    1       59.397525000000       9.352725000000       9.246300000000
       203    2       62.997375000000       5.195962490100       7.513802276400
       204    2       59.397525000000      11.431112490100       7.513802276400
       205    2       57.597600000000       4.156762509900      10.978797723600
       206    2       61.197450000000      10.391912509900      10.978797723600
       207    1       61.197450000000       0.000000000000       9.246300000000
       208    1       64.797300000000       6.235150000000       9.246300000000
       209    2       59.397525000000       5.195962490100       7.513802276400
       210    2       62.997375000000      11.431112490100       7.513802276400
       211    2       61.197450000000       4.156762509900      10.978797723600
       212    2       64.797300000000      10.391912509900      10.978797723600
       213    2       59.397525000000       1.039187509900      10.978797723600
       214    2       62.997375000000       7.274337509900      10.978797723600
       215    1       59.397525000000       3.117575000000       9.246300000000
       216    1       62.997375000000       9.352725000000       9.246300000000
       217    1       71.997000000000       0.000000000000       9.246300000000
       218    1       68.397150000000       6.235150000000       9.246300000000
       219    2       64.797300000000       2.078387490100       7.513802276400
       220    2       68.397150000000       8.313537490100       7.513802276400
       221    2       70.197075000000       1.039187509900      10.978797723600
       222    2       66.597225000000       7.274337509900      10.978797723600
       223    2       68.397150000000       2.078387490100       7.513802276400
       224    2       71.997000000000       8.313537490100       7.513802276400
       225    1       70.197075000000       3.117575000000       9.246300000000
       226    1       66.597225000000       9.352725000000       9.246300000000
       227    2       70.197075000000       5.195962490100       7.513802276400
       228    2       66.597225000000      11.431112490100       7.513802276400
       229    2       64.797300000000       4.156762509900      10.978797723600
       230    2       68.397150000000      10.391912509900      10.978797723600
       231    1       68.397150000000       0.000000000000       9.246300000000
       232    1       71.997000000000       6.235150000000       9.246300000000
       233    2       66.597225000000       5.195962490100       7.513802276400
       234    2       70.197075000000      11.431112490100       7.513802276400
       235    2       68.397150000000       4.156762509900      10.978797723600
       236    2       71.997000000000      10.391912509900      10.978797723600
       237    2       66.597225000000       1.039187509900      10.978797723600
       238    2       70.197075000000       7.274337509900      10.978797723600
       239    1       66.597225000000       3.117575000000       9.246300000000
       240    1       70.197075000000       9.352725000000       9.246300000000
       241    1       79.196700000000       0.000000000000       9.246300000000
       242    1       75.596850000000       6.235150000000       9.246300000000
       243    2       71.997000000000       2.078387490100       7.513802276400
       244    2       75.596850000000       8.313537490100       7.513802276400
       245    2       77.396775000000       1.039187509900      10.978797723600
       246    2       73.796925000000       7.274337509900      10.978797723600
       247    2       75.596850000000       2.078387490100       7.513802276400
       248    2       79.196700000000       8.313537490100       7.513802276400
       249    1       77.396775000000       3.117575000000       9.246300000000
       250    1       73.796925000000       9.352725000000       9.246300000000
       251    2       77.396775000000       5.195962490100       7.513802276400
       252    2       73.796925000000      11.431112490100       7.513802276400
       253    2       71.997000000000       4.156762509900      10.978797723600
       254    2       75.596850000000      10.391912509900      10.978797723600
       255    1       75.596850000000       0.000000000000       9.246300000000
       256    1       79.196700000000       6.235150000000       9.246300000000
       257    2       73.796925000000       5.195962490100       7.513802276400
       258    2       77.396775000000      11.431112490100       7.513802276400
       259    2       75.596850000000       4.156762509900      10.978797723600
       260    2       79.196700000000      10.391912509900      10.978797723600
       261    2       73.796925000000       1.039187509900      10.978797723600
       262    2       77.396775000000       7.274337509900      10.978797723600
       263    1       73.796925000000       3.117575000000       9.246300000000
       264    1       77.396775000000       9.352725000000       9.246300000000
       265    1       86.396400000000       0.000000000000       9.246300000000
       266    1       82.796550000000       6.235150000000       9.246300000000
       267    2       79.196700000000       2.078387490100       7.513802276400
       268    2       82.796550000000       8.313537490100       7.513802276400
       269    2       84.596475000000       1.039187509900      10.978797723600
       270    2       80.996625000000       7.274337509900      10.978797723600
       271    2       82.796550000000       2.078387490100       7.513802276400
       272    2       86.396400000000       8.313537490100       7.513802276400
       273    1       84.596475000000       3.117575000000       9.246300000000
       274    1       80.996625000000       9.352725000000       9.246300000000
       275    2       84.596475000000       5.195962490100       7.513802276400
       276    2       80.996625000000      11.431112490100       7.513802276400
       277    2       79.196700000000       4.156762509900      10.978797723600
       278    2       82.796550000000      10.391912509900      10.978797723600
       279    1       82.796550000000       0.000000000000       9.246300000000
       280    1       86.396400000000       6.235150000000       9.246300000000
       281    2       80.996625000000       5.195962490100       7.513802276400
       282    2       84.596475000000      11.431112490100       7.513802276400
       283    2       82.796550000000       4.156762509900      10.978797723600
       284    2       86.396400000000      10.391912509900      10.978797723600
       285    2       80.996625000000       1.039187509900      10.978797723600
       286    2       84.596475000000       7.274337509900      10.978797723600
       287    1       80.996625000000       3.117575000000       9.246300000000
       288    1       84.596475000000       9.352725000000       9.246300000000
       289    1       93.596100000000       0.000000000000       9.246300000000
       290    1       89.996250000000       6.235150000000       9.246300000000
       291    2       86.396400000000       2.078387490100       7.513802276400
       292    2       89.996250000000       8.313537490100       7.513802276400
       293    2       91.796175000000       1.039187509900      10.978797723600
       294    2       88.196325000000       7.274337509900      10.978797723600
       295    2       89.996250000000       2.078387490100       7.513802276400
       296    2       93.596100000000       8.313537490100       7.513802276400
       297    1       91.796175000000       3.117575000000       9.246300000000
       298    1       88.196325000000       9.352725000000       9.246300000000
       299    2       91.796175000000       5.195962490100       7.513802276400
       300    2       88.196325000000      11.431112490100       7.513802276400
       301    2       86.396400000000       4.156762509900      10.978797723600
       302    2       89.996250000000      10.391912509900      10.978797723600
       303    1       89.996250000000       0.000000000000       9.246300000000
       304    1       93.596100000000       6.235150000000       9.246300000000
       305    2       88.196325000000       5.195962490100       7.513802276400
       306    2       91.796175000000      11.431112490100       7.513802276400
       307    2       89.996250000000       4.156762509900      10.978797723600
       308    2       93.596100000000      10.391912509900      10.978797723600
       309    2       88.196325000000       1.039187509900      10.978797723600
       310    2       91.796175000000       7.274337509900      10.978797723600
       311    1       88.196325000000       3.117575000000       9.246300000000
       312    1       91.796175000000       9.352725000000       9.246300000000
       313    1      100.795800000000       0.000000000000       9.246300000000
       314    1       97.195950000000       6.235150000000       9.246300000000
       315    2       93.596100000000       2.078387490100       7.513802276400
       316    2       97.195950000000       8.313537490100       7.513802276400
       317    2       98.995875000000       1.039187509900      10.978797723600
       318    2       95.396025000000       7.274337509900      10.978797723600
       319    2       97.195950000000       2.078387490100       7.513802276400
       320    2      100.795800000000       8.313537490100       7.513802276400
       321    1       98.995875000000       3.117575000000       9.246300000000
       322    1       95.396025000000       9.352725000000       9.246300000000
       323    2       98.995875000000       5.195962490100       7.513802276400
       324    2       95.396025000000      11.431112490100       7.513802276400
       325    2       93.596100000000       4.156762509900      10.978797723600
       326    2       97.195950000000      10.391912509900      10.978797723600
       327    1       97.195950000000       0.000000000000       9.246300000000
       328    1      100.795800000000       6.235150000000       9.246300000000
       329    2       95.396025000000       5.195962490100       7.513802276400
       330    2       98.995875000000      11.431112490100       7.513802276400
       331    2       97.195950000000       4.156762509900      10.978797723600
       332    2      100.795800000000      10.391912509900      10.978797723600
       333    2       95.396025000000       1.039187509900      10.978797723600
       334    2       98.995875000000       7.274337509900      10.978797723600
       335    1       95.396025000000       3.117575000000       9.246300000000
       336    1       98.995875000000       9.352725000000       9.246300000000
       337    1        7.199700000000      12.470300000000       9.246300000000
       338    1        3.599850000000      18.705450000000       9.246300000000
       339    2        0.000000000000      14.548687490100       7.513802276400
       340    2        3.599850000000      20.783837490100       7.513802276400
       341    2        5.399775000000      13.509487509900      10.978797723600
       342    2        1.799925000000      19.744637509900      10.978797723600
       343    2        3.599850000000      14.548687490100       7.513802276400
       344    2        7.199700000000      20.783837490100       7.513802276400
       345    1        5.399775000000      15.587875000000       9.246300000000
       346    1        1.799925000000      21.823025000000       9.246300000000
       347    2        5.399775000000      17.666262490100       7.513802276400
       348    2        1.799925000000      23.901412490100       7.513802276400
       349    2        0.000000000000      16.627062509900      10.978797723600
       350    2        3.599850000000      22.862212509900      10.978797723600
       351    1        3.599850000000      12.470300000000       9.246300000000
       352    1        7.199700000000      18.705450000000       9.246300000000
       353    2        1.799925000000      17.666262490100       7.513802276400
       354    2        5.399775000000      23.901412490100       7.513802276400
       355    2        3.599850000000      16.627062509900      10.978797723600
       356    2        7.199700000000      22.862212509900      10.978797723600
       357    2        1.799925000000      13.509487509900      10.978797723600
       358    2        5.399775000000      19.744637509900      10.978797723600
       359    1        1.799925000000      15.587875000000       9.246300000000
       360    1        5.399775000000      21.823025000000       9.246300000000
       361    1       14.399400000000      12.470300000000       9.246300000000
       362    1       10.799550000000      18.705450000000       9.246300000000
       363    2        7.199700000000      14.548687490100       7.513802276400
       364    2       10.799550000000      20.783837490100       7.513802276400
       365    2       12.599475000000      13.509487509900      10.978797723600
       366    2        8.999625000000      19.744637509900      10.978797723600
       367    2       10.799550000000      14.548687490100       7.513802276400
       368    2       14.399400000000      20.783837490100       7.513802276400
       369    1       12.599475000000      15.587875000000       9.246300000000
       370    1        8.999625000000      21.823025000000       9.246300000000