 # Zr8 Te16
  
        2184  atoms
           2  atom types
 
      0.000000000000     103.170600000000  xlo xhi
      0.000000000000      96.221300000000  ylo yhi
      0.000000000000      18.595100000000  zlo zhi
 
Masses
 
            1   91.22400000             # Zr
            2   127.60000000            # Te
 
Atoms # atomic
 
         1    1        7.936200000000       0.000000000000       9.297550000000
         2    1        3.968100000000       6.872950000000       9.297550000000
         3    2        7.936200000000       4.581962084700      11.095082531700
         4    2        3.968100000000       4.581962084700      11.095082531700
         5    2        1.984050000000       5.727462915300       7.500017468300
         6    1        1.984050000000       3.436475000000       9.297550000000
         7    2        3.968100000000      11.454912084700      11.095082531700
         8    2        7.936200000000      11.454912084700      11.095082531700
         9    1        5.952150000000      10.309425000000       9.297550000000
        10    2        5.952150000000      12.600412915300       7.500017468300
        11    2        1.984050000000       1.145487084700      11.095082531700
        12    2        5.952150000000       8.018437084700      11.095082531700
        13    2        5.952150000000       1.145487084700      11.095082531700
        14    2        1.984050000000       8.018437084700      11.095082531700
        15    1        3.968100000000       0.000000000000       9.297550000000
        16    1        7.936200000000       6.872950000000       9.297550000000
        17    2        3.968100000000       2.290987915300       7.500017468300
        18    2        7.936200000000       9.163937915300       7.500017468300
        19    2        7.936200000000       2.290987915300       7.500017468300
        20    2        3.968100000000       9.163937915300       7.500017468300
        21    1        5.952150000000       3.436475000000       9.297550000000
        22    1        1.984050000000      10.309425000000       9.297550000000
        23    2        5.952150000000       5.727462915300       7.500017468300
        24    2        1.984050000000      12.600412915300       7.500017468300
        25    1       15.872400000000       0.000000000000       9.297550000000
        26    1       11.904300000000       6.872950000000       9.297550000000
        27    2       15.872400000000       4.581962084700      11.095082531700
        28    2       11.904300000000       4.581962084700      11.095082531700
        29    2        9.920250000000       5.727462915300       7.500017468300
        30    1        9.920250000000       3.436475000000       9.297550000000
        31    2       11.904300000000      11.454912084700      11.095082531700
        32    2       15.872400000000      11.454912084700      11.095082531700
        33    1       13.888350000000      10.309425000000       9.297550000000
        34    2       13.888350000000      12.600412915300       7.500017468300
        35    2        9.920250000000       1.145487084700      11.095082531700
        36    2       13.888350000000       8.018437084700      11.095082531700
        37    2       13.888350000000       1.145487084700      11.095082531700
        38    2        9.920250000000       8.018437084700      11.095082531700
        39    1       11.904300000000       0.000000000000       9.297550000000
        40    1       15.872400000000       6.872950000000       9.297550000000
        41    2       11.904300000000       2.290987915300       7.500017468300
        42    2       15.872400000000       9.163937915300       7.500017468300
        43    2       15.872400000000       2.290987915300       7.500017468300
        44    2       11.904300000000       9.163937915300       7.500017468300
        45    1       13.888350000000       3.436475000000       9.297550000000
        46    1        9.920250000000      10.309425000000       9.297550000000
        47    2       13.888350000000       5.727462915300       7.500017468300
        48    2        9.920250000000      12.600412915300       7.500017468300
        49    1       23.808600000000       0.000000000000       9.297550000000
        50    1       19.840500000000       6.872950000000       9.297550000000
        51    2       23.808600000000       4.581962084700      11.095082531700
        52    2       19.840500000000       4.581962084700      11.095082531700
        53    2       17.856450000000       5.727462915300       7.500017468300
        54    1       17.856450000000       3.436475000000       9.297550000000
        55    2       19.840500000000      11.454912084700      11.095082531700
        56    2       23.808600000000      11.454912084700      11.095082531700
        57    1       21.824550000000      10.309425000000       9.297550000000
        58    2       21.824550000000      12.600412915300       7.500017468300
        59    2       17.856450000000       1.145487084700      11.095082531700
        60    2       21.824550000000       8.018437084700      11.095082531700
        61    2       21.824550000000       1.145487084700      11.095082531700
        62    2       17.856450000000       8.018437084700      11.095082531700
        63    1       19.840500000000       0.000000000000       9.297550000000
        64    1       23.808600000000       6.872950000000       9.297550000000
        65    2       19.840500000000       2.290987915300       7.500017468300
        66    2       23.808600000000       9.163937915300       7.500017468300
        67    2       23.808600000000       2.290987915300       7.500017468300
        68    2       19.840500000000       9.163937915300       7.500017468300
        69    1       21.824550000000       3.436475000000       9.297550000000
        70    1       17.856450000000      10.309425000000       9.297550000000
        71    2       21.824550000000       5.727462915300       7.500017468300
        72    2       17.856450000000      12.600412915300       7.500017468300
        73    1       31.744800000000       0.000000000000       9.297550000000
        74    1       27.776700000000       6.872950000000       9.297550000000
        75    2       31.744800000000       4.581962084700      11.095082531700
        76    2       27.776700000000       4.581962084700      11.095082531700
        77    2       25.792650000000       5.727462915300       7.500017468300
        78    1       25.792650000000       3.436475000000       9.297550000000
        79    2       27.776700000000      11.454912084700      11.095082531700
        80    2       31.744800000000      11.454912084700      11.095082531700
        81    1       29.760750000000      10.309425000000       9.297550000000
        82    2       29.760750000000      12.600412915300       7.500017468300
        83    2       25.792650000000       1.145487084700      11.095082531700
        84    2       29.760750000000       8.018437084700      11.095082531700
        85    2       29.760750000000       1.145487084700      11.095082531700
        86    2       25.792650000000       8.018437084700      11.095082531700
        87    1       27.776700000000       0.000000000000       9.297550000000
        88    1       31.744800000000       6.872950000000       9.297550000000
        89    2       27.776700000000       2.290987915300       7.500017468300
        90    2       31.744800000000       9.163937915300       7.500017468300
        91    2       31.744800000000       2.290987915300       7.500017468300
        92    2       27.776700000000       9.163937915300       7.500017468300
        93    1       29.760750000000       3.436475000000       9.297550000000
        94    1       25.792650000000      10.309425000000       9.297550000000
        95    2       29.760750000000       5.727462915300       7.500017468300
        96    2       25.792650000000      12.600412915300       7.500017468300
        97    1       39.681000000000       0.000000000000       9.297550000000
        98    1       35.712900000000       6.872950000000       9.297550000000
        99    2       39.681000000000       4.581962084700      11.095082531700
       100    2       35.712900000000       4.581962084700      11.095082531700
       101    2       33.728850000000       5.727462915300       7.500017468300
       102    1       33.728850000000       3.436475000000       9.297550000000
       103    2       35.712900000000      11.454912084700      11.095082531700
       104    2       39.681000000000      11.454912084700      11.095082531700
       105    1       37.696950000000      10.309425000000       9.297550000000
       106    2       37.696950000000      12.600412915300       7.500017468300
       107    2       33.728850000000       1.145487084700      11.095082531700
       108    2       37.696950000000       8.018437084700      11.095082531700
       109    2       37.696950000000       1.145487084700      11.095082531700
       110    2       33.728850000000       8.018437084700      11.095082531700
       111    1       35.712900000000       0.000000000000       9.297550000000
       112    1       39.681000000000       6.872950000000       9.297550000000
       113    2       35.712900000000       2.290987915300       7.500017468300
       114    2       39.681000000000       9.163937915300       7.500017468300
       115    2       39.681000000000       2.290987915300       7.500017468300
       116    2       35.712900000000       9.163937915300       7.500017468300
       117    1       37.696950000000       3.436475000000       9.297550000000
       118    1       33.728850000000      10.309425000000       9.297550000000
       119    2       37.696950000000       5.727462915300       7.500017468300
       120    2       33.728850000000      12.600412915300       7.500017468300
       121    1       47.617200000000       0.000000000000       9.297550000000
       122    1       43.649100000000       6.872950000000       9.297550000000
       123    2       47.617200000000       4.581962084700      11.095082531700
       124    2       43.649100000000       4.581962084700      11.095082531700
       125    2       41.665050000000       5.727462915300       7.500017468300
       126    1       41.665050000000       3.436475000000       9.297550000000
       127    2       43.649100000000      11.454912084700      11.095082531700
       128    2       47.617200000000      11.454912084700      11.095082531700
       129    1       45.633150000000      10.309425000000       9.297550000000
       130    2       45.633150000000      12.600412915300       7.500017468300
       131    2       41.665050000000       1.145487084700      11.095082531700
       132    2       45.633150000000       8.018437084700      11.095082531700
       133    2       45.633150000000       1.145487084700      11.095082531700
       134    2       41.665050000000       8.018437084700      11.095082531700
       135    1       43.649100000000       0.000000000000       9.297550000000
       136    1       47.617200000000       6.872950000000       9.297550000000
       137    2       43.649100000000       2.290987915300       7.500017468300
       138    2       47.617200000000       9.163937915300       7.500017468300
       139    2       47.617200000000       2.290987915300       7.500017468300
       140    2       43.649100000000       9.163937915300       7.500017468300
       141    1       45.633150000000       3.436475000000       9.297550000000
       142    1       41.665050000000      10.309425000000       9.297550000000
       143    2       45.633150000000       5.727462915300       7.500017468300
       144    2       41.665050000000      12.600412915300       7.500017468300
       145    1       55.553400000000       0.000000000000       9.297550000000
       146    1       51.585300000000       6.872950000000       9.297550000000
       147    2       55.553400000000       4.581962084700      11.095082531700
       148    2       51.585300000000       4.581962084700      11.095082531700
       149    2       49.601250000000       5.727462915300       7.500017468300
       150    1       49.601250000000       3.436475000000       9.297550000000
       151    2       51.585300000000      11.454912084700      11.095082531700
       152    2       55.553400000000      11.454912084700      11.095082531700
       153    1       53.569350000000      10.309425000000       9.297550000000
       154    2       53.569350000000      12.600412915300       7.500017468300
       155    2       49.601250000000       1.145487084700      11.095082531700
       156    2       53.569350000000       8.018437084700      11.095082531700
       157    2       53.569350000000       1.145487084700      11.095082531700
       158    2       49.601250000000       8.018437084700      11.095082531700
       159    1       51.585300000000       0.000000000000       9.297550000000
       160    1       55.553400000000       6.872950000000       9.297550000000
       161    2       51.585300000000       2.290987915300       7.500017468300
       162    2       55.553400000000       9.163937915300       7.500017468300
       163    2       55.553400000000       2.290987915300       7.500017468300
       164    2       51.585300000000       9.163937915300       7.500017468300
       165    1       53.569350000000       3.436475000000       9.297550000000
       166    1       49.601250000000      10.309425000000       9.297550000000
       167    2       53.569350000000       5.727462915300       7.500017468300
       168    2       49.601250000000      12.600412915300       7.500017468300
       169    1       63.489600000000       0.000000000000       9.297550000000
       170    1       59.521500000000       6.872950000000       9.297550000000
       171    2       63.489600000000       4.581962084700      11.095082531700
       172    2       59.521500000000       4.581962084700      11.095082531700
       173    2       57.537450000000       5.727462915300       7.500017468300
       174    1       57.537450000000       3.436475000000       9.297550000000
       175    2       59.521500000000      11.454912084700      11.095082531700
       176    2       63.489600000000      11.454912084700      11.095082531700
       177    1       61.505550000000      10.309425000000       9.297550000000
       178    2       61.505550000000      12.600412915300       7.500017468300
       179    2       57.537450000000       1.145487084700      11.095082531700
       180    2       61.505550000000       8.018437084700      11.095082531700
       181    2       61.505550000000       1.145487084700      11.095082531700
       182    2       57.537450000000       8.018437084700      11.095082531700
       183    1       59.521500000000       0.000000000000       9.297550000000
       184    1       63.489600000000       6.872950000000       9.297550000000
       185    2       59.521500000000       2.290987915300       7.500017468300
       186    2       63.489600000000       9.163937915300       7.500017468300
       187    2       63.489600000000       2.290987915300       7.500017468300
       188    2       59.521500000000       9.163937915300       7.500017468300
       189    1       61.505550000000       3.436475000000       9.297550000000
       190    1       57.537450000000      10.309425000000       9.297550000000
       191    2       61.505550000000       5.727462915300       7.500017468300
       192    2       57.537450000000      12.600412915300       7.500017468300
       193    1       71.425800000000       0.000000000000       9.297550000000
       194    1       67.457700000000       6.872950000000       9.297550000000
       195    2       71.425800000000       4.581962084700      11.095082531700
       196    2       67.457700000000       4.581962084700      11.095082531700
       197    2       65.473650000000       5.727462915300       7.500017468300
       198    1       65.473650000000       3.436475000000       9.297550000000
       199    2       67.457700000000      11.454912084700      11.095082531700
       200    2       71.425800000000      11.454912084700      11.095082531700
       201    1       69.441750000000      10.309425000000       9.297550000000
       202    2       69.441750000000      12.600412915300       7.500017468300
       203    2       65.473650000000       1.145487084700      11.095082531700
       204    2       69.441750000000       8.018437084700      11.095082531700
       205    2       69.441750000000       1.145487084700      11.095082531700
       206    2       65.473650000000       8.018437084700      11.095082531700
       207    1       67.457700000000       0.000000000000       9.297550000000
       208    1       71.425800000000       6.872950000000       9.297550000000
       209    2       67.457700000000       2.290987915300       7.500017468300
       210    2       71.425800000000       9.163937915300       7.500017468300
       211    2       71.425800000000       2.290987915300       7.500017468300
       212    2       67.457700000000       9.163937915300       7.500017468300
       213    1       69.441750000000       3.436475000000       9.297550000000
       214    1       65.473650000000      10.309425000000       9.297550000000
       215    2       69.441750000000       5.727462915300       7.500017468300
       216    2       65.473650000000      12.600412915300       7.500017468300
       217    1       79.362000000000       0.000000000000       9.297550000000
       218    1       75.393900000000       6.872950000000       9.297550000000
       219    2       79.362000000000       4.581962084700      11.095082531700
       220    2       75.393900000000       4.581962084700      11.095082531700
       221    2       73.409850000000       5.727462915300       7.500017468300
       222    1       73.409850000000       3.436475000000       9.297550000000
       223    2       75.393900000000      11.454912084700      11.095082531700
       224    2       79.362000000000      11.454912084700      11.095082531700
       225    1       77.377950000000      10.309425000000       9.297550000000
       226    2       77.377950000000      12.600412915300       7.500017468300
       227    2       73.409850000000       1.145487084700      11.095082531700
       228    2       77.377950000000       8.018437084700      11.095082531700
       229    2       77.377950000000       1.145487084700      11.095082531700
       230    2       73.409850000000       8.018437084700      11.095082531700
       231    1       75.393900000000       0.000000000000       9.297550000000
       232    1       79.362000000000       6.872950000000       9.297550000000
       233    2       75.393900000000       2.290987915300       7.500017468300
       234    2       79.362000000000       9.163937915300       7.500017468300
       235    2       79.362000000000       2.290987915300       7.500017468300
       236    2       75.393900000000       9.163937915300       7.500017468300
       237    1       77.377950000000       3.436475000000       9.297550000000
       238    1       73.409850000000      10.309425000000       9.297550000000
       239    2       77.377950000000       5.727462915300       7.500017468300
       240    2       73.409850000000      12.600412915300       7.500017468300
       241    1       87.298200000000       0.000000000000       9.297550000000
       242    1       83.330100000000       6.872950000000       9.297550000000
       243    2       87.298200000000       4.581962084700      11.095082531700
       244    2       83.330100000000       4.581962084700      11.095082531700
       245    2       81.346050000000       5.727462915300       7.500017468300
       246    1       81.346050000000       3.436475000000       9.297550000000
       247    2       83.330100000000      11.454912084700      11.095082531700
       248    2       87.298200000000      11.454912084700      11.095082531700
       249    1       85.314150000000      10.309425000000       9.297550000000
       250    2       85.314150000000      12.600412915300       7.500017468300
       251    2       81.346050000000       1.145487084700      11.095082531700
       252    2       85.314150000000       8.018437084700      11.095082531700
       253    2       85.314150000000       1.145487084700      11.095082531700
       254    2       81.346050000000       8.018437084700      11.095082531700
       255    1       83.330100000000       0.000000000000       9.297550000000
       256    1       87.298200000000       6.872950000000       9.297550000000
       257    2       83.330100000000       2.290987915300       7.500017468300
       258    2       87.298200000000       9.163937915300       7.500017468300
       259    2       87.298200000000       2.290987915300       7.500017468300
       260    2       83.330100000000       9.163937915300       7.500017468300
       261    1       85.314150000000       3.436475000000       9.297550000000
       262    1       81.346050000000      10.309425000000       9.297550000000
       263    2       85.314150000000       5.727462915300       7.500017468300
       264    2       81.346050000000      12.600412915300       7.500017468300
       265    1       95.234400000000       0.000000000000       9.297550000000
       266    1       91.266300000000       6.872950000000       9.297550000000
       267    2       95.234400000000       4.581962084700      11.095082531700
       268    2       91.266300000000       4.581962084700      11.095082531700
       269    2       89.282250000000       5.727462915300       7.500017468300
       270    1       89.282250000000       3.436475000000       9.297550000000
       271    2       91.266300000000      11.454912084700      11.095082531700
       272    2       95.234400000000      11.454912084700      11.095082531700
       273    1       93.250350000000      10.309425000000       9.297550000000
       274    2       93.250350000000      12.600412915300       7.500017468300
       275    2       89.282250000000       1.145487084700      11.095082531700
       276    2       93.250350000000       8.018437084700      11.095082531700
       277    2       93.250350000000       1.145487084700      11.095082531700
       278    2       89.282250000000       8.018437084700      11.095082531700
       279    1       91.266300000000       0.000000000000       9.297550000000
       280    1       95.234400000000       6.872950000000       9.297550000000
       281    2       91.266300000000       2.290987915300       7.500017468300
       282    2       95.234400000000       9.163937915300       7.500017468300
       283    2       95.234400000000       2.290987915300       7.500017468300
       284    2       91.266300000000       9.163937915300       7.500017468300
       285    1       93.250350000000       3.436475000000       9.297550000000
       286    1       89.282250000000      10.309425000000       9.297550000000
       287    2       93.250350000000       5.727462915300       7.500017468300
       288    2       89.282250000000      12.600412915300       7.500017468300
       289    1      103.170600000000       0.000000000000       9.297550000000
       290    1       99.202500000000       6.872950000000       9.297550000000
       291    2      103.170600000000       4.581962084700      11.095082531700
       292    2       99.202500000000       4.581962084700      11.095082531700
       293    2       97.218450000000       5.727462915300       7.500017468300
       294    1       97.218450000000       3.436475000000       9.297550000000
       295    2       99.202500000000      11.454912084700      11.095082531700
       296    2      103.170600000000      11.454912084700      11.095082531700
       297    1      101.186550000000      10.309425000000       9.297550000000
       298    2      101.186550000000      12.600412915300       7.500017468300
       299    2       97.218450000000       1.145487084700      11.095082531700
       300    2      101.186550000000       8.018437084700      11.095082531700
       301    2      101.186550000000       1.145487084700      11.095082531700
       302    2       97.218450000000       8.018437084700      11.095082531700
       303    1       99.202500000000       0.000000000000       9.297550000000
       304    1      103.170600000000       6.872950000000       9.297550000000
       305    2       99.202500000000       2.290987915300       7.500017468300
       306    2      103.170600000000       9.163937915300       7.500017468300
       307    2      103.170600000000       2.290987915300       7.500017468300
       308    2       99.202500000000       9.163937915300       7.500017468300
       309    1      101.186550000000       3.436475000000       9.297550000000
       310    1       97.218450000000      10.309425000000       9.297550000000
       311    2      101.186550000000       5.727462915300       7.500017468300
       312    2       97.218450000000      12.600412915300       7.500017468300
       313    1        7.936200000000      13.745900000000       9.297550000000
       314    1        3.968100000000      20.618850000000       9.297550000000
       315    2        7.936200000000      18.327862084700      11.095082531700
       316    2        3.968100000000      18.327862084700      11.095082531700
       317    2        1.984050000000      19.473362915300       7.500017468300
       318    1        1.984050000000      17.182375000000       9.297550000000
       319    2        3.968100000000      25.200812084700      11.095082531700
       320    2        7.936200000000      25.200812084700      11.095082531700
       321    1        5.952150000000      24.055325000000       9.297550000000
       322    2        5.952150000000      26.346312915300       7.500017468300
       323    2        1.984050000000      14.891387084700      11.095082531700
       324    2        5.952150000000      21.764337084700      11.095082531700
       325    2        5.952150000000      14.891387084700      11.095082531700
       326    2        1.984050000000      21.764337084700      11.095082531700
       327    1        3.968100000000      13.745900000000       9.297550000000
       328    1        7.936200000000      20.618850000000       9.297550000000
       329    2        3.968100000000      16.036887915300       7.500017468300
       330    2        7.936200000000      22.909837915300       7.500017468300
       331    2        7.936200000000      16.036887915300       7.500017468300
       332    2        3.968100000000      22.909837915300       7.500017468300
       333    1        5.952150000000      17.182375000000       9.297550000000
       334    1        1.984050000000      24.055325000000       9.297550000000
       335    2        5.952150000000      19.473362915300       7.500017468300
       336    2        1.984050000000      26.346312915300       7.500017468300
       337    1       15.872400000000      13.745900000000       9.297550000000
       338    1       11.904300000000      20.618850000000       9.297550000000
       339    2       15.872400000000      18.327862084700      11.095082531700
       340    2       11.904300000000      18.327862084700      11.095082531700
       341    2        9.920250000000      19.473362915300       7.500017468300
       342    1        9.920250000000      17.182375000000       9.297550000000
       343    2       11.904300000000      25.200812084700      11.095082531700
       344    2       15.872400000000      25.200812084700      11.095082531700
       345    1       13.888350000000      24.055325000000       9.297550000000
       346    2       13.888350000000      26.346312915300       7.500017468300
       347    2        9.920250000000      14.891387084700      11.095082531700
       348    2       13.888350000000      21.764337084700      11.095082531700
       349    2       13.888350000000      14.891387084700      11.095082531700
       350    2        9.920250000000      21.764337084700      11.095082531700
       351    1       11.904300000000      13.745900000000       9.297550000000
       352    1       15.872400000000      20.618850000000       9.297550000000
       353    2       11.904300000000      16.036887915300       7.500017468300
       354    2       15.872400000000      22.909837915300       7.500017468300
       355    2       15.872400000000      16.036887915300       7.500017468300
       356    2       11.904300000000      22.909837915300       7.500017468300
       357    1       13.888350000000      17.182375000000       9.297550000000
       358    1        9.920250000000      24.055325000000       9.297550000000
       359    2       13.888350000000      19.473362915300       7.500017468300
       360    2        9.920250000000      26.346312915300       7.500017468300
       361    1       23.808600000000      13.745900000000       9.297550000000
       362    1       19.840500000000      20.618850000000       9.297550000000
       363    2       23.808600000000      18.327862084700      11.095082531700
       364    2       19.840500000000      18.327862084700      11.095082531700
       365    2       17.856450000000      19.473362915300       7.500017468300
       366    1       17.856450000000      17.182375000000       9.297550000000
       367    2       19.840500000000      25.200812084700      11.095082531700
       368    2       23.808600000000      25.200812084700      11.095082531700
       369    1       21.824550000000      24.055325000000       9.297550000000
       370    2       21.824550000000      26.346312915300       7.500017468300