LAMMPS data file via write_data, version 29 Aug 2024, timestep = 2, units = metal

4032 atoms
6 atom types

0 100.146633826344 xlo xhi
0 101.18445049664 ylo yhi
-50 50 zlo zhi

Masses

1 118.71
2 118.71
3 118.71
4 127.6
5 127.6
6 127.6

Atoms # atomic

723 4 2.1011275411158512e-13 1.2045767916263663 -0.006473386976560094 0 0 0
727 4 4.17277640943121 1.2045767916263668 -0.006473386976561108 0 0 0
726 1 4.17277640943079 3.6137303748796406 1.6928115956789418 0 0 0
724 4 2.0863882047152735 4.818307166506366 -0.00647338697655998 0 0 0
731 4 8.345552818862206 1.204576791626366 -0.0064733869765596684 0 0 0
730 1 8.345552818861787 3.6137303748796397 1.692811595678943 0 0 0
728 4 6.259164614146274 4.818307166506366 -0.006473386976561095 0 0 0
732 4 10.43194102357727 4.818307166506366 -0.006473386976559924 0 0 0
735 4 12.518329228293206 1.2045767916263668 -0.006473386976561079 0 0 0
739 4 16.691105637724206 1.2045767916263652 -0.0064733869765584 0 0 0
734 1 12.518329228292787 3.61373037487964 1.6928115956789418 0 0 0
738 1 16.691105637723787 3.6137303748796397 1.6928115956789431 0 0 0
736 4 14.60471743300827 4.818307166506366 -0.00647338697656 0 0 0
743 4 20.863882047155208 1.2045767916263668 -0.006473386976561156 0 0 0
742 1 20.863882047154785 3.6137303748796406 1.6928115956789407 0 0 0
740 4 18.777493842439267 4.818307166506367 -0.006473386976561154 0 0 0
744 4 22.950270251870272 4.818307166506365 -0.006473386976558988 0 0 0
747 4 25.03665845658621 1.2045767916263657 -0.00647338697655864 0 0 0
751 4 29.209434866017208 1.2045767916263665 -0.006473386976560999 0 0 0
746 1 25.03665845658579 3.6137303748796397 1.6928115956789431 0 0 0
750 1 29.20943486601679 3.6137303748796406 1.6928115956789407 0 0 0
748 4 27.12304666130127 4.818307166506367 -0.0064733869765611265 0 0 0
755 4 33.382211275448206 1.204576791626367 -0.006473386976561477 0 0 0
754 1 33.38221127544779 3.6137303748796397 1.6928115956789425 0 0 0
752 4 31.295823070732272 4.818307166506367 -0.006473386976561567 0 0 0
759 4 37.55498768487921 1.2045767916263652 -0.006473386976558111 0 0 0
758 1 37.55498768487879 3.6137303748796397 1.6928115956789436 0 0 0
756 4 35.46859948016327 4.818307166506364 -0.006473386976557987 0 0 0
760 4 39.64137588959427 4.818307166506367 -0.006473386976561573 0 0 0
763 4 41.72776409431021 1.204576791626367 -0.006473386976561733 0 0 0
767 4 45.90054050374121 1.2045767916263665 -0.006473386976560545 0 0 0
762 1 41.72776409430979 3.613730374879641 1.6928115956789402 0 0 0
766 1 45.90054050374079 3.613730374879639 1.6928115956789436 0 0 0
764 4 43.814152299025274 4.818307166506364 -0.0064733869765585365 0 0 0
675 4 50.073316913172214 1.2045767916263654 -0.006473386976558995 -1 0 0
674 1 50.07331691317179 3.6137303748796406 1.6928115956789416 -1 0 0
768 4 47.986928708456276 4.818307166506367 -0.006473386976561227 0 0 0
676 4 52.15970511788728 4.818307166506366 -0.006473386976560086 -1 0 0
679 4 54.246093322603215 1.2045767916263659 -0.006473386976559562 -1 0 0
683 4 58.41886973203421 1.204576791626367 -0.006473386976561135 -1 0 0
678 1 54.24609332260279 3.6137303748796406 1.6928115956789416 -1 0 0
682 1 58.41886973203379 3.6137303748796397 1.6928115956789425 -1 0 0
680 4 56.33248152731827 4.818307166506367 -0.006473386976561509 -1 0 0
687 4 62.59164614146521 1.2045767916263665 -0.006473386976560523 -1 0 0
686 1 62.591646141464786 3.613730374879639 1.6928115956789433 -1 0 0
684 4 60.505257936749274 4.818307166506365 -0.00647338697655972 -1 0 0
688 4 64.67803434618027 4.818307166506365 -0.006473386976559903 -1 0 0
691 4 66.76442255089621 1.204576791626366 -0.0064733869765600145 -1 0 0
690 1 66.76442255089579 3.6137303748796414 1.69281159567894 -1 0 0
692 4 68.85081075561128 4.818307166506367 -0.0064733869765615714 -1 0 0
695 4 70.93719896032721 1.2045767916263659 -0.006473386976559498 -1 0 0
699 4 75.10997536975822 1.2045767916263672 -0.006473386976561556 -1 0 0
694 1 70.93719896032678 3.613730374879639 1.6928115956789436 -1 0 0
698 1 75.10997536975779 3.613730374879639 1.6928115956789436 -1 0 0
696 4 73.02358716504227 4.818307166506364 -0.00647338697655792 -1 0 0
703 4 79.28275177918921 1.2045767916263652 -0.00647338697655839 -1 0 0
702 1 79.28275177918879 3.6137303748796414 1.6928115956789405 -1 0 0
700 4 77.19636357447327 4.818307166506367 -0.006473386976561482 -1 0 0
704 4 81.36913998390428 4.818307166506364 -0.006473386976558663 -1 0 0
707 4 83.45552818862022 1.2045767916263663 -0.006473386976560144 -1 0 0
711 4 87.62830459805122 1.2045767916263679 -0.006473386976561895 -1 0 0
706 1 83.4555281886198 3.6137303748796406 1.6928115956789416 -1 0 0
710 1 87.62830459805079 3.6137303748796383 1.6928115956789445 -1 0 0
708 4 85.54191639333528 4.818307166506366 -0.0064733869765609305 -1 0 0
715 4 91.80108100748221 1.2045767916263652 -0.006473386976558378 -1 0 0
714 1 91.80108100748178 3.6137303748796414 1.6928115956789405 -1 0 0
712 4 89.71469280276627 4.818307166506367 -0.006473386976561367 -1 0 0
716 4 93.88746921219727 4.818307166506364 -0.006473386976558664 -1 0 0
722 1 100.14663382634379 3.61373037487964 1.6928115956789427 -1 0 0
719 4 95.97385741691322 1.2045767916263663 -0.006473386976560162 -1 0 0
718 1 95.9738574169128 3.6137303748796406 1.6928115956789416 -1 0 0
720 4 98.06024562162828 4.818307166506367 -0.0064733869765613095 -1 0 0
819 4 2.1001391003196257e-13 8.432037541386364 -0.006473386976560254 0 0 0
817 1 2.086388204715727 7.22746074975964 1.6928115956789418 0 0 0
823 4 4.17277640943121 8.432037541386366 -0.006473386976561087 0 0 0
822 1 4.17277640943079 10.84119112463964 1.6928115956789416 0 0 0
821 1 6.259164614146724 7.227460749759639 1.692811595678943 0 0 0
827 4 8.345552818862206 8.432037541386366 -0.00647338697655965 0 0 0
825 1 10.431941023577723 7.22746074975964 1.6928115956789418 0 0 0
826 1 8.345552818861787 10.84119112463964 1.692811595678943 0 0 0
831 4 12.518329228293206 8.432037541386366 -0.006473386976561065 0 0 0
829 1 14.604717433008723 7.22746074975964 1.6928115956789422 0 0 0
835 4 16.691105637724206 8.432037541386364 -0.006473386976558369 0 0 0
830 1 12.518329228292787 10.84119112463964 1.6928115956789416 0 0 0
834 1 16.691105637723787 10.84119112463964 1.692811595678943 0 0 0
833 1 18.777493842439725 7.227460749759639 1.6928115956789431 0 0 0
839 4 20.863882047155204 8.432037541386366 -0.0064733869765613815 0 0 0
837 1 22.950270251870723 7.227460749759641 1.692811595678941 0 0 0
838 1 20.863882047154785 10.84119112463964 1.6928115956789407 0 0 0
843 4 25.03665845658621 8.432037541386364 -0.0064733869765586935 0 0 0
841 1 27.12304666130173 7.227460749759639 1.692811595678943 0 0 0
847 4 29.209434866017208 8.432037541386366 -0.006473386976561148 0 0 0
842 1 25.03665845658579 10.84119112463964 1.692811595678943 0 0 0
846 1 29.20943486601679 10.84119112463964 1.6928115956789405 0 0 0
845 1 31.295823070732723 7.227460749759639 1.6928115956789427 0 0 0
851 4 33.382211275448206 8.432037541386366 -0.006473386976561386 0 0 0
850 1 33.38221127544779 10.84119112463964 1.6928115956789422 0 0 0
849 1 35.468599480163725 7.227460749759641 1.6928115956789405 0 0 0
855 4 37.55498768487921 8.432037541386364 -0.006473386976558256 0 0 0
853 1 39.64137588959473 7.227460749759638 1.6928115956789436 0 0 0
854 1 37.55498768487879 10.84119112463964 1.6928115956789433 0 0 0
859 4 41.72776409431021 8.432037541386366 -0.006473386976561864 0 0 0
857 1 43.81415229902572 7.227460749759641 1.692811595678941 0 0 0
863 4 45.90054050374121 8.432037541386366 -0.006473386976560435 0 0 0
858 1 41.72776409430979 10.84119112463964 1.69281159567894 0 0 0
862 1 45.90054050374079 10.84119112463964 1.6928115956789433 0 0 0
861 1 47.98692870845672 7.227460749759639 1.6928115956789425 0 0 0
771 4 50.073316913172214 8.432037541386364 -0.006473386976559178 -1 0 0
769 1 52.159705117887725 7.227460749759639 1.6928115956789422 -1 0 0
770 1 50.07331691317179 10.84119112463964 1.6928115956789413 -1 0 0
775 4 54.246093322603215 8.432037541386364 -0.006473386976559716 -1 0 0
773 1 56.33248152731873 7.227460749759639 1.692811595678943 -1 0 0
779 4 58.41886973203421 8.432037541386366 -0.006473386976561124 -1 0 0
774 1 54.24609332260279 10.84119112463964 1.6928115956789413 -1 0 0
778 1 58.41886973203379 10.84119112463964 1.6928115956789422 -1 0 0
777 1 60.50525793674972 7.22746074975964 1.6928115956789413 -1 0 0
783 4 62.59164614146521 8.432037541386366 -0.006473386976560336 -1 0 0
781 1 64.67803434618072 7.22746074975964 1.692811595678942 -1 0 0
782 1 62.591646141464786 10.84119112463964 1.6928115956789431 -1 0 0
787 4 66.76442255089621 8.432037541386364 -0.0064733869765603354 -1 0 0
785 1 68.85081075561172 7.227460749759639 1.6928115956789433 -1 0 0
786 1 66.76442255089579 10.84119112463964 1.6928115956789398 -1 0 0
791 4 70.93719896032721 8.432037541386364 -0.006473386976559366 -1 0 0
789 1 73.02358716504273 7.227460749759641 1.69281159567894 -1 0 0
795 4 75.10997536975822 8.432037541386366 -0.006473386976561356 -1 0 0
790 1 70.93719896032678 10.84119112463964 1.6928115956789436 -1 0 0
794 1 75.10997536975779 10.84119112463964 1.692811595678943 -1 0 0
793 1 77.19636357447372 7.227460749759639 1.6928115956789433 -1 0 0
799 4 79.28275177918921 8.432037541386364 -0.006473386976558709 -1 0 0
797 1 81.36913998390473 7.227460749759641 1.692811595678941 -1 0 0
798 1 79.28275177918879 10.84119112463964 1.6928115956789402 -1 0 0
803 4 83.45552818862022 8.432037541386364 -0.006473386976560193 -1 0 0
801 1 85.54191639333573 7.227460749759639 1.692811595678943 -1 0 0
807 4 87.62830459805122 8.432037541386368 -0.006473386976561786 -1 0 0
802 1 83.4555281886198 10.84119112463964 1.6928115956789413 -1 0 0
806 1 87.62830459805079 10.841191124639638 1.6928115956789442 -1 0 0
805 1 89.71469280276672 7.227460749759639 1.692811595678943 -1 0 0
811 4 91.80108100748221 8.432037541386364 -0.0064733869765586935 -1 0 0
809 1 93.88746921219773 7.227460749759641 1.692811595678941 -1 0 0
810 1 91.80108100748178 10.84119112463964 1.6928115956789402 -1 0 0
818 1 100.14663382634379 10.84119112463964 1.6928115956789422 -1 0 0
815 4 95.97385741691322 8.432037541386364 -0.006473386976560211 -1 0 0
813 1 98.06024562162872 7.227460749759639 1.6928115956789433 -1 0 0
814 1 95.9738574169128 10.84119112463964 1.6928115956789413 -1 0 0
820 4 2.0863882047152735 12.045767916266362 -0.006473386976561564 0 0 0
913 1 2.086388204715727 14.454921499519637 1.692811595678941 0 0 0
915 4 2.0998716101814685e-13 15.659498291146365 -0.00647338697655947 0 0 0
919 4 4.172776409431209 15.659498291146365 -0.006473386976560023 0 0 0
824 4 6.259164614146274 12.045767916266364 -0.006473386976562579 0 0 0
828 4 10.43194102357727 12.045767916266362 -0.006473386976561557 0 0 0
917 1 6.259164614146724 14.454921499519635 1.692811595678942 0 0 0
921 1 10.431941023577723 14.454921499519637 1.6928115956789407 0 0 0
923 4 8.345552818862206 15.659498291146365 -0.006473386976558808 0 0 0
832 4 14.60471743300827 12.045767916266364 -0.006473386976561364 0 0 0
925 1 14.604717433008723 14.454921499519637 1.6928115956789411 0 0 0
927 4 12.518329228293206 15.659498291146365 -0.006473386976560279 0 0 0
931 4 16.691105637724206 15.659498291146365 -0.006473386976557501 0 0 0
836 4 18.777493842439267 12.045767916266364 -0.006473386976562481 0 0 0
840 4 22.950270251870272 12.045767916266362 -0.006473386976560391 0 0 0
929 1 18.777493842439725 14.454921499519635 1.692811595678942 0 0 0
933 1 22.950270251870727 14.454921499519637 1.6928115956789398 0 0 0
935 4 20.863882047155204 15.659498291146367 -0.006473386976559908 0 0 0
844 4 27.12304666130127 12.045767916266364 -0.006473386976562471 0 0 0
937 1 27.12304666130173 14.454921499519635 1.6928115956789418 0 0 0
939 4 25.03665845658621 15.659498291146365 -0.006473386976557842 0 0 0
943 4 29.209434866017208 15.659498291146367 -0.006473386976559776 0 0 0
848 4 31.295823070732272 12.045767916266364 -0.006473386976563066 0 0 0
941 1 31.295823070732723 14.454921499519635 1.6928115956789418 0 0 0
947 4 33.382211275448206 15.659498291146367 -0.006473386976560541 0 0 0
852 4 35.46859948016327 12.04576791626636 -0.006473386976559498 0 0 0
856 4 39.64137588959427 12.045767916266364 -0.006473386976562906 0 0 0
945 1 35.468599480163725 14.454921499519637 1.6928115956789394 0 0 0
949 1 39.64137588959473 14.454921499519635 1.6928115956789425 0 0 0
951 4 37.55498768487921 15.659498291146365 -0.0064733869765572945 0 0 0
860 4 43.814152299025274 12.045767916266362 -0.006473386976559922 0 0 0
953 1 43.81415229902572 14.454921499519637 1.6928115956789398 0 0 0
955 4 41.72776409431021 15.659498291146367 -0.006473386976560389 0 0 0
959 4 45.90054050374121 15.659498291146365 -0.006473386976559475 0 0 0
864 4 47.986928708456276 12.045767916266364 -0.006473386976562631 0 0 0
772 4 52.15970511788728 12.045767916266362 -0.006473386976561666 -1 0 0
957 1 47.98692870845672 14.454921499519635 1.6928115956789411 0 0 0
865 1 52.159705117887725 14.454921499519637 1.6928115956789411 -1 0 0
867 4 50.073316913172214 15.659498291146365 -0.006473386976557519 -1 0 0
776 4 56.33248152731827 12.045767916266364 -0.006473386976562926 -1 0 0
869 1 56.33248152731873 14.454921499519635 1.692811595678942 -1 0 0
871 4 54.246093322603215 15.659498291146365 -0.006473386976558268 -1 0 0
875 4 58.41886973203421 15.659498291146365 -0.006473386976560426 -1 0 0
780 4 60.505257936749274 12.045767916266364 -0.006473386976561119 -1 0 0
784 4 64.67803434618027 12.045767916266364 -0.006473386976561342 -1 0 0
873 1 60.50525793674972 14.454921499519637 1.6928115956789407 -1 0 0
877 1 64.67803434618072 14.454921499519637 1.692811595678941 -1 0 0
879 4 62.59164614146521 15.659498291146365 -0.006473386976559467 -1 0 0
788 4 68.85081075561128 12.045767916266364 -0.006473386976563091 -1 0 0
881 1 68.85081075561172 14.454921499519635 1.6928115956789425 -1 0 0
883 4 66.76442255089621 15.659498291146367 -0.006473386976558957 -1 0 0
792 4 73.02358716504227 12.04576791626636 -0.006473386976559617 -1 0 0
885 1 73.02358716504273 14.454921499519639 1.6928115956789391 -1 0 0
887 4 70.93719896032721 15.659498291146365 -0.006473386976558641 -1 0 0
891 4 75.10997536975822 15.659498291146367 -0.006473386976560478 -1 0 0
796 4 77.19636357447327 12.045767916266364 -0.006473386976562826 -1 0 0
800 4 81.36913998390428 12.045767916266362 -0.0064733869765600804 -1 0 0
889 1 77.19636357447372 14.454921499519635 1.6928115956789422 -1 0 0
893 1 81.36913998390473 14.454921499519637 1.6928115956789398 -1 0 0
895 4 79.28275177918921 15.659498291146365 -0.006473386976557163 -1 0 0
804 4 85.54191639333528 12.045767916266364 -0.006473386976562446 -1 0 0
897 1 85.54191639333573 14.454921499519635 1.6928115956789418 -1 0 0
899 4 83.45552818862022 15.659498291146367 -0.006473386976559343 -1 0 0
903 4 87.62830459805122 15.659498291146367 -0.006473386976561176 -1 0 0
808 4 89.71469280276627 12.045767916266364 -0.0064733869765627085 -1 0 0
812 4 93.88746921219727 12.045767916266362 -0.00647338697656008 -1 0 0
901 1 89.71469280276672 14.454921499519635 1.6928115956789416 -1 0 0
905 1 93.88746921219773 14.454921499519637 1.6928115956789398 -1 0 0
907 4 91.80108100748221 15.659498291146365 -0.006473386976557156 -1 0 0
816 4 98.06024562162828 12.045767916266364 -0.0064733869765627155 -1 0 0
909 1 98.06024562162872 14.454921499519635 1.6928115956789425 -1 0 0
911 4 95.97385741691322 15.659498291146367 -0.006473386976559351 -1 0 0
916 4 2.0863882047152735 19.273228666026366 -0.006473386976558588 0 0 0
918 1 4.17277640943079 18.068651874399638 1.6928115956789431 0 0 0
1009 1 2.086388204715727 21.68238224927964 1.6928115956789407 0 0 0
1011 4 2.101111723224669e-13 22.88695904090637 -0.006473386976561291 0 0 0
1015 4 4.172776409431209 22.88695904090637 -0.006473386976562043 0 0 0
920 4 6.259164614146274 19.273228666026366 -0.006473386976559668 0 0 0
922 1 8.345552818861787 18.068651874399638 1.6928115956789447 0 0 0
924 4 10.43194102357727 19.273228666026366 -0.006473386976558713 0 0 0
1013 1 6.259164614146724 21.68238224927964 1.6928115956789416 0 0 0
1017 1 10.431941023577723 21.68238224927964 1.6928115956789407 0 0 0
1019 4 8.345552818862206 22.88695904090637 -0.006473386976561119 0 0 0
926 1 12.518329228292787 18.068651874399638 1.6928115956789431 0 0 0
928 4 14.60471743300827 19.273228666026366 -0.006473386976558708 0 0 0
930 1 16.691105637723787 18.068651874399638 1.6928115956789447 0 0 0
1021 1 14.604717433008723 21.68238224927964 1.692811595678941 0 0 0
1023 4 12.518329228293206 22.88695904090637 -0.006473386976562089 0 0 0
1027 4 16.691105637724206 22.886959040906365 -0.006473386976559942 0 0 0
932 4 18.777493842439267 19.273228666026366 -0.00647338697655976 0 0 0
934 1 20.863882047154785 18.06865187439964 1.692811595678942 0 0 0
936 4 22.950270251870272 19.273228666026366 -0.006473386976557418 0 0 0
1025 1 18.777493842439725 21.68238224927964 1.6928115956789418 0 0 0
1029 1 22.950270251870727 21.682382249279645 1.6928115956789398 0 0 0
1031 4 20.863882047155204 22.88695904090637 -0.006473386976562524 0 0 0
938 1 25.03665845658579 18.068651874399638 1.692811595678945 0 0 0
940 4 27.12304666130127 19.273228666026366 -0.006473386976559736 0 0 0
942 1 29.20943486601679 18.06865187439964 1.692811595678942 0 0 0
1033 1 27.12304666130173 21.68238224927964 1.6928115956789416 0 0 0
1035 4 25.03665845658621 22.88695904090637 -0.006473386976560524 0 0 0
1039 4 29.209434866017208 22.88695904090637 -0.006473386976562204 0 0 0
944 4 31.295823070732272 19.273228666026366 -0.006473386976560324 0 0 0
946 1 33.38221127544779 18.068651874399638 1.6928115956789438 0 0 0
1037 1 31.295823070732723 21.68238224927964 1.6928115956789413 0 0 0
1043 4 33.382211275448206 22.88695904090637 -0.006473386976563033 0 0 0
948 4 35.46859948016327 19.273228666026366 -0.006473386976556259 0 0 0
950 1 37.55498768487879 18.068651874399638 1.6928115956789453 0 0 0
952 4 39.64137588959427 19.273228666026366 -0.006473386976560262 0 0 0
1041 1 35.468599480163725 21.682382249279645 1.6928115956789391 0 0 0
1045 1 39.64137588959473 21.68238224927964 1.692811595678942 0 0 0
1047 4 37.55498768487921 22.886959040906365 -0.006473386976559811 0 0 0
954 1 41.72776409430979 18.06865187439964 1.6928115956789416 0 0 0
956 4 43.814152299025274 19.273228666026366 -0.006473386976556958 0 0 0
958 1 45.90054050374079 18.068651874399638 1.692811595678945 0 0 0
1049 1 43.81415229902572 21.682382249279645 1.6928115956789398 0 0 0
1051 4 41.72776409431021 22.88695904090637 -0.006473386976562917 0 0 0
1055 4 45.90054050374121 22.88695904090637 -0.00647338697656217 0 0 0
960 4 47.986928708456276 19.273228666026366 -0.006473386976560072 0 0 0
868 4 52.15970511788728 19.273228666026366 -0.006473386976559199 -1 0 0
866 1 50.07331691317179 18.06865187439964 1.6928115956789433 -1 0 0
1053 1 47.98692870845672 21.68238224927964 1.6928115956789411 0 0 0
961 1 52.159705117887725 21.68238224927964 1.692811595678941 -1 0 0
963 4 50.073316913172214 22.88695904090637 -0.006473386976560129 -1 0 0
870 1 54.24609332260279 18.06865187439964 1.6928115956789431 -1 0 0
872 4 56.33248152731827 19.273228666026366 -0.006473386976560291 -1 0 0
874 1 58.41886973203379 18.068651874399638 1.6928115956789438 -1 0 0
965 1 56.33248152731873 21.68238224927964 1.6928115956789416 -1 0 0
967 4 54.246093322603215 22.88695904090637 -0.006473386976560599 -1 0 0
971 4 58.41886973203421 22.88695904090637 -0.006473386976562086 -1 0 0
876 4 60.505257936749274 19.273228666026366 -0.006473386976558407 -1 0 0
878 1 62.591646141464786 18.068651874399638 1.6928115956789447 -1 0 0
880 4 64.67803434618027 19.273228666026366 -0.006473386976558934 -1 0 0
969 1 60.50525793674972 21.68238224927964 1.6928115956789402 -1 0 0
973 1 64.67803434618072 21.68238224927964 1.6928115956789405 -1 0 0
975 4 62.59164614146521 22.88695904090637 -0.006473386976561831 -1 0 0
882 1 66.76442255089579 18.06865187439964 1.6928115956789418 -1 0 0
884 4 68.85081075561128 19.273228666026366 -0.0064733869765603354 -1 0 0
977 1 68.85081075561172 21.68238224927964 1.692811595678942 -1 0 0
979 4 66.76442255089621 22.88695904090637 -0.006473386976561114 -1 0 0
886 1 70.93719896032678 18.068651874399638 1.692811595678945 -1 0 0
888 4 73.02358716504227 19.273228666026366 -0.0064733869765561955 -1 0 0
890 1 75.10997536975779 18.068651874399638 1.6928115956789447 -1 0 0
981 1 73.02358716504273 21.682382249279645 1.692811595678939 -1 0 0
983 4 70.93719896032721 22.886959040906365 -0.006473386976561097 -1 0 0
987 4 75.10997536975822 22.88695904090637 -0.006473386976563172 -1 0 0
892 4 77.19636357447327 19.273228666026366 -0.006473386976560235 -1 0 0
894 1 79.28275177918879 18.06865187439964 1.692811595678942 -1 0 0
896 4 81.36913998390428 19.273228666026366 -0.006473386976557109 -1 0 0
985 1 77.19636357447372 21.68238224927964 1.692811595678942 -1 0 0
989 1 81.36913998390473 21.682382249279645 1.6928115956789396 -1 0 0
991 4 79.28275177918921 22.88695904090637 -0.006473386976559644 -1 0 0
898 1 83.4555281886198 18.068651874399638 1.6928115956789431 -1 0 0
900 4 85.54191639333528 19.273228666026366 -0.006473386976559523 -1 0 0
902 1 87.62830459805079 18.068651874399638 1.6928115956789462 -1 0 0
993 1 85.54191639333573 21.68238224927964 1.6928115956789416 -1 0 0
995 4 83.45552818862022 22.88695904090637 -0.006473386976561923 -1 0 0
999 4 87.62830459805122 22.88695904090637 -0.0064733869765634805 -1 0 0
904 4 89.71469280276627 19.273228666026366 -0.0064733869765602105 -1 0 0
906 1 91.80108100748178 18.06865187439964 1.692811595678942 -1 0 0
908 4 93.88746921219727 19.273228666026366 -0.00647338697655711 -1 0 0
997 1 89.71469280276672 21.68238224927964 1.6928115956789416 -1 0 0
1001 1 93.88746921219773 21.682382249279645 1.6928115956789396 -1 0 0
1003 4 91.80108100748221 22.88695904090637 -0.006473386976559634 -1 0 0
914 1 100.14663382634379 18.068651874399638 1.692811595678944 -1 0 0
910 1 95.9738574169128 18.068651874399638 1.6928115956789431 -1 0 0
912 4 98.06024562162828 19.273228666026366 -0.006473386976559907 -1 0 0
1005 1 98.06024562162872 21.68238224927964 1.692811595678942 -1 0 0
1007 4 95.97385741691322 22.88695904090637 -0.006473386976561929 -1 0 0
1014 1 4.17277640943079 25.29611262415964 1.6928115956789431 0 0 0
1012 4 2.0863882047152735 26.500689415786365 -0.006473386976559226 0 0 0
1105 1 2.086388204715727 28.90984299903964 1.6928115956789407 0 0 0
1018 1 8.345552818861787 25.296112624159637 1.6928115956789445 0 0 0
1016 4 6.259164614146274 26.500689415786365 -0.006473386976559999 0 0 0
1020 4 10.431941023577268 26.500689415786365 -0.006473386976559005 0 0 0
1109 1 6.259164614146724 28.90984299903964 1.6928115956789416 0 0 0
1113 1 10.431941023577723 28.90984299903964 1.6928115956789407 0 0 0
1022 1 12.518329228292787 25.29611262415964 1.6928115956789431 0 0 0
1026 1 16.691105637723787 25.296112624159637 1.6928115956789447 0 0 0
1024 4 14.604717433008272 26.500689415786365 -0.006473386976559009 0 0 0
1117 1 14.604717433008723 28.90984299903964 1.692811595678941 0 0 0
1030 1 20.863882047154785 25.29611262415964 1.692811595678942 0 0 0
1028 4 18.777493842439267 26.500689415786365 -0.0064733869765598116 0 0 0
1032 4 22.950270251870272 26.500689415786365 -0.00647338697655739 0 0 0
1121 1 18.777493842439725 28.90984299903964 1.6928115956789416 0 0 0
1125 1 22.950270251870727 28.909842999039643 1.6928115956789398 0 0 0
1034 1 25.03665845658579 25.296112624159637 1.6928115956789445 0 0 0
1038 1 29.20943486601679 25.29611262415964 1.692811595678942 0 0 0
1036 4 27.12304666130127 26.500689415786365 -0.0064733869765597925 0 0 0
1129 1 27.12304666130173 28.90984299903964 1.6928115956789416 0 0 0
1042 1 33.38221127544779 25.296112624159637 1.6928115956789436 0 0 0
1040 4 31.295823070732272 26.500689415786365 -0.006473386976560377 0 0 0
1133 1 31.295823070732723 28.90984299903964 1.6928115956789413 0 0 0
1046 1 37.55498768487879 25.296112624159637 1.6928115956789451 0 0 0
1044 4 35.46859948016327 26.500689415786365 -0.006473386976556226 0 0 0
1048 4 39.64137588959427 26.500689415786365 -0.006473386976560309 0 0 0
1137 1 35.468599480163725 28.909842999039643 1.6928115956789391 0 0 0
1141 1 39.64137588959473 28.90984299903964 1.692811595678942 0 0 0
1050 1 41.72776409430979 25.29611262415964 1.6928115956789413 0 0 0
1054 1 45.90054050374079 25.296112624159637 1.6928115956789447 0 0 0
1052 4 43.814152299025274 26.500689415786365 -0.00647338697655692 0 0 0
1145 1 43.81415229902572 28.909842999039643 1.6928115956789398 0 0 0
962 1 50.07331691317179 25.29611262415964 1.6928115956789433 -1 0 0
1056 4 47.986928708456276 26.500689415786365 -0.006473386976560135 0 0 0
964 4 52.15970511788728 26.500689415786365 -0.006473386976559253 -1 0 0
1149 1 47.98692870845672 28.90984299903964 1.6928115956789411 0 0 0
1057 1 52.159705117887725 28.90984299903964 1.6928115956789407 -1 0 0
966 1 54.24609332260279 25.29611262415964 1.692811595678943 -1 0 0
970 1 58.41886973203379 25.29611262415964 1.6928115956789438 -1 0 0
968 4 56.33248152731827 26.500689415786365 -0.006473386976560498 -1 0 0
1061 1 56.33248152731873 28.90984299903964 1.6928115956789416 -1 0 0
974 1 62.591646141464786 25.296112624159637 1.6928115956789447 -1 0 0
972 4 60.505257936749274 26.500689415786365 -0.00647338697655871 -1 0 0
976 4 64.67803434618027 26.500689415786365 -0.006473386976558901 -1 0 0
1065 1 60.50525793674972 28.90984299903964 1.6928115956789402 -1 0 0
1069 1 64.67803434618072 28.90984299903964 1.6928115956789405 -1 0 0
978 1 66.76442255089579 25.29611262415964 1.6928115956789416 -1 0 0
980 4 68.85081075561128 26.500689415786365 -0.006473386976560296 -1 0 0
1073 1 68.85081075561172 28.90984299903964 1.692811595678942 -1 0 0
982 1 70.93719896032678 25.296112624159637 1.6928115956789447 -1 0 0
986 1 75.10997536975779 25.296112624159637 1.6928115956789447 -1 0 0
984 4 73.02358716504227 26.500689415786365 -0.00647338697655616 -1 0 0
1077 1 73.02358716504273 28.909842999039643 1.692811595678939 -1 0 0
990 1 79.28275177918879 25.29611262415964 1.6928115956789418 -1 0 0
988 4 77.19636357447327 26.500689415786365 -0.006473386976560296 -1 0 0
992 4 81.36913998390428 26.500689415786365 -0.006473386976557078 -1 0 0
1081 1 77.19636357447372 28.90984299903964 1.692811595678942 -1 0 0
1085 1 81.36913998390473 28.909842999039643 1.6928115956789396 -1 0 0
994 1 83.4555281886198 25.29611262415964 1.6928115956789431 -1 0 0
998 1 87.62830459805079 25.296112624159637 1.6928115956789458 -1 0 0
996 4 85.54191639333528 26.500689415786365 -0.00647338697655949 -1 0 0
1089 1 85.54191639333573 28.90984299903964 1.6928115956789416 -1 0 0
1002 1 91.80108100748178 25.29611262415964 1.6928115956789418 -1 0 0
1000 4 89.71469280276627 26.500689415786365 -0.006473386976560183 -1 0 0
1004 4 93.88746921219727 26.500689415786365 -0.006473386976557079 -1 0 0
1093 1 89.71469280276672 28.90984299903964 1.6928115956789416 -1 0 0
1097 1 93.88746921219773 28.909842999039643 1.6928115956789396 -1 0 0
1010 1 100.14663382634379 25.29611262415964 1.6928115956789438 -1 0 0
1006 1 95.9738574169128 25.29611262415964 1.6928115956789431 -1 0 0
1008 4 98.06024562162828 26.500689415786365 -0.006473386976560035 -1 0 0
1101 1 98.06024562162872 28.90984299903964 1.692811595678942 -1 0 0
1107 4 2.101111723224669e-13 30.114419790666364 -0.006473386976561796 0 0 0
1111 4 4.172776409431209 30.114419790666368 -0.006473386976562549 0 0 0
1110 1 4.17277640943079 32.52357337391964 1.6928115956789431 0 0 0
1108 4 2.0863882047152735 33.72815016554636 -0.006473386976557981 0 0 0
1115 4 8.345552818862206 30.114419790666368 -0.006473386976561118 0 0 0
1114 1 8.345552818861787 32.52357337391964 1.6928115956789445 0 0 0
1112 4 6.259164614146274 33.72815016554637 -0.006473386976559101 0 0 0
1116 4 10.43194102357727 33.72815016554636 -0.006473386976557999 0 0 0
1119 4 12.518329228293206 30.114419790666368 -0.006473386976562593 0 0 0
1123 4 16.691105637724206 30.114419790666364 -0.006473386976559941 0 0 0
1118 1 12.518329228292787 32.52357337391964 1.692811595678943 0 0 0
1122 1 16.691105637723787 32.52357337391964 1.6928115956789447 0 0 0
1120 4 14.60471743300827 33.72815016554636 -0.006473386976558007 0 0 0
1127 4 20.863882047155204 30.114419790666368 -0.0064733869765631015 0 0 0
1126 1 20.863882047154785 32.52357337391964 1.692811595678942 0 0 0
1124 4 18.777493842439267 33.72815016554637 -0.006473386976558824 0 0 0
1128 4 22.950270251870272 33.72815016554636 -0.006473386976557172 0 0 0
1131 4 25.03665845658621 30.114419790666368 -0.006473386976560523 0 0 0
1135 4 29.209434866017208 30.114419790666368 -0.006473386976562782 0 0 0
1130 1 25.03665845658579 32.52357337391964 1.6928115956789445 0 0 0
1134 1 29.20943486601679 32.52357337391964 1.692811595678942 0 0 0
1132 4 27.12304666130127 33.72815016554637 -0.006473386976558803 0 0 0
1139 4 33.382211275448206 30.114419790666368 -0.006473386976563033 0 0 0
1138 1 33.38221127544779 32.52357337391964 1.6928115956789436 0 0 0
1136 4 31.295823070732272 33.72815016554637 -0.00647338697655939 0 0 0
1143 4 37.55498768487921 30.114419790666364 -0.00647338697655981 0 0 0
1142 1 37.55498768487879 32.52357337391964 1.6928115956789451 0 0 0
1140 4 35.46859948016327 33.72815016554636 -0.006473386976556172 0 0 0
1144 4 39.64137588959427 33.72815016554637 -0.00647338697655932 0 0 0
1147 4 41.72776409431021 30.114419790666368 -0.0064733869765634935 0 0 0
1151 4 45.90054050374121 30.114419790666368 -0.006473386976562172 0 0 0
1146 1 41.72776409430979 32.52357337391964 1.6928115956789413 0 0 0
1150 1 45.90054050374079 32.52357337391964 1.6928115956789447 0 0 0
1148 4 43.814152299025274 33.72815016554636 -0.00647338697655661 0 0 0
1059 4 50.073316913172214 30.114419790666364 -0.006473386976560641 -1 0 0
1058 1 50.07331691317179 32.52357337391964 1.6928115956789431 -1 0 0
1152 4 47.986928708456276 33.72815016554637 -0.006473386976559138 0 0 0
1060 4 52.15970511788728 33.72815016554636 -0.006473386976557991 -1 0 0
1063 4 54.246093322603215 30.114419790666364 -0.006473386976561177 -1 0 0
1067 4 58.41886973203421 30.114419790666368 -0.006473386976562591 -1 0 0
1062 1 54.24609332260279 32.52357337391964 1.692811595678943 -1 0 0