LAMMPS data file via write_data, version 29 Aug 2024, timestep = 2, units = metal

2688 atoms
4 atom types

0 100.146633826344 xlo xhi
0 101.18445049664 ylo yhi
-50 50 zlo zhi

Masses

1 118.71
2 118.71
3 127.6
4 127.6

Atoms # atomic

723 3 2.1137535383239573e-13 1.2045767916263683 -0.0065087971962246235 0 0 0
727 3 4.17277640943121 1.2045767916263683 -0.006508797196224746 0 0 0
726 1 4.1727764094307895 3.6137303748796388 1.692612136082337 0 0 0
724 3 2.086388204715275 4.818307166506367 -0.006508797196223777 0 0 0
731 3 8.345552818862206 1.2045767916263677 -0.006508797196223387 0 0 0
730 1 8.345552818861785 3.613730374879638 1.6926121360823378 0 0 0
728 3 6.2591646141462745 4.818307166506368 -0.006508797196224729 0 0 0
732 3 10.431941023577272 4.818307166506367 -0.006508797196223715 0 0 0
735 3 12.518329228293206 1.2045767916263685 -0.0065087971962251665 0 0 0
739 3 16.69110563772421 1.2045767916263668 -0.006508797196222224 0 0 0
734 1 12.518329228292787 3.6137303748796388 1.6926121360823367 0 0 0
738 1 16.691105637723787 3.6137303748796383 1.692612136082338 0 0 0
736 3 14.604717433008274 4.818307166506367 -0.006508797196223553 0 0 0
743 3 20.863882047155208 1.204576791626368 -0.006508797196224889 0 0 0
742 1 20.863882047154785 3.613730374879639 1.6926121360823356 0 0 0
740 3 18.77749384243927 4.818307166506368 -0.006508797196224777 0 0 0
744 3 22.950270251870275 4.818307166506366 -0.00650879719622275 0 0 0
747 3 25.036658456586213 1.2045767916263672 -0.006508797196222533 0 0 0
751 3 29.20943486601721 1.204576791626368 -0.006508797196224792 0 0 0
746 1 25.03665845658579 3.6137303748796383 1.692612136082338 0 0 0
750 1 29.209434866016785 3.613730374879639 1.6926121360823356 0 0 0
748 3 27.123046661301274 4.818307166506369 -0.006508797196225171 0 0 0
755 3 33.382211275448206 1.2045767916263683 -0.006508797196224578 0 0 0
754 1 33.38221127544779 3.613730374879638 1.6926121360823378 0 0 0
752 3 31.295823070732276 4.818307166506368 -0.006508797196224836 0 0 0
759 3 37.55498768487921 1.2045767916263674 -0.006508797196222934 0 0 0
758 1 37.55498768487879 3.613730374879638 1.6926121360823385 0 0 0
756 3 35.46859948016327 4.818307166506366 -0.0065087971962227995 0 0 0
760 3 39.64137588959427 4.818307166506368 -0.006508797196224169 0 0 0
763 3 41.72776409431021 1.2045767916263679 -0.006508797196224387 0 0 0
767 3 45.90054050374121 1.2045767916263688 -0.0065087971962253235 0 0 0
762 1 41.727764094309784 3.6137303748796397 1.6926121360823352 0 0 0
766 1 45.90054050374079 3.6137303748796374 1.6926121360823383 0 0 0
764 3 43.814152299025274 4.818307166506367 -0.006508797196223303 0 0 0
675 3 50.07331691317221 1.2045767916263663 -0.00650879719622172 -1 0 0
674 1 50.07331691317179 3.6137303748796388 1.6926121360823367 -1 0 0
768 3 47.986928708456276 4.818307166506368 -0.0065087971962238395 0 0 0
676 3 52.15970511788728 4.818307166506367 -0.00650879719622389 -1 0 0
679 3 54.24609332260321 1.204576791626368 -0.0065087971962243234 -1 0 0
683 3 58.41886973203421 1.2045767916263677 -0.006508797196223892 -1 0 0
678 1 54.24609332260279 3.6137303748796388 1.6926121360823365 -1 0 0
682 1 58.41886973203379 3.6137303748796388 1.6926121360823365 -1 0 0
680 3 56.33248152731828 4.818307166506369 -0.006508797196225388 -1 0 0
687 3 62.59164614146521 1.204576791626368 -0.006508797196224323 -1 0 0
686 1 62.59164614146479 3.6137303748796383 1.6926121360823376 -1 0 0
684 3 60.505257936749274 4.818307166506367 -0.0065087971962236885 -1 0 0
688 3 64.67803434618028 4.818307166506367 -0.006508797196223806 -1 0 0
691 3 66.76442255089621 1.2045767916263679 -0.006508797196223764 -1 0 0
690 1 66.76442255089579 3.6137303748796388 1.6926121360823372 -1 0 0
692 3 68.85081075561128 4.818307166506369 -0.0065087971962251995 -1 0 0
695 3 70.93719896032721 1.2045767916263685 -0.006508797196225092 -1 0 0
699 3 75.10997536975822 1.2045767916263674 -0.006508797196223303 -1 0 0
694 1 70.93719896032678 3.6137303748796374 1.6926121360823383 -1 0 0
698 1 75.10997536975779 3.6137303748796388 1.6926121360823365 -1 0 0
696 3 73.02358716504227 4.818307166506366 -0.006508797196221877 -1 0 0
703 3 79.28275177918921 1.2045767916263679 -0.006508797196223989 -1 0 0
702 1 79.28275177918879 3.6137303748796383 1.6926121360823374 -1 0 0
700 3 77.19636357447328 4.818307166506369 -0.006508797196225283 -1 0 0
704 3 81.36913998390428 4.818307166506366 -0.006508797196222337 -1 0 0
707 3 83.45552818862022 1.2045767916263668 -0.006508797196221976 -1 0 0
711 3 87.62830459805122 1.2045767916263692 -0.006508797196225918 -1 0 0
706 1 83.4555281886198 3.613730374879639 1.6926121360823367 -1 0 0
710 1 87.62830459805079 3.613730374879638 1.6926121360823376 -1 0 0
708 3 85.54191639333528 4.818307166506368 -0.0065087971962249245 -1 0 0
715 3 91.80108100748221 1.2045767916263679 -0.006508797196223986 -1 0 0
714 1 91.80108100748178 3.6137303748796383 1.6926121360823374 -1 0 0
712 3 89.71469280276628 4.818307166506369 -0.006508797196225177 -1 0 0
716 3 93.88746921219727 4.818307166506366 -0.006508797196222336 -1 0 0
722 1 100.14663382634379 3.6137303748796388 1.6926121360823367 -1 0 0
719 3 95.97385741691322 1.2045767916263668 -0.006508797196221993 -1 0 0
718 1 95.9738574169128 3.613730374879639 1.6926121360823365 -1 0 0
720 3 98.06024562162828 4.818307166506369 -0.006508797196225065 -1 0 0
819 3 2.114957091342936e-13 8.432037541386368 -0.006508797196224681 0 0 0
817 1 2.0863882047157256 7.227460749759638 1.6926121360823367 0 0 0
823 3 4.1727764094312105 8.432037541386368 -0.0065087971962248005 0 0 0
822 1 4.1727764094307895 10.841191124639638 1.6926121360823365 0 0 0
821 1 6.259164614146722 7.227460749759637 1.6926121360823378 0 0 0
827 3 8.345552818862206 8.432037541386368 -0.00650879719622327 0 0 0
825 1 10.431941023577723 7.227460749759638 1.6926121360823367 0 0 0
826 1 8.345552818861787 10.841191124639638 1.6926121360823376 0 0 0
831 3 12.518329228293206 8.432037541386368 -0.006508797196225137 0 0 0
829 1 14.60471743300872 7.227460749759638 1.692612136082337 0 0 0
835 3 16.69110563772421 8.432037541386366 -0.006508797196222078 0 0 0
830 1 12.518329228292787 10.841191124639638 1.6926121360823365 0 0 0
834 1 16.691105637723787 10.841191124639638 1.6926121360823378 0 0 0
833 1 18.777493842439725 7.227460749759637 1.6926121360823378 0 0 0
839 3 20.863882047155208 8.432037541386366 -0.006508797196225185 0 0 0
837 1 22.950270251870723 7.227460749759639 1.692612136082336 0 0 0
838 1 20.863882047154785 10.841191124639638 1.6926121360823356 0 0 0
843 3 25.036658456586213 8.432037541386366 -0.006508797196222373 0 0 0
841 1 27.12304666130173 7.227460749759637 1.6926121360823378 0 0 0
847 3 29.20943486601721 8.432037541386366 -0.006508797196225035 0 0 0
842 1 25.03665845658579 10.841191124639638 1.6926121360823378 0 0 0
846 1 29.20943486601679 10.841191124639638 1.6926121360823352 0 0 0
845 1 31.295823070732723 7.227460749759637 1.6926121360823383 0 0 0
851 3 33.382211275448206 8.432037541386366 -0.006508797196224823 0 0 0
850 1 33.38221127544779 10.841191124639636 1.6926121360823376 0 0 0
849 1 35.46859948016372 7.227460749759639 1.6926121360823352 0 0 0
855 3 37.55498768487921 8.432037541386366 -0.006508797196222903 0 0 0
853 1 39.64137588959473 7.227460749759637 1.6926121360823385 0 0 0
854 1 37.55498768487879 10.841191124639638 1.6926121360823383 0 0 0
859 3 41.72776409431021 8.432037541386366 -0.006508797196224695 0 0 0
857 1 43.81415229902572 7.22746074975964 1.6926121360823347 0 0 0
863 3 45.90054050374121 8.432037541386368 -0.006508797196225187 0 0 0
858 1 41.727764094309784 10.841191124639638 1.6926121360823352 0 0 0
862 1 45.90054050374079 10.841191124639638 1.6926121360823383 0 0 0
861 1 47.98692870845672 7.227460749759637 1.6926121360823385 0 0 0
771 3 50.07331691317221 8.432037541386364 -0.006508797196221859 -1 0 0
769 1 52.159705117887725 7.227460749759638 1.692612136082337 -1 0 0
770 1 50.07331691317179 10.841191124639638 1.6926121360823363 -1 0 0
775 3 54.24609332260321 8.432037541386368 -0.00650879719622438 -1 0 0
773 1 56.33248152731873 7.227460749759637 1.6926121360823378 -1 0 0
779 3 58.41886973203421 8.432037541386366 -0.006508797196223927 -1 0 0
774 1 54.24609332260279 10.841191124639638 1.6926121360823365 -1 0 0
778 1 58.41886973203379 10.841191124639638 1.6926121360823363 -1 0 0
777 1 60.50525793674972 7.227460749759638 1.6926121360823363 -1 0 0
783 3 62.59164614146521 8.432037541386366 -0.00650879719622446 -1 0 0
781 1 64.67803434618072 7.227460749759638 1.692612136082337 -1 0 0
782 1 62.59164614146479 10.841191124639638 1.692612136082337 -1 0 0
787 3 66.76442255089621 8.432037541386366 -0.006508797196223999 -1 0 0
785 1 68.85081075561172 7.227460749759637 1.6926121360823383 -1 0 0
786 1 66.76442255089579 10.841191124639638 1.6926121360823367 -1 0 0
791 3 70.93719896032721 8.432037541386368 -0.006508797196225424 -1 0 0
789 1 73.02358716504271 7.22746074975964 1.692612136082335 -1 0 0
795 3 75.10997536975822 8.432037541386366 -0.006508797196223358 -1 0 0
790 1 70.93719896032678 10.841191124639636 1.692612136082338 -1 0 0
794 1 75.10997536975779 10.841191124639638 1.6926121360823363 -1 0 0
793 1 77.19636357447372 7.227460749759637 1.6926121360823383 -1 0 0
799 3 79.28275177918921 8.432037541386366 -0.006508797196224097 -1 0 0
797 1 81.36913998390472 7.227460749759639 1.6926121360823358 -1 0 0
798 1 79.28275177918879 10.841191124639638 1.692612136082337 -1 0 0
803 3 83.45552818862022 8.432037541386366 -0.006508797196222034 -1 0 0
801 1 85.54191639333573 7.227460749759637 1.692612136082338 -1 0 0
807 3 87.62830459805122 8.432037541386368 -0.00650879719622603 -1 0 0
802 1 83.4555281886198 10.841191124639638 1.6926121360823363 -1 0 0
806 1 87.62830459805079 10.841191124639636 1.6926121360823374 -1 0 0
805 1 89.71469280276672 7.227460749759637 1.6926121360823376 -1 0 0
811 3 91.80108100748221 8.432037541386366 -0.0065087971962240814 -1 0 0
809 1 93.88746921219771 7.227460749759639 1.6926121360823358 -1 0 0
810 1 91.80108100748178 10.841191124639638 1.692612136082337 -1 0 0
818 1 100.14663382634379 10.841191124639638 1.6926121360823365 -1 0 0
815 3 95.97385741691322 8.432037541386366 -0.006508797196222051 -1 0 0
813 1 98.06024562162872 7.227460749759636 1.6926121360823385 -1 0 0
814 1 95.9738574169128 10.841191124639638 1.6926121360823363 -1 0 0
820 3 2.086388204715275 12.045767916266366 -0.006508797196225227 0 0 0
913 1 2.0863882047157256 14.454921499519635 1.6926121360823358 0 0 0
915 3 2.112895455676537e-13 15.659498291146367 -0.006508797196223979 0 0 0
919 3 4.1727764094312105 15.659498291146367 -0.006508797196224094 0 0 0
824 3 6.2591646141462745 12.045767916266366 -0.006508797196226341 0 0 0
828 3 10.431941023577272 12.045767916266364 -0.006508797196225492 0 0 0
917 1 6.259164614146722 14.454921499519633 1.692612136082337 0 0 0
921 1 10.431941023577723 14.454921499519635 1.6926121360823358 0 0 0
923 3 8.345552818862208 15.659498291146367 -0.006508797196222519 0 0 0
832 3 14.604717433008274 12.045767916266364 -0.006508797196224927 0 0 0
925 1 14.604717433008721 14.454921499519635 1.6926121360823358 0 0 0
927 3 12.518329228293206 15.659498291146367 -0.006508797196224256 0 0 0
931 3 16.69110563772421 15.659498291146367 -0.00650879719622121 0 0 0
836 3 18.77749384243927 12.045767916266366 -0.006508797196226317 0 0 0
840 3 22.950270251870275 12.045767916266364 -0.006508797196224186 0 0 0
929 1 18.777493842439725 14.454921499519633 1.692612136082337 0 0 0
933 1 22.950270251870723 14.454921499519635 1.6926121360823345 0 0 0
935 3 20.863882047155208 15.659498291146368 -0.006508797196223613 0 0 0
844 3 27.123046661301274 12.045767916266366 -0.006508797196226813 0 0 0
937 1 27.12304666130173 14.454921499519633 1.6926121360823367 0 0 0
939 3 25.036658456586213 15.659498291146367 -0.006508797196221531 0 0 0
943 3 29.20943486601721 15.659498291146368 -0.006508797196223535 0 0 0
848 3 31.295823070732276 12.045767916266366 -0.006508797196226059 0 0 0
941 1 31.295823070732723 14.454921499519633 1.6926121360823374 0 0 0
947 3 33.382211275448206 15.659498291146367 -0.006508797196223787 0 0 0
852 3 35.46859948016327 12.045767916266364 -0.006508797196224153 0 0 0
856 3 39.64137588959427 12.045767916266364 -0.006508797196225799 0 0 0
945 1 35.46859948016372 14.454921499519637 1.6926121360823343 0 0 0
949 1 39.64137588959473 14.454921499519633 1.6926121360823374 0 0 0
951 3 37.55498768487921 15.659498291146367 -0.006508797196222035 0 0 0
860 3 43.814152299025274 12.045767916266364 -0.006508797196224819 0 0 0
953 1 43.81415229902572 14.454921499519637 1.6926121360823336 0 0 0
955 3 41.72776409431021 15.659498291146367 -0.006508797196223205 0 0 0
959 3 45.90054050374121 15.659498291146368 -0.006508797196224218 0 0 0
864 3 47.986928708456276 12.045767916266364 -0.006508797196225479 0 0 0
772 3 52.15970511788728 12.045767916266364 -0.006508797196225403 -1 0 0
957 1 47.98692870845672 14.454921499519633 1.6926121360823374 0 0 0
865 1 52.159705117887725 14.454921499519635 1.6926121360823363 -1 0 0
867 3 50.07331691317221 15.659498291146367 -0.00650879719622037 -1 0 0
776 3 56.33248152731828 12.045767916266366 -0.006508797196226798 -1 0 0
869 1 56.33248152731873 14.454921499519633 1.692612136082337 -1 0 0
871 3 54.24609332260321 15.659498291146368 -0.006508797196222998 -1 0 0
875 3 58.41886973203421 15.659498291146367 -0.006508797196223337 -1 0 0
780 3 60.505257936749274 12.045767916266364 -0.006508797196224734 -1 0 0
784 3 64.67803434618028 12.045767916266364 -0.006508797196224952 -1 0 0
873 1 60.50525793674972 14.454921499519635 1.6926121360823356 -1 0 0
877 1 64.67803434618072 14.454921499519635 1.6926121360823358 -1 0 0
879 3 62.59164614146521 15.659498291146367 -0.006508797196223404 -1 0 0
788 3 68.85081075561128 12.045767916266366 -0.006508797196226559 -1 0 0
881 1 68.85081075561172 14.454921499519633 1.6926121360823374 -1 0 0
883 3 66.76442255089621 15.659498291146368 -0.006508797196222591 -1 0 0
792 3 73.02358716504227 12.045767916266362 -0.006508797196223128 -1 0 0
885 1 73.02358716504271 14.454921499519637 1.6926121360823339 -1 0 0
887 3 70.93719896032721 15.659498291146368 -0.006508797196224283 -1 0 0
891 3 75.10997536975822 15.659498291146367 -0.006508797196222384 -1 0 0
796 3 77.19636357447328 12.045767916266366 -0.006508797196226738 -1 0 0
800 3 81.36913998390428 12.045767916266362 -0.006508797196223615 -1 0 0
889 1 77.19636357447372 14.454921499519633 1.6926121360823372 -1 0 0
893 1 81.36913998390472 14.454921499519635 1.6926121360823345 -1 0 0
895 3 79.28275177918921 15.659498291146368 -0.006508797196222826 -1 0 0
804 3 85.54191639333528 12.045767916266366 -0.006508797196226164 -1 0 0
897 1 85.54191639333573 14.454921499519633 1.6926121360823367 -1 0 0
899 3 83.45552818862022 15.659498291146367 -0.006508797196221259 -1 0 0
903 3 87.62830459805122 15.659498291146368 -0.006508797196224978 -1 0 0
808 3 89.71469280276628 12.045767916266366 -0.0065087971962264615 -1 0 0
812 3 93.88746921219727 12.045767916266362 -0.006508797196223615 -1 0 0
901 1 89.71469280276672 14.454921499519633 1.6926121360823365 -1 0 0
905 1 93.88746921219771 14.454921499519635 1.6926121360823347 -1 0 0
907 3 91.80108100748221 15.659498291146368 -0.006508797196222817 -1 0 0
816 3 98.06024562162828 12.045767916266366 -0.006508797196226692 -1 0 0
909 1 98.06024562162872 14.454921499519633 1.6926121360823374 -1 0 0
911 3 95.97385741691322 15.659498291146367 -0.006508797196221181 -1 0 0
916 3 2.086388204715275 19.273228666026366 -0.00650879719622256 0 0 0
918 1 4.1727764094307895 18.068651874399638 1.6926121360823383 0 0 0
1009 1 2.0863882047157256 21.68238224927964 1.6926121360823354 0 0 0
1011 3 2.1137816145482004e-13 22.88695904090637 -0.006508797196225822 0 0 0
1015 3 4.17277640943121 22.88695904090637 -0.006508797196225661 0 0 0
920 3 6.2591646141462745 19.273228666026366 -0.006508797196223108 0 0 0
922 1 8.345552818861787 18.068651874399638 1.6926121360823392 0 0 0
924 3 10.431941023577272 19.273228666026366 -0.0065087971962222825 0 0 0
1013 1 6.259164614146722 21.682382249279637 1.6926121360823365 0 0 0
1017 1 10.431941023577723 21.68238224927964 1.6926121360823354 0 0 0
1019 3 8.345552818862208 22.88695904090637 -0.006508797196224776 0 0 0
926 1 12.518329228292787 18.068651874399638 1.692612136082338 0 0 0
928 3 14.604717433008274 19.273228666026366 -0.006508797196222053 0 0 0
930 1 16.691105637723787 18.068651874399638 1.6926121360823398 0 0 0
1021 1 14.604717433008721 21.68238224927964 1.6926121360823354 0 0 0
1023 3 12.518329228293206 22.88695904090637 -0.006508797196225903 0 0 0
1027 3 16.69110563772421 22.88695904090637 -0.006508797196223679 0 0 0
932 3 18.77749384243927 19.273228666026366 -0.006508797196223634 0 0 0
934 1 20.863882047154785 18.068651874399638 1.692612136082337 0 0 0
936 3 22.950270251870275 19.273228666026366 -0.006508797196221362 0 0 0
1025 1 18.777493842439725 21.68238224927964 1.6926121360823365 0 0 0
1029 1 22.950270251870723 21.68238224927964 1.6926121360823347 0 0 0
1031 3 20.863882047155208 22.88695904090637 -0.006508797196226229 0 0 0
938 1 25.03665845658579 18.068651874399638 1.6926121360823398 0 0 0
940 3 27.123046661301274 19.273228666026366 -0.006508797196224065 0 0 0
942 1 29.20943486601679 18.068651874399638 1.692612136082337 0 0 0
1033 1 27.12304666130173 21.68238224927964 1.6926121360823365 0 0 0
1035 3 25.036658456586213 22.88695904090637 -0.006508797196224241 0 0 0
1039 3 29.20943486601721 22.88695904090637 -0.006508797196225895 0 0 0
944 3 31.295823070732276 19.273228666026366 -0.0065087971962234726 0 0 0
946 1 33.38221127544779 18.068651874399638 1.6926121360823392 0 0 0
1037 1 31.295823070732723 21.682382249279637 1.692612136082337 0 0 0
1043 3 33.382211275448206 22.88695904090637 -0.006508797196226377 0 0 0
948 3 35.46859948016327 19.273228666026366 -0.006508797196221012 0 0 0
950 1 37.55498768487879 18.068651874399638 1.6926121360823403 0 0 0
952 3 39.64137588959427 19.273228666026366 -0.0065087971962231065 0 0 0
1041 1 35.46859948016372 21.68238224927964 1.692612136082334 0 0 0
1045 1 39.64137588959472 21.682382249279637 1.692612136082337 0 0 0
1047 3 37.55498768487921 22.88695904090637 -0.006508797196224717 0 0 0
954 1 41.727764094309784 18.06865187439964 1.6926121360823365 0 0 0
956 3 43.814152299025274 19.273228666026366 -0.006508797196221895 0 0 0
958 1 45.90054050374079 18.068651874399638 1.6926121360823396 0 0 0
1049 1 43.81415229902572 21.682382249279645 1.6926121360823336 0 0 0
1051 3 41.7277640943102 22.88695904090637 -0.006508797196225809 0 0 0
1055 3 45.90054050374121 22.88695904090637 -0.0065087971962269195 0 0 0
960 3 47.986928708456276 19.273228666026366 -0.006508797196222797 0 0 0
868 3 52.15970511788728 19.273228666026366 -0.006508797196222894 -1 0 0
866 1 50.07331691317179 18.06865187439964 1.6926121360823383 -1 0 0
1053 1 47.98692870845672 21.682382249279637 1.6926121360823372 0 0 0
961 1 52.159705117887725 21.68238224927964 1.6926121360823356 -1 0 0
963 3 50.07331691317221 22.88695904090637 -0.006508797196222809 -1 0 0
870 1 54.24609332260279 18.068651874399638 1.692612136082338 -1 0 0
872 3 56.33248152731828 19.273228666026366 -0.0065087971962240415 -1 0 0
874 1 58.41886973203379 18.068651874399638 1.6926121360823378 -1 0 0
965 1 56.33248152731873 21.682382249279637 1.6926121360823365 -1 0 0
967 3 54.24609332260321 22.88695904090637 -0.006508797196225449 -1 0 0
971 3 58.41886973203421 22.88695904090637 -0.006508797196225517 -1 0 0
876 3 60.505257936749274 19.273228666026366 -0.00650879719622224 -1 0 0
878 1 62.59164614146479 18.068651874399638 1.6926121360823385 -1 0 0
880 3 64.67803434618028 19.273228666026366 -0.006508797196222577 -1 0 0
969 1 60.50525793674972 21.68238224927964 1.6926121360823352 -1 0 0
973 1 64.67803434618072 21.68238224927964 1.6926121360823354 -1 0 0
975 3 62.59164614146521 22.88695904090637 -0.0065087971962257294 -1 0 0
882 1 66.76442255089579 18.068651874399638 1.6926121360823387 -1 0 0
884 3 68.85081075561128 19.273228666026366 -0.006508797196223948 -1 0 0
977 1 68.85081075561172 21.682382249279637 1.6926121360823367 -1 0 0
979 3 66.76442255089621 22.88695904090637 -0.006508797196224842 -1 0 0
886 1 70.93719896032678 18.068651874399638 1.6926121360823398 -1 0 0
888 3 73.02358716504227 19.273228666026366 -0.0065087971962201 -1 0 0
890 1 75.10997536975779 18.068651874399638 1.6926121360823378 -1 0 0
981 1 73.02358716504271 21.682382249279645 1.6926121360823339 -1 0 0
983 3 70.93719896032721 22.88695904090637 -0.006508797196226814 -1 0 0
987 3 75.10997536975822 22.88695904090637 -0.006508797196224992 -1 0 0
892 3 77.19636357447328 19.273228666026366 -0.006508797196224064 -1 0 0
894 1 79.28275177918879 18.068651874399638 1.6926121360823387 -1 0 0
896 3 81.36913998390428 19.273228666026366 -0.006508797196220775 -1 0 0
985 1 77.19636357447372 21.682382249279637 1.692612136082337 -1 0 0
989 1 81.36913998390472 21.68238224927964 1.6926121360823347 -1 0 0
991 3 79.28275177918921 22.88695904090637 -0.006508797196225433 -1 0 0
898 1 83.4555281886198 18.068651874399638 1.6926121360823383 -1 0 0
900 3 85.54191639333528 19.273228666026366 -0.006508797196223303 -1 0 0
902 1 87.62830459805079 18.068651874399638 1.692612136082339 -1 0 0
993 1 85.54191639333573 21.682382249279637 1.6926121360823367 -1 0 0
995 3 83.45552818862022 22.88695904090637 -0.006508797196223886 -1 0 0
999 3 87.62830459805122 22.88695904090637 -0.006508797196227331 -1 0 0
904 3 89.71469280276628 19.273228666026366 -0.006508797196223945 -1 0 0
906 1 91.80108100748178 18.068651874399638 1.6926121360823387 -1 0 0
908 3 93.88746921219727 19.273228666026366 -0.006508797196220775 -1 0 0
997 1 89.71469280276672 21.68238224927964 1.6926121360823365 -1 0 0
1001 1 93.88746921219771 21.68238224927964 1.6926121360823347 -1 0 0
1003 3 91.80108100748221 22.88695904090637 -0.006508797196225425 -1 0 0
914 1 100.14663382634379 18.068651874399638 1.6926121360823383 -1 0 0
910 1 95.9738574169128 18.068651874399638 1.6926121360823383 -1 0 0
912 3 98.06024562162828 19.273228666026366 -0.006508797196223661 -1 0 0
1005 1 98.06024562162872 21.682382249279637 1.692612136082337 -1 0 0
1007 3 95.97385741691322 22.88695904090637 -0.006508797196223799 -1 0 0
1014 1 4.1727764094307895 25.296112624159637 1.6926121360823378 0 0 0
1012 3 2.086388204715275 26.500689415786365 -0.00650879719622296 0 0 0
1105 1 2.0863882047157256 28.90984299903964 1.6926121360823354 0 0 0
1018 1 8.345552818861787 25.296112624159637 1.6926121360823392 0 0 0
1016 3 6.2591646141462745 26.500689415786365 -0.006508797196223517 0 0 0
1020 3 10.431941023577272 26.500689415786365 -0.006508797196222698 0 0 0
1109 1 6.259164614146722 28.909842999039636 1.6926121360823363 0 0 0
1113 1 10.431941023577723 28.90984299903964 1.6926121360823354 0 0 0
1022 1 12.518329228292787 25.296112624159637 1.6926121360823378 0 0 0
1026 1 16.691105637723787 25.296112624159637 1.6926121360823396 0 0 0
1024 3 14.604717433008274 26.500689415786365 -0.006508797196222461 0 0 0
1117 1 14.604717433008721 28.90984299903964 1.6926121360823354 0 0 0
1030 1 20.863882047154785 25.29611262415964 1.692612136082337 0 0 0
1028 3 18.77749384243927 26.500689415786365 -0.006508797196223614 0 0 0
1032 3 22.950270251870275 26.500689415786365 -0.006508797196221331 0 0 0
1121 1 18.777493842439725 28.90984299903964 1.6926121360823365 0 0 0
1125 1 22.950270251870723 28.90984299903964 1.6926121360823347 0 0 0
1034 1 25.03665845658579 25.296112624159637 1.6926121360823396 0 0 0
1038 1 29.209434866016785 25.29611262415964 1.692612136082337 0 0 0
1036 3 27.123046661301274 26.500689415786365 -0.006508797196224035 0 0 0
1129 1 27.12304666130173 28.90984299903964 1.6926121360823365 0 0 0
1042 1 33.38221127544779 25.296112624159637 1.6926121360823392 0 0 0
1040 3 31.295823070732276 26.500689415786365 -0.006508797196223646 0 0 0
1133 1 31.295823070732723 28.909842999039636 1.692612136082337 0 0 0
1046 1 37.55498768487879 25.296112624159637 1.69261213608234 0 0 0
1044 3 35.46859948016327 26.500689415786365 -0.006508797196221069 0 0 0
1048 3 39.64137588959427 26.500689415786365 -0.0065087971962230744 0 0 0
1137 1 35.46859948016372 28.90984299903964 1.6926121360823343 0 0 0
1141 1 39.64137588959472 28.909842999039636 1.6926121360823372 0 0 0
1050 1 41.727764094309784 25.29611262415964 1.6926121360823365 0 0 0
1054 1 45.90054050374079 25.296112624159637 1.6926121360823396 0 0 0
1052 3 43.814152299025274 26.500689415786365 -0.006508797196221861 0 0 0
1145 1 43.81415229902572 28.909842999039643 1.6926121360823336 0 0 0
962 1 50.07331691317179 25.29611262415964 1.6926121360823383 -1 0 0
1056 3 47.986928708456276 26.500689415786365 -0.006508797196222862 0 0 0
964 3 52.15970511788728 26.500689415786365 -0.006508797196222941 -1 0 0
1149 1 47.98692870845672 28.909842999039636 1.6926121360823372 0 0 0
1057 1 52.159705117887725 28.90984299903964 1.6926121360823356 -1 0 0
966 1 54.24609332260279 25.29611262415964 1.6926121360823378 -1 0 0
970 1 58.41886973203379 25.296112624159637 1.6926121360823378 -1 0 0
968 3 56.33248152731828 26.500689415786365 -0.006508797196224118 -1 0 0
1061 1 56.33248152731873 28.909842999039636 1.6926121360823365 -1 0 0
974 1 62.59164614146479 25.296112624159637 1.6926121360823387 -1 0 0
972 3 60.505257936749274 26.500689415786365 -0.006508797196222309 -1 0 0
976 3 64.67803434618028 26.500689415786365 -0.006508797196222625 -1 0 0
1065 1 60.50525793674972 28.90984299903964 1.6926121360823352 -1 0 0
1069 1 64.67803434618072 28.90984299903964 1.6926121360823354 -1 0 0
978 1 66.76442255089579 25.296112624159637 1.6926121360823385 -1 0 0
980 3 68.85081075561128 26.500689415786365 -0.006508797196223923 -1 0 0
1073 1 68.85081075561172 28.909842999039636 1.692612136082337 -1 0 0
982 1 70.93719896032678 25.296112624159637 1.6926121360823394 -1 0 0
986 1 75.10997536975779 25.296112624159637 1.6926121360823376 -1 0 0
984 3 73.02358716504227 26.500689415786365 -0.006508797196220163 -1 0 0
1077 1 73.02358716504271 28.909842999039643 1.6926121360823339 -1 0 0
990 1 79.28275177918879 25.296112624159637 1.6926121360823387 -1 0 0
988 3 77.19636357447328 26.500689415786365 -0.006508797196224034 -1 0 0
992 3 81.36913998390428 26.500689415786365 -0.006508797196220835 -1 0 0
1081 1 77.19636357447372 28.909842999039636 1.692612136082337 -1 0 0
1085 1 81.36913998390472 28.90984299903964 1.6926121360823347 -1 0 0
994 1 83.4555281886198 25.296112624159637 1.692612136082338 -1 0 0
998 1 87.62830459805079 25.296112624159637 1.6926121360823387 -1 0 0
996 3 85.54191639333528 26.500689415786365 -0.006508797196223378 -1 0 0
1089 1 85.54191639333573 28.909842999039636 1.6926121360823367 -1 0 0
1002 1 91.80108100748178 25.296112624159637 1.6926121360823387 -1 0 0
1000 3 89.71469280276628 26.500689415786365 -0.006508797196224008 -1 0 0
1004 3 93.88746921219727 26.500689415786365 -0.006508797196220837 -1 0 0
1093 1 89.71469280276672 28.90984299903964 1.6926121360823365 -1 0 0
1097 1 93.88746921219771 28.90984299903964 1.6926121360823347 -1 0 0
1010 1 100.14663382634379 25.296112624159637 1.692612136082338 -1 0 0
1006 1 95.9738574169128 25.296112624159637 1.692612136082338 -1 0 0
1008 3 98.06024562162828 26.500689415786365 -0.006508797196223882 -1 0 0
1101 1 98.06024562162872 28.909842999039636 1.692612136082337 -1 0 0
1107 3 2.113783381591591e-13 30.114419790666368 -0.006508797196225769 0 0 0
1111 3 4.1727764094312105 30.114419790666368 -0.0065087971962256635 0 0 0
1110 1 4.1727764094307895 32.52357337391964 1.692612136082338 0 0 0
1108 3 2.086388204715275 33.72815016554636 -0.00650879719622296 0 0 0
1115 3 8.345552818862206 30.114419790666368 -0.006508797196224246 0 0 0
1114 1 8.345552818861785 32.52357337391964 1.6926121360823392 0 0 0
1112 3 6.2591646141462745 33.72815016554637 -0.006508797196223907 0 0 0
1116 3 10.431941023577272 33.72815016554636 -0.006508797196222874 0 0 0
1119 3 12.518329228293206 30.114419790666368 -0.006508797196225849 0 0 0
1123 3 16.69110563772421 30.114419790666368 -0.006508797196223072 0 0 0
1118 1 12.518329228292787 32.52357337391964 1.6926121360823383 0 0 0
1122 1 16.691105637723787 32.52357337391964 1.6926121360823396 0 0 0
1120 3 14.604717433008274 33.72815016554636 -0.006508797196222713 0 0 0
1127 3 20.863882047155208 30.114419790666368 -0.006508797196226229 0 0 0
1126 1 20.863882047154785 32.52357337391964 1.692612136082337 0 0 0
1124 3 18.77749384243927 33.72815016554637 -0.006508797196223977 0 0 0
1128 3 22.950270251870275 33.72815016554636 -0.0065087971962221715 0 0 0
1131 3 25.036658456586213 30.114419790666368 -0.006508797196223638 0 0 0
1135 3 29.20943486601721 30.114419790666368 -0.00650879719622595 0 0 0
1130 1 25.03665845658579 32.52357337391964 1.6926121360823396 0 0 0
1134 1 29.20943486601679 32.52357337391964 1.6926121360823365 0 0 0
1132 3 27.123046661301274 33.72815016554637 -0.006508797196224445 0 0 0
1139 3 33.382211275448206 30.114419790666368 -0.006508797196225782 0 0 0
1138 1 33.38221127544779 32.52357337391964 1.692612136082339 0 0 0
1136 3 31.295823070732276 33.72815016554637 -0.006508797196223958 0 0 0
1143 3 37.55498768487921 30.114419790666368 -0.006508797196224116 0 0 0
1142 1 37.55498768487879 32.52357337391964 1.69261213608234 0 0 0
1140 3 35.46859948016327 33.72815016554636 -0.006508797196222157 0 0 0
1144 3 39.64137588959427 33.72815016554637 -0.006508797196223357 0 0 0
1147 3 41.7277640943102 30.114419790666368 -0.00650879719622581 0 0 0
1151 3 45.90054050374121 30.114419790666368 -0.006508797196226272 0 0 0
1146 1 41.727764094309784 32.52357337391964 1.6926121360823365 0 0 0
1150 1 45.90054050374079 32.52357337391964 1.69261213608234 0 0 0
1148 3 43.814152299025274 33.72815016554636 -0.006508797196222715 0 0 0
1059 3 50.07331691317221 30.114419790666368 -0.006508797196222756 -1 0 0
1058 1 50.07331691317179 32.52357337391964 1.692612136082339 -1 0 0
1152 3 47.986928708456276 33.72815016554636 -0.0065087971962231525 0 0 0
1060 3 52.15970511788728 33.72815016554636 -0.006508797196223039 -1 0 0
1063 3 54.24609332260321 30.114419790666368 -0.006508797196225449 -1 0 0
1067 3 58.41886973203421 30.114419790666368 -0.006508797196224986 -1 0 0