LAMMPS data file via write_data, version 29 Aug 2024, timestep = 0, units = metal

1344 atoms
2 atom types

0 100.146633826344 xlo xhi
0 101.18445049664 ylo yhi
0 16.679512231789 zlo zhi

Masses

1 118.71
2 127.6

Atoms # atomic

723 2 0 1.2045767916260033 0 0 0 0
721 1 2.086388204716002 7.105427357601002e-15 1.686160550565 0 0 0
727 2 4.172776409431002 1.2045767916260033 0 0 0 0
725 1 6.2591646141469965 7.105427357601002e-15 1.686160550565 0 0 0
731 2 8.345552818861997 1.2045767916260033 0 0 0 0
729 1 10.431941023577998 7.105427357601002e-15 1.686160550565 0 0 0
735 2 12.518329228292998 1.2045767916260033 0 0 0 0
733 1 14.604717433008993 7.105427357601002e-15 1.686160550565 0 0 0
739 2 16.691105637724 1.2045767916260033 0 0 0 0
737 1 18.777493842440002 7.105427357601002e-15 1.686160550565 0 0 0
743 2 20.863882047154995 1.2045767916260033 0 0 0 0
741 1 22.950270251870997 7.105427357601002e-15 1.686160550565 0 0 0
747 2 25.036658456586004 1.2045767916260033 0 0 0 0
745 1 27.123046661302006 7.105427357601002e-15 1.686160550565 0 0 0
751 2 29.209434866017 1.2045767916260033 0 0 0 0
749 1 31.295823070733 7.105427357601002e-15 1.686160550565 0 0 0
755 2 33.38221127544799 1.2045767916260033 0 0 0 0
753 1 35.468599480163995 7.105427357601002e-15 1.686160550565 0 0 0
759 2 37.554987684879 1.2045767916260033 0 0 0 0
757 1 39.641375889595004 7.105427357601002e-15 1.686160550565 0 0 0
763 2 41.72776409431 1.2045767916260033 0 0 0 0
761 1 43.814152299026 7.105427357601002e-15 1.686160550565 0 0 0
767 2 45.900540503741006 1.2045767916260033 0 0 0 0
765 1 47.98692870845699 7.105427357601002e-15 1.686160550565 0 0 0
675 2 50.073316913172 1.2045767916260033 0 -1 0 0
673 1 52.159705117888 7.105427357601002e-15 1.686160550565 -1 0 0
679 2 54.246093322603 1.2045767916260033 0 -1 0 0
677 1 56.332481527319004 7.105427357601002e-15 1.686160550565 -1 0 0
683 2 58.418869732034 1.2045767916260033 0 -1 0 0
681 1 60.50525793675 7.105427357601002e-15 1.686160550565 -1 0 0
687 2 62.591646141465 1.2045767916260033 0 -1 0 0
685 1 64.678034346181 7.105427357601002e-15 1.686160550565 -1 0 0
691 2 66.764422550896 1.2045767916260033 0 -1 0 0
689 1 68.850810755612 7.105427357601002e-15 1.686160550565 -1 0 0
695 2 70.937198960327 1.2045767916260033 0 -1 0 0
693 1 73.023587165043 7.105427357601002e-15 1.686160550565 -1 0 0
699 2 75.109975369758 1.2045767916260033 0 -1 0 0
697 1 77.19636357447399 7.105427357601002e-15 1.686160550565 -1 0 0
703 2 79.282751779189 1.2045767916260033 0 -1 0 0
701 1 81.369139983905 7.105427357601002e-15 1.686160550565 -1 0 0
707 2 83.45552818862001 1.2045767916260033 0 -1 0 0
705 1 85.54191639333601 7.105427357601002e-15 1.686160550565 -1 0 0
711 2 87.628304598051 1.2045767916260033 0 -1 0 0
709 1 89.71469280276699 7.105427357601002e-15 1.686160550565 -1 0 0
715 2 91.801081007482 1.2045767916260033 0 -1 0 0
713 1 93.887469212198 7.105427357601002e-15 1.686160550565 -1 0 0
719 2 95.973857416913 1.2045767916260033 0 -1 0 0
717 1 98.06024562162901 7.105427357601002e-15 1.686160550565 -1 0 0
722 1 0 3.6137303748800065 1.686160550565 0 0 0
726 1 4.172776409431002 3.6137303748800065 1.686160550565 0 0 0
730 1 8.345552818861997 3.6137303748800065 1.686160550565 0 0 0
734 1 12.518329228292998 3.6137303748800065 1.686160550565 0 0 0
738 1 16.691105637724 3.6137303748800065 1.686160550565 0 0 0
742 1 20.863882047154995 3.6137303748800065 1.686160550565 0 0 0
746 1 25.036658456586004 3.6137303748800065 1.686160550565 0 0 0
750 1 29.209434866017 3.6137303748800065 1.686160550565 0 0 0
754 1 33.38221127544799 3.6137303748800065 1.686160550565 0 0 0
758 1 37.554987684879 3.6137303748800065 1.686160550565 0 0 0
762 1 41.72776409431 3.6137303748800065 1.686160550565 0 0 0
766 1 45.900540503741006 3.6137303748800065 1.686160550565 0 0 0
674 1 50.073316913172 3.6137303748800065 1.686160550565 -1 0 0
678 1 54.246093322603 3.6137303748800065 1.686160550565 -1 0 0
682 1 58.418869732034 3.6137303748800065 1.686160550565 -1 0 0
686 1 62.591646141465 3.6137303748800065 1.686160550565 -1 0 0
690 1 66.764422550896 3.6137303748800065 1.686160550565 -1 0 0
694 1 70.937198960327 3.6137303748800065 1.686160550565 -1 0 0
698 1 75.109975369758 3.6137303748800065 1.686160550565 -1 0 0
702 1 79.282751779189 3.6137303748800065 1.686160550565 -1 0 0
706 1 83.45552818862001 3.6137303748800065 1.686160550565 -1 0 0
710 1 87.628304598051 3.6137303748800065 1.686160550565 -1 0 0
714 1 91.801081007482 3.6137303748800065 1.686160550565 -1 0 0
718 1 95.973857416913 3.6137303748800065 1.686160550565 -1 0 0
724 2 2.086388204715 4.818307166506003 0 0 0 0
728 2 6.259164614146002 4.818307166506003 0 0 0 0
732 2 10.431941023576996 4.818307166506003 0 0 0 0
736 2 14.604717433007998 4.818307166506003 0 0 0 0
740 2 18.777493842438993 4.818307166506003 0 0 0 0
744 2 22.950270251870002 4.818307166506003 0 0 0 0
748 2 27.123046661300997 4.818307166506003 0 0 0 0
752 2 31.295823070732006 4.818307166506003 0 0 0 0
756 2 35.468599480163 4.818307166506003 0 0 0 0
760 2 39.641375889593995 4.818307166506003 0 0 0 0
764 2 43.814152299025004 4.818307166506003 0 0 0 0
768 2 47.986928708456 4.818307166506003 0 0 0 0
676 2 52.159705117887 4.818307166506003 0 -1 0 0
680 2 56.332481527318 4.818307166506003 0 -1 0 0
684 2 60.505257936749004 4.818307166506003 0 -1 0 0
688 2 64.67803434618 4.818307166506003 0 -1 0 0
692 2 68.85081075561101 4.818307166506003 0 -1 0 0
696 2 73.023587165042 4.818307166506003 0 -1 0 0
700 2 77.196363574473 4.818307166506003 0 -1 0 0
704 2 81.369139983904 4.818307166506003 0 -1 0 0
708 2 85.541916393335 4.818307166506003 0 -1 0 0
712 2 89.714692802766 4.818307166506003 0 -1 0 0
716 2 93.887469212197 4.818307166506003 0 -1 0 0
720 2 98.060245621628 4.818307166506003 0 -1 0 0
819 2 0 8.432037541386002 0 0 0 0
817 1 2.086388204716002 7.227460749760006 1.686160550565 0 0 0
823 2 4.172776409431002 8.432037541386002 0 0 0 0
821 1 6.2591646141469965 7.227460749760006 1.686160550565 0 0 0
827 2 8.345552818861997 8.432037541386002 0 0 0 0
825 1 10.431941023577998 7.227460749760006 1.686160550565 0 0 0
831 2 12.518329228292998 8.432037541386002 0 0 0 0
829 1 14.604717433008993 7.227460749760006 1.686160550565 0 0 0
835 2 16.691105637724 8.432037541386002 0 0 0 0
833 1 18.777493842440002 7.227460749760006 1.686160550565 0 0 0
839 2 20.863882047154995 8.432037541386002 0 0 0 0
837 1 22.950270251870997 7.227460749760006 1.686160550565 0 0 0
843 2 25.036658456586004 8.432037541386002 0 0 0 0
841 1 27.123046661302006 7.227460749760006 1.686160550565 0 0 0
847 2 29.209434866017 8.432037541386002 0 0 0 0
845 1 31.295823070733 7.227460749760006 1.686160550565 0 0 0
851 2 33.38221127544799 8.432037541386002 0 0 0 0
849 1 35.468599480163995 7.227460749760006 1.686160550565 0 0 0
855 2 37.554987684879 8.432037541386002 0 0 0 0
853 1 39.641375889595004 7.227460749760006 1.686160550565 0 0 0
859 2 41.72776409431 8.432037541386002 0 0 0 0
857 1 43.814152299026 7.227460749760006 1.686160550565 0 0 0
863 2 45.900540503741006 8.432037541386002 0 0 0 0
861 1 47.98692870845699 7.227460749760006 1.686160550565 0 0 0
771 2 50.073316913172 8.432037541386002 0 -1 0 0
769 1 52.159705117888 7.227460749760006 1.686160550565 -1 0 0
775 2 54.246093322603 8.432037541386002 0 -1 0 0
773 1 56.332481527319004 7.227460749760006 1.686160550565 -1 0 0
779 2 58.418869732034 8.432037541386002 0 -1 0 0
777 1 60.50525793675 7.227460749760006 1.686160550565 -1 0 0
783 2 62.591646141465 8.432037541386002 0 -1 0 0
781 1 64.678034346181 7.227460749760006 1.686160550565 -1 0 0
787 2 66.764422550896 8.432037541386002 0 -1 0 0
785 1 68.850810755612 7.227460749760006 1.686160550565 -1 0 0
791 2 70.937198960327 8.432037541386002 0 -1 0 0
789 1 73.023587165043 7.227460749760006 1.686160550565 -1 0 0
795 2 75.109975369758 8.432037541386002 0 -1 0 0
793 1 77.19636357447399 7.227460749760006 1.686160550565 -1 0 0
799 2 79.282751779189 8.432037541386002 0 -1 0 0
797 1 81.369139983905 7.227460749760006 1.686160550565 -1 0 0
803 2 83.45552818862001 8.432037541386002 0 -1 0 0
801 1 85.54191639333601 7.227460749760006 1.686160550565 -1 0 0
807 2 87.628304598051 8.432037541386002 0 -1 0 0
805 1 89.71469280276699 7.227460749760006 1.686160550565 -1 0 0
811 2 91.801081007482 8.432037541386002 0 -1 0 0
809 1 93.887469212198 7.227460749760006 1.686160550565 -1 0 0
815 2 95.973857416913 8.432037541386002 0 -1 0 0
813 1 98.06024562162901 7.227460749760006 1.686160550565 -1 0 0
818 1 0 10.841191124640005 1.686160550565 0 0 0
822 1 4.172776409431002 10.841191124640005 1.686160550565 0 0 0
826 1 8.345552818861997 10.841191124640005 1.686160550565 0 0 0
830 1 12.518329228292998 10.841191124640005 1.686160550565 0 0 0
834 1 16.691105637724 10.841191124640005 1.686160550565 0 0 0
838 1 20.863882047154995 10.841191124640005 1.686160550565 0 0 0
842 1 25.036658456586004 10.841191124640005 1.686160550565 0 0 0
846 1 29.209434866017 10.841191124640005 1.686160550565 0 0 0
850 1 33.38221127544799 10.841191124640005 1.686160550565 0 0 0
854 1 37.554987684879 10.841191124640005 1.686160550565 0 0 0
858 1 41.72776409431 10.841191124640005 1.686160550565 0 0 0
862 1 45.900540503741006 10.841191124640005 1.686160550565 0 0 0
770 1 50.073316913172 10.841191124640005 1.686160550565 -1 0 0
774 1 54.246093322603 10.841191124640005 1.686160550565 -1 0 0
778 1 58.418869732034 10.841191124640005 1.686160550565 -1 0 0
782 1 62.591646141465 10.841191124640005 1.686160550565 -1 0 0
786 1 66.764422550896 10.841191124640005 1.686160550565 -1 0 0
790 1 70.937198960327 10.841191124640005 1.686160550565 -1 0 0
794 1 75.109975369758 10.841191124640005 1.686160550565 -1 0 0
798 1 79.282751779189 10.841191124640005 1.686160550565 -1 0 0
802 1 83.45552818862001 10.841191124640005 1.686160550565 -1 0 0
806 1 87.628304598051 10.841191124640005 1.686160550565 -1 0 0
810 1 91.801081007482 10.841191124640005 1.686160550565 -1 0 0
814 1 95.973857416913 10.841191124640005 1.686160550565 -1 0 0
820 2 2.086388204715 12.045767916266001 0 0 0 0
824 2 6.259164614146002 12.045767916266001 0 0 0 0
828 2 10.431941023576996 12.045767916266001 0 0 0 0
832 2 14.604717433007998 12.045767916266001 0 0 0 0
836 2 18.777493842438993 12.045767916266001 0 0 0 0
840 2 22.950270251870002 12.045767916266001 0 0 0 0
844 2 27.123046661300997 12.045767916266001 0 0 0 0
848 2 31.295823070732006 12.045767916266001 0 0 0 0
852 2 35.468599480163 12.045767916266001 0 0 0 0
856 2 39.641375889593995 12.045767916266001 0 0 0 0
860 2 43.814152299025004 12.045767916266001 0 0 0 0
864 2 47.986928708456 12.045767916266001 0 0 0 0
772 2 52.159705117887 12.045767916266001 0 -1 0 0
776 2 56.332481527318 12.045767916266001 0 -1 0 0
780 2 60.505257936749004 12.045767916266001 0 -1 0 0
784 2 64.67803434618 12.045767916266001 0 -1 0 0
788 2 68.85081075561101 12.045767916266001 0 -1 0 0
792 2 73.023587165042 12.045767916266001 0 -1 0 0
796 2 77.196363574473 12.045767916266001 0 -1 0 0
800 2 81.369139983904 12.045767916266001 0 -1 0 0
804 2 85.541916393335 12.045767916266001 0 -1 0 0
808 2 89.714692802766 12.045767916266001 0 -1 0 0
812 2 93.887469212197 12.045767916266001 0 -1 0 0
816 2 98.060245621628 12.045767916266001 0 -1 0 0
913 1 2.086388204716002 14.454921499519997 1.686160550565 0 0 0
917 1 6.2591646141469965 14.454921499519997 1.686160550565 0 0 0
921 1 10.431941023577998 14.454921499519997 1.686160550565 0 0 0
925 1 14.604717433008993 14.454921499519997 1.686160550565 0 0 0
929 1 18.777493842440002 14.454921499519997 1.686160550565 0 0 0
933 1 22.950270251870997 14.454921499519997 1.686160550565 0 0 0
937 1 27.123046661302006 14.454921499519997 1.686160550565 0 0 0
941 1 31.295823070733 14.454921499519997 1.686160550565 0 0 0
945 1 35.468599480163995 14.454921499519997 1.686160550565 0 0 0
949 1 39.641375889595004 14.454921499519997 1.686160550565 0 0 0
953 1 43.814152299026 14.454921499519997 1.686160550565 0 0 0
957 1 47.98692870845699 14.454921499519997 1.686160550565 0 0 0
865 1 52.159705117888 14.454921499519997 1.686160550565 -1 0 0
869 1 56.332481527319004 14.454921499519997 1.686160550565 -1 0 0
873 1 60.50525793675 14.454921499519997 1.686160550565 -1 0 0
877 1 64.678034346181 14.454921499519997 1.686160550565 -1 0 0
881 1 68.850810755612 14.454921499519997 1.686160550565 -1 0 0
885 1 73.023587165043 14.454921499519997 1.686160550565 -1 0 0
889 1 77.19636357447399 14.454921499519997 1.686160550565 -1 0 0
893 1 81.369139983905 14.454921499519997 1.686160550565 -1 0 0
897 1 85.54191639333601 14.454921499519997 1.686160550565 -1 0 0
901 1 89.71469280276699 14.454921499519997 1.686160550565 -1 0 0
905 1 93.887469212198 14.454921499519997 1.686160550565 -1 0 0
909 1 98.06024562162901 14.454921499519997 1.686160550565 -1 0 0
915 2 0 15.659498291146008 0 0 0 0
919 2 4.172776409431002 15.659498291146008 0 0 0 0
923 2 8.345552818861997 15.659498291146008 0 0 0 0
927 2 12.518329228292998 15.659498291146008 0 0 0 0
931 2 16.691105637724 15.659498291146008 0 0 0 0
935 2 20.863882047154995 15.659498291146008 0 0 0 0
939 2 25.036658456586004 15.659498291146008 0 0 0 0
943 2 29.209434866017 15.659498291146008 0 0 0 0
947 2 33.38221127544799 15.659498291146008 0 0 0 0
951 2 37.554987684879 15.659498291146008 0 0 0 0
955 2 41.72776409431 15.659498291146008 0 0 0 0
959 2 45.900540503741006 15.659498291146008 0 0 0 0
867 2 50.073316913172 15.659498291146008 0 -1 0 0
871 2 54.246093322603 15.659498291146008 0 -1 0 0
875 2 58.418869732034 15.659498291146008 0 -1 0 0
879 2 62.591646141465 15.659498291146008 0 -1 0 0
883 2 66.764422550896 15.659498291146008 0 -1 0 0
887 2 70.937198960327 15.659498291146008 0 -1 0 0
891 2 75.109975369758 15.659498291146008 0 -1 0 0
895 2 79.282751779189 15.659498291146008 0 -1 0 0
899 2 83.45552818862001 15.659498291146008 0 -1 0 0
903 2 87.628304598051 15.659498291146008 0 -1 0 0
907 2 91.801081007482 15.659498291146008 0 -1 0 0
911 2 95.973857416913 15.659498291146008 0 -1 0 0
916 2 2.086388204715 19.273228666026 0 0 0 0
914 1 0 18.068651874400004 1.686160550565 0 0 0
918 1 4.172776409431002 18.068651874400004 1.686160550565 0 0 0
920 2 6.259164614146002 19.273228666026 0 0 0 0
922 1 8.345552818861997 18.068651874400004 1.686160550565 0 0 0
924 2 10.431941023576996 19.273228666026 0 0 0 0
926 1 12.518329228292998 18.068651874400004 1.686160550565 0 0 0
928 2 14.604717433007998 19.273228666026 0 0 0 0
930 1 16.691105637724 18.068651874400004 1.686160550565 0 0 0
932 2 18.777493842438993 19.273228666026 0 0 0 0
934 1 20.863882047154995 18.068651874400004 1.686160550565 0 0 0
936 2 22.950270251870002 19.273228666026 0 0 0 0
938 1 25.036658456586004 18.068651874400004 1.686160550565 0 0 0
940 2 27.123046661300997 19.273228666026 0 0 0 0
942 1 29.209434866017 18.068651874400004 1.686160550565 0 0 0
944 2 31.295823070732006 19.273228666026 0 0 0 0
946 1 33.38221127544799 18.068651874400004 1.686160550565 0 0 0
948 2 35.468599480163 19.273228666026 0 0 0 0
950 1 37.554987684879 18.068651874400004 1.686160550565 0 0 0
952 2 39.641375889593995 19.273228666026 0 0 0 0
954 1 41.72776409431 18.068651874400004 1.686160550565 0 0 0
956 2 43.814152299025004 19.273228666026 0 0 0 0
958 1 45.900540503741006 18.068651874400004 1.686160550565 0 0 0
960 2 47.986928708456 19.273228666026 0 0 0 0
868 2 52.159705117887 19.273228666026 0 -1 0 0
866 1 50.073316913172 18.068651874400004 1.686160550565 -1 0 0
870 1 54.246093322603 18.068651874400004 1.686160550565 -1 0 0
872 2 56.332481527318 19.273228666026 0 -1 0 0
874 1 58.418869732034 18.068651874400004 1.686160550565 -1 0 0
876 2 60.505257936749004 19.273228666026 0 -1 0 0
878 1 62.591646141465 18.068651874400004 1.686160550565 -1 0 0
880 2 64.67803434618 19.273228666026 0 -1 0 0
882 1 66.764422550896 18.068651874400004 1.686160550565 -1 0 0
884 2 68.85081075561101 19.273228666026 0 -1 0 0
886 1 70.937198960327 18.068651874400004 1.686160550565 -1 0 0
888 2 73.023587165042 19.273228666026 0 -1 0 0
890 1 75.109975369758 18.068651874400004 1.686160550565 -1 0 0
892 2 77.196363574473 19.273228666026 0 -1 0 0
894 1 79.282751779189 18.068651874400004 1.686160550565 -1 0 0
896 2 81.369139983904 19.273228666026 0 -1 0 0
898 1 83.45552818862001 18.068651874400004 1.686160550565 -1 0 0
900 2 85.541916393335 19.273228666026 0 -1 0 0
902 1 87.628304598051 18.068651874400004 1.686160550565 -1 0 0
904 2 89.714692802766 19.273228666026 0 -1 0 0
906 1 91.801081007482 18.068651874400004 1.686160550565 -1 0 0
908 2 93.887469212197 19.273228666026 0 -1 0 0
910 1 95.973857416913 18.068651874400004 1.686160550565 -1 0 0
912 2 98.060245621628 19.273228666026 0 -1 0 0
1009 1 2.086388204716002 21.68238224928001 1.686160550565 0 0 0
1013 1 6.2591646141469965 21.68238224928001 1.686160550565 0 0 0
1017 1 10.431941023577998 21.68238224928001 1.686160550565 0 0 0
1021 1 14.604717433008993 21.68238224928001 1.686160550565 0 0 0
1025 1 18.777493842440002 21.68238224928001 1.686160550565 0 0 0
1029 1 22.950270251870997 21.68238224928001 1.686160550565 0 0 0
1033 1 27.123046661302006 21.68238224928001 1.686160550565 0 0 0
1037 1 31.295823070733 21.68238224928001 1.686160550565 0 0 0
1041 1 35.468599480163995 21.68238224928001 1.686160550565 0 0 0
1045 1 39.641375889595004 21.68238224928001 1.686160550565 0 0 0
1049 1 43.814152299026 21.68238224928001 1.686160550565 0 0 0
1053 1 47.98692870845699 21.68238224928001 1.686160550565 0 0 0
961 1 52.159705117888 21.68238224928001 1.686160550565 -1 0 0
965 1 56.332481527319004 21.68238224928001 1.686160550565 -1 0 0
969 1 60.50525793675 21.68238224928001 1.686160550565 -1 0 0
973 1 64.678034346181 21.68238224928001 1.686160550565 -1 0 0
977 1 68.850810755612 21.68238224928001 1.686160550565 -1 0 0
981 1 73.023587165043 21.68238224928001 1.686160550565 -1 0 0
985 1 77.19636357447399 21.68238224928001 1.686160550565 -1 0 0
989 1 81.369139983905 21.68238224928001 1.686160550565 -1 0 0
993 1 85.54191639333601 21.68238224928001 1.686160550565 -1 0 0
997 1 89.71469280276699 21.68238224928001 1.686160550565 -1 0 0
1001 1 93.887469212198 21.68238224928001 1.686160550565 -1 0 0
1005 1 98.06024562162901 21.68238224928001 1.686160550565 -1 0 0
1011 2 0 22.886959040906007 0 0 0 0
1015 2 4.172776409431002 22.886959040906007 0 0 0 0
1019 2 8.345552818861997 22.886959040906007 0 0 0 0
1023 2 12.518329228292998 22.886959040906007 0 0 0 0
1027 2 16.691105637724 22.886959040906007 0 0 0 0
1031 2 20.863882047154995 22.886959040906007 0 0 0 0
1035 2 25.036658456586004 22.886959040906007 0 0 0 0
1039 2 29.209434866017 22.886959040906007 0 0 0 0
1043 2 33.38221127544799 22.886959040906007 0 0 0 0
1047 2 37.554987684879 22.886959040906007 0 0 0 0
1051 2 41.72776409431 22.886959040906007 0 0 0 0
1055 2 45.900540503741006 22.886959040906007 0 0 0 0
963 2 50.073316913172 22.886959040906007 0 -1 0 0
967 2 54.246093322603 22.886959040906007 0 -1 0 0
971 2 58.418869732034 22.886959040906007 0 -1 0 0
975 2 62.591646141465 22.886959040906007 0 -1 0 0
979 2 66.764422550896 22.886959040906007 0 -1 0 0
983 2 70.937198960327 22.886959040906007 0 -1 0 0
987 2 75.109975369758 22.886959040906007 0 -1 0 0
991 2 79.282751779189 22.886959040906007 0 -1 0 0
995 2 83.45552818862001 22.886959040906007 0 -1 0 0
999 2 87.628304598051 22.886959040906007 0 -1 0 0
1003 2 91.801081007482 22.886959040906007 0 -1 0 0
1007 2 95.973857416913 22.886959040906007 0 -1 0 0
1010 1 0 25.296112624160003 1.686160550565 0 0 0
1014 1 4.172776409431002 25.296112624160003 1.686160550565 0 0 0
1018 1 8.345552818861997 25.296112624160003 1.686160550565 0 0 0
1022 1 12.518329228292998 25.296112624160003 1.686160550565 0 0 0
1026 1 16.691105637724 25.296112624160003 1.686160550565 0 0 0
1030 1 20.863882047154995 25.296112624160003 1.686160550565 0 0 0
1034 1 25.036658456586004 25.296112624160003 1.686160550565 0 0 0
1038 1 29.209434866017 25.296112624160003 1.686160550565 0 0 0
1042 1 33.38221127544799 25.296112624160003 1.686160550565 0 0 0
1046 1 37.554987684879 25.296112624160003 1.686160550565 0 0 0
1050 1 41.72776409431 25.296112624160003 1.686160550565 0 0 0
1054 1 45.900540503741006 25.296112624160003 1.686160550565 0 0 0
962 1 50.073316913172 25.296112624160003 1.686160550565 -1 0 0
966 1 54.246093322603 25.296112624160003 1.686160550565 -1 0 0
970 1 58.418869732034 25.296112624160003 1.686160550565 -1 0 0
974 1 62.591646141465 25.296112624160003 1.686160550565 -1 0 0
978 1 66.764422550896 25.296112624160003 1.686160550565 -1 0 0
982 1 70.937198960327 25.296112624160003 1.686160550565 -1 0 0
986 1 75.109975369758 25.296112624160003 1.686160550565 -1 0 0
990 1 79.282751779189 25.296112624160003 1.686160550565 -1 0 0
994 1 83.45552818862001 25.296112624160003 1.686160550565 -1 0 0
998 1 87.628304598051 25.296112624160003 1.686160550565 -1 0 0
1002 1 91.801081007482 25.296112624160003 1.686160550565 -1 0 0
1006 1 95.973857416913 25.296112624160003 1.686160550565 -1 0 0
1012 2 2.086388204715 26.500689415786 0 0 0 0
1016 2 6.259164614146002 26.500689415786 0 0 0 0
1020 2 10.431941023576996 26.500689415786 0 0 0 0
1024 2 14.604717433007998 26.500689415786 0 0 0 0
1028 2 18.777493842438993 26.500689415786 0 0 0 0
1032 2 22.950270251870002 26.500689415786 0 0 0 0
1036 2 27.123046661300997 26.500689415786 0 0 0 0
1040 2 31.295823070732006 26.500689415786 0 0 0 0
1044 2 35.468599480163 26.500689415786 0 0 0 0
1048 2 39.641375889593995 26.500689415786 0 0 0 0
1052 2 43.814152299025004 26.500689415786 0 0 0 0
1056 2 47.986928708456 26.500689415786 0 0 0 0
964 2 52.159705117887 26.500689415786 0 -1 0 0
968 2 56.332481527318 26.500689415786 0 -1 0 0
972 2 60.505257936749004 26.500689415786 0 -1 0 0
976 2 64.67803434618 26.500689415786 0 -1 0 0
980 2 68.85081075561101 26.500689415786 0 -1 0 0
984 2 73.023587165042 26.500689415786 0 -1 0 0
988 2 77.196363574473 26.500689415786 0 -1 0 0
992 2 81.369139983904 26.500689415786 0 -1 0 0
996 2 85.541916393335 26.500689415786 0 -1 0 0
1000 2 89.714692802766 26.500689415786 0 -1 0 0
1004 2 93.887469212197 26.500689415786 0 -1 0 0
1008 2 98.060245621628 26.500689415786 0 -1 0 0
1107 2 0 30.114419790666005 0 0 0 0
1105 1 2.086388204716002 28.90984299904001 1.686160550565 0 0 0
1111 2 4.172776409431002 30.114419790666005 0 0 0 0
1109 1 6.2591646141469965 28.90984299904001 1.686160550565 0 0 0
1115 2 8.345552818861997 30.114419790666005 0 0 0 0
1113 1 10.431941023577998 28.90984299904001 1.686160550565 0 0 0
1119 2 12.518329228292998 30.114419790666005 0 0 0 0
1117 1 14.604717433008993 28.90984299904001 1.686160550565 0 0 0
1123 2 16.691105637724 30.114419790666005 0 0 0 0
1121 1 18.777493842440002 28.90984299904001 1.686160550565 0 0 0
1127 2 20.863882047154995 30.114419790666005 0 0 0 0
1125 1 22.950270251870997 28.90984299904001 1.686160550565 0 0 0
1131 2 25.036658456586004 30.114419790666005 0 0 0 0
1129 1 27.123046661302006 28.90984299904001 1.686160550565 0 0 0
1135 2 29.209434866017 30.114419790666005 0 0 0 0
1133 1 31.295823070733 28.90984299904001 1.686160550565 0 0 0
1139 2 33.38221127544799 30.114419790666005 0 0 0 0
1137 1 35.468599480163995 28.90984299904001 1.686160550565 0 0 0
1143 2 37.554987684879 30.114419790666005 0 0 0 0
1141 1 39.641375889595004 28.90984299904001 1.686160550565 0 0 0
1147 2 41.72776409431 30.114419790666005 0 0 0 0
1145 1 43.814152299026 28.90984299904001 1.686160550565 0 0 0
1151 2 45.900540503741006 30.114419790666005 0 0 0 0
1149 1 47.98692870845699 28.90984299904001 1.686160550565 0 0 0
1059 2 50.073316913172 30.114419790666005 0 -1 0 0
1057 1 52.159705117888 28.90984299904001 1.686160550565 -1 0 0
1063 2 54.246093322603 30.114419790666005 0 -1 0 0
1061 1 56.332481527319004 28.90984299904001 1.686160550565 -1 0 0
1067 2 58.418869732034 30.114419790666005 0 -1 0 0
1065 1 60.50525793675 28.90984299904001 1.686160550565 -1 0 0
1071 2 62.591646141465 30.114419790666005 0 -1 0 0
1069 1 64.678034346181 28.90984299904001 1.686160550565 -1 0 0
1075 2 66.764422550896 30.114419790666005 0 -1 0 0
1073 1 68.850810755612 28.90984299904001 1.686160550565 -1 0 0
1079 2 70.937198960327 30.114419790666005 0 -1 0 0
1077 1 73.023587165043 28.90984299904001 1.686160550565 -1 0 0
1083 2 75.109975369758 30.114419790666005 0 -1 0 0
1081 1 77.19636357447399 28.90984299904001 1.686160550565 -1 0 0
1087 2 79.282751779189 30.114419790666005 0 -1 0 0
1085 1 81.369139983905 28.90984299904001 1.686160550565 -1 0 0
1091 2 83.45552818862001 30.114419790666005 0 -1 0 0
1089 1 85.54191639333601 28.90984299904001 1.686160550565 -1 0 0
1095 2 87.628304598051 30.114419790666005 0 -1 0 0
1093 1 89.71469280276699 28.90984299904001 1.686160550565 -1 0 0
1099 2 91.801081007482 30.114419790666005 0 -1 0 0
1097 1 93.887469212198 28.90984299904001 1.686160550565 -1 0 0
1103 2 95.973857416913 30.114419790666005 0 -1 0 0
1101 1 98.06024562162901 28.90984299904001 1.686160550565 -1 0 0
1106 1 0 32.52357337392 1.686160550565 0 0 0
1110 1 4.172776409431002 32.52357337392 1.686160550565 0 0 0
1114 1 8.345552818861997 32.52357337392 1.686160550565 0 0 0
1118 1 12.518329228292998 32.52357337392 1.686160550565 0 0 0
1122 1 16.691105637724 32.52357337392 1.686160550565 0 0 0
1126 1 20.863882047154995 32.52357337392 1.686160550565 0 0 0
1130 1 25.036658456586004 32.52357337392 1.686160550565 0 0 0
1134 1 29.209434866017 32.52357337392 1.686160550565 0 0 0
1138 1 33.38221127544799 32.52357337392 1.686160550565 0 0 0
1142 1 37.554987684879 32.52357337392 1.686160550565 0 0 0
1146 1 41.72776409431 32.52357337392 1.686160550565 0 0 0
1150 1 45.900540503741006 32.52357337392 1.686160550565 0 0 0
1058 1 50.073316913172 32.52357337392 1.686160550565 -1 0 0
1062 1 54.246093322603 32.52357337392 1.686160550565 -1 0 0
1066 1 58.418869732034 32.52357337392 1.686160550565 -1 0 0
1070 1 62.591646141465 32.52357337392 1.686160550565 -1 0 0
1074 1 66.764422550896 32.52357337392 1.686160550565 -1 0 0
1078 1 70.937198960327 32.52357337392 1.686160550565 -1 0 0
1082 1 75.109975369758 32.52357337392 1.686160550565 -1 0 0
1086 1 79.282751779189 32.52357337392 1.686160550565 -1 0 0
1090 1 83.45552818862001 32.52357337392 1.686160550565 -1 0 0
1094 1 87.628304598051 32.52357337392 1.686160550565 -1 0 0
1098 1 91.801081007482 32.52357337392 1.686160550565 -1 0 0
1102 1 95.973857416913 32.52357337392 1.686160550565 -1 0 0
1108 2 2.086388204715 33.728150165546 0 0 0 0
1112 2 6.259164614146002 33.728150165546 0 0 0 0
1116 2 10.431941023576996 33.728150165546 0 0 0 0
1120 2 14.604717433007998 33.728150165546 0 0 0 0
1124 2 18.777493842438993 33.728150165546 0 0 0 0
1128 2 22.950270251870002 33.728150165546 0 0 0 0
1132 2 27.123046661300997 33.728150165546 0 0 0 0
1136 2 31.295823070732006 33.728150165546 0 0 0 0
1140 2 35.468599480163 33.728150165546 0 0 0 0
1144 2 39.641375889593995 33.728150165546 0 0 0 0
1148 2 43.814152299025004 33.728150165546 0 0 0 0
1152 2 47.986928708456 33.728150165546 0 0 0 0
1060 2 52.159705117887 33.728150165546 0 -1 0 0
1064 2 56.332481527318 33.728150165546 0 -1 0 0
1068 2 60.505257936749004 33.728150165546 0 -1 0 0
1072 2 64.67803434618 33.728150165546 0 -1 0 0
1076 2 68.85081075561101 33.728150165546 0 -1 0 0
1080 2 73.023587165042 33.728150165546 0 -1 0 0
1084 2 77.196363574473 33.728150165546 0 -1 0 0
1088 2 81.369139983904 33.728150165546 0 -1 0 0
1092 2 85.541916393335 33.728150165546 0 -1 0 0
1096 2 89.714692802766 33.728150165546 0 -1 0 0
1100 2 93.887469212197 33.728150165546 0 -1 0 0
1104 2 98.060245621628 33.728150165546 0 -1 0 0
1203 2 0 37.341880540426004 0 0 0 0
1201 1 2.086388204716002 36.13730374880001 1.686160550565 0 0 0
1207 2 4.172776409431002 37.341880540426004 0 0 0 0
1205 1 6.2591646141469965 36.13730374880001 1.686160550565 0 0 0
1211 2 8.345552818861997 37.341880540426004 0 0 0 0
1209 1 10.431941023577998 36.13730374880001 1.686160550565 0 0 0
1215 2 12.518329228292998 37.341880540426004 0 0 0 0
1213 1 14.604717433008993 36.13730374880001 1.686160550565 0 0 0
1219 2 16.691105637724 37.341880540426004 0 0 0 0
1217 1 18.777493842440002 36.13730374880001 1.686160550565 0 0 0
1223 2 20.863882047154995 37.341880540426004 0 0 0 0
1221 1 22.950270251870997 36.13730374880001 1.686160550565 0 0 0
1227 2 25.036658456586004 37.341880540426004 0 0 0 0
1225 1 27.123046661302006 36.13730374880001 1.686160550565 0 0 0
1231 2 29.209434866017 37.341880540426004 0 0 0 0
1229 1 31.295823070733 36.13730374880001 1.686160550565 0 0 0
1235 2 33.38221127544799 37.341880540426004 0 0 0 0
1233 1 35.468599480163995 36.13730374880001 1.686160550565 0 0 0
1239 2 37.554987684879 37.341880540426004 0 0 0 0
1237 1 39.641375889595004 36.13730374880001 1.686160550565 0 0 0
1243 2 41.72776409431 37.341880540426004 0 0 0 0
1241 1 43.814152299026 36.13730374880001 1.686160550565 0 0 0
1247 2 45.900540503741006 37.341880540426004 0 0 0 0
1245 1 47.98692870845699 36.13730374880001 1.686160550565 0 0 0
1155 2 50.073316913172 37.341880540426004 0 -1 0 0
1153 1 52.159705117888 36.13730374880001 1.686160550565 -1 0 0
1159 2 54.246093322603 37.341880540426004 0 -1 0 0
1157 1 56.332481527319004 36.13730374880001 1.686160550565 -1 0 0
1163 2 58.418869732034 37.341880540426004 0 -1 0 0
1161 1 60.50525793675 36.13730374880001 1.686160550565 -1 0 0
1167 2 62.591646141465 37.341880540426004 0 -1 0 0
1165 1 64.678034346181 36.13730374880001 1.686160550565 -1 0 0
1171 2 66.764422550896 37.341880540426004 0 -1 0 0
1169 1 68.850810755612 36.13730374880001 1.686160550565 -1 0 0
1175 2 70.937198960327 37.341880540426004 0 -1 0 0
1173 1 73.023587165043 36.13730374880001 1.686160550565 -1 0 0
1179 2 75.109975369758 37.341880540426004 0 -1 0 0
1177 1 77.19636357447399 36.13730374880001 1.686160550565 -1 0 0
1183 2 79.282751779189 37.341880540426004 0 -1 0 0
1181 1 81.369139983905 36.13730374880001 1.686160550565 -1 0 0
1187 2 83.45552818862001 37.341880540426004 0 -1 0 0
1185 1 85.54191639333601 36.13730374880001 1.686160550565 -1 0 0
1191 2 87.628304598051 37.341880540426004 0 -1 0 0
1189 1 89.71469280276699 36.13730374880001 1.686160550565 -1 0 0
1195 2 91.801081007482 37.341880540426004 0 -1 0 0
1193 1 93.887469212198 36.13730374880001 1.686160550565 -1 0 0
1199 2 95.973857416913 37.341880540426004 0 -1 0 0