LAMMPS (29 Aug 2024)
OMP_NUM_THREADS environment is not set. Defaulting to 1 thread. (src/comm.cpp:98)
  using 1 OpenMP thread(s) per MPI task
# LAMMPS input script for system build with input of substrate, graphene sheet and AFM tip

clear
OMP_NUM_THREADS environment is not set. Defaulting to 1 thread. (src/comm.cpp:98)
  using 1 OpenMP thread(s) per MPI task

units           metal
atom_style      atomic
neighbor        0.3 bin
neigh_modify    every 1 delay 0 check yes #every 5

boundary   	    p p f
region box block 0.0 100.112067213033 0.0 100.389002921108 -5 100
create_box      18 box
Created orthogonal box = (0 0 -5) to (100.11207 100.389 100)
  2 by 2 by 2 MPI processor grid

#----------------- Read data files -----------------------

read_data       scripts/afm/h-CrO2/size_100x_100y/sub_aSi/tip_Si_r25/K300/system_build/sub.lmp add append group sub
Reading data file ...
  orthogonal box = (0 0 -5) to (100.11207 100.389 100)
  2 by 2 by 2 MPI processor grid
  reading atoms ...
WARNING: Non-zero imageflag(s) in z direction for non-periodic boundary reset to zero (src/read_data.cpp:1548)
  5001 atoms
  reading velocities ...
  5001 velocities
  read_data CPU = 0.017 seconds
read_data       scripts/afm/h-CrO2/size_100x_100y/sub_aSi/tip_Si_r25/K300/system_build/tip.lmp add append shift 50.0560336065165 50.194501460554 55.0  group tip offset 3 0 0 0 0
Reading data file ...
  orthogonal box = (0 0 -5) to (100.11207 100.389 100)
  2 by 2 by 2 MPI processor grid
  reading atoms ...
  505 atoms
  reading velocities ...
  505 velocities
  read_data CPU = 0.002 seconds
read_data       scripts/afm/h-CrO2/size_100x_100y/sub_aSi/tip_Si_r25/K300/system_build/h-CrO2_1.lmp add append shift 0.0 0.0 14.5 group 2D offset 6 0 0 0 0
Reading data file ...
  orthogonal box = (0 0 -5) to (100.11207 100.389 100)
  2 by 2 by 2 MPI processor grid
  reading atoms ...
  5016 atoms
  read_data CPU = 0.007 seconds

# Apply potentials

include        scripts/afm/h-CrO2/size_100x_100y/sub_aSi/tip_Si_r25/K300/l_1/lammps/system.in.settings
mass 1*3 28.085 #Si sub
mass 4*6 28.085 #Si tip
mass 7*10 51.9961 #Cr 2D
mass 11*18 15.999 #O 2D
group sub_all type 1 2 3
5001 atoms in group sub_all
group sub_fix type 2
999 atoms in group sub_fix
group sub_thermo type 3
1530 atoms in group sub_thermo
group tip_all type 4 5 6
505 atoms in group tip_all
group tip_fix type 5
261 atoms in group tip_fix
group tip_thermo type 6
68 atoms in group tip_thermo
group 2D_all type 7 8 9 10 11 12 13 14 15 16 17 18
5016 atoms in group 2D_all
group layer_1 type 7 8 9 10 11 12 13 14 15 16 17 18
5016 atoms in group layer_1
group mobile union tip_thermo sub_thermo
1598 atoms in group mobile
pair_style hybrid sw sw sw  lj/cut 8.0
pair_coeff * * sw 1 scripts/afm/h-CrO2/size_100x_100y/sub_aSi/tip_Si_r25/K300/potentials/Si.sw Si  Si  Si  NULL  NULL  NULL  NULL  NULL  NULL  NULL  NULL  NULL  NULL  NULL  NULL  NULL  NULL  NULL # interlayer Sub
Reading sw potential file scripts/afm/h-CrO2/size_100x_100y/sub_aSi/tip_Si_r25/K300/potentials/Si.sw with DATE: 2007-06-11
pair_coeff * * sw 2 scripts/afm/h-CrO2/size_100x_100y/sub_aSi/tip_Si_r25/K300/potentials/Si.sw NULL  NULL  NULL  Si  Si  Si  NULL  NULL  NULL  NULL  NULL  NULL  NULL  NULL  NULL  NULL  NULL  NULL # interlayer Tip
Reading sw potential file scripts/afm/h-CrO2/size_100x_100y/sub_aSi/tip_Si_r25/K300/potentials/Si.sw with DATE: 2007-06-11
pair_coeff * * sw 3 scripts/afm/h-CrO2/size_100x_100y/sub_aSi/tip_Si_r25/K300/potentials/h-CrO2.sw NULL  NULL  NULL  NULL  NULL  NULL  Cr1  Cr2  Cr3  Cr4  O1  O2  O3  O4  O5  O6  O7  O8 # interlayer '2D' Layer 1
pair_coeff 1*3 7*10 lj/cut 0.0033673013365522844 3.659
pair_coeff 4*6 7*10 lj/cut 0.0033673013365522844 3.659
pair_coeff 1*3 11*18 lj/cut 0.006734602673104569 3.8975
pair_coeff 4*6 11*18 lj/cut 0.006734602673104569 3.8975
pair_coeff 1*3 4*6  lj/cut 0.0174320868 4.295

#----------------- Create visualisation files ------------

dump            sys all atom 1000 ./scripts/afm/h-CrO2/size_100x_100y/sub_aSi/tip_Si_r25/K300/visuals/system_1.lammpstrj

#----------------- Minimize the system -------------------

min_style       cg
minimize        1.0e-4 1.0e-8 100 1000

CITE-CITE-CITE-CITE-CITE-CITE-CITE-CITE-CITE-CITE-CITE-CITE-CITE

Your simulation uses code contributions which should be cited:

- Type Label Framework: https://doi.org/10.1021/acs.jpcb.3c08419

@Article{Gissinger24,
 author = {Jacob R. Gissinger, Ilia Nikiforov, Yaser Afshar, Brendon Waters, Moon-ki Choi, Daniel S. Karls, Alexander Stukowski, Wonpil Im, Hendrik Heinz, Axel Kohlmeyer, and Ellad B. Tadmor},
 title = {Type Label Framework for Bonded Force Fields in LAMMPS},
 journal = {J. Phys. Chem. B},
 year =    2024,
 volume =  128,
 number =  13,
 pages =   {3282–-3297}
}

CITE-CITE-CITE-CITE-CITE-CITE-CITE-CITE-CITE-CITE-CITE-CITE-CITE

Neighbor list info ...
  update: every = 1 steps, delay = 0 steps, check = yes
  max neighbors/atom: 2000, page size: 100000
  master list distance cutoff = 8.3
  ghost atom cutoff = 8.3
  binsize = 4.15, bins = 25 25 26
  6 neighbor lists, perpetual/occasional/extra = 6 0 0
  (1) pair sw, perpetual, skip from (6)
      attributes: full, newton on, cut 4.07118
      pair build: skip
      stencil: none
      bin: none
  (2) pair sw, perpetual, skip from (6)
      attributes: full, newton on, cut 4.07118
      pair build: skip
      stencil: none
      bin: none
  (3) pair sw, perpetual, skip trim from (6)
      attributes: full, newton on, cut 2.836404
      pair build: skip/trim
      stencil: none
      bin: none
  (4) pair lj/cut, perpetual, skip from (5)
      attributes: half, newton on
      pair build: skip
      stencil: none
      bin: none
  (5) neighbor class addition, perpetual
      attributes: half, newton on
      pair build: half/bin/atomonly/newton
      stencil: half/bin/3d
      bin: standard
  (6) neighbor class addition, perpetual
      attributes: full, newton on, cut 4.07118
      pair build: full/bin/atomonly
      stencil: full/bin/3d
      bin: standard
Per MPI rank memory allocation (min/avg/max) = 7.553 | 7.606 | 7.659 Mbytes
   Step          Temp          E_pair         E_mol          TotEng         Press     
         0   144.61637     -25715.548      0             -25518.878     -3069.1222    
        49   144.61637     -28125.92       0             -27929.25      -3907.2686    
Loop time of 0.169722 on 8 procs for 49 steps with 10522 atoms

99.5% CPU use with 8 MPI tasks x 1 OpenMP threads

Minimization stats:
  Stopping criterion = energy tolerance
  Energy initial, next-to-last, final = 
     -25715.5481505891  -28124.3176654248  -28125.9204471841
  Force two-norm initial, final = 4536.0895 12.29255
  Force max component initial, final = 2155.6681 1.7555105
  Final line search alpha, max atom move = 0.056879757 0.099853012
  Iterations, force evaluations = 49 50

MPI task timing breakdown:
Section |  min time  |  avg time  |  max time  |%varavg| %total
---------------------------------------------------------------
Pair    | 0.0016643  | 0.049602   | 0.099817   |  21.5 | 29.23
Neigh   | 0.0027506  | 0.030645   | 0.059041   |  15.8 | 18.06
Comm    | 0.0025385  | 0.0056728  | 0.012146   |   4.5 |  3.34
Output  | 0          | 0          | 0          |   0.0 |  0.00
Modify  | 0          | 0          | 0          |   0.0 |  0.00
Other   |            | 0.0838     |            |       | 49.38

Nlocal:        1315.25 ave        2516 max         125 min
Histogram: 4 0 0 0 0 0 0 0 0 4
Nghost:        1058.12 ave        1952 max         180 min
Histogram: 4 0 0 0 0 0 0 0 0 4
Neighs:              0 ave           0 max           0 min
Histogram: 8 0 0 0 0 0 0 0 0 0

Total # of neighbors = 0
Ave neighs/atom = 0
Neighbor list builds = 24
Dangerous builds = 0

timestep        0.001
thermo          100

group           fixset union sub_fix tip_fix
1260 atoms in group fixset
group           system subtract all fixset
9262 atoms in group system

velocity        system create 300 492847948

compute         temp_tip tip_thermo temp/partial 0 1 0
fix             lang_tip tip_thermo langevin 300 300 $(100.0*dt) 699483 zero yes
fix             lang_tip tip_thermo langevin 300 300 0.10000000000000000555 699483 zero yes
fix_modify      lang_tip temp temp_tip

compute         temp_sub sub_thermo temp/partial 0 1 0
fix             lang_sub sub_thermo langevin 300 300 $(100.0*dt) 2847563 zero yes
fix             lang_sub sub_thermo langevin 300 300 0.10000000000000000555 2847563 zero yes
fix_modify      lang_sub temp temp_sub

fix             nve_all all nve

fix             sub_fix sub_fix setforce 0.0 0.0 0.0
velocity        sub_fix set 0.0 0.0 0.0

fix             tip_f tip_fix rigid/nve single force * off off off torque * off off off
  1 rigid bodies with 261 atoms

run             10000
WARNING: One or more atoms are time integrated more than once (src/modify.cpp:296)
Per MPI rank memory allocation (min/avg/max) = 8.774 | 8.828 | 8.881 Mbytes
   Step          Temp          E_pair         E_mol          TotEng         Press     
        49   270.7367      -28125.92       0             -27766.797     -3734.4487    
       100   137.28051     -27940.399      0             -27758.301     -3534.0153    
       200   166.97614     -27969.425      0             -27747.937     -3483.7603    
       300   180.2985      -27979.917      0             -27740.756     -3614.4898    
       400   189.44705     -27983.394      0             -27732.098     -3926.0085    
       500   197.781       -27991.609      0             -27729.258     -3718.7179    
       600   201.29865     -27993.889      0             -27726.873     -4195.2985    
       700   207.43408     -27999.965      0             -27724.811     -3532.0791    
       800   208.252       -28001.288      0             -27725.049     -3505.613     
       900   212.11463     -28007.86       0             -27726.497     -3848.2605    
      1000   215.09358     -28013.308      0             -27727.993     -4766.4046    
      1100   214.40797     -28015.448      0             -27731.043     -4288.9948    
      1200   212.69801     -28014.743      0             -27732.606     -4129.2033    
      1300   215.96176     -28020.426      0             -27733.96      -4161.4386    
      1400   212.91192     -28020.605      0             -27738.184     -3126.3871    
      1500   214.09739     -28020.904      0             -27736.911     -3786.6959    
      1600   213.95511     -28023.141      0             -27739.337     -3685.108     
      1700   214.77607     -28026.698      0             -27741.805     -3475.3822    
      1800   213.47629     -28027.335      0             -27744.166     -3789.933     
      1900   214.70354     -28030.363      0             -27745.566     -3519.7439    
      2000   218.05692     -28037.551      0             -27748.305     -3605.2504    
      2100   216.2403      -28041.42       0             -27754.585     -4173.717     
      2200   216.57067     -28042.583      0             -27755.309     -3226.0992    
      2300   217.12204     -28046.703      0             -27758.697     -4346.7266    
      2400   218.5789      -28052.846      0             -27762.908     -3800.8218    
      2500   217.71216     -28054.327      0             -27765.539     -3537.7403    
      2600   214.56971     -28054.292      0             -27769.672     -4041.7487    
      2700   217.56125     -28060.796      0             -27772.208     -3590.5441    
      2800   216.93319     -28061.367      0             -27773.612     -3360.316     
      2900   215.08089     -28061.506      0             -27776.208     -3369.5092    
      3000   213.14267     -28062.882      0             -27780.155     -4515.2176    
      3100   211.73891     -28063.599      0             -27782.734     -3907.0997    
      3200   212.08602     -28065.16       0             -27783.835     -3908.9712    
      3300   213.2901      -28068.933      0             -27786.01      -3967.6061    
      3400   210.39436     -28067.087      0             -27788.006     -3881.6097    
      3500   213.46306     -28074.894      0             -27791.742     -4065.5796    
      3600   208.56164     -28070.978      0             -27794.328     -3485.257     
      3700   208.11499     -28071.596      0             -27795.539     -3767.6377    
      3800   208.90098     -28076.36       0             -27799.259     -3361.8852    
      3900   205.74871     -28072.548      0             -27799.629     -3633.2034    
      4000   208.56285     -28079.862      0             -27803.21      -4134.6916    
      4100   205.10767     -28077.686      0             -27805.618     -3926.738     
      4200   207.19266     -28082.39       0             -27807.556     -3679.5441    
      4300   204.91525     -28082.077      0             -27810.264     -3888.3497    
      4400   208.00814     -28085.658      0             -27809.742     -3988.2882    
      4500   208.54615     -28087.08       0             -27810.45      -3842.3414    
      4600   208.15011     -28087.993      0             -27811.889     -3629.2314    
      4700   208.72097     -28090.149      0             -27813.287     -3802.0713    
      4800   206.79186     -28088.497      0             -27814.195     -4364.3321    
      4900   205.4247      -28088.843      0             -27816.354     -4562.1124    
      5000   206.26907     -28092.846      0             -27819.236     -3670.6561    
      5100   207.20108     -28093.131      0             -27818.286     -3568.2504    
      5200   205.75303     -28091.669      0             -27818.744     -3804.3828    
      5300   204.64817     -28091.216      0             -27819.757     -3383.8983    
      5400   203.16383     -28089.167      0             -27819.677     -3803.1189    
      5500   202.68748     -28089.729      0             -27820.871     -3808.3179    
      5600   204.68653     -28093.089      0             -27821.579     -3870.2318    
      5700   201.07711     -28090.895      0             -27824.173     -3752.9195    
      5800   203.44667     -28094.501      0             -27824.636     -3256.3454    
      5900   202.49602     -28092.145      0             -27823.541     -3697.7033    
      6000   203.32838     -28093.056      0             -27823.348     -4550.1396    
      6100   204.36749     -28094.794      0             -27823.707     -3910.1855    
      6200   202.68005     -28091.643      0             -27822.794     -3608.5804    
      6300   202.09176     -28093.578      0             -27825.51      -3640.268     
      6400   201.2743      -28092.459      0             -27825.476     -3151.5656    
      6500   204.74095     -28099.187      0             -27827.605     -4098.4636    
      6600   205.44535     -28101.309      0             -27828.792     -3539.4538    
      6700   202.15176     -28097.93       0             -27829.782     -3418.5358    
      6800   205.07887     -28102.571      0             -27830.54      -3562.4434    
      6900   202.58209     -28099.109      0             -27830.39      -3819.4827    
      7000   200.99519     -28097.78       0             -27831.166     -4306.3531    
      7100   200.24215     -28098.766      0             -27833.152     -3446.4182    
      7200   200.24926     -28098.713      0             -27833.089     -2871.8259    
      7300   200.09224     -28099.099      0             -27833.683     -3822.3609    
      7400   199.89576     -28096.583      0             -27831.427     -4070.102     
      7500   200.95621     -28101.198      0             -27834.636     -3738.2001    
      7600   199.85342     -28101.666      0             -27836.567     -3482.918     
      7700   202.34829     -28104.124      0             -27835.716     -3429.4838    
      7800   200.90687     -28103.265      0             -27836.769     -4095.6236    
      7900   198.63108     -28102.268      0             -27838.791     -4154.1272    
      8000   201.02793     -28105.864      0             -27839.207     -4073.67      
      8100   198.74831     -28102.8        0             -27839.167     -3415.0495    
      8200   201.18346     -28108.166      0             -27841.303     -3583.6141    
      8300   198.81126     -28105.667      0             -27841.951     -4101.8519    
      8400   202.00846     -28110.191      0             -27842.234     -4310.1899    
      8500   201.29221     -28108.92       0             -27841.912     -3729.9591    
      8600   198.2659      -28105.772      0             -27842.779     -4174.4331    
      8700   200.75436     -28106.637      0             -27840.343     -3998.2167    
      8800   201.82426     -28107.595      0             -27839.882     -3888.1546    
      8900   201.40658     -28106.714      0             -27839.555     -3979.4601    
      9000   201.90298     -28111.048      0             -27843.23      -3689.4093    
      9100   200.98656     -28111.779      0             -27845.177     -3891.5184    
      9200   201.12019     -28110.931      0             -27844.152     -4092.0568    
      9300   201.41133     -28111.602      0             -27844.437     -3941.4172    
      9400   199.50799     -28108.78       0             -27844.14      -3634.9598    
      9500   202.28057     -28112.232      0             -27843.914     -4139.9982    
      9600   202.26544     -28113.617      0             -27845.318     -3367.6268    
      9700   200.88761     -28110.825      0             -27844.355     -4072.711     
      9800   200.16642     -28109.313      0             -27843.798     -2992.6123    
      9900   200.74395     -28111.935      0             -27845.655     -3886.0644    
     10000   198.90462     -28108.907      0             -27845.066     -3607.7239    
     10049   201.03377     -28111.522      0             -27844.857     -3478.741     
Loop time of 24.0885 on 8 procs for 10000 steps with 10522 atoms

Performance: 35.868 ns/day, 0.669 hours/ns, 415.136 timesteps/s, 4.368 Matom-step/s
99.4% CPU use with 8 MPI tasks x 1 OpenMP threads

MPI task timing breakdown:
Section |  min time  |  avg time  |  max time  |%varavg| %total
---------------------------------------------------------------
Pair    | 0.58049    | 9.7411     | 19.198     | 292.5 | 40.44
Neigh   | 0.21932    | 1.4905     | 2.7779     | 103.8 |  6.19
Comm    | 1.2407     | 6.9032     | 12.263     | 202.7 | 28.66
Output  | 0.017956   | 0.019901   | 0.022752   |   1.1 |  0.08
Modify  | 0.71454    | 5.7792     | 10.839     | 210.4 | 23.99
Other   |            | 0.1546     |            |       |  0.64

Nlocal:        1315.25 ave        2515 max         125 min
Histogram: 4 0 0 0 0 0 0 0 0 4
Nghost:         1084.5 ave        1996 max         179 min
Histogram: 4 0 0 0 0 0 0 0 0 4
Neighs:              0 ave           0 max           0 min
Histogram: 8 0 0 0 0 0 0 0 0 0

Total # of neighbors = 0
Ave neighs/atom = 0
Neighbor list builds = 1034
Dangerous builds = 0

unfix           tip_f

##########################################################
#--------------------Tip Indentation---------------------#
##########################################################
#----------------- Displace tip closer -------------------

displace_atoms  tip_all move 0.0 0.0 -20.0 units box
Displacing atoms ...

#----------------- Apply constraints ---------------------

#Fix the bottom layer of the base and the edges of the graphene

fix             tip_f tip_fix rigid/nve single force * off off on torque * off off off
  1 rigid bodies with 261 atoms

#----------------- Set up initial parameters -------------

                variable find equal 5
variable        num_floads equal 500
variable        r equal 0.0
variable        f equal 0.0
variable        fincr equal ${find}/(${num_floads})
variable        fincr equal 5/(${num_floads})
variable        fincr equal 5/(500)
thermo_modify   lost ignore flush yes

#----------------- Apply pressure to the tip -------------

variable i loop ${num_floads}
variable i loop 500
label loop_load

variable f equal ${f}+${fincr}
variable f equal 0+${fincr}
variable f equal 0+0.01

# Set force variable

variable Fatom equal -v_f/(count(tip_fix)*1.602176565)
fix forcetip tip_fix aveforce 0.0 0.0 ${Fatom}
fix forcetip tip_fix aveforce 0.0 0.0 -2.391382890138e-05
run 100
WARNING: One or more atoms are time integrated more than once (src/modify.cpp:296)
Per MPI rank memory allocation (min/avg/max) = 8.784 | 8.851 | 8.921 Mbytes
   Step          Temp          E_pair         E_mol          TotEng         Press     
     10049   201.03377     -28111.522      0             -27844.857     -3766.0822    
     10100   199.30719     -28111.691      0             -27847.316     -3939.8899    
     10149   200.88462     -28113.461      0             -27846.994     -3655.3762    
Loop time of 0.243794 on 8 procs for 100 steps with 10522 atoms

Performance: 35.440 ns/day, 0.677 hours/ns, 410.183 timesteps/s, 4.316 Matom-step/s
99.0% CPU use with 8 MPI tasks x 1 OpenMP threads

MPI task timing breakdown:
Section |  min time  |  avg time  |  max time  |%varavg| %total
---------------------------------------------------------------
Pair    | 0.00011379 | 0.097584   | 0.19913    |  31.2 | 40.03
Neigh   | 0.00089866 | 0.011726   | 0.022873   |  10.0 |  4.81
Comm    | 0.012081   | 0.11878    | 0.22541    |  29.7 | 48.72
Output  | 7.2498e-05 | 8.7129e-05 | 0.00016643 |   0.0 |  0.04
Modify  | 0.0080585  | 0.013615   | 0.023029   |   5.1 |  5.58
Other   |            | 0.002005   |            |       |  0.82

Nlocal:        1315.25 ave        2639 max           0 min
Histogram: 4 0 0 0 0 0 0 0 0 4
Nghost:        1209.88 ave        2174 max         251 min
Histogram: 4 0 0 0 0 0 0 0 0 4
Neighs:              0 ave           0 max           0 min
Histogram: 8 0 0 0 0 0 0 0 0 0

Total # of neighbors = 0
Ave neighs/atom = 0
Neighbor list builds = 8
Dangerous builds = 0

unfix forcetip

next i
jump SELF loop_load

variable f equal ${f}+${fincr}
variable f equal 0.01+${fincr}
variable f equal 0.01+0.01

# Set force variable

variable Fatom equal -v_f/(count(tip_fix)*1.602176565)
fix forcetip tip_fix aveforce 0.0 0.0 ${Fatom}
fix forcetip tip_fix aveforce 0.0 0.0 -4.782765780276e-05
run 100
WARNING: One or more atoms are time integrated more than once (src/modify.cpp:296)
Per MPI rank memory allocation (min/avg/max) = 8.784 | 8.851 | 8.921 Mbytes
   Step          Temp          E_pair         E_mol          TotEng         Press     
     10149   200.88462     -28113.461      0             -27846.994     -3682.3102    
     10200   201.13637     -28116.03       0             -27849.229     -3653.6921    
     10249   198.48501     -28111.939      0             -27848.655     -4201.2061    
Loop time of 0.248066 on 8 procs for 100 steps with 10522 atoms

Performance: 34.829 ns/day, 0.689 hours/ns, 403.119 timesteps/s, 4.242 Matom-step/s
99.2% CPU use with 8 MPI tasks x 1 OpenMP threads

MPI task timing breakdown:
Section |  min time  |  avg time  |  max time  |%varavg| %total
---------------------------------------------------------------
Pair    | 0.00013654 | 0.098867   | 0.19987    |  31.4 | 39.86
Neigh   | 0.00066451 | 0.012621   | 0.024671   |  10.5 |  5.09
Comm    | 0.014095   | 0.12084    | 0.22748    |  30.1 | 48.71
Output  | 8.568e-05  | 0.00010347 | 0.00020146 |   0.0 |  0.04
Modify  | 0.0081575  | 0.013713   | 0.02347    |   5.0 |  5.53
Other   |            | 0.001919   |            |       |  0.77

Nlocal:        1315.25 ave        2643 max           0 min
Histogram: 4 0 0 0 0 0 0 0 0 4
Nghost:        1206.88 ave        2174 max         251 min
Histogram: 4 0 0 0 0 0 0 0 0 4
Neighs:              0 ave           0 max           0 min
Histogram: 8 0 0 0 0 0 0 0 0 0

Total # of neighbors = 0
Ave neighs/atom = 0
Neighbor list builds = 8
Dangerous builds = 0

unfix forcetip

next i
jump SELF loop_load

variable f equal ${f}+${fincr}
variable f equal 0.02+${fincr}
variable f equal 0.02+0.01

# Set force variable

variable Fatom equal -v_f/(count(tip_fix)*1.602176565)
fix forcetip tip_fix aveforce 0.0 0.0 ${Fatom}
fix forcetip tip_fix aveforce 0.0 0.0 -7.174148670414e-05
run 100
WARNING: One or more atoms are time integrated more than once (src/modify.cpp:296)
Per MPI rank memory allocation (min/avg/max) = 8.784 | 8.851 | 8.921 Mbytes
   Step          Temp          E_pair         E_mol          TotEng         Press     
     10249   198.48501     -28111.939      0             -27848.655     -4113.4974    
     10300   201.12247     -28114.919      0             -27848.136     -3874.8022    
     10349   199.78063     -28114.49       0             -27849.488     -3675.4446    
Loop time of 0.243792 on 8 procs for 100 steps with 10522 atoms

Performance: 35.440 ns/day, 0.677 hours/ns, 410.185 timesteps/s, 4.316 Matom-step/s
99.1% CPU use with 8 MPI tasks x 1 OpenMP threads

MPI task timing breakdown:
Section |  min time  |  avg time  |  max time  |%varavg| %total
---------------------------------------------------------------
Pair    | 0.00012429 | 0.097892   | 0.20146    |  31.3 | 40.15
Neigh   | 0.0010198  | 0.012056   | 0.02335    |   9.9 |  4.95
Comm    | 0.0093349  | 0.11858    | 0.22792    |  30.0 | 48.64
Output  | 7.5793e-05 | 9.5175e-05 | 0.00019226 |   0.0 |  0.04
Modify  | 0.0080841  | 0.013277   | 0.025268   |   5.3 |  5.45
Other   |            | 0.001892   |            |       |  0.78

Nlocal:        1315.25 ave        2644 max           0 min
Histogram: 4 0 0 0 0 0 0 0 0 4
Nghost:        1208.62 ave        2176 max         251 min
Histogram: 4 0 0 0 0 0 0 0 0 4
Neighs:              0 ave           0 max           0 min
Histogram: 8 0 0 0 0 0 0 0 0 0

Total # of neighbors = 0
Ave neighs/atom = 0
Neighbor list builds = 8
Dangerous builds = 0

unfix forcetip

next i
jump SELF loop_load

variable f equal ${f}+${fincr}
variable f equal 0.03+${fincr}
variable f equal 0.03+0.01

# Set force variable

variable Fatom equal -v_f/(count(tip_fix)*1.602176565)
fix forcetip tip_fix aveforce 0.0 0.0 ${Fatom}
fix forcetip tip_fix aveforce 0.0 0.0 -9.565531560552e-05
run 100
WARNING: One or more atoms are time integrated more than once (src/modify.cpp:296)
Per MPI rank memory allocation (min/avg/max) = 8.784 | 8.851 | 8.921 Mbytes
   Step          Temp          E_pair         E_mol          TotEng         Press     
     10349   199.78063     -28114.49       0             -27849.488     -3666.5961    
     10400   197.30534     -28111.573      0             -27849.854     -3642.0389    
     10449   197.71331     -28112.923      0             -27850.663     -3848.5525    
Loop time of 0.254236 on 8 procs for 100 steps with 10522 atoms

Performance: 33.984 ns/day, 0.706 hours/ns, 393.335 timesteps/s, 4.139 Matom-step/s
99.5% CPU use with 8 MPI tasks x 1 OpenMP threads

MPI task timing breakdown:
Section |  min time  |  avg time  |  max time  |%varavg| %total
---------------------------------------------------------------
Pair    | 0.00014411 | 0.10025    | 0.20462    |  31.6 | 39.43
Neigh   | 0.00094458 | 0.011798   | 0.02313    |  10.0 |  4.64
Comm    | 0.016802   | 0.1238     | 0.23089    |  29.3 | 48.69
Output  | 7.8859e-05 | 9.4484e-05 | 0.00018089 |   0.0 |  0.04
Modify  | 0.0084533  | 0.016223   | 0.033097   |   6.8 |  6.38
Other   |            | 0.002071   |            |       |  0.81

Nlocal:        1315.25 ave        2641 max           0 min
Histogram: 4 0 0 0 0 0 0 0 0 4
Nghost:        1210.62 ave        2180 max         251 min
Histogram: 4 0 0 0 0 0 0 0 0 4
Neighs:              0 ave           0 max           0 min
Histogram: 8 0 0 0 0 0 0 0 0 0

Total # of neighbors = 0
Ave neighs/atom = 0
Neighbor list builds = 8
Dangerous builds = 0

unfix forcetip

next i
jump SELF loop_load

variable f equal ${f}+${fincr}
variable f equal 0.04+${fincr}
variable f equal 0.04+0.01

# Set force variable

variable Fatom equal -v_f/(count(tip_fix)*1.602176565)
fix forcetip tip_fix aveforce 0.0 0.0 ${Fatom}
fix forcetip tip_fix aveforce 0.0 0.0 -0.0001195691445069
run 100
WARNING: One or more atoms are time integrated more than once (src/modify.cpp:296)
Per MPI rank memory allocation (min/avg/max) = 8.784 | 8.851 | 8.921 Mbytes
   Step          Temp          E_pair         E_mol          TotEng         Press     
     10449   197.71331     -28112.923      0             -27850.663     -3806.0538    
     10500   198.96834     -28115.621      0             -27851.696     -3613.5292    
     10549   197.10476     -28113.097      0             -27851.644     -3986.2466    
Loop time of 0.25315 on 8 procs for 100 steps with 10522 atoms

Performance: 34.130 ns/day, 0.703 hours/ns, 395.023 timesteps/s, 4.156 Matom-step/s
99.3% CPU use with 8 MPI tasks x 1 OpenMP threads

MPI task timing breakdown:
Section |  min time  |  avg time  |  max time  |%varavg| %total
---------------------------------------------------------------
Pair    | 0.00011453 | 0.10062    | 0.20492    |  31.7 | 39.75
Neigh   | 0.0010074  | 0.011975   | 0.023375   |   9.9 |  4.73
Comm    | 0.015329   | 0.12324    | 0.23114    |  29.6 | 48.68
Output  | 7.0313e-05 | 8.3779e-05 | 0.00015307 |   0.0 |  0.03
Modify  | 0.0081888  | 0.015294   | 0.027134   |   6.0 |  6.04
Other   |            | 0.001938   |            |       |  0.77

Nlocal:        1315.25 ave        2642 max           0 min
Histogram: 4 0 0 0 0 0 0 0 0 4
Nghost:        1208.88 ave        2177 max         251 min
Histogram: 4 0 0 0 0 0 0 0 0 4
Neighs:              0 ave           0 max           0 min
Histogram: 8 0 0 0 0 0 0 0 0 0

Total # of neighbors = 0
Ave neighs/atom = 0
Neighbor list builds = 8
Dangerous builds = 0

unfix forcetip

next i
jump SELF loop_load

variable f equal ${f}+${fincr}
variable f equal 0.05+${fincr}
variable f equal 0.05+0.01

# Set force variable

variable Fatom equal -v_f/(count(tip_fix)*1.602176565)
fix forcetip tip_fix aveforce 0.0 0.0 ${Fatom}
fix forcetip tip_fix aveforce 0.0 0.0 -0.00014348297340828
run 100
WARNING: One or more atoms are time integrated more than once (src/modify.cpp:296)
Per MPI rank memory allocation (min/avg/max) = 8.784 | 8.851 | 8.921 Mbytes
   Step          Temp          E_pair         E_mol          TotEng         Press     
     10549   197.10476     -28113.097      0             -27851.644     -3860.7309    
     10600   200.99209     -28117.831      0             -27851.221     -3928.1557    
     10649   197.87342     -28114.899      0             -27852.426     -3741.2201    
Loop time of 0.248939 on 8 procs for 100 steps with 10522 atoms

Performance: 34.707 ns/day, 0.691 hours/ns, 401.705 timesteps/s, 4.227 Matom-step/s
99.2% CPU use with 8 MPI tasks x 1 OpenMP threads

MPI task timing breakdown:
Section |  min time  |  avg time  |  max time  |%varavg| %total
---------------------------------------------------------------
Pair    | 0.00012762 | 0.099419   | 0.20715    |  31.5 | 39.94
Neigh   | 0.00064642 | 0.011456   | 0.022486   |  10.1 |  4.60
Comm    | 0.0094764  | 0.12119    | 0.23305    |  29.7 | 48.68
Output  | 7.2477e-05 | 8.5724e-05 | 0.00015903 |   0.0 |  0.03
Modify  | 0.0085581  | 0.014969   | 0.028225   |   6.2 |  6.01
Other   |            | 0.001817   |            |       |  0.73

Nlocal:        1315.25 ave        2640 max           0 min
Histogram: 4 0 0 0 0 0 0 0 0 4
Nghost:        1208.88 ave        2176 max         252 min
Histogram: 4 0 0 0 0 0 0 0 0 4
Neighs:              0 ave           0 max           0 min
Histogram: 8 0 0 0 0 0 0 0 0 0

Total # of neighbors = 0
Ave neighs/atom = 0
Neighbor list builds = 8
Dangerous builds = 0

unfix forcetip

next i
jump SELF loop_load

variable f equal ${f}+${fincr}
variable f equal 0.06+${fincr}
variable f equal 0.06+0.01

# Set force variable

variable Fatom equal -v_f/(count(tip_fix)*1.602176565)
fix forcetip tip_fix aveforce 0.0 0.0 ${Fatom}
fix forcetip tip_fix aveforce 0.0 0.0 -0.00016739680230966
run 100
WARNING: One or more atoms are time integrated more than once (src/modify.cpp:296)
Per MPI rank memory allocation (min/avg/max) = 8.784 | 8.851 | 8.921 Mbytes
   Step          Temp          E_pair         E_mol          TotEng         Press     
     10649   197.87342     -28114.899      0             -27852.426     -3656.1658    
     10700   196.72551     -28113.737      0             -27852.787     -4037.7372    
     10749   198.79482     -28115.73       0             -27852.035     -3965.247     
Loop time of 0.242532 on 8 procs for 100 steps with 10522 atoms

Performance: 35.624 ns/day, 0.674 hours/ns, 412.316 timesteps/s, 4.338 Matom-step/s
99.5% CPU use with 8 MPI tasks x 1 OpenMP threads

MPI task timing breakdown:
Section |  min time  |  avg time  |  max time  |%varavg| %total
---------------------------------------------------------------
Pair    | 0.00010273 | 0.097627   | 0.19822    |  31.2 | 40.25
Neigh   | 0.00074153 | 0.011639   | 0.022948   |  10.0 |  4.80
Comm    | 0.012408   | 0.11813    | 0.22384    |  29.9 | 48.71
Output  | 7.0923e-05 | 8.4499e-05 | 0.00015557 |   0.0 |  0.03
Modify  | 0.0080151  | 0.013222   | 0.022705   |   4.8 |  5.45
Other   |            | 0.001827   |            |       |  0.75

Nlocal:        1315.25 ave        2644 max           0 min
Histogram: 4 0 0 0 0 0 0 0 0 4
Nghost:        1208.75 ave        2177 max         251 min
Histogram: 4 0 0 0 0 0 0 0 0 4
Neighs:              0 ave           0 max           0 min
Histogram: 8 0 0 0 0 0 0 0 0 0

Total # of neighbors = 0
Ave neighs/atom = 0
Neighbor list builds = 8
Dangerous builds = 0

unfix forcetip

next i
jump SELF loop_load

variable f equal ${f}+${fincr}
variable f equal 0.07+${fincr}
variable f equal 0.07+0.01

# Set force variable

variable Fatom equal -v_f/(count(tip_fix)*1.602176565)
fix forcetip tip_fix aveforce 0.0 0.0 ${Fatom}
fix forcetip tip_fix aveforce 0.0 0.0 -0.00019131063121104
run 100
WARNING: One or more atoms are time integrated more than once (src/modify.cpp:296)
Per MPI rank memory allocation (min/avg/max) = 8.784 | 8.851 | 8.921 Mbytes
   Step          Temp          E_pair         E_mol          TotEng         Press     
     10749   198.79482     -28115.73       0             -27852.035     -3921.8567    
     10800   199.50407     -28117.066      0             -27852.43      -3869.4676    
     10849   197.6727      -28114.964      0             -27852.758     -3528.3937    
Loop time of 0.248719 on 8 procs for 100 steps with 10522 atoms

Performance: 34.738 ns/day, 0.691 hours/ns, 402.060 timesteps/s, 4.230 Matom-step/s
99.2% CPU use with 8 MPI tasks x 1 OpenMP threads

MPI task timing breakdown:
Section |  min time  |  avg time  |  max time  |%varavg| %total
---------------------------------------------------------------
Pair    | 0.00012492 | 0.098882   | 0.20125    |  31.4 | 39.76
Neigh   | 0.00076173 | 0.011734   | 0.023343   |  10.0 |  4.72
Comm    | 0.013479   | 0.12092    | 0.22837    |  29.7 | 48.62
Output  | 7.0012e-05 | 8.2049e-05 | 0.00014342 |   0.0 |  0.03
Modify  | 0.0088945  | 0.015089   | 0.027764   |   5.6 |  6.07
Other   |            | 0.002011   |            |       |  0.81

Nlocal:        1315.25 ave        2645 max           0 min
Histogram: 4 0 0 0 0 0 0 0 0 4
Nghost:        1207.25 ave        2178 max         251 min
Histogram: 4 0 0 0 0 0 0 0 0 4
Neighs:              0 ave           0 max           0 min
Histogram: 8 0 0 0 0 0 0 0 0 0

Total # of neighbors = 0
Ave neighs/atom = 0
Neighbor list builds = 8
Dangerous builds = 0

unfix forcetip

next i
jump SELF loop_load

variable f equal ${f}+${fincr}
variable f equal 0.08+${fincr}
variable f equal 0.08+0.01

# Set force variable

variable Fatom equal -v_f/(count(tip_fix)*1.602176565)
fix forcetip tip_fix aveforce 0.0 0.0 ${Fatom}
fix forcetip tip_fix aveforce 0.0 0.0 -0.00021522446011242
run 100
WARNING: One or more atoms are time integrated more than once (src/modify.cpp:296)
Per MPI rank memory allocation (min/avg/max) = 8.784 | 8.851 | 8.921 Mbytes
   Step          Temp          E_pair         E_mol          TotEng         Press     
     10849   197.6727      -28114.964      0             -27852.758     -3551.0914    
     10900   197.44546     -28115.48       0             -27853.575     -3873.3449    
     10949   199.27843     -28118.911      0             -27854.575     -3690.5292    
Loop time of 0.252941 on 8 procs for 100 steps with 10522 atoms

Performance: 34.158 ns/day, 0.703 hours/ns, 395.349 timesteps/s, 4.160 Matom-step/s
99.6% CPU use with 8 MPI tasks x 1 OpenMP threads

MPI task timing breakdown:
Section |  min time  |  avg time  |  max time  |%varavg| %total
---------------------------------------------------------------
Pair    | 0.00013326 | 0.10117    | 0.2072     |  31.8 | 40.00
Neigh   | 0.00092521 | 0.012091   | 0.023866   |  10.1 |  4.78
Comm    | 0.011625   | 0.12313    | 0.23464    |  30.2 | 48.68
Output  | 0.00013804 | 0.00016463 | 0.00026795 |   0.0 |  0.07
Modify  | 0.0083543  | 0.014349   | 0.024006   |   5.5 |  5.67
Other   |            | 0.002038   |            |       |  0.81

Nlocal:        1315.25 ave        2642 max           0 min
Histogram: 4 0 0 0 0 0 0 0 0 4
Nghost:        1207.88 ave        2173 max         251 min
Histogram: 4 0 0 0 0 0 0 0 0 4
Neighs:              0 ave           0 max           0 min
Histogram: 8 0 0 0 0 0 0 0 0 0

Total # of neighbors = 0
Ave neighs/atom = 0
Neighbor list builds = 8
Dangerous builds = 0

unfix forcetip

next i
jump SELF loop_load

variable f equal ${f}+${fincr}
variable f equal 0.09+${fincr}
variable f equal 0.09+0.01

# Set force variable

variable Fatom equal -v_f/(count(tip_fix)*1.602176565)
fix forcetip tip_fix aveforce 0.0 0.0 ${Fatom}
fix forcetip tip_fix aveforce 0.0 0.0 -0.0002391382890138
run 100
WARNING: One or more atoms are time integrated more than once (src/modify.cpp:296)
Per MPI rank memory allocation (min/avg/max) = 8.784 | 8.851 | 8.921 Mbytes
   Step          Temp          E_pair         E_mol          TotEng         Press     
     10949   199.27843     -28118.911      0             -27854.575     -3634.7063    
     11000   196.37243     -28116.07       0             -27855.588     -3789.5156    
     11049   197.31058     -28117.168      0             -27855.441     -3834.7458    
Loop time of 0.246604 on 8 procs for 100 steps with 10522 atoms

Performance: 35.036 ns/day, 0.685 hours/ns, 405.508 timesteps/s, 4.267 Matom-step/s
99.6% CPU use with 8 MPI tasks x 1 OpenMP threads

MPI task timing breakdown:
Section |  min time  |  avg time  |  max time  |%varavg| %total
---------------------------------------------------------------
Pair    | 0.00013521 | 0.09923    | 0.20137    |  31.5 | 40.24
Neigh   | 0.0011143  | 0.012315   | 0.023819   |  10.0 |  4.99
Comm    | 0.0098952  | 0.11895    | 0.22812    |  30.8 | 48.24
Output  | 0.0019619  | 0.0021327  | 0.0023815  |   0.3 |  0.86
Modify  | 0.0081013  | 0.011874   | 0.020699   |   4.0 |  4.82
Other   |            | 0.002099   |            |       |  0.85

Nlocal:        1315.25 ave        2641 max           0 min
Histogram: 4 0 0 0 0 0 0 0 0 4
Nghost:        1208.38 ave        2173 max         251 min
Histogram: 4 0 0 0 0 0 0 0 0 4
Neighs:              0 ave           0 max           0 min
Histogram: 8 0 0 0 0 0 0 0 0 0

Total # of neighbors = 0
Ave neighs/atom = 0
Neighbor list builds = 8
Dangerous builds = 0

unfix forcetip

next i
jump SELF loop_load

variable f equal ${f}+${fincr}
variable f equal 0.1+${fincr}
variable f equal 0.1+0.01

# Set force variable

variable Fatom equal -v_f/(count(tip_fix)*1.602176565)
fix forcetip tip_fix aveforce 0.0 0.0 ${Fatom}
fix forcetip tip_fix aveforce 0.0 0.0 -0.00026305211791518
run 100
WARNING: One or more atoms are time integrated more than once (src/modify.cpp:296)
Per MPI rank memory allocation (min/avg/max) = 8.788 | 8.854 | 8.925 Mbytes
   Step          Temp          E_pair         E_mol          TotEng         Press     
     11049   197.31058     -28117.168      0             -27855.441     -3742.5827    
     11100   197.08813     -28117.91       0             -27856.479     -3870.4758    
     11149   197.5686      -28119.093      0             -27857.024     -3879.543     
Loop time of 0.255975 on 8 procs for 100 steps with 10522 atoms

Performance: 33.753 ns/day, 0.711 hours/ns, 390.664 timesteps/s, 4.111 Matom-step/s
99.4% CPU use with 8 MPI tasks x 1 OpenMP threads

MPI task timing breakdown:
Section |  min time  |  avg time  |  max time  |%varavg| %total
---------------------------------------------------------------
Pair    | 0.00013481 | 0.10195    | 0.20456    |  31.9 | 39.83
Neigh   | 0.00094152 | 0.012072   | 0.023515   |  10.1 |  4.72
Comm    | 0.018254   | 0.12462    | 0.23089    |  30.0 | 48.68
Output  | 7.4029e-05 | 8.5721e-05 | 0.00014181 |   0.0 |  0.03
Modify  | 0.0085987  | 0.015251   | 0.022261   |   5.4 |  5.96
Other   |            | 0.001996   |            |       |  0.78

Nlocal:        1315.25 ave        2645 max           0 min
Histogram: 4 0 0 0 0 0 0 0 0 4
Nghost:        1209.75 ave        2176 max         251 min
Histogram: 4 0 0 0 0 0 0 0 0 4
Neighs:              0 ave           0 max           0 min
Histogram: 8 0 0 0 0 0 0 0 0 0

Total # of neighbors = 0
Ave neighs/atom = 0
Neighbor list builds = 8
Dangerous builds = 0

unfix forcetip

next i
jump SELF loop_load

variable f equal ${f}+${fincr}
variable f equal 0.11+${fincr}
variable f equal 0.11+0.01

# Set force variable

variable Fatom equal -v_f/(count(tip_fix)*1.602176565)
fix forcetip tip_fix aveforce 0.0 0.0 ${Fatom}
fix forcetip tip_fix aveforce 0.0 0.0 -0.00028696594681656
run 100
WARNING: One or more atoms are time integrated more than once (src/modify.cpp:296)
Per MPI rank memory allocation (min/avg/max) = 8.788 | 8.854 | 8.925 Mbytes
   Step          Temp          E_pair         E_mol          TotEng         Press     
     11149   197.5686      -28119.093      0             -27857.024     -3845.5063    
     11200   197.93181     -28119.848      0             -27857.298     -4049.837     
     11249   199.44517     -28120.534      0             -27855.976     -3655.9788    
Loop time of 0.268493 on 8 procs for 100 steps with 10522 atoms

Performance: 32.180 ns/day, 0.746 hours/ns, 372.450 timesteps/s, 3.919 Matom-step/s
99.4% CPU use with 8 MPI tasks x 1 OpenMP threads

MPI task timing breakdown:
Section |  min time  |  avg time  |  max time  |%varavg| %total
---------------------------------------------------------------
Pair    | 0.00019505 | 0.10362    | 0.21694    |  32.2 | 38.59
Neigh   | 0.00074857 | 0.012321   | 0.024895   |  10.4 |  4.59
Comm    | 0.015232   | 0.13067    | 0.24614    |  29.0 | 48.67
Output  | 5.5023e-05 | 6.476e-05  | 0.00011146 |   0.0 |  0.02
Modify  | 0.0093065  | 0.019553   | 0.038762   |   8.1 |  7.28
Other   |            | 0.002258   |            |       |  0.84

Nlocal:        1315.25 ave        2641 max           0 min
Histogram: 4 0 0 0 0 0 0 0 0 4
Nghost:        1209.12 ave        2181 max         251 min
Histogram: 4 0 0 0 0 0 0 0 0 4
Neighs:              0 ave           0 max           0 min
Histogram: 8 0 0 0 0 0 0 0 0 0

Total # of neighbors = 0
Ave neighs/atom = 0
Neighbor list builds = 8
Dangerous builds = 0

unfix forcetip

next i
jump SELF loop_load

variable f equal ${f}+${fincr}
variable f equal 0.12+${fincr}
variable f equal 0.12+0.01

# Set force variable

variable Fatom equal -v_f/(count(tip_fix)*1.602176565)
fix forcetip tip_fix aveforce 0.0 0.0 ${Fatom}
fix forcetip tip_fix aveforce 0.0 0.0 -0.00031087977571794
run 100
WARNING: One or more atoms are time integrated more than once (src/modify.cpp:296)
Per MPI rank memory allocation (min/avg/max) = 8.788 | 8.854 | 8.925 Mbytes
   Step          Temp          E_pair         E_mol          TotEng         Press     
     11249   199.44517     -28120.534      0             -27855.976     -3605.4752    
     11300   199.15065     -28118.518      0             -27854.351     -3758.6725    
     11349   198.73899     -28118.811      0             -27855.191     -3651.3683    
Loop time of 0.258714 on 8 procs for 100 steps with 10522 atoms

Performance: 33.396 ns/day, 0.719 hours/ns, 386.528 timesteps/s, 4.067 Matom-step/s
99.3% CPU use with 8 MPI tasks x 1 OpenMP threads

MPI task timing breakdown:
Section |  min time  |  avg time  |  max time  |%varavg| %total
---------------------------------------------------------------
Pair    | 0.00017565 | 0.10176    | 0.20512    |  31.8 | 39.33
Neigh   | 0.0011115  | 0.012754   | 0.024942   |  10.2 |  4.93
Comm    | 0.018882   | 0.1258     | 0.23268    |  29.8 | 48.63
Output  | 5.835e-05  | 6.8598e-05 | 0.00011767 |   0.0 |  0.03
Modify  | 0.0089332  | 0.016096   | 0.025469   |   5.7 |  6.22
Other   |            | 0.002231   |            |       |  0.86

Nlocal:        1315.25 ave        2645 max           0 min
Histogram: 4 0 0 0 0 0 0 0 0 4
Nghost:        1208.62 ave        2181 max         251 min
Histogram: 4 0 0 0 0 0 0 0 0 4
Neighs:              0 ave           0 max           0 min
Histogram: 8 0 0 0 0 0 0 0 0 0

Total # of neighbors = 0
Ave neighs/atom = 0
Neighbor list builds = 8
Dangerous builds = 0

unfix forcetip

next i
jump SELF loop_load

variable f equal ${f}+${fincr}
variable f equal 0.13+${fincr}
variable f equal 0.13+0.01

# Set force variable

variable Fatom equal -v_f/(count(tip_fix)*1.602176565)
fix forcetip tip_fix aveforce 0.0 0.0 ${Fatom}
fix forcetip tip_fix aveforce 0.0 0.0 -0.00033479360461932
run 100
WARNING: One or more atoms are time integrated more than once (src/modify.cpp:296)
Per MPI rank memory allocation (min/avg/max) = 8.788 | 8.854 | 8.925 Mbytes
   Step          Temp          E_pair         E_mol          TotEng         Press     
     11349   198.73899     -28118.811      0             -27855.191     -3595.8714    
     11400   196.5321      -28115.648      0             -27854.954     -4043.4567    
     11449   197.79268     -28116.921      0             -27854.555     -3778.879     
Loop time of 0.258689 on 8 procs for 100 steps with 10522 atoms

Performance: 33.399 ns/day, 0.719 hours/ns, 386.565 timesteps/s, 4.067 Matom-step/s
99.2% CPU use with 8 MPI tasks x 1 OpenMP threads

MPI task timing breakdown:
Section |  min time  |  avg time  |  max time  |%varavg| %total
---------------------------------------------------------------
Pair    | 0.00016515 | 0.10195    | 0.21061    |  31.9 | 39.41
Neigh   | 0.0010174  | 0.012405   | 0.024494   |  10.1 |  4.80
Comm    | 0.014179   | 0.12597    | 0.23783    |  29.6 | 48.70
Output  | 5.7528e-05 | 6.8537e-05 | 0.00011948 |   0.0 |  0.03
Modify  | 0.008591   | 0.016222   | 0.030017   |   6.5 |  6.27
Other   |            | 0.002073   |            |       |  0.80

Nlocal:        1315.25 ave        2642 max           0 min
Histogram: 4 0 0 0 0 0 0 0 0 4
Nghost:           1208 ave        2183 max         251 min
Histogram: 4 0 0 0 0 0 0 0 0 4
Neighs:              0 ave           0 max           0 min
Histogram: 8 0 0 0 0 0 0 0 0 0

Total # of neighbors = 0
Ave neighs/atom = 0
Neighbor list builds = 8
Dangerous builds = 0

unfix forcetip

next i
jump SELF loop_load

variable f equal ${f}+${fincr}
variable f equal 0.14+${fincr}
variable f equal 0.14+0.01

# Set force variable

variable Fatom equal -v_f/(count(tip_fix)*1.602176565)
fix forcetip tip_fix aveforce 0.0 0.0 ${Fatom}
fix forcetip tip_fix aveforce 0.0 0.0 -0.0003587074335207
run 100
WARNING: One or more atoms are time integrated more than once (src/modify.cpp:296)
Per MPI rank memory allocation (min/avg/max) = 8.788 | 8.854 | 8.925 Mbytes
   Step          Temp          E_pair         E_mol          TotEng         Press     
     11449   197.79268     -28116.921      0             -27854.555     -3737.8348    
     11500   197.62597     -28117.875      0             -27855.731     -3849.0284    
     11549   198.97432     -28120.141      0             -27856.208     -3589.7556    
Loop time of 0.266488 on 8 procs for 100 steps with 10522 atoms

Performance: 32.422 ns/day, 0.740 hours/ns, 375.251 timesteps/s, 3.948 Matom-step/s
99.5% CPU use with 8 MPI tasks x 1 OpenMP threads

MPI task timing breakdown:
Section |  min time  |  avg time  |  max time  |%varavg| %total
---------------------------------------------------------------
Pair    | 0.00018793 | 0.10411    | 0.21076    |  32.2 | 39.07
Neigh   | 0.00079581 | 0.012157   | 0.024035   |  10.2 |  4.56
Comm    | 0.019788   | 0.12956    | 0.23921    |  29.6 | 48.62
Output  | 5.5054e-05 | 6.6097e-05 | 0.00011078 |   0.0 |  0.02
Modify  | 0.0096738  | 0.017965   | 0.031181   |   6.4 |  6.74
Other   |            | 0.002627   |            |       |  0.99

Nlocal:        1315.25 ave        2644 max           0 min
Histogram: 4 0 0 0 0 0 0 0 0 4
Nghost:        1209.25 ave        2180 max         251 min
Histogram: 4 0 0 0 0 0 0 0 0 4
Neighs:              0 ave           0 max           0 min
Histogram: 8 0 0 0 0 0 0 0 0 0

Total # of neighbors = 0
Ave neighs/atom = 0
Neighbor list builds = 8
Dangerous builds = 0

unfix forcetip

next i
jump SELF loop_load

variable f equal ${f}+${fincr}
variable f equal 0.15+${fincr}
variable f equal 0.15+0.01

# Set force variable

variable Fatom equal -v_f/(count(tip_fix)*1.602176565)
fix forcetip tip_fix aveforce 0.0 0.0 ${Fatom}
fix forcetip tip_fix aveforce 0.0 0.0 -0.00038262126242208
run 100
WARNING: One or more atoms are time integrated more than once (src/modify.cpp:296)
Per MPI rank memory allocation (min/avg/max) = 8.788 | 8.854 | 8.925 Mbytes
   Step          Temp          E_pair         E_mol          TotEng         Press     
     11549   198.97432     -28120.141      0             -27856.208     -3652.898     
     11600   197.94694     -28119.625      0             -27857.054     -3986.3027    
     11649   195.05171     -28116.484      0             -27857.755     -4112.3612    
Loop time of 0.25553 on 8 procs for 100 steps with 10522 atoms

Performance: 33.812 ns/day, 0.710 hours/ns, 391.343 timesteps/s, 4.118 Matom-step/s
99.4% CPU use with 8 MPI tasks x 1 OpenMP threads

MPI task timing breakdown:
Section |  min time  |  avg time  |  max time  |%varavg| %total
---------------------------------------------------------------
Pair    | 0.00011952 | 0.10138    | 0.20629    |  31.8 | 39.68
Neigh   | 0.00092636 | 0.012071   | 0.023366   |  10.0 |  4.72
Comm    | 0.014977   | 0.1241     | 0.23337    |  29.9 | 48.57
Output  | 0.000144   | 0.00018761 | 0.00038616 |   0.0 |  0.07
Modify  | 0.0089126  | 0.015508   | 0.02827    |   5.7 |  6.07
Other   |            | 0.002281   |            |       |  0.89

Nlocal:        1315.25 ave        2644 max           0 min
Histogram: 4 0 0 0 0 0 0 0 0 4
Nghost:        1208.88 ave        2178 max         251 min
Histogram: 4 0 0 0 0 0 0 0 0 4
Neighs:              0 ave           0 max           0 min
Histogram: 8 0 0 0 0 0 0 0 0 0

Total # of neighbors = 0
Ave neighs/atom = 0
Neighbor list builds = 8
Dangerous builds = 0

unfix forcetip

next i
jump SELF loop_load

variable f equal ${f}+${fincr}
variable f equal 0.16+${fincr}
variable f equal 0.16+0.01

# Set force variable

variable Fatom equal -v_f/(count(tip_fix)*1.602176565)
fix forcetip tip_fix aveforce 0.0 0.0 ${Fatom}
fix forcetip tip_fix aveforce 0.0 0.0 -0.00040653509132346
run 100
WARNING: One or more atoms are time integrated more than once (src/modify.cpp:296)
Per MPI rank memory allocation (min/avg/max) = 8.788 | 8.854 | 8.925 Mbytes
   Step          Temp          E_pair         E_mol          TotEng         Press     
     11649   195.05171     -28116.484      0             -27857.755     -3989.3299    
     11700   197.30461     -28119.686      0             -27857.968     -3802.0244    
     11749   195.26745     -28117.176      0             -27858.16      -3684.6346    
Loop time of 0.270909 on 8 procs for 100 steps with 10522 atoms

Performance: 31.893 ns/day, 0.753 hours/ns, 369.128 timesteps/s, 3.884 Matom-step/s
99.1% CPU use with 8 MPI tasks x 1 OpenMP threads

MPI task timing breakdown:
Section |  min time  |  avg time  |  max time  |%varavg| %total
---------------------------------------------------------------
Pair    | 0.00013562 | 0.10296    | 0.2217     |  32.1 | 38.01
Neigh   | 0.00089178 | 0.012456   | 0.025628   |  10.3 |  4.60
Comm    | 0.012212   | 0.13179    | 0.25171    |  28.2 | 48.65
Output  | 0.00015632 | 0.00019488 | 0.00040915 |   0.0 |  0.07
Modify  | 0.0090054  | 0.021174   | 0.044466   |   9.8 |  7.82
Other   |            | 0.002339   |            |       |  0.86

Nlocal:        1315.25 ave        2645 max           0 min
Histogram: 4 0 0 0 0 0 0 0 0 4
Nghost:           1209 ave        2181 max         251 min
Histogram: 4 0 0 0 0 0 0 0 0 4
Neighs:              0 ave           0 max           0 min
Histogram: 8 0 0 0 0 0 0 0 0 0

Total # of neighbors = 0
Ave neighs/atom = 0
Neighbor list builds = 8
Dangerous builds = 0

unfix forcetip

next i
jump SELF loop_load

variable f equal ${f}+${fincr}
variable f equal 0.17+${fincr}
variable f equal 0.17+0.01

# Set force variable

variable Fatom equal -v_f/(count(tip_fix)*1.602176565)
fix forcetip tip_fix aveforce 0.0 0.0 ${Fatom}
fix forcetip tip_fix aveforce 0.0 0.0 -0.00043044892022484
run 100
WARNING: One or more atoms are time integrated more than once (src/modify.cpp:296)
Per MPI rank memory allocation (min/avg/max) = 8.788 | 8.854 | 8.925 Mbytes
   Step          Temp          E_pair         E_mol          TotEng         Press     
     11749   195.26745     -28117.176      0             -27858.16      -3625.5995    
     11800   197.03153     -28119.161      0             -27857.805     -3377.0769    
     11849   195.18557     -28117.623      0             -27858.716     -3793.2541    
Loop time of 0.298422 on 8 procs for 100 steps with 10522 atoms

Performance: 28.952 ns/day, 0.829 hours/ns, 335.095 timesteps/s, 3.526 Matom-step/s
99.2% CPU use with 8 MPI tasks x 1 OpenMP threads

MPI task timing breakdown:
Section |  min time  |  avg time  |  max time  |%varavg| %total
---------------------------------------------------------------
Pair    | 0.00028045 | 0.11212    | 0.23014    |  33.4 | 37.57
Neigh   | 0.00065716 | 0.012492   | 0.025855   |  10.6 |  4.19
Comm    | 0.031162   | 0.14548    | 0.25987    |  28.2 | 48.75
Output  | 7.2666e-05 | 8.6829e-05 | 0.00015059 |   0.0 |  0.03
Modify  | 0.010098   | 0.025835   | 0.049661   |  10.1 |  8.66
Other   |            | 0.002409   |            |       |  0.81

Nlocal:        1315.25 ave        2643 max           0 min
Histogram: 4 0 0 0 0 0 0 0 0 4
Nghost:        1208.75 ave        2180 max         251 min
Histogram: 4 0 0 0 0 0 0 0 0 4
Neighs:              0 ave           0 max           0 min
Histogram: 8 0 0 0 0 0 0 0 0 0

Total # of neighbors = 0
Ave neighs/atom = 0
Neighbor list builds = 8
Dangerous builds = 0

unfix forcetip

next i
jump SELF loop_load

variable f equal ${f}+${fincr}
variable f equal 0.18+${fincr}
variable f equal 0.18+0.01

# Set force variable

variable Fatom equal -v_f/(count(tip_fix)*1.602176565)
fix forcetip tip_fix aveforce 0.0 0.0 ${Fatom}
fix forcetip tip_fix aveforce 0.0 0.0 -0.00045436274912622
run 100
WARNING: One or more atoms are time integrated more than once (src/modify.cpp:296)
Per MPI rank memory allocation (min/avg/max) = 8.788 | 8.854 | 8.925 Mbytes
   Step          Temp          E_pair         E_mol          TotEng         Press     
     11849   195.18557     -28117.623      0             -27858.716     -3842.155     
     11900   198.38957     -28120.688      0             -27857.531     -3963.5626    
     11949   198.67794     -28121.426      0             -27857.886     -3973.9248    
Loop time of 0.261533 on 8 procs for 100 steps with 10522 atoms

Performance: 33.036 ns/day, 0.726 hours/ns, 382.361 timesteps/s, 4.023 Matom-step/s
99.5% CPU use with 8 MPI tasks x 1 OpenMP threads

MPI task timing breakdown:
Section |  min time  |  avg time  |  max time  |%varavg| %total
---------------------------------------------------------------
Pair    | 0.00022778 | 0.10302    | 0.21122    |  32.0 | 39.39
Neigh   | 0.00046733 | 0.011578   | 0.023764   |  10.3 |  4.43
Comm    | 0.016842   | 0.12733    | 0.23799    |  29.6 | 48.69
Output  | 7.2337e-05 | 8.5613e-05 | 0.00014602 |   0.0 |  0.03
Modify  | 0.0092093  | 0.017326   | 0.030215   |   6.5 |  6.62
Other   |            | 0.00219    |            |       |  0.84

Nlocal:        1315.25 ave        2642 max           0 min
Histogram: 4 0 0 0 0 0 0 0 0 4
Nghost:        1209.25 ave        2176 max         251 min
Histogram: 4 0 0 0 0 0 0 0 0 4
Neighs:              0 ave           0 max           0 min
Histogram: 8 0 0 0 0 0 0 0 0 0

Total # of neighbors = 0
Ave neighs/atom = 0
Neighbor list builds = 8
Dangerous builds = 0

unfix forcetip

next i
jump SELF loop_load

variable f equal ${f}+${fincr}
variable f equal 0.19+${fincr}
variable f equal 0.19+0.01

# Set force variable

variable Fatom equal -v_f/(count(tip_fix)*1.602176565)
fix forcetip tip_fix aveforce 0.0 0.0 ${Fatom}
fix forcetip tip_fix aveforce 0.0 0.0 -0.0004782765780276
run 100
WARNING: One or more atoms are time integrated more than once (src/modify.cpp:296)
Per MPI rank memory allocation (min/avg/max) = 8.788 | 8.854 | 8.925 Mbytes
   Step          Temp          E_pair         E_mol          TotEng         Press     
     11949   198.67794     -28121.426      0             -27857.886     -3943.263     
     12000   194.06231     -28116.327      0             -27858.91      -3749.6816    
     12049   196.7617      -28118.616      0             -27857.618     -4060.3318    
Loop time of 0.288385 on 8 procs for 100 steps with 10522 atoms

Performance: 29.960 ns/day, 0.801 hours/ns, 346.758 timesteps/s, 3.649 Matom-step/s
99.3% CPU use with 8 MPI tasks x 1 OpenMP threads

MPI task timing breakdown:
Section |  min time  |  avg time  |  max time  |%varavg| %total
---------------------------------------------------------------
Pair    | 0.00021332 | 0.11404    | 0.23333    |  33.7 | 39.55
Neigh   | 0.00050431 | 0.012643   | 0.025907   |  10.8 |  4.38
Comm    | 0.01647    | 0.13985    | 0.26322    |  31.5 | 48.50
Output  | 0.0015668  | 0.0017128  | 0.0018682  |   0.2 |  0.59
Modify  | 0.0098093  | 0.017633   | 0.030085   |   6.3 |  6.11
Other   |            | 0.002501   |            |       |  0.87

Nlocal:        1315.25 ave        2646 max           0 min
Histogram: 4 0 0 0 0 0 0 0 0 4
Nghost:        1209.62 ave        2180 max         251 min
Histogram: 4 0 0 0 0 0 0 0 0 4
Neighs:              0 ave           0 max           0 min
Histogram: 8 0 0 0 0 0 0 0 0 0

Total # of neighbors = 0
Ave neighs/atom = 0
Neighbor list builds = 8
Dangerous builds = 0

unfix forcetip

next i
jump SELF loop_load

variable f equal ${f}+${fincr}
variable f equal 0.2+${fincr}
variable f equal 0.2+0.01

# Set force variable

variable Fatom equal -v_f/(count(tip_fix)*1.602176565)
fix forcetip tip_fix aveforce 0.0 0.0 ${Fatom}
fix forcetip tip_fix aveforce 0.0 0.0 -0.00050219040692898
run 100
WARNING: One or more atoms are time integrated more than once (src/modify.cpp:296)
Per MPI rank memory allocation (min/avg/max) = 8.788 | 8.855 | 8.925 Mbytes
   Step          Temp          E_pair         E_mol          TotEng         Press     
     12049   196.7617      -28118.616      0             -27857.618     -4068.842     
     12100   198.5575      -28121.996      0             -27858.615     -3935.8807    
     12149   198.68212     -28120.657      0             -27857.112     -3721.8764    
Loop time of 0.26699 on 8 procs for 100 steps with 10522 atoms

Performance: 32.361 ns/day, 0.742 hours/ns, 374.546 timesteps/s, 3.941 Matom-step/s
99.4% CPU use with 8 MPI tasks x 1 OpenMP threads

MPI task timing breakdown:
Section |  min time  |  avg time  |  max time  |%varavg| %total
---------------------------------------------------------------
Pair    | 0.0001861  | 0.10445    | 0.21192    |  32.3 | 39.12
Neigh   | 0.00069838 | 0.01227    | 0.024397   |  10.4 |  4.60
Comm    | 0.019795   | 0.13009    | 0.24036    |  29.5 | 48.72
Output  | 7.0103e-05 | 8.4283e-05 | 0.00015858 |   0.0 |  0.03
Modify  | 0.0089901  | 0.018016   | 0.029392   |   6.8 |  6.75
Other   |            | 0.002076   |            |       |  0.78

Nlocal:        1315.25 ave        2641 max           0 min
Histogram: 4 0 0 0 0 0 0 0 0 4
Nghost:        1209.75 ave        2182 max         251 min
Histogram: 4 0 0 0 0 0 0 0 0 4
Neighs:              0 ave           0 max           0 min
Histogram: 8 0 0 0 0 0 0 0 0 0

Total # of neighbors = 0
Ave neighs/atom = 0
Neighbor list builds = 8
Dangerous builds = 0

unfix forcetip

next i
jump SELF loop_load

variable f equal ${f}+${fincr}
variable f equal 0.21+${fincr}
variable f equal 0.21+0.01

# Set force variable

variable Fatom equal -v_f/(count(tip_fix)*1.602176565)
fix forcetip tip_fix aveforce 0.0 0.0 ${Fatom}
fix forcetip tip_fix aveforce 0.0 0.0 -0.00052610423583036
run 100
WARNING: One or more atoms are time integrated more than once (src/modify.cpp:296)
Per MPI rank memory allocation (min/avg/max) = 8.788 | 8.855 | 8.925 Mbytes
   Step          Temp          E_pair         E_mol          TotEng         Press     
     12149   198.68212     -28120.657      0             -27857.112     -3620.5876    
     12200   195.04676     -28117.686      0             -27858.963     -3716.0976    
     12249   197.04698     -28119.439      0             -27858.062     -3652.1035    
Loop time of 0.24384 on 8 procs for 100 steps with 10522 atoms

Performance: 35.433 ns/day, 0.677 hours/ns, 410.104 timesteps/s, 4.315 Matom-step/s
99.7% CPU use with 8 MPI tasks x 1 OpenMP threads

MPI task timing breakdown:
Section |  min time  |  avg time  |  max time  |%varavg| %total
---------------------------------------------------------------
Pair    | 0.00011864 | 0.098247   | 0.19973    |  31.3 | 40.29
Neigh   | 0.00071313 | 0.011933   | 0.023643   |  10.2 |  4.89
Comm    | 0.0112     | 0.11883    | 0.22642    |  30.2 | 48.73
Output  | 0.00010461 | 0.00012837 | 0.00026363 |   0.0 |  0.05
Modify  | 0.0079472  | 0.012905   | 0.022143   |   4.7 |  5.29
Other   |            | 0.001801   |            |       |  0.74

Nlocal:        1315.25 ave        2643 max           0 min
Histogram: 4 0 0 0 0 0 0 0 0 4
Nghost:        1207.62 ave        2178 max         251 min
Histogram: 4 0 0 0 0 0 0 0 0 4
Neighs:              0 ave           0 max           0 min
Histogram: 8 0 0 0 0 0 0 0 0 0

Total # of neighbors = 0
Ave neighs/atom = 0
Neighbor list builds = 8
Dangerous builds = 0

unfix forcetip

next i
jump SELF loop_load

variable f equal ${f}+${fincr}
variable f equal 0.22+${fincr}
variable f equal 0.22+0.01

# Set force variable

variable Fatom equal -v_f/(count(tip_fix)*1.602176565)
fix forcetip tip_fix aveforce 0.0 0.0 ${Fatom}
fix forcetip tip_fix aveforce 0.0 0.0 -0.00055001806473174
run 100
WARNING: One or more atoms are time integrated more than once (src/modify.cpp:296)
Per MPI rank memory allocation (min/avg/max) = 8.788 | 8.855 | 8.925 Mbytes
   Step          Temp          E_pair         E_mol          TotEng         Press     
     12249   197.04698     -28119.439      0             -27858.062     -3671.8668    
     12300   197.72409     -28120.476      0             -27858.201     -3705.7417    
     12349   195.79176     -28118.891      0             -27859.179     -4019.7315    
Loop time of 0.248394 on 8 procs for 100 steps with 10522 atoms

Performance: 34.783 ns/day, 0.690 hours/ns, 402.586 timesteps/s, 4.236 Matom-step/s
99.2% CPU use with 8 MPI tasks x 1 OpenMP threads

MPI task timing breakdown:
Section |  min time  |  avg time  |  max time  |%varavg| %total
---------------------------------------------------------------
Pair    | 0.00012769 | 0.099575   | 0.20144    |  31.5 | 40.09
Neigh   | 0.00063445 | 0.011853   | 0.023757   |  10.3 |  4.77
Comm    | 0.01315    | 0.121      | 0.22885    |  30.1 | 48.71
Output  | 0.00010867 | 0.00013769 | 0.00030702 |   0.0 |  0.06
Modify  | 0.0083106  | 0.013869   | 0.025135   |   5.2 |  5.58
Other   |            | 0.001962   |            |       |  0.79

Nlocal:        1315.25 ave        2640 max           0 min
Histogram: 4 0 0 0 0 0 0 0 0 4
Nghost:         1207.5 ave        2176 max         251 min
Histogram: 4 0 0 0 0 0 0 0 0 4
Neighs:              0 ave           0 max           0 min
Histogram: 8 0 0 0 0 0 0 0 0 0

Total # of neighbors = 0
Ave neighs/atom = 0
Neighbor list builds = 8
Dangerous builds = 0

unfix forcetip

next i
jump SELF loop_load

variable f equal ${f}+${fincr}
variable f equal 0.23+${fincr}
variable f equal 0.23+0.01

# Set force variable

variable Fatom equal -v_f/(count(tip_fix)*1.602176565)
fix forcetip tip_fix aveforce 0.0 0.0 ${Fatom}
fix forcetip tip_fix aveforce 0.0 0.0 -0.00057393189363312
run 100
WARNING: One or more atoms are time integrated more than once (src/modify.cpp:296)
Per MPI rank memory allocation (min/avg/max) = 8.788 | 8.855 | 8.925 Mbytes
   Step          Temp          E_pair         E_mol          TotEng         Press     
     12349   195.79176     -28118.891      0             -27859.179     -3862.7416    
     12400   197.81054     -28121.019      0             -27858.63      -3693.0242    
     12449   195.92129     -28119.392      0             -27859.509     -4098.4506    
Loop time of 0.275295 on 8 procs for 100 steps with 10522 atoms

Performance: 31.385 ns/day, 0.765 hours/ns, 363.247 timesteps/s, 3.822 Matom-step/s
99.6% CPU use with 8 MPI tasks x 1 OpenMP threads

MPI task timing breakdown:
Section |  min time  |  avg time  |  max time  |%varavg| %total
---------------------------------------------------------------
Pair    | 0.00014928 | 0.10427    | 0.22528    |  32.3 | 37.88
Neigh   | 0.0010211  | 0.012301   | 0.024383   |  10.1 |  4.47
Comm    | 0.014422   | 0.13387    | 0.25353    |  28.0 | 48.63
Output  | 6.0514e-05 | 7.1056e-05 | 0.0001186  |   0.0 |  0.03
Modify  | 0.0094046  | 0.022588   | 0.045187   |  10.1 |  8.20
Other   |            | 0.002195   |            |       |  0.80

Nlocal:        1315.25 ave        2642 max           0 min
Histogram: 4 0 0 0 0 0 0 0 0 4
Nghost:           1210 ave        2180 max         251 min
Histogram: 4 0 0 0 0 0 0 0 0 4
Neighs:              0 ave           0 max           0 min
Histogram: 8 0 0 0 0 0 0 0 0 0

Total # of neighbors = 0
Ave neighs/atom = 0
Neighbor list builds = 8
Dangerous builds = 0

unfix forcetip

next i
jump SELF loop_load

variable f equal ${f}+${fincr}
variable f equal 0.24+${fincr}
variable f equal 0.24+0.01

# Set force variable

variable Fatom equal -v_f/(count(tip_fix)*1.602176565)
fix forcetip tip_fix aveforce 0.0 0.0 ${Fatom}
fix forcetip tip_fix aveforce 0.0 0.0 -0.0005978457225345
run 100
WARNING: One or more atoms are time integrated more than once (src/modify.cpp:296)
Per MPI rank memory allocation (min/avg/max) = 8.788 | 8.855 | 8.925 Mbytes
   Step          Temp          E_pair         E_mol          TotEng         Press     
     12449   195.92129     -28119.392      0             -27859.509     -3999.7059    
     12500   197.78028     -28121.38       0             -27859.031     -3756.8668    
     12549   194.8692      -28117.226      0             -27858.739     -3891.0816    
Loop time of 0.265196 on 8 procs for 100 steps with 10522 atoms

Performance: 32.580 ns/day, 0.737 hours/ns, 377.079 timesteps/s, 3.968 Matom-step/s
99.5% CPU use with 8 MPI tasks x 1 OpenMP threads

MPI task timing breakdown:
Section |  min time  |  avg time  |  max time  |%varavg| %total
---------------------------------------------------------------
Pair    | 0.00013785 | 0.10277    | 0.21042    |  32.0 | 38.75
Neigh   | 0.00082048 | 0.011908   | 0.024136   |  10.1 |  4.49
Comm    | 0.020012   | 0.1292     | 0.23856    |  28.7 | 48.72
Output  | 5.7617e-05 | 6.7459e-05 | 0.00011289 |   0.0 |  0.03
Modify  | 0.0088438  | 0.01919    | 0.037983   |   7.9 |  7.24
Other   |            | 0.002057   |            |       |  0.78

Nlocal:        1315.25 ave        2641 max           0 min
Histogram: 4 0 0 0 0 0 0 0 0 4
Nghost:           1208 ave        2173 max         251 min
Histogram: 4 0 0 0 0 0 0 0 0 4
Neighs:              0 ave           0 max           0 min
Histogram: 8 0 0 0 0 0 0 0 0 0

Total # of neighbors = 0
Ave neighs/atom = 0
Neighbor list builds = 8
Dangerous builds = 0

unfix forcetip

next i
jump SELF loop_load

variable f equal ${f}+${fincr}
variable f equal 0.25+${fincr}
variable f equal 0.25+0.01

# Set force variable

variable Fatom equal -v_f/(count(tip_fix)*1.602176565)
fix forcetip tip_fix aveforce 0.0 0.0 ${Fatom}
fix forcetip tip_fix aveforce 0.0 0.0 -0.00062175955143588
run 100
WARNING: One or more atoms are time integrated more than once (src/modify.cpp:296)
Per MPI rank memory allocation (min/avg/max) = 8.788 | 8.855 | 8.925 Mbytes
   Step          Temp          E_pair         E_mol          TotEng         Press     
     12549   194.8692      -28117.226      0             -27858.739     -3806.9199    
     12600   195.89849     -28119.113      0             -27859.26      -3909.6862    
     12649   196.34083     -28119.142      0             -27858.703     -3882.4628    
Loop time of 0.241202 on 8 procs for 100 steps with 10522 atoms

Performance: 35.821 ns/day, 0.670 hours/ns, 414.590 timesteps/s, 4.362 Matom-step/s
99.6% CPU use with 8 MPI tasks x 1 OpenMP threads

MPI task timing breakdown:
Section |  min time  |  avg time  |  max time  |%varavg| %total
---------------------------------------------------------------
Pair    | 0.00010681 | 0.097011   | 0.19686    |  31.1 | 40.22
Neigh   | 0.0008241  | 0.01199    | 0.023515   |  10.1 |  4.97
Comm    | 0.011319   | 0.11755    | 0.22389    |  30.0 | 48.73
Output  | 7.2336e-05 | 8.7275e-05 | 0.00016905 |   0.0 |  0.04
Modify  | 0.0078986  | 0.012773   | 0.023475   |   4.8 |  5.30
Other   |            | 0.001793   |            |       |  0.74

Nlocal:        1315.25 ave        2642 max           0 min
Histogram: 4 0 0 0 0 0 0 0 0 4
Nghost:        1207.88 ave        2178 max         251 min
Histogram: 4 0 0 0 0 0 0 0 0 4
Neighs:              0 ave           0 max           0 min
Histogram: 8 0 0 0 0 0 0 0 0 0

Total # of neighbors = 0
Ave neighs/atom = 0
Neighbor list builds = 8
Dangerous builds = 0

unfix forcetip

next i
jump SELF loop_load

variable f equal ${f}+${fincr}
variable f equal 0.26+${fincr}
variable f equal 0.26+0.01

# Set force variable

variable Fatom equal -v_f/(count(tip_fix)*1.602176565)
fix forcetip tip_fix aveforce 0.0 0.0 ${Fatom}
fix forcetip tip_fix aveforce 0.0 0.0 -0.00064567338033726
run 100
WARNING: One or more atoms are time integrated more than once (src/modify.cpp:296)
Per MPI rank memory allocation (min/avg/max) = 8.788 | 8.855 | 8.925 Mbytes
   Step          Temp          E_pair         E_mol          TotEng         Press     
     12649   196.34083     -28119.142      0             -27858.703     -3744.1416    
     12700   197.44515     -28120.18       0             -27858.275     -3961.7691    
     12749   194.79271     -28116.204      0             -27857.818     -3511.8519    
Loop time of 0.246784 on 8 procs for 100 steps with 10522 atoms

Performance: 35.010 ns/day, 0.686 hours/ns, 405.213 timesteps/s, 4.264 Matom-step/s
99.8% CPU use with 8 MPI tasks x 1 OpenMP threads

MPI task timing breakdown:
Section |  min time  |  avg time  |  max time  |%varavg| %total
---------------------------------------------------------------
Pair    | 0.00013716 | 0.09912    | 0.20092    |  31.4 | 40.16
Neigh   | 0.00093943 | 0.012037   | 0.0241     |  10.1 |  4.88
Comm    | 0.011541   | 0.12005    | 0.22867    |  30.3 | 48.64
Output  | 7.488e-05  | 8.9905e-05 | 0.00016978 |   0.0 |  0.04
Modify  | 0.0083833  | 0.013345   | 0.024643   |   4.9 |  5.41
Other   |            | 0.002146   |            |       |  0.87

Nlocal:        1315.25 ave        2642 max           0 min
Histogram: 4 0 0 0 0 0 0 0 0 4
Nghost:        1209.38 ave        2178 max         251 min
Histogram: 4 0 0 0 0 0 0 0 0 4
Neighs:              0 ave           0 max           0 min
Histogram: 8 0 0 0 0 0 0 0 0 0

Total # of neighbors = 0
Ave neighs/atom = 0
Neighbor list builds = 8
Dangerous builds = 0

unfix forcetip

next i
jump SELF loop_load

variable f equal ${f}+${fincr}
variable f equal 0.27+${fincr}
variable f equal 0.27+0.01

# Set force variable

variable Fatom equal -v_f/(count(tip_fix)*1.602176565)
fix forcetip tip_fix aveforce 0.0 0.0 ${Fatom}
fix forcetip tip_fix aveforce 0.0 0.0 -0.00066958720923864
run 100
WARNING: One or more atoms are time integrated more than once (src/modify.cpp:296)
Per MPI rank memory allocation (min/avg/max) = 8.788 | 8.855 | 8.925 Mbytes
   Step          Temp          E_pair         E_mol          TotEng         Press     
     12749   194.79271     -28116.204      0             -27857.818     -3550.3878    
     12800   198.20319     -28120.924      0             -27858.014     -3582.0299    
     12849   198.30105     -28119.767      0             -27856.727     -3884.8882    
Loop time of 0.244801 on 8 procs for 100 steps with 10522 atoms

Performance: 35.294 ns/day, 0.680 hours/ns, 408.494 timesteps/s, 4.298 Matom-step/s
99.6% CPU use with 8 MPI tasks x 1 OpenMP threads

MPI task timing breakdown:
Section |  min time  |  avg time  |  max time  |%varavg| %total
---------------------------------------------------------------
Pair    | 8.29e-05   | 0.098301   | 0.20002    |  31.3 | 40.16
Neigh   | 0.0011053  | 0.012152   | 0.023863   |  10.0 |  4.96
Comm    | 0.011821   | 0.11921    | 0.2266     |  30.0 | 48.70
Output  | 7.0673e-05 | 8.4489e-05 | 0.00016101 |   0.0 |  0.03
Modify  | 0.0077592  | 0.013272   | 0.026062   |   5.5 |  5.42
Other   |            | 0.001785   |            |       |  0.73

Nlocal:        1315.25 ave        2647 max           0 min
Histogram: 4 0 0 0 0 0 0 0 0 4
Nghost:         1209.5 ave        2182 max         251 min
Histogram: 4 0 0 0 0 0 0 0 0 4
Neighs:              0 ave           0 max           0 min
Histogram: 8 0 0 0 0 0 0 0 0 0

Total # of neighbors = 0
Ave neighs/atom = 0
Neighbor list builds = 8
Dangerous builds = 0

unfix forcetip

next i
jump SELF loop_load

variable f equal ${f}+${fincr}
variable f equal 0.28+${fincr}
variable f equal 0.28+0.01

# Set force variable

variable Fatom equal -v_f/(count(tip_fix)*1.602176565)
fix forcetip tip_fix aveforce 0.0 0.0 ${Fatom}
fix forcetip tip_fix aveforce 0.0 0.0 -0.00069350103814002
run 100
WARNING: One or more atoms are time integrated more than once (src/modify.cpp:296)
Per MPI rank memory allocation (min/avg/max) = 8.788 | 8.855 | 8.925 Mbytes
   Step          Temp          E_pair         E_mol          TotEng         Press     
     12849   198.30105     -28119.767      0             -27856.727     -3790.55      
     12900   198.07595     -28118.882      0             -27856.14      -4034.6526    
     12949   197.47959     -28119.045      0             -27857.095     -3801.0304    
Loop time of 0.250638 on 8 procs for 100 steps with 10522 atoms

Performance: 34.472 ns/day, 0.696 hours/ns, 398.982 timesteps/s, 4.198 Matom-step/s
98.9% CPU use with 8 MPI tasks x 1 OpenMP threads

MPI task timing breakdown:
Section |  min time  |  avg time  |  max time  |%varavg| %total
---------------------------------------------------------------
Pair    | 8.4707e-05 | 0.10028    | 0.20631    |  31.6 | 40.01
Neigh   | 0.00046044 | 0.011116   | 0.02215    |  10.0 |  4.43
Comm    | 0.012114   | 0.12209    | 0.23242    |  29.7 | 48.71
Output  | 6.5934e-05 | 7.8978e-05 | 0.00014047 |   0.0 |  0.03
Modify  | 0.0083803  | 0.015151   | 0.029029   |   6.1 |  6.04
Other   |            | 0.001927   |            |       |  0.77

Nlocal:        1315.25 ave        2645 max           0 min
Histogram: 4 0 0 0 0 0 0 0 0 4
Nghost:        1208.25 ave        2180 max         251 min
Histogram: 4 0 0 0 0 0 0 0 0 4
Neighs:              0 ave           0 max           0 min
Histogram: 8 0 0 0 0 0 0 0 0 0

Total # of neighbors = 0
Ave neighs/atom = 0
Neighbor list builds = 8
Dangerous builds = 0

unfix forcetip

next i
jump SELF loop_load

variable f equal ${f}+${fincr}
variable f equal 0.29+${fincr}
variable f equal 0.29+0.01

# Set force variable

variable Fatom equal -v_f/(count(tip_fix)*1.602176565)
fix forcetip tip_fix aveforce 0.0 0.0 ${Fatom}
fix forcetip tip_fix aveforce 0.0 0.0 -0.0007174148670414
run 100
WARNING: One or more atoms are time integrated more than once (src/modify.cpp:296)
Per MPI rank memory allocation (min/avg/max) = 8.788 | 8.855 | 8.925 Mbytes
   Step          Temp          E_pair         E_mol          TotEng         Press     
     12949   197.47959     -28119.045      0             -27857.095     -3758.8645    
     13000   195.53249     -28117.117      0             -27857.75      -3674.2056    
     13049   197.64932     -28121.291      0             -27859.116     -3904.882     
Loop time of 0.240096 on 8 procs for 100 steps with 10522 atoms

Performance: 35.986 ns/day, 0.667 hours/ns, 416.499 timesteps/s, 4.382 Matom-step/s
99.5% CPU use with 8 MPI tasks x 1 OpenMP threads

MPI task timing breakdown:
Section |  min time  |  avg time  |  max time  |%varavg| %total
---------------------------------------------------------------
Pair    | 9.3529e-05 | 0.096536   | 0.19553    |  31.0 | 40.21
Neigh   | 0.0010605  | 0.011763   | 0.023216   |   9.8 |  4.90
Comm    | 0.011414   | 0.11619    | 0.22085    |  30.0 | 48.39
Output  | 0.0013906  | 0.0015329  | 0.0016927  |   0.3 |  0.64
Modify  | 0.0077078  | 0.012208   | 0.022424   |   4.6 |  5.08
Other   |            | 0.001867   |            |       |  0.78

Nlocal:        1315.25 ave        2641 max           0 min
Histogram: 4 0 0 0 0 0 0 0 0 4
Nghost:        1208.38 ave        2173 max         251 min
Histogram: 4 0 0 0 0 0 0 0 0 4
Neighs:              0 ave           0 max           0 min
Histogram: 8 0 0 0 0 0 0 0 0 0

Total # of neighbors = 0
Ave neighs/atom = 0
Neighbor list builds = 8
Dangerous builds = 0

unfix forcetip

next i
jump SELF loop_load

variable f equal ${f}+${fincr}
variable f equal 0.3+${fincr}
variable f equal 0.3+0.01

# Set force variable

variable Fatom equal -v_f/(count(tip_fix)*1.602176565)
fix forcetip tip_fix aveforce 0.0 0.0 ${Fatom}
fix forcetip tip_fix aveforce 0.0 0.0 -0.00074132869594278
run 100
WARNING: One or more atoms are time integrated more than once (src/modify.cpp:296)
Per MPI rank memory allocation (min/avg/max) = 8.788 | 8.855 | 8.925 Mbytes
   Step          Temp          E_pair         E_mol          TotEng         Press     
     13049   197.64932     -28121.291      0             -27859.116     -3777.5629    
     13100   197.64769     -28120.135      0             -27857.962     -4144.9165    
     13149   198.09509     -28122.192      0             -27859.426     -3832.7095    
Loop time of 0.252176 on 8 procs for 100 steps with 10522 atoms

Performance: 34.262 ns/day, 0.700 hours/ns, 396.548 timesteps/s, 4.172 Matom-step/s
99.8% CPU use with 8 MPI tasks x 1 OpenMP threads

MPI task timing breakdown:
Section |  min time  |  avg time  |  max time  |%varavg| %total
---------------------------------------------------------------
Pair    | 0.00011324 | 0.099903   | 0.20787    |  31.6 | 39.62
Neigh   | 0.0010288  | 0.011867   | 0.023622   |   9.9 |  4.71
Comm    | 0.011837   | 0.12267    | 0.23364    |  29.4 | 48.65
Output  | 7.45e-05   | 8.9696e-05 | 0.0001653  |   0.0 |  0.04
Modify  | 0.0084361  | 0.015815   | 0.029747   |   6.6 |  6.27
Other   |            | 0.001828   |            |       |  0.72

Nlocal:        1315.25 ave        2644 max           0 min
Histogram: 4 0 0 0 0 0 0 0 0 4
Nghost:        1209.12 ave        2180 max         251 min
Histogram: 4 0 0 0 0 0 0 0 0 4
Neighs:              0 ave           0 max           0 min
Histogram: 8 0 0 0 0 0 0 0 0 0

Total # of neighbors = 0
Ave neighs/atom = 0
Neighbor list builds = 8
Dangerous builds = 0

unfix forcetip

next i
jump SELF loop_load

variable f equal ${f}+${fincr}
variable f equal 0.31+${fincr}
variable f equal 0.31+0.01

# Set force variable

[...]
Section |  min time  |  avg time  |  max time  |%varavg| %total
---------------------------------------------------------------
Pair    | 0.00018423 | 0.10852    | 0.21814    |  32.9 | 39.24
Neigh   | 0.00098292 | 0.01294    | 0.025271   |  10.5 |  4.68
Comm    | 0.021768   | 0.13416    | 0.24672    |  30.2 | 48.51
Output  | 6.7126e-05 | 8.0818e-05 | 0.00014733 |   0.0 |  0.03
Modify  | 0.0092958  | 0.018558   | 0.029174   |   6.8 |  6.71
Other   |            | 0.002327   |            |       |  0.84

Nlocal:        1315.25 ave        2643 max           0 min
Histogram: 4 0 0 0 0 0 0 0 0 4
Nghost:           1090 ave        2138 max          46 min
Histogram: 4 0 0 0 0 0 0 0 0 4
Neighs:              0 ave           0 max           0 min
Histogram: 8 0 0 0 0 0 0 0 0 0

Total # of neighbors = 0
Ave neighs/atom = 0
Neighbor list builds = 8
Dangerous builds = 0

unfix forcetip

next i
jump SELF loop_load

variable f equal ${f}+${fincr}
variable f equal 0.98+${fincr}
variable f equal 0.98+0.01

# Set force variable

variable Fatom equal -v_f/(count(tip_fix)*1.602176565)
fix forcetip tip_fix aveforce 0.0 0.0 ${Fatom}
fix forcetip tip_fix aveforce 0.0 0.0 -0.00236746906123662
run 100
Per MPI rank memory allocation (min/avg/max) = 8.788 | 8.857 | 8.926 Mbytes
   Step          Temp          E_pair         E_mol          TotEng         Press     
WARNING: Too many warnings: 101 vs 100. All future warnings will be suppressed (src/thermo.cpp:478)
     19849   198.26483     -28122.924      0             -27859.932     -3915.9675    
     19900   199.62969     -28126.47       0             -27861.668     -3567.7017    
     19949   201.55393     -28128.023      0             -27860.669     -3856.1727    
Loop time of 0.258736 on 8 procs for 100 steps with 10522 atoms

Performance: 33.393 ns/day, 0.719 hours/ns, 386.495 timesteps/s, 4.067 Matom-step/s
99.4% CPU use with 8 MPI tasks x 1 OpenMP threads

MPI task timing breakdown:
Section |  min time  |  avg time  |  max time  |%varavg| %total
---------------------------------------------------------------
Pair    | 9.4271e-05 | 0.10413    | 0.21291    |  32.2 | 40.25
Neigh   | 0.00076014 | 0.012701   | 0.025385   |  10.5 |  4.91
Comm    | 0.010234   | 0.12564    | 0.24109    |  31.0 | 48.56
Output  | 7.6584e-05 | 9.1396e-05 | 0.00016804 |   0.0 |  0.04
Modify  | 0.0085227  | 0.014204   | 0.024667   |   5.2 |  5.49
Other   |            | 0.001967   |            |       |  0.76

Nlocal:        1315.25 ave        2643 max           0 min
Histogram: 4 0 0 0 0 0 0 0 0 4
Nghost:        1085.75 ave        2129 max          46 min
Histogram: 4 0 0 0 0 0 0 0 0 4
Neighs:              0 ave           0 max           0 min
Histogram: 8 0 0 0 0 0 0 0 0 0

Total # of neighbors = 0
Ave neighs/atom = 0
Neighbor list builds = 8
Dangerous builds = 0

unfix forcetip

next i
jump SELF loop_load

variable f equal ${f}+${fincr}
variable f equal 0.99+${fincr}
variable f equal 0.99+0.01

# Set force variable

variable Fatom equal -v_f/(count(tip_fix)*1.602176565)
fix forcetip tip_fix aveforce 0.0 0.0 ${Fatom}
fix forcetip tip_fix aveforce 0.0 0.0 -0.002391382890138
run 100
Per MPI rank memory allocation (min/avg/max) = 8.788 | 8.857 | 8.926 Mbytes
   Step          Temp          E_pair         E_mol          TotEng         Press     
     19949   201.55393     -28128.023      0             -27860.669     -3809.9425    
     20000   198.76489     -28125.778      0             -27862.123     -3682.5239    
     20049   200.02023     -28128.155      0             -27862.834     -3786.1632    
Loop time of 0.253278 on 8 procs for 100 steps with 10522 atoms

Performance: 34.113 ns/day, 0.704 hours/ns, 394.823 timesteps/s, 4.154 Matom-step/s
99.4% CPU use with 8 MPI tasks x 1 OpenMP threads

MPI task timing breakdown:
Section |  min time  |  avg time  |  max time  |%varavg| %total
---------------------------------------------------------------
Pair    | 9.398e-05  | 0.10337    | 0.21077    |  32.1 | 40.81
Neigh   | 0.00067152 | 0.011273   | 0.022391   |   9.9 |  4.45
Comm    | 0.008692   | 0.12232    | 0.23591    |  31.2 | 48.30
Output  | 0.0015099  | 0.0016554  | 0.0018122  |   0.3 |  0.65
Modify  | 0.008199   | 0.012727   | 0.02175    |   4.5 |  5.02
Other   |            | 0.001927   |            |       |  0.76

Nlocal:        1315.25 ave        2645 max           0 min
Histogram: 4 0 0 0 0 0 0 0 0 4
Nghost:        1088.38 ave        2138 max          46 min
Histogram: 4 0 0 0 0 0 0 0 0 4
Neighs:              0 ave           0 max           0 min
Histogram: 8 0 0 0 0 0 0 0 0 0

Total # of neighbors = 0
Ave neighs/atom = 0
Neighbor list builds = 7
Dangerous builds = 0

unfix forcetip

next i
jump SELF loop_load

variable f equal ${f}+${fincr}
variable f equal 1+${fincr}
variable f equal 1+0.01

# Set force variable

variable Fatom equal -v_f/(count(tip_fix)*1.602176565)
fix forcetip tip_fix aveforce 0.0 0.0 ${Fatom}
fix forcetip tip_fix aveforce 0.0 0.0 -0.00241529671903938
run 100
Per MPI rank memory allocation (min/avg/max) = 8.788 | 8.857 | 8.926 Mbytes
   Step          Temp          E_pair         E_mol          TotEng         Press     
     20049   200.02023     -28128.155      0             -27862.834     -3727.3966    
     20100   201.06804     -28129.068      0             -27862.358     -4151.6251    
     20149   199.86618     -28127.45       0             -27862.334     -3731.6417    
Loop time of 0.25884 on 8 procs for 100 steps with 10522 atoms

Performance: 33.380 ns/day, 0.719 hours/ns, 386.339 timesteps/s, 4.065 Matom-step/s
99.6% CPU use with 8 MPI tasks x 1 OpenMP threads

MPI task timing breakdown:
Section |  min time  |  avg time  |  max time  |%varavg| %total
---------------------------------------------------------------
Pair    | 0.00013818 | 0.1037     | 0.21005    |  32.2 | 40.06
Neigh   | 0.00083107 | 0.012722   | 0.025236   |  10.5 |  4.92
Comm    | 0.013554   | 0.12574    | 0.23796    |  30.7 | 48.58
Output  | 6.7697e-05 | 8.0755e-05 | 0.00014253 |   0.0 |  0.03
Modify  | 0.0085034  | 0.01474    | 0.025509   |   5.4 |  5.69
Other   |            | 0.001855   |            |       |  0.72

Nlocal:        1315.25 ave        2643 max           0 min
Histogram: 4 0 0 0 0 0 0 0 0 4
Nghost:        1086.25 ave        2137 max          46 min
Histogram: 4 0 0 0 0 0 0 0 0 4
Neighs:              0 ave           0 max           0 min
Histogram: 8 0 0 0 0 0 0 0 0 0

Total # of neighbors = 0
Ave neighs/atom = 0
Neighbor list builds = 8
Dangerous builds = 0

unfix forcetip

next i
jump SELF loop_load

variable f equal ${f}+${fincr}
variable f equal 1.01+${fincr}
variable f equal 1.01+0.01

# Set force variable

variable Fatom equal -v_f/(count(tip_fix)*1.602176565)
fix forcetip tip_fix aveforce 0.0 0.0 ${Fatom}
fix forcetip tip_fix aveforce 0.0 0.0 -0.00243921054794076
run 100
Per MPI rank memory allocation (min/avg/max) = 8.788 | 8.857 | 8.926 Mbytes
   Step          Temp          E_pair         E_mol          TotEng         Press     
     20149   199.86618     -28127.45       0             -27862.334     -3728.1758    
     20200   200.35164     -28125.699      0             -27859.939     -3912.6892    
     20249   200.23956     -28125.268      0             -27859.656     -3860.857     
Loop time of 0.260487 on 8 procs for 100 steps with 10522 atoms

Performance: 33.169 ns/day, 0.724 hours/ns, 383.896 timesteps/s, 4.039 Matom-step/s
99.2% CPU use with 8 MPI tasks x 1 OpenMP threads

MPI task timing breakdown:
Section |  min time  |  avg time  |  max time  |%varavg| %total
---------------------------------------------------------------
Pair    | 0.00013239 | 0.10423    | 0.21267    |  32.2 | 40.01
Neigh   | 0.00096753 | 0.012885   | 0.025459   |  10.4 |  4.95
Comm    | 0.012302   | 0.12651    | 0.24088    |  30.7 | 48.56
Output  | 7.6905e-05 | 9.0499e-05 | 0.00016449 |   0.0 |  0.03
Modify  | 0.0084234  | 0.014883   | 0.027343   |   5.8 |  5.71
Other   |            | 0.001895   |            |       |  0.73

Nlocal:        1315.25 ave        2642 max           0 min
Histogram: 4 0 0 0 0 0 0 0 0 4
Nghost:        1086.38 ave        2133 max          46 min
Histogram: 4 0 0 0 0 0 0 0 0 4
Neighs:              0 ave           0 max           0 min
Histogram: 8 0 0 0 0 0 0 0 0 0

Total # of neighbors = 0
Ave neighs/atom = 0
Neighbor list builds = 8
Dangerous builds = 0

unfix forcetip

next i
jump SELF loop_load

variable f equal ${f}+${fincr}
variable f equal 1.02+${fincr}
variable f equal 1.02+0.01

# Set force variable

variable Fatom equal -v_f/(count(tip_fix)*1.602176565)
fix forcetip tip_fix aveforce 0.0 0.0 ${Fatom}
fix forcetip tip_fix aveforce 0.0 0.0 -0.00246312437684214
run 100
Per MPI rank memory allocation (min/avg/max) = 8.788 | 8.857 | 8.926 Mbytes
   Step          Temp          E_pair         E_mol          TotEng         Press     
     20249   200.23956     -28125.268      0             -27859.656     -3777.2616    
     20300   201.56277     -28125.367      0             -27858.001     -3741.2453    
     20349   203.71202     -28128.296      0             -27858.079     -3731.9209    
Loop time of 0.26325 on 8 procs for 100 steps with 10522 atoms

Performance: 32.821 ns/day, 0.731 hours/ns, 379.867 timesteps/s, 3.997 Matom-step/s
99.7% CPU use with 8 MPI tasks x 1 OpenMP threads

MPI task timing breakdown:
Section |  min time  |  avg time  |  max time  |%varavg| %total
---------------------------------------------------------------
Pair    | 0.00010541 | 0.10451    | 0.21427    |  32.3 | 39.70
Neigh   | 0.00046973 | 0.012372   | 0.024803   |  10.6 |  4.70
Comm    | 0.013562   | 0.12775    | 0.24189    |  30.4 | 48.53
Output  | 7.5271e-05 | 9.132e-05  | 0.00017825 |   0.0 |  0.03
Modify  | 0.0092341  | 0.016484   | 0.029628   |   6.2 |  6.26
Other   |            | 0.002038   |            |       |  0.77

Nlocal:        1315.25 ave        2643 max           0 min
Histogram: 4 0 0 0 0 0 0 0 0 4
Nghost:           1086 ave        2127 max          46 min
Histogram: 4 0 0 0 0 0 0 0 0 4
Neighs:              0 ave           0 max           0 min
Histogram: 8 0 0 0 0 0 0 0 0 0

Total # of neighbors = 0
Ave neighs/atom = 0
Neighbor list builds = 8
Dangerous builds = 0

unfix forcetip

next i
jump SELF loop_load

variable f equal ${f}+${fincr}
variable f equal 1.03+${fincr}
variable f equal 1.03+0.01

# Set force variable

variable Fatom equal -v_f/(count(tip_fix)*1.602176565)
fix forcetip tip_fix aveforce 0.0 0.0 ${Fatom}
fix forcetip tip_fix aveforce 0.0 0.0 -0.00248703820574352
run 100
Per MPI rank memory allocation (min/avg/max) = 8.788 | 8.857 | 8.926 Mbytes
   Step          Temp          E_pair         E_mol          TotEng         Press     
     20349   203.71202     -28128.296      0             -27858.079     -3751.8493    
     20400   201.84632     -28126.273      0             -27858.53      -3732.5124    
     20449   201.13649     -28123.606      0             -27856.805     -4091.7811    
Loop time of 0.268855 on 8 procs for 100 steps with 10522 atoms

Performance: 32.136 ns/day, 0.747 hours/ns, 371.948 timesteps/s, 3.914 Matom-step/s
99.8% CPU use with 8 MPI tasks x 1 OpenMP threads

MPI task timing breakdown:
Section |  min time  |  avg time  |  max time  |%varavg| %total
---------------------------------------------------------------
Pair    | 0.00014264 | 0.1051     | 0.21402    |  32.4 | 39.09
Neigh   | 0.0008919  | 0.013776   | 0.026991   |  10.8 |  5.12
Comm    | 0.0011565  | 0.019052   | 0.025935   |   5.2 |  7.09
Output  | 7.6984e-05 | 9.4065e-05 | 0.00017546 |   0.0 |  0.03
Modify  | 0.0091007  | 0.12874    | 0.26379    |  33.4 | 47.88
Other   |            | 0.002092   |            |       |  0.78

Nlocal:        1315.25 ave        2644 max           0 min
Histogram: 4 0 0 0 0 0 0 0 0 4
Nghost:        1062.75 ave        2137 max           0 min
Histogram: 4 0 0 0 0 0 0 0 0 4
Neighs:              0 ave           0 max           0 min
Histogram: 8 0 0 0 0 0 0 0 0 0

Total # of neighbors = 0
Ave neighs/atom = 0
Neighbor list builds = 8
Dangerous builds = 0

unfix forcetip

next i
jump SELF loop_load

variable f equal ${f}+${fincr}
variable f equal 1.04+${fincr}
variable f equal 1.04+0.01

# Set force variable

variable Fatom equal -v_f/(count(tip_fix)*1.602176565)
fix forcetip tip_fix aveforce 0.0 0.0 ${Fatom}
fix forcetip tip_fix aveforce 0.0 0.0 -0.0025109520346449
run 100
Per MPI rank memory allocation (min/avg/max) = 8.788 | 8.857 | 8.926 Mbytes
   Step          Temp          E_pair         E_mol          TotEng         Press     
     20449   201.13649     -28123.606      0             -27856.805     -3905.0505    
     20500   203.47429     -28127.034      0             -27857.132     -3828.2873    
     20549   201.31034     -28123.287      0             -27856.255     -3793.0397    
Loop time of 0.275144 on 8 procs for 100 steps with 10522 atoms

Performance: 31.402 ns/day, 0.764 hours/ns, 363.446 timesteps/s, 3.824 Matom-step/s
99.6% CPU use with 8 MPI tasks x 1 OpenMP threads

MPI task timing breakdown:
Section |  min time  |  avg time  |  max time  |%varavg| %total
---------------------------------------------------------------
Pair    | 0.00016563 | 0.10753    | 0.2209     |  32.7 | 39.08
Neigh   | 0.00099824 | 0.014916   | 0.029574   |  11.3 |  5.42
Comm    | 0.00099393 | 0.010324   | 0.023924   |   9.7 |  3.75
Output  | 8.5872e-05 | 0.00010274 | 0.0001909  |   0.0 |  0.04
Modify  | 0.0097799  | 0.14001    | 0.27032    |  34.8 | 50.88
Other   |            | 0.002261   |            |       |  0.82

Nlocal:        1315.25 ave        2642 max           0 min
Histogram: 4 0 0 0 0 0 0 0 0 4
Nghost:         1062.5 ave        2134 max           0 min
Histogram: 4 0 0 0 0 0 0 0 0 4
Neighs:              0 ave           0 max           0 min
Histogram: 8 0 0 0 0 0 0 0 0 0

Total # of neighbors = 0
Ave neighs/atom = 0
Neighbor list builds = 9
Dangerous builds = 0

unfix forcetip

next i
jump SELF loop_load

variable f equal ${f}+${fincr}
variable f equal 1.05+${fincr}
variable f equal 1.05+0.01

# Set force variable

variable Fatom equal -v_f/(count(tip_fix)*1.602176565)
fix forcetip tip_fix aveforce 0.0 0.0 ${Fatom}
fix forcetip tip_fix aveforce 0.0 0.0 -0.00253486586354628
run 100
Per MPI rank memory allocation (min/avg/max) = 8.788 | 8.857 | 8.926 Mbytes
   Step          Temp          E_pair         E_mol          TotEng         Press     
     20549   201.31034     -28123.287      0             -27856.255     -3777.656     
     20600   202.9071      -28125.606      0             -27856.456     -3730.0639    
     20649   204.15637     -28128.643      0             -27857.836     -3674.1357    
Loop time of 0.261928 on 8 procs for 100 steps with 10522 atoms

Performance: 32.986 ns/day, 0.728 hours/ns, 381.784 timesteps/s, 4.017 Matom-step/s
99.8% CPU use with 8 MPI tasks x 1 OpenMP threads

MPI task timing breakdown:
Section |  min time  |  avg time  |  max time  |%varavg| %total
---------------------------------------------------------------
Pair    | 8.8652e-05 | 0.10543    | 0.21829    |  32.4 | 40.25
Neigh   | 0.00084589 | 0.013051   | 0.025738   |  10.5 |  4.98
Comm    | 0.00088932 | 0.0082822  | 0.022359   |   9.1 |  3.16
Output  | 0.00011678 | 0.00014183 | 0.0002861  |   0.0 |  0.05
Modify  | 0.0086099  | 0.13304    | 0.25765    |  34.1 | 50.79
Other   |            | 0.001987   |            |       |  0.76

Nlocal:        1315.25 ave        2647 max           0 min
Histogram: 4 0 0 0 0 0 0 0 0 4
Nghost:           1061 ave        2135 max           0 min
Histogram: 4 0 0 0 0 0 0 0 0 4
Neighs:              0 ave           0 max           0 min
Histogram: 8 0 0 0 0 0 0 0 0 0

Total # of neighbors = 0
Ave neighs/atom = 0
Neighbor list builds = 8
Dangerous builds = 0

unfix forcetip

next i
jump SELF loop_load

variable f equal ${f}+${fincr}
variable f equal 1.06+${fincr}
variable f equal 1.06+0.01

# Set force variable

variable Fatom equal -v_f/(count(tip_fix)*1.602176565)
fix forcetip tip_fix aveforce 0.0 0.0 ${Fatom}
fix forcetip tip_fix aveforce 0.0 0.0 -0.00255877969244766
run 100
Per MPI rank memory allocation (min/avg/max) = 8.788 | 8.857 | 8.926 Mbytes
   Step          Temp          E_pair         E_mol          TotEng         Press     
     20649   204.15637     -28128.643      0             -27857.836     -3683.6155    
     20700   204.01714     -28127.589      0             -27856.967     -3812.59      
     20749   201.97027     -28126.197      0             -27858.29      -3781.3848    
Loop time of 0.262782 on 8 procs for 100 steps with 10522 atoms

Performance: 32.879 ns/day, 0.730 hours/ns, 380.543 timesteps/s, 4.004 Matom-step/s
99.4% CPU use with 8 MPI tasks x 1 OpenMP threads

MPI task timing breakdown:
Section |  min time  |  avg time  |  max time  |%varavg| %total
---------------------------------------------------------------
Pair    | 0.0001089  | 0.10491    | 0.21745    |  32.4 | 39.92
Neigh   | 0.00071691 | 0.012655   | 0.025066   |  10.6 |  4.82
Comm    | 0.00080975 | 0.0091894  | 0.025177   |   9.7 |  3.50
Output  | 0.00010873 | 0.00013383 | 0.00026026 |   0.0 |  0.05
Modify  | 0.0090406  | 0.13382    | 0.25861    |  34.1 | 50.92
Other   |            | 0.002077   |            |       |  0.79

Nlocal:        1315.25 ave        2645 max           0 min
Histogram: 4 0 0 0 0 0 0 0 0 4
Nghost:         1059.5 ave        2130 max           0 min
Histogram: 4 0 0 0 0 0 0 0 0 4
Neighs:              0 ave           0 max           0 min
Histogram: 8 0 0 0 0 0 0 0 0 0

Total # of neighbors = 0
Ave neighs/atom = 0
Neighbor list builds = 8
Dangerous builds = 0

unfix forcetip

next i
jump SELF loop_load

variable f equal ${f}+${fincr}
variable f equal 1.07+${fincr}
variable f equal 1.07+0.01

# Set force variable

variable Fatom equal -v_f/(count(tip_fix)*1.602176565)
fix forcetip tip_fix aveforce 0.0 0.0 ${Fatom}
fix forcetip tip_fix aveforce 0.0 0.0 -0.00258269352134904
run 100
Per MPI rank memory allocation (min/avg/max) = 8.788 | 8.857 | 8.926 Mbytes
   Step          Temp          E_pair         E_mol          TotEng         Press     
     20749   201.97027     -28126.197      0             -27858.29      -3808.5841    
     20800   203.37898     -28128.908      0             -27859.133     -4109.147     
     20849   205.18228     -28130.603      0             -27858.435     -3795.1284    
Loop time of 0.262269 on 8 procs for 100 steps with 10522 atoms

Performance: 32.943 ns/day, 0.729 hours/ns, 381.288 timesteps/s, 4.012 Matom-step/s
99.6% CPU use with 8 MPI tasks x 1 OpenMP threads

MPI task timing breakdown:
Section |  min time  |  avg time  |  max time  |%varavg| %total
---------------------------------------------------------------
Pair    | 0.00010969 | 0.10536    | 0.21485    |  32.4 | 40.17
Neigh   | 0.00063866 | 0.012856   | 0.02546    |  10.7 |  4.90
Comm    | 0.00076883 | 0.0084983  | 0.020142   |   8.9 |  3.24
Output  | 6.7206e-05 | 7.9096e-05 | 0.00014051 |   0.0 |  0.03
Modify  | 0.0088277  | 0.13358    | 0.2584     |  34.1 | 50.93
Other   |            | 0.001892   |            |       |  0.72

Nlocal:        1315.25 ave        2642 max           0 min
Histogram: 4 0 0 0 0 0 0 0 0 4
Nghost:        1059.38 ave        2128 max           0 min
Histogram: 4 0 0 0 0 0 0 0 0 4
Neighs:              0 ave           0 max           0 min
Histogram: 8 0 0 0 0 0 0 0 0 0

Total # of neighbors = 0
Ave neighs/atom = 0
Neighbor list builds = 8
Dangerous builds = 0

unfix forcetip

next i
jump SELF loop_load

variable f equal ${f}+${fincr}
variable f equal 1.08+${fincr}
variable f equal 1.08+0.01

# Set force variable

variable Fatom equal -v_f/(count(tip_fix)*1.602176565)
fix forcetip tip_fix aveforce 0.0 0.0 ${Fatom}
fix forcetip tip_fix aveforce 0.0 0.0 -0.00260660735025042
run 100
Per MPI rank memory allocation (min/avg/max) = 8.788 | 8.857 | 8.926 Mbytes
   Step          Temp          E_pair         E_mol          TotEng         Press     
     20849   205.18228     -28130.603      0             -27858.435     -3742.8503    
