LAMMPS data file via write_data, version 29 Aug 2024, timestep = 2, units = metal

10044 atoms
9 atom types

0 99.054183245878 xlo xhi
0 99.619477597224 ylo yhi
-50 50 zlo zhi

Masses

1 50.9415
2 50.9415
3 50.9415
4 32.06
5 32.06
6 32.06
7 32.06
8 32.06
9 32.06

Atoms # atomic

1775 5 1.597651714974498 1.844805117232576 0.04138198736919781 0 0 0
1774 1 3.1950515333834937 2.766955128530855 1.4686387084773729 0 0 0
1781 5 4.792947948712498 1.8448051172325752 0.04138198736919699 0 0 0
1770 5 3.5981054972580243e-06 4.6120128282665735 0.04138198736919709 0 0 0
1776 5 3.195299831843499 4.6120128282665735 0.041381987369197244 0 0 0
1959 1 1.5974034165144937 5.534162839564855 1.4686387084773727 0 0 0
1965 1 4.792699650252495 5.534162839564855 1.4686387084773729 0 0 0
1771 4 3.1941441134519253 0.9212203615332407 2.8952629607371767 0 0 0
1772 4 1.5964959965829242 3.688428072567238 2.895262960737176 0 0 0
1778 4 4.791792230320924 3.6884280725672385 2.8952629607371767 0 0 0
1780 1 6.390347767121493 2.766955128530855 1.4686387084773729 0 0 0
1787 5 7.988244182450497 1.8448051172325755 0.04138198736919728 0 0 0
1786 1 9.585644000859494 2.766955128530855 1.4686387084773729 0 0 0
1793 5 11.1835404161885 1.8448051172325755 0.04138198736919711 0 0 0
1782 5 6.390596065581498 4.6120128282665735 0.041381987369197015 0 0 0
1788 5 9.585892299319498 4.612012828266574 0.041381987369197945 0 0 0
1971 1 7.987995883990494 5.534162839564855 1.4686387084773727 0 0 0
1977 1 11.183292117728493 5.534162839564855 1.4686387084773727 0 0 0
1777 4 6.389440347189924 0.9212203615332407 2.895262960737177 0 0 0
1783 4 9.584736580927924 0.92122036153324 2.8952629607371763 0 0 0
1784 4 7.987088464058924 3.6884280725672385 2.8952629607371763 0 0 0
1790 4 11.182384697796925 3.6884280725672385 2.8952629607371767 0 0 0
1792 1 12.780940234597495 2.766955128530855 1.4686387084773729 0 0 0
1799 5 14.378836649926498 1.8448051172325752 0.04138198736919697 0 0 0
1798 1 15.976236468335491 2.7669551285308556 1.468638708477373 0 0 0
1794 5 12.781188533057499 4.6120128282665735 0.041381987369197036 0 0 0
1800 5 15.976484766795496 4.612012828266573 0.04138198736919641 0 0 0
1983 1 14.378588351466492 5.534162839564855 1.4686387084773729 0 0 0
1789 4 12.780032814665924 0.9212203615332407 2.895262960737177 0 0 0
1795 4 15.975329048403923 0.9212203615332413 2.8952629607371776 0 0 0
1796 4 14.377680931534924 3.6884280725672385 2.8952629607371767 0 0 0
1805 5 17.574132883664493 1.844805117232576 0.04138198736919786 0 0 0
1804 1 19.171532702073492 2.766955128530855 1.4686387084773729 0 0 0
1811 5 20.769429117402495 1.8448051172325748 0.04138198736919645 0 0 0
1810 1 22.366828935811494 2.7669551285308556 1.4686387084773729 0 0 0
1806 5 19.171781000533496 4.612012828266574 0.041381987369197855 0 0 0
1812 5 22.367077234271495 4.612012828266574 0.04138198736919787 0 0 0
1989 1 17.573884585204492 5.534162839564855 1.4686387084773727 0 0 0
1995 1 20.769180818942495 5.534162839564855 1.4686387084773729 0 0 0
1801 4 19.170625282141923 0.9212203615332402 2.8952629607371763 0 0 0
1807 4 22.365921515879922 0.9212203615332403 2.8952629607371763 0 0 0
1802 4 17.57297716527292 3.688428072567238 2.895262960737176 0 0 0
1808 4 20.768273399010923 3.688428072567239 2.895262960737177 0 0 0
1817 5 23.964725351140498 1.844805117232576 0.04138198736919784 0 0 0
1816 1 25.562125169549496 2.766955128530855 1.4686387084773729 0 0 0
1823 5 27.160021584878496 1.844805117232576 0.04138198736919784 0 0 0
1822 1 28.757421403287495 2.766955128530855 1.4686387084773729 0 0 0
1818 5 25.562373468009497 4.612012828266573 0.0413819873691966 0 0 0
1824 5 28.7576697017475 4.612012828266574 0.041381987369197896 0 0 0
2001 1 23.964477052680493 5.534162839564855 1.4686387084773727 0 0 0
2007 1 27.159773286418496 5.534162839564855 1.4686387084773727 0 0 0
1813 4 25.561217749617924 0.9212203615332412 2.8952629607371776 0 0 0
1819 4 28.756513983355926 0.9212203615332402 2.8952629607371763 0 0 0
1814 4 23.963569632748925 3.688428072567238 2.895262960737176 0 0 0
1820 4 27.158865866486924 3.688428072567238 2.895262960737176 0 0 0
1829 5 30.3553178186165 1.8448051172325746 0.04138198736919618 0 0 0
1828 1 31.952717637025494 2.766955128530855 1.4686387084773722 0 0 0
1835 5 33.5506140523545 1.844805117232576 0.041381987369197536 0 0 0
1830 5 31.952965935485494 4.612012828266573 0.04138198736919589 0 0 0
2013 1 30.355069520156498 5.534162839564855 1.4686387084773729 0 0 0
2019 1 33.55036575389449 5.534162839564855 1.468638708477372 0 0 0
1825 4 31.95181021709392 0.9212203615332416 2.895262960737178 0 0 0
1826 4 30.354162100224926 3.688428072567239 2.8952629607371776 0 0 0
1832 4 33.54945833396292 3.688428072567238 2.8952629607371763 0 0 0
1834 1 35.14801387076349 2.7669551285308556 1.4686387084773733 0 0 0
1841 5 36.745910286092496 1.8448051172325748 0.04138198736919651 0 0 0
1840 1 38.34331010450149 2.766955128530855 1.4686387084773722 0 0 0
1847 5 39.9412065198305 1.844805117232576 0.041381987369197834 0 0 0
1836 5 35.1482621692235 4.612012828266574 0.041381987369197876 0 0 0
1842 5 38.3435584029615 4.612012828266574 0.041381987369197855 0 0 0
2025 1 36.745661987632495 5.534162839564855 1.4686387084773729 0 0 0
2031 1 39.940958221370494 5.534162839564856 1.4686387084773733 0 0 0
1831 4 35.14710645083192 0.9212203615332402 2.8952629607371763 0 0 0
1837 4 38.34240268456992 0.9212203615332402 2.8952629607371763 0 0 0
1838 4 36.74475456770092 3.688428072567239 2.895262960737177 0 0 0
1844 4 39.94005080143892 3.688428072567238 2.895262960737176 0 0 0
1846 1 41.5386063382395 2.766955128530855 1.4686387084773727 0 0 0
1853 5 43.1365027535685 1.8448051172325761 0.04138198736919785 0 0 0
1852 1 44.733902571977495 2.7669551285308556 1.4686387084773733 0 0 0
1859 5 46.3317989873065 1.8448051172325748 0.04138198736919632 0 0 0
1848 5 41.5388546366995 4.612012828266573 0.0413819873691966 0 0 0
1854 5 44.7341508704375 4.612012828266574 0.04138198736919792 0 0 0
2037 1 43.13625445510849 5.534162839564855 1.468638708477372 0 0 0
2043 1 46.33155068884649 5.534162839564855 1.4686387084773733 0 0 0
1843 4 41.537698918307925 0.9212203615332412 2.8952629607371776 0 0 0
1849 4 44.73299515204592 0.9212203615332402 2.8952629607371763 0 0 0
1850 4 43.13534703517692 3.688428072567238 2.895262960737176 0 0 0
1856 4 46.330643268914926 3.688428072567239 2.8952629607371776 0 0 0
1858 1 47.92919880571549 2.7669551285308556 1.4686387084773729 0 0 0
1679 5 49.52709522104449 1.8448051172325755 0.04138198736919717 -1 0 0
1678 1 51.124495039453485 2.7669551285308556 1.4686387084773729 -1 0 0
1860 5 47.929447104175495 4.612012828266573 0.04138198736919644 0 0 0
1680 5 51.12474333791349 4.6120128282665735 0.04138198736919705 -1 0 0
1863 1 49.52684692258449 5.534162839564855 1.4686387084773727 -1 0 0
1855 4 47.92829138578392 0.9212203615332414 2.8952629607371776 0 0 0
1675 4 51.12358761952192 0.9212203615332407 2.895262960737177 -1 0 0
1676 4 49.52593950265292 3.6884280725672385 2.8952629607371767 -1 0 0
1685 5 52.72239145478249 1.8448051172325752 0.04138198736919701 -1 0 0
1684 1 54.319791273191484 2.766955128530855 1.4686387084773729 -1 0 0
1691 5 55.91768768852049 1.8448051172325752 0.04138198736919689 -1 0 0
1690 1 57.51508750692949 2.766955128530855 1.4686387084773729 -1 0 0
1686 5 54.32003957165149 4.6120128282665735 0.04138198736919703 -1 0 0
1692 5 57.51533580538949 4.612012828266574 0.0413819873691979 -1 0 0
1869 1 52.72214315632249 5.534162839564855 1.4686387084773729 -1 0 0
1875 1 55.91743939006049 5.534162839564855 1.4686387084773727 -1 0 0
1681 4 54.31888385325992 0.9212203615332407 2.895262960737177 -1 0 0
1687 4 57.51418008699792 0.92122036153324 2.8952629607371763 -1 0 0
1682 4 52.721235736390916 3.6884280725672385 2.8952629607371767 -1 0 0
1688 4 55.916531970128915 3.6884280725672385 2.8952629607371767 -1 0 0
1697 5 59.11298392225849 1.8448051172325757 0.04138198736919752 -1 0 0
1696 1 60.71038374066749 2.766955128530855 1.4686387084773729 -1 0 0
1703 5 62.30828015599649 1.8448051172325752 0.04138198736919705 -1 0 0
1702 1 63.90567997440549 2.766955128530855 1.4686387084773729 -1 0 0
1698 5 60.71063203912749 4.6120128282665735 0.04138198736919703 -1 0 0
1704 5 63.90592827286549 4.612012828266573 0.041381987369196446 -1 0 0
1881 1 59.112735623798486 5.534162839564855 1.4686387084773727 -1 0 0
1887 1 62.308031857536484 5.534162839564855 1.4686387084773729 -1 0 0
1693 4 60.70947632073592 0.9212203615332407 2.895262960737177 -1 0 0
1699 4 63.904772554473915 0.921220361533241 2.8952629607371776 -1 0 0
1694 4 59.11182820386692 3.6884280725672385 2.8952629607371763 -1 0 0
1700 4 62.30712443760492 3.6884280725672385 2.8952629607371767 -1 0 0
1709 5 65.50357638973449 1.8448051172325752 0.04138198736919682 -1 0 0
1708 1 67.10097620814349 2.7669551285308556 1.4686387084773729 -1 0 0
1715 5 68.6988726234725 1.8448051172325761 0.04138198736919832 -1 0 0
1710 5 67.10122450660349 4.612012828266574 0.04138198736919828 -1 0 0
1893 1 65.50332809127448 5.534162839564855 1.4686387084773727 -1 0 0
1899 1 68.69862432501249 5.534162839564855 1.4686387084773715 -1 0 0
1705 4 67.10006878821191 0.9212203615332399 2.895262960737176 -1 0 0
1706 4 65.50242067134292 3.6884280725672385 2.8952629607371767 -1 0 0
1712 4 68.69771690508092 3.6884280725672376 2.8952629607371754 -1 0 0
1714 1 70.2962724418815 2.766955128530855 1.4686387084773729 -1 0 0
1721 5 71.8941688572105 1.8448051172325757 0.04138198736919726 -1 0 0
1727 5 75.0894650909485 1.844805117232575 0.0413819873691967 -1 0 0
1720 1 73.49156867561949 2.7669551285308547 1.4686387084773718 -1 0 0
1716 5 70.29652074034149 4.6120128282665735 0.04138198736919659 -1 0 0
1722 5 73.4918169740795 4.612012828266574 0.041381987369198465 -1 0 0
1905 1 71.8939205587505 5.534162839564856 1.4686387084773738 -1 0 0
1911 1 75.08921679248849 5.534162839564854 1.4686387084773715 -1 0 0
1711 4 70.29536502194992 0.9212203615332412 2.8952629607371776 -1 0 0
1717 4 73.49066125568793 0.9212203615332399 2.8952629607371754 -1 0 0
1718 4 71.89301313881893 3.688428072567238 2.8952629607371763 -1 0 0
1724 4 75.08830937255692 3.688428072567239 2.8952629607371767 -1 0 0
1726 1 76.6868649093575 2.766955128530856 1.468638708477374 -1 0 0
1733 5 78.2847613246865 1.8448051172325757 0.041381987369197355 -1 0 0
1732 1 79.88216114309549 2.7669551285308547 1.4686387084773718 -1 0 0
1739 5 81.48005755842449 1.844805117232575 0.04138198736919671 -1 0 0
1728 5 76.6871132078175 4.612012828266573 0.041381987369195655 -1 0 0
1734 5 79.8824094415555 4.612012828266574 0.041381987369198465 -1 0 0
1917 1 78.28451302622649 5.534162839564856 1.4686387084773738 -1 0 0
1923 1 81.47980925996448 5.534162839564854 1.4686387084773715 -1 0 0
1723 4 76.68595748942592 0.9212203615332416 2.8952629607371785 -1 0 0
1729 4 79.88125372316392 0.9212203615332399 2.8952629607371754 -1 0 0
1730 4 78.28360560629493 3.688428072567238 2.8952629607371763 -1 0 0
1736 4 81.47890184003292 3.688428072567239 2.8952629607371767 -1 0 0
1738 1 83.0774573768335 2.766955128530856 1.468638708477374 -1 0 0
1745 5 84.6753537921625 1.8448051172325757 0.041381987369197355 -1 0 0
1744 1 86.27275361057148 2.7669551285308547 1.4686387084773718 -1 0 0
1740 5 83.0777056752935 4.612012828266573 0.041381987369195655 -1 0 0
1746 5 86.27300190903149 4.612012828266574 0.041381987369198445 -1 0 0
1929 1 84.67510549370249 5.534162839564856 1.4686387084773738 -1 0 0
1735 4 83.07654995690191 0.9212203615332417 2.8952629607371785 -1 0 0
1741 4 86.27184619063992 0.92122036153324 2.895262960737176 -1 0 0
1742 4 84.67419807377092 3.688428072567238 2.8952629607371763 -1 0 0
1751 5 87.87065002590049 1.844805117232575 0.04138198736919651 -1 0 0
1750 1 89.46804984430949 2.766955128530856 1.468638708477374 -1 0 0
1757 5 91.0659462596385 1.8448051172325763 0.04138198736919841 -1 0 0
1756 1 92.6633460780475 2.766955128530855 1.4686387084773729 -1 0 0
1752 5 89.4682981427695 4.6120128282665735 0.04138198736919728 -1 0 0
1758 5 92.66359437650749 4.6120128282665735 0.04138198736919659 -1 0 0
1935 1 87.8704017274405 5.534162839564855 1.4686387084773727 -1 0 0
1941 1 91.06569796117849 5.534162839564855 1.4686387084773715 -1 0 0
1747 4 89.46714242437793 0.9212203615332405 2.8952629607371767 -1 0 0
1753 4 92.66243865811592 0.9212203615332412 2.8952629607371776 -1 0 0
1748 4 87.86949430750892 3.688428072567239 2.895262960737177 -1 0 0
1754 4 91.06479054124692 3.6884280725672376 2.8952629607371754 -1 0 0
1768 1 99.0539385455235 2.766955128530856 1.468638708477374 -1 0 0
1763 5 94.2612424933765 1.8448051172325757 0.04138198736919726 -1 0 0
1762 1 95.85864231178549 2.7669551285308547 1.4686387084773718 -1 0 0
1769 5 97.45653872711449 1.844805117232575 0.041381987369196634 -1 0 0
1764 5 95.8588906102455 4.612012828266574 0.04138198736919845 -1 0 0
1947 1 94.26099419491649 5.534162839564856 1.4686387084773738 -1 0 0
1953 1 97.4562904286545 5.534162839564855 1.4686387084773722 -1 0 0
1765 4 99.05303112559191 0.9212203615332409 2.8952629607371776 -1 0 0
1759 4 95.85773489185392 0.92122036153324 2.895262960737176 -1 0 0
1760 4 94.26008677498493 3.688428072567238 2.8952629607371763 -1 0 0
1766 4 97.45538300872292 3.688428072567239 2.895262960737177 -1 0 0
1961 5 1.597651714974498 7.379220539300575 0.04138198736919854 0 0 0
1960 1 3.1950515333834937 8.301370550598856 1.4686387084773729 0 0 0
1967 5 4.792947948712498 7.379220539300574 0.041381987369197674 0 0 0
1956 5 3.5981054972533825e-06 10.146428250334575 0.04138198736919654 0 0 0
1962 5 3.195299831843499 10.146428250334575 0.041381987369196765 0 0 0
2145 1 1.5974034165144937 11.068578261632856 1.4686387084773718 0 0 0
2151 1 4.792699650252495 11.068578261632856 1.4686387084773718 0 0 0
1957 4 3.1941441134519253 6.455635783601241 2.8952629607371754 0 0 0
1958 4 1.5964959965829242 9.222843494635239 2.8952629607371754 0 0 0
1964 4 4.791792230320924 9.222843494635239 2.8952629607371763 0 0 0
1966 1 6.390347767121493 8.301370550598856 1.4686387084773727 0 0 0
1973 5 7.988244182450497 7.379220539300575 0.041381987369198014 0 0 0
1972 1 9.585644000859494 8.301370550598856 1.4686387084773729 0 0 0
1979 5 11.1835404161885 7.379220539300575 0.041381987369197855 0 0 0
1968 5 6.390596065581498 10.146428250334575 0.04138198736919646 0 0 0
1974 5 9.585892299319498 10.146428250334575 0.041381987369197334 0 0 0
2157 1 7.987995883990494 11.068578261632856 1.4686387084773718 0 0 0
2163 1 11.183292117728493 11.068578261632856 1.4686387084773718 0 0 0
1963 4 6.389440347189924 6.455635783601241 2.895262960737176 0 0 0
1969 4 9.584736580927924 6.45563578360124 2.895262960737175 0 0 0
1970 4 7.987088464058923 9.222843494635239 2.8952629607371763 0 0 0
1976 4 11.182384697796925 9.222843494635239 2.8952629607371763 0 0 0
1978 1 12.780940234597495 8.301370550598856 1.4686387084773727 0 0 0
1985 5 14.378836649926498 7.379220539300574 0.04138198736919764 0 0 0
1984 1 15.976236468335491 8.301370550598856 1.468638708477373 0 0 0
1980 5 12.781188533057499 10.146428250334575 0.0413819873691965 0 0 0
1986 5 15.976484766795496 10.146428250334573 0.04138198736919589 0 0 0
2169 1 14.378588351466494 11.068578261632856 1.468638708477372 0 0 0
1975 4 12.780032814665924 6.455635783601241 2.895262960737176 0 0 0
1981 4 15.975329048403923 6.455635783601241 2.8952629607371763 0 0 0
1982 4 14.377680931534924 9.222843494635239 2.8952629607371763 0 0 0
1991 5 17.574132883664493 7.379220539300575 0.041381987369198604 0 0 0
1990 1 19.171532702073492 8.301370550598856 1.4686387084773729 0 0 0
1997 5 20.769429117402495 7.379220539300574 0.04138198736919738 0 0 0
1996 1 22.366828935811494 8.301370550598856 1.4686387084773729 0 0 0
1992 5 19.171781000533496 10.146428250334575 0.04138198736919739 0 0 0
1998 5 22.367077234271495 10.146428250334575 0.0413819873691974 0 0 0
2175 1 17.573884585204492 11.068578261632856 1.468638708477372 0 0 0
2181 1 20.769180818942495 11.068578261632856 1.4686387084773718 0 0 0
1987 4 19.170625282141923 6.45563578360124 2.895262960737175 0 0 0
1993 4 22.365921515879922 6.45563578360124 2.895262960737175 0 0 0
1988 4 17.57297716527292 9.222843494635239 2.895262960737176 0 0 0
1994 4 20.768273399010923 9.22284349463524 2.8952629607371767 0 0 0
2003 5 23.964725351140498 7.379220539300575 0.041381987369198577 0 0 0
2002 1 25.562125169549496 8.301370550598856 1.4686387084773729 0 0 0
2009 5 27.160021584878496 7.379220539300575 0.04138198736919858 0 0 0
2008 1 28.757421403287495 8.301370550598856 1.4686387084773729 0 0 0
2004 5 25.562373468009497 10.146428250334573 0.041381987369196134 0 0 0
2010 5 28.7576697017475 10.146428250334575 0.04138198736919743 0 0 0
2187 1 23.964477052680493 11.068578261632856 1.4686387084773718 0 0 0
2193 1 27.159773286418496 11.068578261632856 1.4686387084773718 0 0 0
1999 4 25.561217749617924 6.455635783601241 2.895262960737176 0 0 0
2005 4 28.756513983355926 6.45563578360124 2.895262960737175 0 0 0
2000 4 23.963569632748925 9.222843494635239 2.8952629607371754 0 0 0
2006 4 27.158865866486924 9.222843494635239 2.895262960737176 0 0 0
2015 5 30.3553178186165 7.379220539300574 0.04138198736919692 0 0 0
2014 1 31.952717637025494 8.301370550598856 1.4686387084773724 0 0 0
2021 5 33.5506140523545 7.379220539300575 0.04138198736919828 0 0 0
2016 5 31.952965935485494 10.146428250334573 0.041381987369195364 0 0 0
2199 1 30.355069520156498 11.068578261632856 1.4686387084773718 0 0 0
2205 1 33.55036575389449 11.068578261632855 1.4686387084773713 0 0 0
2011 4 31.95181021709392 6.455635783601241 2.8952629607371767 0 0 0
2012 4 30.354162100224926 9.22284349463524 2.895262960737177 0 0 0
2018 4 33.54945833396292 9.222843494635239 2.895262960737176 0 0 0
2020 1 35.14801387076349 8.301370550598856 1.4686387084773735 0 0 0
2027 5 36.745910286092496 7.379220539300574 0.041381987369197334 0 0 0
2026 1 38.34331010450149 8.301370550598856 1.4686387084773722 0 0 0
2033 5 39.9412065198305 7.379220539300575 0.04138198736919858 0 0 0
2022 5 35.1482621692235 10.146428250334575 0.041381987369197404 0 0 0
2028 5 38.3435584029615 10.146428250334575 0.041381987369197404 0 0 0
2211 1 36.745661987632495 11.068578261632856 1.4686387084773718 0 0 0
2217 1 39.940958221370494 11.068578261632856 1.4686387084773722 0 0 0
2017 4 35.14710645083192 6.45563578360124 2.895262960737175 0 0 0
2023 4 38.34240268456992 6.45563578360124 2.895262960737175 0 0 0
2024 4 36.74475456770092 9.22284349463524 2.8952629607371767 0 0 0
2030 4 39.94005080143892 9.222843494635239 2.8952629607371754 0 0 0
2032 1 41.5386063382395 8.301370550598856 1.4686387084773729 0 0 0
2039 5 43.1365027535685 7.379220539300575 0.04138198736919858 0 0 0
2038 1 44.733902571977495 8.301370550598856 1.4686387084773735 0 0 0
2045 5 46.3317989873065 7.379220539300574 0.04138198736919706 0 0 0
2034 5 41.5388546366995 10.146428250334573 0.04138198736919619 0 0 0
2040 5 44.7341508704375 10.146428250334575 0.04138198736919745 0 0 0
2223 1 43.13625445510849 11.068578261632855 1.4686387084773713 0 0 0
2229 1 46.33155068884649 11.068578261632856 1.4686387084773724 0 0 0
2029 4 41.537698918307925 6.455635783601241 2.895262960737176 0 0 0
2035 4 44.73299515204592 6.45563578360124 2.895262960737175 0 0 0
2036 4 43.13534703517692 9.222843494635239 2.895262960737176 0 0 0
2042 4 46.330643268914926 9.22284349463524 2.895262960737177 0 0 0
2044 1 47.92919880571549 8.301370550598856 1.4686387084773729 0 0 0
1865 5 49.52709522104449 7.379220539300574 0.04138198736919785 -1 0 0
1864 1 51.124495039453485 8.301370550598856 1.4686387084773729 -1 0 0
2046 5 47.929447104175495 10.146428250334573 0.04138198736919584 0 0 0
1866 5 51.12474333791349 10.146428250334575 0.041381987369196495 -1 0 0
2049 1 49.52684692258449 11.068578261632856 1.4686387084773718 -1 0 0
2041 4 47.92829138578392 6.455635783601241 2.8952629607371767 0 0 0
1861 4 51.12358761952192 6.455635783601241 2.895262960737176 -1 0 0
1862 4 49.52593950265292 9.222843494635239 2.8952629607371763 -1 0 0
1871 5 52.72239145478249 7.379220539300574 0.0413819873691977 -1 0 0
1870 1 54.319791273191484 8.301370550598856 1.4686387084773729 -1 0 0
1877 5 55.91768768852049 7.379220539300574 0.04138198736919768 -1 0 0
1876 1 57.51508750692949 8.301370550598856 1.4686387084773727 -1 0 0
1872 5 54.32003957165149 10.146428250334575 0.041381987369196474 -1 0 0
1878 5 57.51533580538949 10.146428250334575 0.04138198736919734 -1 0 0
2055 1 52.72214315632249 11.068578261632856 1.4686387084773718 -1 0 0
2061 1 55.91743939006049 11.068578261632856 1.4686387084773718 -1 0 0
1867 4 54.31888385325992 6.455635783601241 2.895262960737176 -1 0 0
1873 4 57.51418008699792 6.45563578360124 2.895262960737175 -1 0 0
1868 4 52.721235736390916 9.222843494635239 2.8952629607371763 -1 0 0
1874 4 55.916531970128915 9.222843494635239 2.8952629607371763 -1 0 0
1883 5 59.11298392225849 7.379220539300575 0.04138198736919833 -1 0 0
1882 1 60.71038374066749 8.301370550598856 1.4686387084773729 -1 0 0
1889 5 62.30828015599649 7.379220539300574 0.04138198736919774 -1 0 0
1888 1 63.90567997440549 8.301370550598856 1.4686387084773729 -1 0 0
1884 5 60.71063203912749 10.146428250334575 0.041381987369196474 -1 0 0
1890 5 63.90592827286549 10.146428250334575 0.04138198736919589 -1 0 0
2067 1 59.112735623798486 11.068578261632856 1.4686387084773718 -1 0 0
2073 1 62.308031857536484 11.068578261632856 1.4686387084773718 -1 0 0
1879 4 60.70947632073592 6.455635783601241 2.895262960737176 -1 0 0
1885 4 63.904772554473915 6.455635783601241 2.8952629607371763 -1 0 0
1880 4 59.11182820386692 9.222843494635239 2.895262960737176 -1 0 0
1886 4 62.30712443760492 9.222843494635239 2.8952629607371763 -1 0 0
1895 5 65.50357638973449 7.379220539300574 0.04138198736919763 -1 0 0
1894 1 67.10097620814349 8.301370550598856 1.4686387084773729 -1 0 0
1901 5 68.6988726234725 7.379220539300576 0.041381987369199055 -1 0 0
1896 5 67.10122450660349 10.146428250334575 0.04138198736919781 -1 0 0
2079 1 65.50332809127448 11.068578261632856 1.4686387084773718 -1 0 0
2085 1 68.69862432501249 11.068578261632855 1.4686387084773707 -1 0 0
1891 4 67.10006878821191 6.45563578360124 2.8952629607371745 -1 0 0
1892 4 65.50242067134292 9.222843494635239 2.8952629607371767 -1 0 0
1898 4 68.69771690508092 9.222843494635239 2.895262960737175 -1 0 0
1900 1 70.2962724418815 8.301370550598856 1.4686387084773729 -1 0 0
1907 5 71.8941688572105 7.379220539300575 0.041381987369198 -1 0 0
1913 5 75.0894650909485 7.379220539300574 0.04138198736919744 -1 0 0
1906 1 73.49156867561949 8.301370550598856 1.4686387084773718 -1 0 0
1902 5 70.29652074034149 10.146428250334573 0.04138198736919619 -1 0 0
1908 5 73.4918169740795 10.146428250334575 0.04138198736919799 -1 0 0
2091 1 71.8939205587505 11.068578261632856 1.4686387084773729 -1 0 0
2097 1 75.08921679248849 11.068578261632855 1.4686387084773707 -1 0 0
1897 4 70.29536502194992 6.455635783601241 2.895262960737176 -1 0 0
1903 4 73.49066125568793 6.45563578360124 2.895262960737174 -1 0 0
1904 4 71.89301313881893 9.222843494635239 2.8952629607371763 -1 0 0
1910 4 75.08830937255692 9.22284349463524 2.8952629607371763 -1 0 0
1912 1 76.6868649093575 8.301370550598856 1.4686387084773742 -1 0 0
1919 5 78.2847613246865 7.379220539300575 0.0413819873691981 -1 0 0
1918 1 79.88216114309549 8.301370550598856 1.4686387084773718 -1 0 0
1925 5 81.48005755842449 7.379220539300574 0.041381987369197445 -1 0 0
1914 5 76.6871132078175 10.146428250334573 0.04138198736919512 -1 0 0
1920 5 79.8824094415555 10.146428250334575 0.04138198736919799 -1 0 0
2103 1 78.28451302622649 11.068578261632856 1.468638708477373 -1 0 0
2109 1 81.47980925996448 11.068578261632855 1.4686387084773707 -1 0 0
1909 4 76.68595748942592 6.455635783601241 2.8952629607371767 -1 0 0
1915 4 79.88125372316392 6.45563578360124 2.895262960737174 -1 0 0
1916 4 78.28360560629493 9.222843494635239 2.8952629607371763 -1 0 0
1922 4 81.47890184003292 9.22284349463524 2.8952629607371763 -1 0 0
1924 1 83.0774573768335 8.301370550598856 1.4686387084773742 -1 0 0
1931 5 84.6753537921625 7.379220539300575 0.0413819873691981 -1 0 0
1930 1 86.27275361057148 8.301370550598856 1.4686387084773718 -1 0 0
1926 5 83.0777056752935 10.146428250334573 0.04138198736919512 -1 0 0
1932 5 86.27300190903149 10.146428250334575 0.041381987369197966 -1 0 0
2115 1 84.67510549370249 11.068578261632856 1.468638708477373 -1 0 0
1921 4 83.07654995690191 6.455635783601241 2.895262960737177 -1 0 0
1927 4 86.27184619063992 6.45563578360124 2.8952629607371745 -1 0 0
1928 4 84.67419807377092 9.222843494635239 2.8952629607371763 -1 0 0
1937 5 87.87065002590049 7.379220539300574 0.041381987369197334 -1 0 0
1936 1 89.46804984430949 8.301370550598856 1.468638708477374 -1 0 0
1943 5 91.0659462596385 7.379220539300576 0.041381987369199145 -1 0 0
1942 1 92.6633460780475 8.301370550598856 1.4686387084773729 -1 0 0
1938 5 89.4682981427695 10.146428250334575 0.04138198736919687 -1 0 0
1944 5 92.66359437650749 10.146428250334573 0.04138198736919618 -1 0 0
2121 1 87.8704017274405 11.068578261632856 1.4686387084773718 -1 0 0
2127 1 91.06569796117849 11.068578261632855 1.4686387084773707 -1 0 0
1933 4 89.46714242437793 6.45563578360124 2.8952629607371754 -1 0 0
1939 4 92.66243865811592 6.455635783601241 2.8952629607371763 -1 0 0
1934 4 87.86949430750892 9.22284349463524 2.8952629607371767 -1 0 0
1940 4 91.06479054124692 9.222843494635239 2.895262960737175 -1 0 0
1954 1 99.0539385455235 8.301370550598856 1.468638708477374 -1 0 0
1949 5 94.2612424933765 7.379220539300575 0.041381987369198 -1 0 0
1948 1 95.85864231178549 8.301370550598856 1.4686387084773718 -1 0 0
1955 5 97.45653872711449 7.379220539300574 0.041381987369197376 -1 0 0
1950 5 95.8588906102455 10.146428250334575 0.04138198736919797 -1 0 0
2133 1 94.26099419491649 11.068578261632856 1.4686387084773729 -1 0 0
2139 1 97.4562904286545 11.068578261632855 1.4686387084773713 -1 0 0
1951 4 99.05303112559191 6.455635783601241 2.8952629607371763 -1 0 0
1945 4 95.85773489185392 6.45563578360124 2.8952629607371745 -1 0 0
1946 4 94.26008677498493 9.222843494635239 2.8952629607371763 -1 0 0
1952 4 97.45538300872292 9.22284349463524 2.8952629607371767 -1 0 0
2147 5 1.597651714974498 12.913635961368575 0.041381987369198084 0 0 0
2153 5 4.792947948712498 12.913635961368575 0.04138198736919719 0 0 0
2146 1 3.1950515333834937 13.835785972666855 1.468638708477373 0 0 0
2142 5 3.5981054972657607e-06 15.680843672402574 0.041381987369196904 0 0 0
2331 1 1.5974034165144937 16.602993683700856 1.4686387084773729 0 0 0
2148 5 3.195299831843499 15.680843672402574 0.041381987369197126 0 0 0
2337 1 4.792699650252495 16.602993683700856 1.4686387084773729 0 0 0
2143 4 3.1941441134519253 11.990051205669237 2.8952629607371754 0 0 0
2144 4 1.5964959965829242 14.757258916703236 2.895262960737176 0 0 0
2150 4 4.791792230320924 14.757258916703236 2.8952629607371767 0 0 0
2329 4 3.1941441134519253 17.52446662773724 2.8952629607371763 0 0 0
2159 5 7.988244182450497 12.913635961368577 0.04138198736919755 0 0 0
2165 5 11.1835404161885 12.913635961368577 0.04138198736919732 0 0 0
2152 1 6.390347767121493 13.835785972666855 1.4686387084773729 0 0 0
2158 1 9.585644000859494 13.835785972666855 1.4686387084773729 0 0 0
2154 5 6.390596065581498 15.680843672402574 0.04138198736919687 0 0 0
2343 1 7.987995883990494 16.602993683700856 1.4686387084773727 0 0 0
2160 5 9.585892299319498 15.680843672402574 0.04138198736919778 0 0 0
2349 1 11.183292117728493 16.602993683700856 1.4686387084773727 0 0 0
2149 4 6.389440347189924 11.990051205669237 2.8952629607371754 0 0 0
2155 4 9.584736580927924 11.990051205669237 2.8952629607371745 0 0 0
2156 4 7.987088464058923 14.757258916703236 2.8952629607371763 0 0 0
2162 4 11.182384697796925 14.757258916703236 2.8952629607371767 0 0 0
2335 4 6.389440347189924 17.52446662773724 2.8952629607371763 0 0 0
2341 4 9.584736580927924 17.524466627737237 2.8952629607371754 0 0 0
2171 5 14.378836649926498 12.913635961368575 0.041381987369197216 0 0 0
2164 1 12.780940234597495 13.835785972666855 1.4686387084773733 0 0 0
2170 1 15.976236468335491 13.835785972666855 1.468638708477373 0 0 0
2166 5 12.781188533057499 15.680843672402574 0.041381987369196876 0 0 0
2355 1 14.378588351466494 16.602993683700856 1.468638708477373 0 0 0
2172 5 15.976484766795496 15.680843672402574 0.0413819873691963 0 0 0
2161 4 12.780032814665924 11.990051205669237 2.8952629607371754 0 0 0
2167 4 15.975329048403923 11.99005120566924 2.8952629607371763 0 0 0
2168 4 14.377680931534925 14.757258916703236 2.8952629607371767 0 0 0
2347 4 12.780032814665924 17.52446662773724 2.8952629607371763 0 0 0
2353 4 15.975329048403923 17.52446662773724 2.8952629607371767 0 0 0
2177 5 17.574132883664493 12.913635961368575 0.04138198736919808 0 0 0
2183 5 20.769429117402495 12.913635961368575 0.041381987369196925 0 0 0
2176 1 19.171532702073492 13.835785972666855 1.4686387084773729 0 0 0
2182 1 22.366828935811494 13.835785972666855 1.468638708477373 0 0 0
2361 1 17.573884585204492 16.602993683700856 1.4686387084773727 0 0 0
2178 5 19.171781000533496 15.680843672402574 0.04138198736919771 0 0 0
2367 1 20.769180818942495 16.602993683700856 1.4686387084773724 0 0 0
2184 5 22.367077234271495 15.680843672402574 0.04138198736919771 0 0 0
2173 4 19.170625282141923 11.990051205669237 2.8952629607371745 0 0 0
2179 4 22.365921515879922 11.990051205669237 2.895262960737175 0 0 0
2174 4 17.57297716527292 14.757258916703236 2.895262960737176 0 0 0
2180 4 20.768273399010923 14.757258916703238 2.895262960737177 0 0 0
2359 4 19.170625282141923 17.524466627737237 2.8952629607371754 0 0 0
2365 4 22.365921515879922 17.524466627737237 2.8952629607371754 0 0 0
2189 5 23.964725351140498 12.913635961368575 0.041381987369198056 0 0 0
2195 5 27.160021584878496 12.913635961368575 0.041381987369198056 0 0 0
2188 1 25.562125169549496 13.835785972666855 1.468638708477373 0 0 0
2194 1 28.757421403287495 13.835785972666855 1.468638708477373 0 0 0
2190 5 25.562373468009497 15.680843672402574 0.0413819873691965 0 0 0
2373 1 23.964477052680493 16.602993683700856 1.4686387084773727 0 0 0