LAMMPS data file via write_data, version 29 Aug 2024, timestep = 2, units = metal

6696 atoms
6 atom types

0 99.054183245878 xlo xhi
0 99.619477597224 ylo yhi
-50 50 zlo zhi

Masses

1 50.9415
2 50.9415
3 32.06
4 32.06
5 32.06
6 32.06

Atoms # atomic

1775 4 1.5976523155623803 1.8448052192583395 0.041583295293157484 0 0 0
1774 1 3.195058102224207 2.7669615297789942 1.4687047285527177 0 0 0
1781 4 4.79294854930038 1.844805219258339 0.04158329529315666 0 0 0
1770 4 4.19869337998112e-06 4.6120129302923365 0.04158329529315638 0 0 0
1776 4 3.1953004324313814 4.612012930292337 0.04158329529315682 0 0 0
1959 1 1.5974099853552068 5.534169240812994 1.4687047285527177 0 0 0
1965 1 4.792706219093208 5.534169240812994 1.4687047285527175 0 0 0
1771 3 3.1941375916159824 0.9212125457223552 2.8949485509989166 0 0 0
1772 3 1.5964894747469813 3.6884202567563524 2.8949485509989152 0 0 0
1778 3 4.791785708484981 3.6884202567563533 2.894948550998916 0 0 0
1780 1 6.390354335962206 2.7669615297789942 1.4687047285527177 0 0 0
1787 4 7.988244783038379 1.844805219258339 0.04158329529315685 0 0 0
1786 1 9.585650569700206 2.766961529778994 1.468704728552718 0 0 0
1793 4 11.183541016776381 1.844805219258339 0.041583295293156894 0 0 0
1782 4 6.3905966661693805 4.612012930292337 0.04158329529315668 0 0 0
1788 4 9.58589289990738 4.612012930292337 0.041583295293157525 0 0 0
1971 1 7.988002452831207 5.534169240812994 1.4687047285527177 0 0 0
1977 1 11.183298686569207 5.534169240812994 1.4687047285527177 0 0 0
1777 3 6.389433825353982 0.9212125457223553 2.8949485509989166 0 0 0
1783 3 9.584730059091982 0.9212125457223547 2.8949485509989157 0 0 0
1784 3 7.98708194222298 3.6884202567563533 2.894948550998916 0 0 0
1790 3 11.182378175960983 3.6884202567563533 2.894948550998916 0 0 0
1792 1 12.780946803438209 2.766961529778994 1.4687047285527177 0 0 0
1799 4 14.37883725051438 1.8448052192583388 0.04158329529315649 0 0 0
1798 1 15.976243037176204 2.766961529778994 1.468704728552718 0 0 0
1794 4 12.78118913364538 4.612012930292337 0.041583295293156707 0 0 0
1800 4 15.976485367383377 4.6120129302923365 0.04158329529315602 0 0 0
1983 1 14.378594920307206 5.534169240812994 1.4687047285527177 0 0 0
1789 3 12.780026292829982 0.9212125457223553 2.8949485509989166 0 0 0
1795 3 15.975322526567979 0.921212545722356 2.8949485509989175 0 0 0
1796 3 14.377674409698981 3.6884202567563533 2.8949485509989166 0 0 0
1805 4 17.57413348425238 1.8448052192583395 0.04158329529315742 0 0 0
1804 1 19.171539270914206 2.7669615297789942 1.4687047285527177 0 0 0
1811 4 20.76942971799038 1.8448052192583386 0.04158329529315615 0 0 0
1810 1 22.366835504652208 2.7669615297789942 1.4687047285527177 0 0 0
1806 4 19.17178160112138 4.612012930292337 0.04158329529315752 0 0 0
1812 4 22.36707783485938 4.612012930292337 0.04158329529315749 0 0 0
1989 1 17.573891154045207 5.534169240812994 1.4687047285527175 0 0 0
1995 1 20.769187387783205 5.534169240812994 1.4687047285527175 0 0 0
1801 3 19.17061876030598 0.9212125457223548 2.8949485509989157 0 0 0
1807 3 22.36591499404398 0.9212125457223548 2.8949485509989157 0 0 0
1802 3 17.572970643436978 3.6884202567563524 2.8949485509989152 0 0 0
1808 3 20.76826687717498 3.6884202567563538 2.8949485509989166 0 0 0
1817 4 23.964725951728383 1.8448052192583395 0.04158329529315743 0 0 0
1816 1 25.562131738390207 2.766961529778994 1.468704728552718 0 0 0
1823 4 27.16002218546638 1.8448052192583395 0.04158329529315743 0 0 0
1822 1 28.75742797212821 2.7669615297789942 1.4687047285527177 0 0 0
1818 4 25.562374068597382 4.6120129302923365 0.04158329529315612 0 0 0
1824 4 28.757670302335384 4.612012930292337 0.04158329529315757 0 0 0
2001 1 23.964483621521207 5.534169240812994 1.4687047285527175 0 0 0
2007 1 27.15977985525921 5.534169240812994 1.4687047285527175 0 0 0
1813 3 25.561211227781982 0.9212125457223559 2.894948550998917 0 0 0
1819 3 28.756507461519984 0.9212125457223548 2.8949485509989157 0 0 0
1814 3 23.963563110912983 3.6884202567563524 2.8949485509989152 0 0 0
1820 3 27.15885934465098 3.6884202567563524 2.8949485509989152 0 0 0
1829 4 30.355318419204384 1.8448052192583384 0.04158329529315578 0 0 0
1828 1 31.952724205866204 2.766961529778994 1.468704728552718 0 0 0
1835 4 33.55061465294238 1.8448052192583395 0.041583295293157484 0 0 0
1830 4 31.95296653607338 4.6120129302923365 0.041583295293155825 0 0 0
2013 1 30.355076088997208 5.534169240812994 1.4687047285527177 0 0 0
2019 1 33.55037232273521 5.534169240812994 1.4687047285527175 0 0 0
1825 3 31.95180369525798 0.921212545722356 2.8949485509989175 0 0 0
1826 3 30.354155578388983 3.6884202567563538 2.894948550998917 0 0 0
1832 3 33.54945181212698 3.6884202567563524 2.8949485509989152 0 0 0
1834 1 35.1480204396042 2.7669615297789942 1.4687047285527177 0 0 0
1841 4 36.74591088668038 1.8448052192583386 0.041583295293156096 0 0 0
1840 1 38.34331667334221 2.7669615297789942 1.4687047285527177 0 0 0
1847 4 39.94120712041838 1.8448052192583395 0.04158329529315743 0 0 0
1836 4 35.14826276981138 4.612012930292337 0.04158329529315755 0 0 0
1842 4 38.34355900354938 4.612012930292337 0.04158329529315749 0 0 0
2025 1 36.745668556473206 5.534169240812994 1.4687047285527175 0 0 0
2031 1 39.940964790211204 5.534169240812994 1.4687047285527175 0 0 0
1831 3 35.147099928995985 0.9212125457223548 2.8949485509989157 0 0 0
1837 3 38.34239616273398 0.9212125457223548 2.8949485509989157 0 0 0
1838 3 36.74474804586498 3.6884202567563538 2.8949485509989166 0 0 0
1844 3 39.940044279602986 3.6884202567563524 2.8949485509989152 0 0 0
1846 1 41.53861290708021 2.766961529778994 1.468704728552718 0 0 0
1853 4 43.13650335415638 1.8448052192583395 0.04158329529315743 0 0 0
1852 1 44.733909140818206 2.7669615297789942 1.4687047285527177 0 0 0
1859 4 46.33179958789438 1.8448052192583384 0.041583295293155874 0 0 0
1848 4 41.53885523728738 4.6120129302923365 0.04158329529315607 0 0 0
1854 4 44.734151471025385 4.612012930292337 0.04158329529315758 0 0 0
2037 1 43.13626102394921 5.534169240812994 1.4687047285527175 0 0 0
2043 1 46.33155725768721 5.534169240812994 1.4687047285527177 0 0 0
1843 3 41.53769239647198 0.9212125457223559 2.894948550998917 0 0 0
1849 3 44.73298863020999 0.9212125457223548 2.8949485509989157 0 0 0
1850 3 43.135340513340985 3.6884202567563524 2.8949485509989152 0 0 0
1856 3 46.330636747078984 3.6884202567563538 2.894948550998917 0 0 0
1858 1 47.929205374556204 2.766961529778994 1.4687047285527177 0 0 0
1679 4 49.52709582163238 1.844805219258339 0.0415832952931568 -1 0 0
1678 1 51.1245016082942 2.7669615297789942 1.4687047285527177 -1 0 0
1860 4 47.929447704763376 4.6120129302923365 0.04158329529315591 0 0 0
1680 4 51.124743938501375 4.6120129302923365 0.04158329529315615 -1 0 0
1863 1 49.52685349142521 5.534169240812994 1.4687047285527177 -1 0 0
1855 3 47.92828486394798 0.921212545722356 2.8949485509989175 0 0 0
1675 3 51.12358109768598 0.9212125457223556 2.894948550998917 -1 0 0
1676 3 49.52593298081698 3.688420256756353 2.894948550998916 -1 0 0
1685 4 52.72239205537038 1.844805219258339 0.04158329529315669 -1 0 0
1684 1 54.3197978420322 2.7669615297789942 1.4687047285527177 -1 0 0
1691 4 55.917688289108376 1.8448052192583388 0.04158329529315662 -1 0 0
1690 1 57.5150940757702 2.7669615297789942 1.468704728552718 -1 0 0
1686 4 54.32004017223937 4.612012930292337 0.04158329529315724 -1 0 0
1692 4 57.51533640597737 4.612012930292337 0.04158329529315746 -1 0 0
1869 1 52.7221497251632 5.534169240812994 1.4687047285527175 -1 0 0
1875 1 55.917445958901205 5.534169240812994 1.4687047285527177 -1 0 0
1681 3 54.31887733142398 0.9212125457223551 2.894948550998916 -1 0 0
1687 3 57.514173565161975 0.9212125457223548 2.8949485509989157 -1 0 0
1682 3 52.72122921455498 3.6884202567563533 2.894948550998916 -1 0 0
1688 3 55.91652544829298 3.6884202567563533 2.894948550998916 -1 0 0
1697 4 59.112984522846375 1.8448052192583388 0.04158329529315658 -1 0 0
1696 1 60.7103903095082 2.7669615297789942 1.4687047285527177 -1 0 0
1703 4 62.308280756584374 1.844805219258339 0.04158329529315669 -1 0 0
1702 1 63.9056865432462 2.7669615297789942 1.4687047285527184 -1 0 0
1698 4 60.71063263971538 4.6120129302923365 0.04158329529315665 -1 0 0
1704 4 63.90592887345338 4.612012930292337 0.04158329529315673 -1 0 0
1881 1 59.1127421926392 5.534169240812994 1.4687047285527177 -1 0 0
1887 1 62.3080384263772 5.534169240812994 1.4687047285527175 -1 0 0
1693 3 60.70946979889998 0.9212125457223553 2.8949485509989166 -1 0 0
1699 3 63.90476603263798 0.9212125457223553 2.8949485509989166 -1 0 0
1694 3 59.11182168203098 3.6884202567563533 2.894948550998916 -1 0 0
1700 3 62.30711791576898 3.6884202567563533 2.894948550998916 -1 0 0
1709 4 65.50357699032237 1.8448052192583388 0.0415832952931566 -1 0 0
1708 1 67.1009827769842 2.7669615297789933 1.4687047285527166 -1 0 0
1715 4 68.69887322406038 1.84480521925834 0.04158329529315798 -1 0 0
1710 4 67.10122510719137 4.612012930292338 0.041583295293157956 -1 0 0
1893 1 65.5033346601152 5.534169240812995 1.4687047285527182 -1 0 0
1899 1 68.6986308938532 5.534169240812994 1.4687047285527175 -1 0 0
1705 3 67.10006226637597 0.9212125457223546 2.8949485509989152 -1 0 0
1706 3 65.50241414950698 3.6884202567563533 2.894948550998916 -1 0 0
1712 3 68.69771038324497 3.6884202567563524 2.894948550998915 -1 0 0
1714 1 70.2962790107222 2.7669615297789942 1.468704728552719 -1 0 0
1721 4 71.89416945779837 1.84480521925834 0.04158329529315798 -1 0 0
1727 4 75.08946569153638 1.844805219258338 0.04158329529315529 -1 0 0
1720 1 73.49157524446021 2.7669615297789942 1.4687047285527177 -1 0 0
1716 4 70.29652134092937 4.612012930292336 0.04158329529315496 -1 0 0
1722 4 73.49181757466738 4.612012930292338 0.041583295293158094 -1 0 0
1905 1 71.8939271275912 5.534169240812994 1.4687047285527164 -1 0 0
1911 1 75.0892233613292 5.534169240812995 1.4687047285527188 -1 0 0
1711 3 70.29535850011398 0.9212125457223558 2.894948550998917 -1 0 0
1717 3 73.49065473385197 0.921212545722355 2.894948550998916 -1 0 0
1718 3 71.89300661698297 3.6884202567563524 2.894948550998915 -1 0 0
1724 3 75.08830285072098 3.6884202567563538 2.894948550998918 -1 0 0
1726 1 76.6868714781982 2.766961529778994 1.468704728552718 -1 0 0
1733 4 78.28476192527437 1.84480521925834 0.041583295293158004 -1 0 0
1732 1 79.8821677119362 2.7669615297789942 1.4687047285527177 -1 0 0
1739 4 81.48005815901237 1.844805219258338 0.0415832952931553 -1 0 0
1728 4 76.68711380840537 4.612012930292336 0.04158329529315523 -1 0 0
1734 4 79.88241004214338 4.612012930292338 0.04158329529315809 -1 0 0
1917 1 78.2845195950672 5.534169240812994 1.4687047285527164 -1 0 0
1923 1 81.4798158288052 5.534169240812995 1.4687047285527188 -1 0 0
1723 3 76.68595096758997 0.9212125457223558 2.8949485509989166 -1 0 0
1729 3 79.88124720132797 0.921212545722355 2.894948550998916 -1 0 0
1730 3 78.28359908445897 3.6884202567563524 2.894948550998915 -1 0 0
1736 3 81.47889531819698 3.6884202567563538 2.894948550998918 -1 0 0
1738 1 83.0774639456742 2.766961529778994 1.468704728552718 -1 0 0
1745 4 84.67535439275036 1.84480521925834 0.041583295293158004 -1 0 0
1744 1 86.2727601794122 2.7669615297789942 1.4687047285527177 -1 0 0
1740 4 83.07770627588137 4.612012930292336 0.04158329529315523 -1 0 0
1746 4 86.27300250961937 4.612012930292338 0.041583295293158073 -1 0 0
1929 1 84.67511206254319 5.534169240812994 1.4687047285527164 -1 0 0
1735 3 83.07654343506597 0.9212125457223558 2.894948550998917 -1 0 0
1741 3 86.27183966880396 0.921212545722355 2.8949485509989166 -1 0 0
1742 3 84.67419155193497 3.6884202567563524 2.894948550998915 -1 0 0
1751 4 87.87065062648837 1.8448052192583386 0.041583295293156096 -1 0 0
1750 1 89.46805641315021 2.7669615297789933 1.4687047285527166 -1 0 0
1757 4 91.06594686022638 1.8448052192583393 0.041583295293156866 -1 0 0
1756 1 92.6633526468882 2.7669615297789942 1.468704728552719 -1 0 0
1752 4 89.46829874335737 4.612012930292338 0.041583295293158046 -1 0 0
1758 4 92.66359497709537 4.612012930292336 0.04158329529315496 -1 0 0
1935 1 87.8704082962812 5.534169240812995 1.4687047285527188 -1 0 0
1941 1 91.0657045300192 5.534169240812994 1.4687047285527175 -1 0 0
1747 3 89.46713590254197 0.9212125457223547 2.8949485509989152 -1 0 0
1753 3 92.66243213627997 0.9212125457223558 2.894948550998917 -1 0 0
1748 3 87.86948778567297 3.6884202567563538 2.8949485509989166 -1 0 0
1754 3 91.06478401941096 3.688420256756353 2.894948550998916 -1 0 0
1768 1 99.0539451143642 2.766961529778994 1.4687047285527173 -1 0 0
1763 4 94.26124309396437 1.84480521925834 0.04158329529315798 -1 0 0
1762 1 95.8586488806262 2.7669615297789942 1.4687047285527177 -1 0 0
1769 4 97.45653932770237 1.844805219258338 0.041583295293155145 -1 0 0
1764 4 95.85889121083338 4.612012930292338 0.04158329529315809 -1 0 0
1947 1 94.2610007637572 5.534169240812994 1.4687047285527164 -1 0 0
1953 1 97.4562969974952 5.534169240812995 1.4687047285527184 -1 0 0
1765 3 99.05302460375597 0.9212125457223554 2.8949485509989166 -1 0 0
1759 3 95.85772837001797 0.921212545722355 2.8949485509989166 -1 0 0
1760 3 94.26008025314897 3.6884202567563524 2.894948550998915 -1 0 0
1766 3 97.45537648688698 3.688420256756354 2.894948550998918 -1 0 0
1961 4 1.5976523155623803 7.379220641326339 0.04158329529315831 0 0 0
1960 1 3.195058102224207 8.301376951846995 1.468704728552718 0 0 0
1967 4 4.79294854930038 7.379220641326339 0.04158329529315747 0 0 0
1956 4 4.198693379995513e-06 10.146428352360337 0.04158329529315578 0 0 0
1962 4 3.1953004324313814 10.146428352360338 0.0415832952931562 0 0 0
2145 1 1.5974099853552068 11.068584662880994 1.4687047285527168 0 0 0
2151 1 4.792706219093208 11.068584662880994 1.4687047285527166 0 0 0
1957 3 3.1941375916159824 6.455627967790354 2.894948550998915 0 0 0
1958 3 1.5964894747469816 9.222835678824353 2.8949485509989152 0 0 0
1964 3 4.791785708484981 9.222835678824353 2.894948550998916 0 0 0
1966 1 6.390354335962206 8.301376951846995 1.468704728552718 0 0 0
1973 4 7.988244783038379 7.379220641326339 0.04158329529315763 0 0 0
1972 1 9.585650569700206 8.301376951846995 1.4687047285527177 0 0 0
1979 4 11.183541016776381 7.379220641326339 0.04158329529315767 0 0 0
1968 4 6.3905966661693805 10.146428352360338 0.041583295293156075 0 0 0
1974 4 9.58589289990738 10.146428352360338 0.04158329529315685 0 0 0
2157 1 7.988002452831207 11.068584662880994 1.4687047285527168 0 0 0
2163 1 11.183298686569207 11.068584662880994 1.4687047285527166 0 0 0
1963 3 6.389433825353982 6.455627967790354 2.8949485509989152 0 0 0
1969 3 9.584730059091982 6.455627967790354 2.8949485509989143 0 0 0
1970 3 7.98708194222298 9.222835678824353 2.894948550998916 0 0 0
1976 3 11.182378175960983 9.222835678824353 2.894948550998916 0 0 0
1978 1 12.780946803438209 8.301376951846995 1.4687047285527177 0 0 0
1985 4 14.37883725051438 7.379220641326339 0.04158329529315726 0 0 0
1984 1 15.976243037176204 8.301376951846995 1.4687047285527177 0 0 0
1980 4 12.78118913364538 10.146428352360338 0.04158329529315609 0 0 0
1986 4 15.976485367383377 10.146428352360338 0.04158329529315537 0 0 0
2169 1 14.378594920307206 11.068584662880994 1.4687047285527168 0 0 0
1975 3 12.780026292829982 6.455627967790354 2.8949485509989152 0 0 0
1981 3 15.975322526567979 6.455627967790355 2.8949485509989157 0 0 0
1982 3 14.377674409698981 9.222835678824353 2.894948550998916 0 0 0
1991 4 17.57413348425238 7.37922064132634 0.041583295293158275 0 0 0
1990 1 19.171539270914206 8.301376951846995 1.468704728552718 0 0 0
1997 4 20.76942971799038 7.379220641326338 0.041583295293157026 0 0 0
1996 1 22.366835504652208 8.301376951846995 1.468704728552718 0 0 0
1992 4 19.17178160112138 10.146428352360338 0.04158329529315687 0 0 0
1998 4 22.36707783485938 10.146428352360338 0.04158329529315689 0 0 0
2175 1 17.573891154045207 11.068584662880994 1.4687047285527168 0 0 0
2181 1 20.769187387783205 11.068584662880994 1.4687047285527168 0 0 0
1987 3 19.17061876030598 6.455627967790354 2.8949485509989143 0 0 0
1993 3 22.36591499404398 6.455627967790354 2.8949485509989143 0 0 0
1988 3 17.572970643436978 9.222835678824353 2.8949485509989152 0 0 0
1994 3 20.76826687717498 9.222835678824355 2.8949485509989166 0 0 0
2003 4 23.964725951728383 7.37922064132634 0.04158329529315827 0 0 0
2002 1 25.562131738390207 8.301376951846995 1.468704728552718 0 0 0
2009 4 27.16002218546638 7.37922064132634 0.041583295293158275 0 0 0
2008 1 28.75742797212821 8.301376951846995 1.468704728552718 0 0 0
2004 4 25.562374068597382 10.146428352360338 0.041583295293155506 0 0 0
2010 4 28.757670302335384 10.146428352360338 0.041583295293156915 0 0 0
2187 1 23.964483621521207 11.068584662880994 1.468704728552717 0 0 0
2193 1 27.15977985525921 11.068584662880994 1.4687047285527168 0 0 0
1999 3 25.561211227781982 6.455627967790355 2.8949485509989157 0 0 0
2005 3 28.756507461519984 6.455627967790354 2.8949485509989143 0 0 0
2000 3 23.963563110912983 9.222835678824353 2.8949485509989152 0 0 0
2006 3 27.15885934465098 9.222835678824353 2.8949485509989152 0 0 0
2015 4 30.355318419204384 7.379220641326338 0.04158329529315662 0 0 0
2014 1 31.952724205866204 8.301376951846995 1.468704728552718 0 0 0
2021 4 33.55061465294238 7.37922064132634 0.04158329529315833 0 0 0
2016 4 31.95296653607338 10.146428352360338 0.041583295293155194 0 0 0
2199 1 30.355076088997208 11.068584662880994 1.4687047285527168 0 0 0
2205 1 33.55037232273521 11.068584662880994 1.4687047285527168 0 0 0
2011 3 31.95180369525798 6.455627967790355 2.894948550998916 0 0 0
2012 3 30.354155578388983 9.222835678824355 2.894948550998917 0 0 0
2018 3 33.54945181212698 9.222835678824353 2.8949485509989152 0 0 0
2020 1 35.1480204396042 8.301376951846995 1.468704728552718 0 0 0
2027 4 36.74591088668038 7.379220641326338 0.041583295293157026 0 0 0
2026 1 38.34331667334221 8.301376951846995 1.468704728552718 0 0 0
2033 4 39.94120712041838 7.37922064132634 0.04158329529315827 0 0 0
2022 4 35.14826276981138 10.146428352360338 0.04158329529315691 0 0 0
2028 4 38.34355900354938 10.146428352360338 0.04158329529315689 0 0 0
2211 1 36.745668556473206 11.068584662880994 1.4687047285527168 0 0 0
2217 1 39.940964790211204 11.068584662880994 1.468704728552717 0 0 0
2017 3 35.147099928995985 6.455627967790354 2.8949485509989143 0 0 0
2023 3 38.34239616273398 6.455627967790354 2.8949485509989143 0 0 0
2024 3 36.74474804586498 9.222835678824355 2.8949485509989166 0 0 0
2030 3 39.940044279602986 9.222835678824353 2.8949485509989152 0 0 0
2032 1 41.53861290708021 8.301376951846995 1.468704728552718 0 0 0
2039 4 43.13650335415638 7.37922064132634 0.041583295293158275 0 0 0
2038 1 44.733909140818206 8.301376951846995 1.468704728552718 0 0 0
2045 4 46.33179958789438 7.379220641326338 0.04158329529315666 0 0 0
2034 4 41.53885523728738 10.146428352360338 0.0415832952931555 0 0 0
2040 4 44.734151471025385 10.146428352360338 0.04158329529315693 0 0 0
2223 1 43.13626102394921 11.068584662880994 1.4687047285527168 0 0 0
2229 1 46.33155725768721 11.068584662880994 1.4687047285527168 0 0 0
2029 3 41.53769239647198 6.455627967790355 2.8949485509989157 0 0 0
2035 3 44.73298863020999 6.455627967790354 2.8949485509989143 0 0 0
2036 3 43.135340513340985 9.222835678824353 2.8949485509989152 0 0 0
2042 3 46.330636747078984 9.222835678824355 2.8949485509989166 0 0 0
2044 1 47.929205374556204 8.301376951846995 1.4687047285527177 0 0 0
1865 4 49.52709582163238 7.379220641326339 0.041583295293157574 -1 0 0
1864 1 51.1245016082942 8.301376951846995 1.4687047285527177 -1 0 0
2046 4 47.929447704763376 10.146428352360338 0.04158329529315523 0 0 0
1866 4 51.124743938501375 10.146428352360337 0.04158329529315553 -1 0 0
2049 1 49.52685349142521 11.068584662880994 1.4687047285527168 -1 0 0
2041 3 47.92828486394798 6.455627967790355 2.894948550998916 0 0 0
1861 3 51.12358109768598 6.455627967790355 2.8949485509989157 -1 0 0
1862 3 49.52593298081698 9.222835678824353 2.894948550998916 -1 0 0
1871 4 52.72239205537038 7.379220641326339 0.0415832952931575 -1 0 0
1870 1 54.3197978420322 8.301376951846995 1.468704728552718 -1 0 0
1877 4 55.917688289108376 7.379220641326339 0.0415832952931574 -1 0 0
1876 1 57.5150940757702 8.301376951846995 1.468704728552718 -1 0 0
1872 4 54.32004017223937 10.146428352360338 0.04158329529315664 -1 0 0
1878 4 57.51533640597737 10.146428352360338 0.04158329529315684 -1 0 0
2055 1 52.7221497251632 11.068584662880994 1.4687047285527166 -1 0 0
2061 1 55.917445958901205 11.068584662880994 1.4687047285527168 -1 0 0
1867 3 54.31887733142398 6.455627967790354 2.894948550998915 -1 0 0
1873 3 57.514173565161975 6.455627967790354 2.8949485509989143 -1 0 0
1868 3 52.72122921455498 9.222835678824353 2.894948550998916 -1 0 0
1874 3 55.91652544829298 9.222835678824353 2.894948550998916 -1 0 0
1883 4 59.112984522846375 7.379220641326339 0.04158329529315736 -1 0 0
1882 1 60.7103903095082 8.301376951846995 1.4687047285527177 -1 0 0
1889 4 62.308280756584374 7.379220641326339 0.0415832952931575 -1 0 0
1888 1 63.9056865432462 8.301376951846995 1.4687047285527184 -1 0 0
1884 4 60.71063263971538 10.146428352360338 0.04158329529315604 -1 0 0
1890 4 63.90592887345338 10.146428352360338 0.04158329529315612 -1 0 0
2067 1 59.1127421926392 11.068584662880994 1.4687047285527166 -1 0 0
2073 1 62.3080384263772 11.068584662880994 1.4687047285527166 -1 0 0
1879 3 60.70946979889998 6.455627967790354 2.8949485509989152 -1 0 0
1885 3 63.90476603263798 6.455627967790354 2.8949485509989152 -1 0 0
1880 3 59.11182168203098 9.222835678824353 2.894948550998916 -1 0 0
1886 3 62.30711791576898 9.222835678824353 2.894948550998916 -1 0 0
1895 4 65.50357699032237 7.379220641326339 0.041583295293157393 -1 0 0
1894 1 67.1009827769842 8.301376951846995 1.4687047285527168 -1 0 0
1901 4 68.69887322406038 7.37922064132634 0.041583295293158816 -1 0 0
1896 4 67.10122510719137 10.146428352360338 0.041583295293157366 -1 0 0
2079 1 65.5033346601152 11.068584662880994 1.4687047285527175 -1 0 0
2085 1 68.6986308938532 11.068584662880994 1.468704728552717 -1 0 0
1891 3 67.10006226637597 6.455627967790354 2.894948550998914 -1 0 0
1892 3 65.50241414950698 9.222835678824353 2.894948550998916 -1 0 0
1898 3 68.69771038324497 9.222835678824353 2.894948550998915 -1 0 0
1900 1 70.2962790107222 8.301376951846995 1.468704728552719 -1 0 0
1907 4 71.89416945779837 7.37922064132634 0.04158329529315882 -1 0 0
1913 4 75.08946569153638 7.379220641326338 0.041583295293156075 -1 0 0
1906 1 73.49157524446021 8.301376951846995 1.4687047285527182 -1 0 0
1902 4 70.29652134092937 10.146428352360338 0.04158329529315556 -1 0 0
1908 4 73.49181757466738 10.146428352360337 0.04158329529315633 -1 0 0
2091 1 71.89392712759121 11.068584662880994 1.4687047285527157 -1 0 0
2097 1 75.0892233613292 11.068584662880994 1.468704728552718 -1 0 0
1897 3 70.29535850011398 6.455627967790355 2.8949485509989166 -1 0 0
1903 3 73.49065473385197 6.455627967790354 2.894948550998914 -1 0 0
1904 3 71.89300661698297 9.222835678824353 2.894948550998915 -1 0 0
1910 3 75.08830285072098 9.222835678824355 2.8949485509989175 -1 0 0
1912 1 76.6868714781982 8.301376951846995 1.4687047285527177 -1 0 0
1919 4 78.28476192527437 7.37922064132634 0.041583295293158844 -1 0 0
1918 1 79.8821677119362 8.301376951846995 1.4687047285527182 -1 0 0
1925 4 81.48005815901237 7.379220641326338 0.04158329529315608 -1 0 0
1914 4 76.68711380840537 10.146428352360338 0.0415832952931557 -1 0 0
1920 4 79.88241004214338 10.146428352360337 0.04158329529315633 -1 0 0
2103 1 78.28451959506721 11.068584662880994 1.468704728552716 -1 0 0
2109 1 81.4798158288052 11.068584662880994 1.468704728552718 -1 0 0
1909 3 76.68595096758997 6.455627967790355 2.8949485509989166 -1 0 0
1915 3 79.88124720132797 6.455627967790354 2.8949485509989135 -1 0 0
1916 3 78.28359908445897 9.222835678824353 2.894948550998915 -1 0 0
1922 3 81.47889531819698 9.222835678824355 2.8949485509989175 -1 0 0
1924 1 83.0774639456742 8.301376951846995 1.4687047285527177 -1 0 0
1931 4 84.67535439275036 7.37922064132634 0.041583295293158844 -1 0 0
1930 1 86.2727601794122 8.301376951846995 1.4687047285527182 -1 0 0
1926 4 83.07770627588137 10.146428352360338 0.0415832952931557 -1 0 0
1932 4 86.27300250961937 10.146428352360337 0.04158329529315632 -1 0 0
2115 1 84.6751120625432 11.068584662880994 1.468704728552716 -1 0 0
1921 3 83.07654343506597 6.455627967790355 2.8949485509989166 -1 0 0
1927 3 86.27183966880396 6.455627967790354 2.894948550998914 -1 0 0
1928 3 84.67419155193497 9.222835678824353 2.894948550998915 -1 0 0
1937 4 87.87065062648837 7.379220641326338 0.04158329529315697 -1 0 0
1936 1 89.46805641315021 8.301376951846995 1.4687047285527168 -1 0 0
1943 4 91.06594686022638 7.379220641326339 0.0415832952931577 -1 0 0
1942 1 92.6633526468882 8.301376951846995 1.468704728552719 -1 0 0
1938 4 89.46829874335737 10.146428352360338 0.041583295293157456 -1 0 0
1944 4 92.66359497709537 10.146428352360338 0.04158329529315556 -1 0 0
2121 1 87.8704082962812 11.068584662880994 1.468704728552718 -1 0 0
2127 1 91.0657045300192 11.068584662880994 1.468704728552717 -1 0 0
1933 3 89.46713590254197 6.455627967790354 2.8949485509989135 -1 0 0
1939 3 92.66243213627997 6.455627967790355 2.8949485509989166 -1 0 0
1934 3 87.86948778567297 9.222835678824355 2.8949485509989166 -1 0 0
1940 3 91.06478401941096 9.222835678824353 2.8949485509989157 -1 0 0
1954 1 99.0539451143642 8.301376951846995 1.4687047285527173 -1 0 0
1949 4 94.26124309396437 7.37922064132634 0.04158329529315883 -1 0 0
1948 1 95.8586488806262 8.301376951846995 1.4687047285527182 -1 0 0
1955 4 97.45653932770237 7.379220641326338 0.04158329529315603 -1 0 0
1950 4 95.85889121083338 10.146428352360337 0.04158329529315633 -1 0 0
2133 1 94.26100076375721 11.068584662880994 1.4687047285527157 -1 0 0
2139 1 97.4562969974952 11.068584662880994 1.4687047285527175 -1 0 0
1951 3 99.05302460375597 6.455627967790354 2.8949485509989152 -1 0 0
1945 3 95.85772837001797 6.455627967790354 2.894948550998914 -1 0 0
1946 3 94.26008025314897 9.222835678824353 2.894948550998915 -1 0 0
1952 3 97.45537648688698 9.222835678824355 2.8949485509989175 -1 0 0
2147 4 1.5976523155623803 12.913636063394339 0.04158329529315785 0 0 0
2153 4 4.79294854930038 12.913636063394339 0.04158329529315715 0 0 0
2146 1 3.195058102224207 13.835792373914993 1.468704728552718 0 0 0
2142 4 4.198693380041668e-06 15.680843774428338 0.04158329529315627 0 0 0
2331 1 1.5974099853552068 16.603000084948995 1.4687047285527175 0 0 0
2148 4 3.1953004324313814 15.680843774428338 0.04158329529315667 0 0 0
2337 1 4.792706219093208 16.603000084948995 1.4687047285527177 0 0 0
2143 3 3.1941375916159824 11.990043389858352 2.894948550998915 0 0 0
2144 3 1.5964894747469816 14.75725110089235 2.8949485509989152 0 0 0
2150 3 4.791785708484981 14.75725110089235 2.894948550998916 0 0 0
2329 3 3.1941375916159824 17.52445881192635 2.8949485509989157 0 0 0
2159 4 7.988244783038379 12.913636063394339 0.04158329529315725 0 0 0
2165 4 11.183541016776381 12.913636063394339 0.04158329529315734 0 0 0
2152 1 6.390354335962206 13.835792373914993 1.468704728552718 0 0 0
2158 1 9.585650569700206 13.835792373914993 1.4687047285527177 0 0 0
2154 4 6.3905966661693805 15.680843774428338 0.04158329529315654 0 0 0
2343 1 7.988002452831207 16.603000084948995 1.4687047285527177 0 0 0
2160 4 9.58589289990738 15.680843774428338 0.041583295293157366 0 0 0
2349 1 11.183298686569207 16.603000084948995 1.4687047285527177 0 0 0
2149 3 6.389433825353982 11.990043389858352 2.894948550998915 0 0 0
2155 3 9.584730059091982 11.990043389858352 2.894948550998914 0 0 0
2156 3 7.98708194222298 14.75725110089235 2.894948550998916 0 0 0
2162 3 11.182378175960983 14.75725110089235 2.894948550998916 0 0 0
2335 3 6.389433825353982 17.524458811926355 2.894948550998916 0 0 0
2341 3 9.584730059091982 17.524458811926355 2.8949485509989152 0 0 0
2171 4 14.37883725051438 12.913636063394339 0.041583295293156936 0 0 0
2164 1 12.780946803438209 13.835792373914993 1.468704728552718 0 0 0
2170 1 15.976243037176204 13.835792373914993 1.468704728552718 0 0 0
2166 4 12.78118913364538 15.680843774428338 0.04158329529315661 0 0 0
2355 1 14.378594920307206 16.603000084948995 1.4687047285527175 0 0 0
2172 4 15.976485367383377 15.680843774428338 0.041583295293155915 0 0 0
2161 3 12.780026292829982 11.990043389858352 2.894948550998915 0 0 0
2167 3 15.975322526567979 11.990043389858354 2.8949485509989157 0 0 0
2168 3 14.377674409698981 14.75725110089235 2.8949485509989166 0 0 0
2347 3 12.780026292829982 17.524458811926355 2.8949485509989157 0 0 0
2353 3 15.975322526567979 17.52445881192635 2.8949485509989166 0 0 0
2177 4 17.57413348425238 12.913636063394339 0.041583295293157886 0 0 0
2183 4 20.76942971799038 12.913636063394339 0.041583295293156644 0 0 0
2176 1 19.171539270914206 13.835792373914993 1.468704728552718 0 0 0
2182 1 22.366835504652208 13.835792373914993 1.468704728552718 0 0 0
2361 1 17.573891154045207 16.603000084948995 1.4687047285527175 0 0 0
2178 4 19.17178160112138 15.680843774428338 0.04158329529315731 0 0 0
2367 1 20.769187387783205 16.603000084948995 1.4687047285527175 0 0 0
2184 4 22.36707783485938 15.680843774428338 0.04158329529315732 0 0 0
2173 3 19.17061876030598 11.990043389858352 2.894948550998914 0 0 0
2179 3 22.36591499404398 11.990043389858352 2.8949485509989143 0 0 0
2174 3 17.572970643436978 14.75725110089235 2.8949485509989152 0 0 0
2180 3 20.76826687717498 14.757251100892352 2.8949485509989166 0 0 0
2359 3 19.17061876030598 17.52445881192635 2.894948550998915 0 0 0
2365 3 22.36591499404398 17.52445881192635 2.894948550998915 0 0 0
2189 4 23.964725951728383 12.913636063394339 0.04158329529315788 0 0 0
2195 4 27.16002218546638 12.913636063394339 0.04158329529315788 0 0 0
2188 1 25.562131738390207 13.835792373914993 1.4687047285527177 0 0 0
2194 1 28.75742797212821 13.835792373914993 1.468704728552718 0 0 0
2190 4 25.562374068597382 15.680843774428338 0.041583295293156027 0 0 0
2373 1 23.964483621521207 16.603000084948995 1.4687047285527175 0 0 0
2379 1 27.15977985525921 16.603000084948995 1.4687047285527175 0 0 0