LAMMPS data file via write_data, version 29 Aug 2024, timestep = 2, units = metal

6696 atoms
6 atom types

0 99.506167191031 xlo xhi
0 100.074040978824 ylo yhi
-50 50 zlo zhi

Masses

1 183.84
2 183.84
3 32.06
4 32.06
5 32.06
6 32.06

Atoms # atomic

1775 4 1.604944079725481 1.8532227632365623 0.0163087046800176 0 0 0
1772 1 3.2097811966877643 2.7797351936314003 1.5763108722555217 0 0 0
1781 4 4.814820440726481 1.8532227632365628 0.016308704680017837 0 0 0
1770 4 5.8992252358049705e-06 4.633057234870565 0.016308704680017435 0 0 0
1776 4 3.209882260226232 4.633057234870565 0.01630870468001773 0 0 0
1957 1 1.6048430161871488 5.559569665265401 1.576310872255522 0 0 0
1963 1 4.814719377188148 5.559569665265402 1.576310872255522 0 0 0
1778 1 6.419657557688764 2.7797351936314003 1.5763108722555217 0 0 0
1787 4 8.024696801727476 1.8532227632365628 0.016308704680017817 0 0 0
1784 1 9.629533918689761 2.7797351936314003 1.5763108722555217 0 0 0
1793 4 11.234573162728477 1.8532227632365623 0.016308704680017504 0 0 0
1782 4 6.419758621227231 4.633057234870565 0.01630870468001755 0 0 0
1788 4 9.629634982228232 4.633057234870565 0.01630870468001762 0 0 0
1969 1 8.024595738189145 5.559569665265402 1.5763108722555217 0 0 0
1975 1 11.234472099190146 5.559569665265402 1.576310872255522 0 0 0
1790 1 12.839410279690764 2.7797351936314003 1.5763108722555217 0 0 0
1799 4 14.444449523729483 1.8532227632365628 0.01630870468001769 0 0 0
1796 1 16.049286640691765 2.7797351936314003 1.5763108722555217 0 0 0
1794 4 12.839511343229233 4.633057234870565 0.016308704680017543 0 0 0
1800 4 16.049387704230234 4.633057234870565 0.016308704680017858 0 0 0
1981 1 14.444348460191149 5.559569665265402 1.5763108722555221 0 0 0
1805 4 17.65432588473048 1.8532227632365628 0.01630870468001798 0 0 0
1802 1 19.259163001692762 2.7797351936314003 1.5763108722555217 0 0 0
1811 4 20.864202245731477 1.8532227632365628 0.01630870468001749 0 0 0
1808 1 22.469039362693763 2.7797351936314003 1.5763108722555217 0 0 0
1806 4 19.25926406523123 4.633057234870565 0.016308704680017487 0 0 0
1812 4 22.469140426232233 4.633057234870565 0.016308704680017518 0 0 0
1987 1 17.654224821192148 5.559569665265402 1.576310872255522 0 0 0
1993 1 20.864101182193146 5.559569665265402 1.5763108722555215 0 0 0
1817 4 24.074078606732478 1.8532227632365623 0.0163087046800178 0 0 0
1814 1 25.678915723694764 2.7797351936314003 1.5763108722555217 0 0 0
1823 4 27.28395496773348 1.8532227632365628 0.016308704680017508 0 0 0
1820 1 28.888792084695766 2.7797351936314003 1.5763108722555217 0 0 0
1818 4 25.67901678723323 4.633057234870565 0.0163087046800176 0 0 0
1824 4 28.888893148234235 4.633057234870565 0.016308704680017515 0 0 0
1999 1 24.073977543194147 5.559569665265402 1.5763108722555221 0 0 0
2005 1 27.283853904195148 5.559569665265402 1.5763108722555215 0 0 0
1829 4 30.49383132873448 1.8532227632365625 0.016308704680017716 0 0 0
1835 4 33.70370768973548 1.8532227632365623 0.01630870468001784 0 0 0
1826 1 32.09866844569677 2.7797351936314003 1.576310872255522 0 0 0
1830 4 32.09876950923523 4.633057234870565 0.01630870468001809 0 0 0
2011 1 30.49373026519615 5.559569665265402 1.5763108722555221 0 0 0
2017 1 33.70360662619714 5.559569665265402 1.5763108722555221 0 0 0
1832 1 35.30854480669776 2.7797351936314003 1.5763108722555217 0 0 0
1841 4 36.91358405073648 1.8532227632365628 0.016308704680017466 0 0 0
1838 1 38.51842116769876 2.7797351936314003 1.5763108722555217 0 0 0
1847 4 40.12346041173748 1.8532227632365625 0.01630870468001812 0 0 0
1836 4 35.30864587023623 4.633057234870565 0.01630870468001757 0 0 0
1842 4 38.518522231237235 4.633057234870565 0.016308704680017487 0 0 0
2023 1 36.913482987198144 5.559569665265402 1.5763108722555217 0 0 0
2029 1 40.123359348199145 5.559569665265402 1.5763108722555217 0 0 0
1844 1 41.72829752869976 2.7797351936314003 1.5763108722555215 0 0 0
1853 4 43.33333677273848 1.853222763236563 0.016308704680017418 0 0 0
1850 1 44.938173889700764 2.7797351936314003 1.5763108722555217 0 0 0
1859 4 46.543213133739485 1.8532227632365623 0.016308704680017685 0 0 0
1848 4 41.72839859223823 4.633057234870565 0.016308704680017376 0 0 0
1854 4 44.93827495323924 4.633057234870565 0.016308704680017636 0 0 0
2035 1 43.333235709200146 5.559569665265402 1.5763108722555215 0 0 0
2041 1 46.54311207020115 5.559569665265402 1.5763108722555221 0 0 0
1856 1 48.148050250701765 2.7797351936314003 1.5763108722555217 0 0 0
1679 4 49.75308949474048 1.8532227632365628 0.016308704680017886 -1 0 0
1676 1 51.35792661170276 2.7797351936314003 1.5763108722555217 -1 0 0
1860 4 48.14815131424023 4.633057234870565 0.016308704680017796 0 0 0
1680 4 51.35802767524123 4.633057234870565 0.016308704680017556 -1 0 0
1861 1 49.75298843120215 5.559569665265402 1.576310872255522 -1 0 0
1685 4 52.96296585574148 1.8532227632365628 0.0163087046800177 -1 0 0
1682 1 54.56780297270376 2.7797351936314003 1.5763108722555217 -1 0 0
1691 4 56.17284221674248 1.8532227632365628 0.016308704680017695 -1 0 0
1688 1 57.77767933370476 2.7797351936314003 1.5763108722555217 -1 0 0
1686 4 54.56790403624223 4.633057234870565 0.01630870468001759 -1 0 0
1692 4 57.777780397243234 4.633057234870565 0.016308704680017945 -1 0 0
1867 1 52.96286479220314 5.559569665265402 1.576310872255522 -1 0 0
1873 1 56.17274115320414 5.559569665265402 1.576310872255522 -1 0 0
1697 4 59.38271857774348 1.8532227632365625 0.016308704680018098 -1 0 0
1694 1 60.98755569470576 2.7797351936314003 1.5763108722555217 -1 0 0
1703 4 62.592594938744476 1.8532227632365628 0.016308704680017737 -1 0 0
1700 1 64.19743205570676 2.7797351936314003 1.5763108722555217 -1 0 0
1698 4 60.98765675824423 4.633057234870565 0.01630870468001758 -1 0 0
1704 4 64.19753311924524 4.633057234870565 0.016308704680017917 -1 0 0
1879 1 59.382617514205144 5.559569665265402 1.576310872255522 -1 0 0
1885 1 62.592493875206145 5.559569665265402 1.5763108722555215 -1 0 0
1709 4 65.80247129974548 1.8532227632365625 0.016308704680017806 -1 0 0
1706 1 67.40730841670776 2.7797351936314003 1.576310872255522 -1 0 0
1715 4 69.01234766074647 1.8532227632365628 0.016308704680018063 -1 0 0
1710 4 67.40740948024623 4.633057234870565 0.016308704680018105 -1 0 0
1891 1 65.80237023620714 5.559569665265402 1.5763108722555224 -1 0 0
1897 1 69.01224659720815 5.559569665265402 1.576310872255522 -1 0 0
1712 1 70.61718477770876 2.7797351936314003 1.5763108722555217 -1 0 0
1721 4 72.22222402174746 1.8532227632365628 0.01630870468001761 -1 0 0
1718 1 73.82706113870975 2.7797351936314003 1.5763108722555217 -1 0 0
1727 4 75.43210038274847 1.8532227632365623 0.016308704680017664 -1 0 0
1716 4 70.61728584124722 4.633057234870565 0.016308704680017404 -1 0 0
1722 4 73.82716220224823 4.633057234870565 0.016308704680017605 -1 0 0
1903 1 72.22212295820914 5.559569665265402 1.5763108722555212 -1 0 0
1909 1 75.43199931921014 5.559569665265402 1.5763108722555224 -1 0 0
1724 1 77.03693749971076 2.7797351936314003 1.5763108722555217 -1 0 0
1733 4 78.64197674374947 1.8532227632365628 0.016308704680017622 -1 0 0
1730 1 80.24681386071175 2.7797351936314003 1.5763108722555217 -1 0 0
1739 4 81.85185310475048 1.8532227632365623 0.01630870468001764 -1 0 0
1728 4 77.03703856324923 4.633057234870565 0.016308704680017487 -1 0 0
1734 4 80.24691492425023 4.633057234870565 0.0163087046800176 -1 0 0
1915 1 78.64187568021114 5.559569665265402 1.5763108722555212 -1 0 0
1921 1 81.85175204121214 5.559569665265402 1.5763108722555224 -1 0 0
1736 1 83.45669022171276 2.7797351936314003 1.576310872255522 -1 0 0
1745 4 85.06172946575147 1.8532227632365628 0.016308704680018063 -1 0 0
1742 1 86.66656658271376 2.7797351936314003 1.5763108722555215 -1 0 0
1740 4 83.45679128525123 4.633057234870565 0.016308704680018098 -1 0 0
1746 4 86.66666764625222 4.633057234870565 0.01630870468001741 -1 0 0
1927 1 85.06162840221315 5.559569665265402 1.576310872255522 -1 0 0
1751 4 88.27160582675246 1.8532227632365628 0.01630870468001763 -1 0 0
1748 1 89.87644294371475 2.7797351936314003 1.5763108722555217 -1 0 0
1757 4 91.48148218775347 1.8532227632365623 0.01630870468001722 -1 0 0
1754 1 93.08631930471576 2.7797351936314003 1.576310872255522 -1 0 0
1752 4 89.87654400725323 4.633057234870565 0.016308704680016925 -1 0 0
1758 4 93.08642036825424 4.633057234870565 0.0163087046800177 -1 0 0
1933 1 88.27150476321414 5.559569665265402 1.5763108722555212 -1 0 0
1939 1 91.48138112421515 5.559569665265402 1.576310872255522 -1 0 0
1766 1 99.50607202671776 2.7797351936314003 1.5763108722555212 -1 0 0
1763 4 94.69135854875448 1.8532227632365623 0.016308704680017657 -1 0 0
1760 1 96.29619566571677 2.7797351936314003 1.5763108722555217 -1 0 0
1769 4 97.90123490975547 1.853222763236563 0.016308704680017834 -1 0 0
1764 4 96.29629672925523 4.633057234870565 0.01630870468001783 -1 0 0
1945 1 94.69125748521614 5.559569665265402 1.5763108722555226 -1 0 0
1951 1 97.90113384621715 5.5595696652654025 1.5763108722555215 -1 0 0
1961 4 1.604944079725481 7.4128917065045625 0.016308704680017456 0 0 0
1958 1 3.2097811966877643 8.339404136899402 1.5763108722555217 0 0 0
1967 4 4.814820440726481 7.412891706504563 0.016308704680017674 0 0 0
1956 4 5.89922523583156e-06 10.192726178138566 0.016308704680017435 0 0 0
1962 4 3.209882260226232 10.192726178138566 0.016308704680017733 0 0 0
2143 1 1.6048430161871488 11.1192386085334 1.5763108722555221 0 0 0
2149 1 4.814719377188148 11.119238608533403 1.5763108722555221 0 0 0
1964 1 6.419657557688764 8.339404136899402 1.5763108722555217 0 0 0
1973 4 8.024696801727476 7.412891706504564 0.016308704680017706 0 0 0
1970 1 9.629533918689761 8.339404136899402 1.5763108722555217 0 0 0
1979 4 11.234573162728477 7.412891706504563 0.016308704680017338 0 0 0
1968 4 6.419758621227231 10.192726178138566 0.016308704680017584 0 0 0
1974 4 9.629634982228232 10.192726178138566 0.01630870468001767 0 0 0
2155 1 8.024595738189145 11.119238608533403 1.5763108722555217 0 0 0
2161 1 11.234472099190146 11.119238608533403 1.5763108722555221 0 0 0
1976 1 12.839410279690764 8.339404136899402 1.5763108722555217 0 0 0
1985 4 14.444449523729483 7.412891706504563 0.016308704680017518 0 0 0
1982 1 16.049286640691765 8.339404136899402 1.5763108722555217 0 0 0
1980 4 12.839511343229233 10.192726178138566 0.016308704680017518 0 0 0
1986 4 16.049387704230234 10.192726178138566 0.01630870468001785 0 0 0
2167 1 14.444348460191149 11.119238608533403 1.5763108722555224 0 0 0
1991 4 17.65432588473048 7.412891706504563 0.016308704680017893 0 0 0
1988 1 19.259163001692762 8.339404136899402 1.5763108722555217 0 0 0
1997 4 20.864202245731477 7.412891706504563 0.016308704680017373 0 0 0
1994 1 22.469039362693763 8.339404136899402 1.5763108722555217 0 0 0
1992 4 19.25926406523123 10.192726178138566 0.01630870468001752 0 0 0
1998 4 22.469140426232233 10.192726178138566 0.01630870468001757 0 0 0
2173 1 17.654224821192148 11.119238608533403 1.5763108722555221 0 0 0
2179 1 20.864101182193146 11.119238608533403 1.5763108722555217 0 0 0
2003 4 24.074078606732478 7.412891706504563 0.01630870468001768 0 0 0
2000 1 25.678915723694764 8.339404136899402 1.5763108722555217 0 0 0
2009 4 27.28395496773348 7.412891706504564 0.01630870468001739 0 0 0
2006 1 28.888792084695766 8.339404136899402 1.5763108722555217 0 0 0
2004 4 25.67901678723323 10.192726178138564 0.01630870468001757 0 0 0
2010 4 28.888893148234235 10.192726178138566 0.016308704680017546 0 0 0
2185 1 24.073977543194147 11.119238608533403 1.5763108722555224 0 0 0
2191 1 27.283853904195148 11.119238608533403 1.5763108722555217 0 0 0
2015 4 30.49383132873448 7.412891706504563 0.016308704680017556 0 0 0
2021 4 33.70370768973548 7.412891706504563 0.01630870468001771 0 0 0
2012 1 32.09866844569677 8.339404136899402 1.576310872255522 0 0 0
2016 4 32.09876950923523 10.192726178138566 0.016308704680018053 0 0 0
2197 1 30.49373026519615 11.119238608533403 1.5763108722555224 0 0 0
2203 1 33.70360662619714 11.119238608533403 1.5763108722555224 0 0 0
2018 1 35.30854480669776 8.339404136899402 1.5763108722555217 0 0 0
2027 4 36.91358405073648 7.412891706504564 0.01630870468001737 0 0 0
2024 1 38.51842116769876 8.339404136899402 1.576310872255522 0 0 0
2033 4 40.12346041173748 7.412891706504563 0.016308704680018014 0 0 0
2022 4 35.30864587023623 10.192726178138566 0.016308704680017633 0 0 0
2028 4 38.518522231237235 10.192726178138566 0.01630870468001757 0 0 0
2209 1 36.913482987198144 11.119238608533403 1.5763108722555217 0 0 0
2215 1 40.123359348199145 11.119238608533403 1.576310872255522 0 0 0
2030 1 41.72829752869976 8.339404136899402 1.5763108722555217 0 0 0
2039 4 43.33333677273848 7.412891706504564 0.016308704680017303 0 0 0
2036 1 44.938173889700764 8.339404136899402 1.5763108722555217 0 0 0
2045 4 46.543213133739485 7.412891706504563 0.016308704680017518 0 0 0
2034 4 41.72839859223823 10.192726178138566 0.01630870468001745 0 0 0
2040 4 44.93827495323924 10.192726178138566 0.01630870468001767 0 0 0
2221 1 43.333235709200146 11.119238608533403 1.5763108722555217 0 0 0
2227 1 46.54311207020115 11.119238608533403 1.5763108722555224 0 0 0
2042 1 48.148050250701765 8.339404136899402 1.576310872255522 0 0 0
1865 4 49.75308949474048 7.412891706504564 0.01630870468001773 -1 0 0
1862 1 51.35792661170276 8.339404136899402 1.5763108722555217 -1 0 0
2046 4 48.14815131424023 10.192726178138566 0.01630870468001779 0 0 0
1866 4 51.35802767524123 10.192726178138566 0.016308704680017598 -1 0 0
2047 1 49.75298843120215 11.119238608533403 1.5763108722555221 -1 0 0
1871 4 52.96296585574148 7.412891706504563 0.01630870468001755 -1 0 0
1868 1 54.56780297270376 8.339404136899402 1.5763108722555217 -1 0 0
1877 4 56.17284221674248 7.412891706504563 0.016308704680017556 -1 0 0
1874 1 57.77767933370476 8.339404136899402 1.5763108722555217 -1 0 0
1872 4 54.56790403624223 10.192726178138566 0.0163087046800176 -1 0 0
1878 4 57.777780397243234 10.192726178138566 0.016308704680017966 -1 0 0
2053 1 52.96286479220314 11.119238608533403 1.576310872255522 -1 0 0
2059 1 56.17274115320414 11.119238608533403 1.576310872255522 -1 0 0
1883 4 59.38271857774348 7.412891706504563 0.01630870468001797 -1 0 0
1880 1 60.98755569470576 8.339404136899402 1.5763108722555217 -1 0 0
1889 4 62.592594938744476 7.412891706504564 0.016308704680017633 -1 0 0
1886 1 64.19743205570676 8.339404136899402 1.5763108722555217 -1 0 0
1884 4 60.98765675824423 10.192726178138566 0.016308704680017563 -1 0 0
1890 4 64.19753311924524 10.192726178138566 0.016308704680017976 -1 0 0
2065 1 59.382617514205144 11.119238608533403 1.5763108722555221 -1 0 0
2071 1 62.592493875206145 11.119238608533403 1.5763108722555217 -1 0 0
1895 4 65.80247129974548 7.412891706504563 0.016308704680017664 -1 0 0
1892 1 67.40730841670776 8.339404136899402 1.576310872255522 -1 0 0
1901 4 69.01234766074647 7.412891706504564 0.016308704680017966 -1 0 0
1896 4 67.40740948024623 10.192726178138566 0.01630870468001811 -1 0 0
2077 1 65.80237023620714 11.119238608533403 1.5763108722555226 -1 0 0
2083 1 69.01224659720815 11.119238608533403 1.5763108722555221 -1 0 0
1898 1 70.61718477770876 8.339404136899402 1.5763108722555217 -1 0 0
1907 4 72.22222402174746 7.412891706504563 0.016308704680017466 -1 0 0
1904 1 73.82706113870975 8.339404136899402 1.5763108722555217 -1 0 0
1913 4 75.43210038274847 7.412891706504563 0.01630870468001755 -1 0 0
1902 4 70.61728584124722 10.192726178138566 0.016308704680017428 -1 0 0
1908 4 73.82716220224823 10.192726178138566 0.016308704680017685 -1 0 0
2089 1 72.22212295820914 11.119238608533403 1.5763108722555215 -1 0 0
2095 1 75.43199931921014 11.119238608533403 1.5763108722555226 -1 0 0
1910 1 77.03693749971076 8.339404136899402 1.5763108722555217 -1 0 0
1919 4 78.64197674374947 7.412891706504563 0.016308704680017484 -1 0 0
1916 1 80.24681386071175 8.339404136899402 1.5763108722555217 -1 0 0
1925 4 81.85185310475048 7.412891706504563 0.0163087046800175 -1 0 0
1914 4 77.03703856324923 10.192726178138564 0.016308704680017473 -1 0 0
1920 4 80.24691492425023 10.192726178138566 0.01630870468001766 -1 0 0
2101 1 78.64187568021114 11.119238608533403 1.5763108722555217 -1 0 0
2107 1 81.85175204121214 11.119238608533403 1.5763108722555226 -1 0 0
1922 1 83.45669022171276 8.339404136899402 1.576310872255522 -1 0 0
1931 4 85.06172946575147 7.412891706504564 0.016308704680017966 -1 0 0
1928 1 86.66656658271376 8.339404136899402 1.5763108722555217 -1 0 0
1926 4 83.45679128525123 10.192726178138566 0.016308704680018108 -1 0 0
1932 4 86.66666764625222 10.192726178138566 0.016308704680017456 -1 0 0
2113 1 85.06162840221315 11.119238608533403 1.5763108722555221 -1 0 0
1937 4 88.27160582675246 7.412891706504563 0.01630870468001751 -1 0 0
1934 1 89.87644294371475 8.339404136899402 1.5763108722555217 -1 0 0
1943 4 91.48148218775347 7.412891706504563 0.01630870468001708 -1 0 0
1940 1 93.08631930471576 8.339404136899402 1.576310872255522 -1 0 0
1938 4 89.87654400725323 10.192726178138566 0.01630870468001698 -1 0 0
1944 4 93.08642036825424 10.192726178138566 0.01630870468001773 -1 0 0
2119 1 88.27150476321414 11.119238608533403 1.5763108722555215 -1 0 0
2125 1 91.48138112421515 11.119238608533403 1.5763108722555221 -1 0 0
1952 1 99.50607202671776 8.3394041368994 1.5763108722555215 -1 0 0
1949 4 94.69135854875448 7.412891706504563 0.01630870468001753 -1 0 0
1946 1 96.29619566571677 8.339404136899402 1.5763108722555217 -1 0 0
1955 4 97.90123490975547 7.412891706504564 0.016308704680017723 -1 0 0
1950 4 96.29629672925523 10.192726178138566 0.016308704680017837 -1 0 0
2131 1 94.69125748521614 11.119238608533403 1.5763108722555226 -1 0 0
2137 1 97.90113384621715 11.119238608533404 1.5763108722555217 -1 0 0
2147 4 1.604944079725481 12.972560649772564 0.01630870468001802 0 0 0
2144 1 3.2097811966877643 13.899073080167401 1.5763108722555221 0 0 0
2153 4 4.814820440726481 12.972560649772564 0.016308704680018226 0 0 0
2142 4 5.899225235804443e-06 15.752395121406561 0.01630870468001744 0 0 0
2148 4 3.209882260226232 15.752395121406561 0.016308704680017584 0 0 0
2329 1 1.6048430161871488 16.678907551801398 1.5763108722555217 0 0 0
2335 1 4.814719377188148 16.6789075518014 1.5763108722555215 0 0 0
2150 1 6.419657557688764 13.899073080167403 1.5763108722555221 0 0 0
2159 4 8.024696801727476 12.972560649772564 0.016308704680018184 0 0 0
2156 1 9.629533918689761 13.899073080167403 1.576310872255522 0 0 0
2165 4 11.234573162728477 12.972560649772564 0.01630870468001785 0 0 0
2154 4 6.419758621227231 15.752395121406561 0.016308704680017442 0 0 0
2160 4 9.62963498222823 15.752395121406561 0.01630870468001745 0 0 0
2341 1 8.024595738189145 16.6789075518014 1.5763108722555212 0 0 0
2347 1 11.234472099190146 16.6789075518014 1.5763108722555215 0 0 0
2162 1 12.839410279690764 13.899073080167401 1.5763108722555221 0 0 0
2171 4 14.444449523729483 12.972560649772564 0.016308704680018105 0 0 0
2168 1 16.049286640691765 13.899073080167403 1.5763108722555221 0 0 0
2166 4 12.839511343229233 15.752395121406561 0.016308704680017456 0 0 0
2172 4 16.049387704230234 15.752395121406561 0.01630870468001772 0 0 0
2353 1 14.444348460191149 16.6789075518014 1.5763108722555217 0 0 0
2177 4 17.65432588473048 12.972560649772564 0.016308704680018382 0 0 0
2174 1 19.259163001692762 13.899073080167403 1.576310872255522 0 0 0
2183 4 20.864202245731477 12.972560649772564 0.01630870468001784 0 0 0
2180 1 22.469039362693763 13.899073080167401 1.576310872255522 0 0 0
2178 4 19.25926406523123 15.752395121406561 0.016308704680017393 0 0 0
2184 4 22.469140426232233 15.752395121406561 0.016308704680017397 0 0 0
2359 1 17.654224821192148 16.6789075518014 1.5763108722555215 0 0 0
2365 1 20.864101182193146 16.6789075518014 1.576310872255521 0 0 0
2189 4 24.074078606732478 12.972560649772564 0.01630870468001819 0 0 0
2186 1 25.678915723694764 13.899073080167403 1.576310872255522 0 0 0
2195 4 27.28395496773348 12.972560649772564 0.016308704680017844 0 0 0
2192 1 28.888792084695766 13.899073080167401 1.576310872255522 0 0 0
2190 4 25.67901678723323 15.752395121406561 0.016308704680017508 0 0 0
2196 4 28.888893148234235 15.752395121406561 0.01630870468001739 0 0 0
2371 1 24.073977543194147 16.678907551801398 1.576310872255522 0 0 0
2377 1 27.283853904195148 16.6789075518014 1.5763108722555212 0 0 0
2201 4 30.49383132873448 12.972560649772564 0.016308704680018094 0 0 0
2207 4 33.70370768973548 12.972560649772564 0.016308704680018264 0 0 0
2198 1 32.09866844569677 13.899073080167403 1.5763108722555221 0 0 0
2202 4 32.09876950923523 15.752395121406561 0.01630870468001792 0 0 0
2383 1 30.49373026519615 16.6789075518014 1.576310872255522 0 0 0
2389 1 33.70360662619714 16.678907551801398 1.5763108722555217 0 0 0
2204 1 35.30854480669776 13.899073080167403 1.576310872255522 0 0 0
2213 4 36.91358405073648 12.972560649772564 0.016308704680017876 0 0 0
2210 1 38.51842116769876 13.899073080167403 1.576310872255522 0 0 0
2219 4 40.12346041173748 12.972560649772564 0.016308704680018445 0 0 0
2208 4 35.30864587023623 15.752395121406561 0.01630870468001747 0 0 0
2214 4 38.518522231237235 15.752395121406561 0.016308704680017393 0 0 0
2395 1 36.913482987198144 16.6789075518014 1.5763108722555212 0 0 0
2401 1 40.123359348199145 16.6789075518014 1.5763108722555215 0 0 0
2216 1 41.72829752869976 13.899073080167403 1.576310872255522 0 0 0
2225 4 43.33333677273848 12.972560649772564 0.01630870468001774 0 0 0
2222 1 44.938173889700764 13.899073080167401 1.576310872255522 0 0 0
2231 4 46.543213133739485 12.972560649772564 0.016308704680018087 0 0 0
2220 4 41.72839859223823 15.752395121406561 0.01630870468001729 0 0 0
2226 4 44.93827495323924 15.752395121406561 0.01630870468001748 0 0 0
2407 1 43.333235709200146 16.6789075518014 1.5763108722555212 0 0 0
2413 1 46.54311207020115 16.678907551801398 1.576310872255522 0 0 0
2228 1 48.148050250701765 13.899073080167403 1.576310872255522 0 0 0
2051 4 49.75308949474048 12.972560649772564 0.016308704680018302 -1 0 0
2048 1 51.35792661170276 13.899073080167403 1.576310872255522 -1 0 0
2232 4 48.14815131424023 15.752395121406561 0.016308704680017664 0 0 0
2052 4 51.35802767524123 15.752395121406561 0.01630870468001741 -1 0 0
2233 1 49.75298843120215 16.6789075518014 1.5763108722555215 -1 0 0
2057 4 52.96296585574148 12.972560649772564 0.016308704680018094 -1 0 0
2054 1 54.56780297270376 13.899073080167403 1.576310872255522 -1 0 0
2063 4 56.17284221674248 12.972560649772564 0.01630870468001808 -1 0 0
2060 1 57.77767933370476 13.899073080167401 1.576310872255522 -1 0 0
2058 4 54.56790403624223 15.752395121406561 0.016308704680017452 -1 0 0
2064 4 57.777780397243234 15.752395121406561 0.01630870468001774 -1 0 0
2239 1 52.96286479220314 16.6789075518014 1.5763108722555215 -1 0 0
2245 1 56.17274115320414 16.6789075518014 1.5763108722555215 -1 0 0
2069 4 59.38271857774348 12.972560649772564 0.016308704680018517 -1 0 0
2066 1 60.98755569470576 13.899073080167401 1.576310872255522 -1 0 0
2075 4 62.592594938744476 12.972560649772564 0.01630870468001806 -1 0 0
2072 1 64.19743205570676 13.899073080167401 1.576310872255522 -1 0 0
2070 4 60.98765675824423 15.752395121406561 0.016308704680017466 -1 0 0
2076 4 64.19753311924524 15.752395121406561 0.016308704680017792 -1 0 0
2251 1 59.382617514205144 16.6789075518014 1.5763108722555215 -1 0 0
2257 1 62.592493875206145 16.6789075518014 1.5763108722555212 -1 0 0
2081 4 65.80247129974548 12.972560649772564 0.016308704680018243 -1 0 0
2078 1 67.40730841670776 13.899073080167403 1.5763108722555221 -1 0 0
2087 4 69.01234766074647 12.972560649772564 0.016308704680018455 -1 0 0
2082 4 67.40740948024623 15.752395121406561 0.016308704680017987 -1 0 0
2263 1 65.80237023620714 16.678907551801398 1.5763108722555221 -1 0 0
2269 1 69.01224659720815 16.6789075518014 1.5763108722555215 -1 0 0
2084 1 70.61718477770876 13.899073080167403 1.576310872255522 -1 0 0
2093 4 72.22222402174746 12.972560649772564 0.01630870468001793 -1 0 0
2090 1 73.82706113870975 13.899073080167401 1.576310872255522 -1 0 0
2099 4 75.43210038274847 12.972560649772564 0.016308704680018056 -1 0 0
2088 4 70.61728584124722 15.752395121406561 0.016308704680017286 -1 0 0
2094 4 73.82716220224823 15.752395121406561 0.01630870468001748 -1 0 0
2275 1 72.22212295820914 16.6789075518014 1.576310872255521 -1 0 0
2281 1 75.43199931921014 16.678907551801398 1.5763108722555221 -1 0 0
2096 1 77.03693749971076 13.899073080167403 1.576310872255522 -1 0 0
2105 4 78.64197674374947 12.972560649772564 0.016308704680017935 -1 0 0
2102 1 80.24681386071175 13.899073080167401 1.576310872255522 -1 0 0
2111 4 81.85185310475048 12.972560649772564 0.01630870468001808 -1 0 0
2100 4 77.03703856324923 15.752395121406561 0.016308704680017383 -1 0 0
2106 4 80.24691492425023 15.752395121406561 0.016308704680017473 -1 0 0
2287 1 78.64187568021114 16.6789075518014 1.576310872255521 -1 0 0
2293 1 81.85175204121214 16.678907551801398 1.5763108722555221 -1 0 0
2108 1 83.45669022171276 13.899073080167403 1.5763108722555221 -1 0 0
2117 4 85.06172946575147 12.972560649772564 0.016308704680018455 -1 0 0
2114 1 86.66656658271376 13.899073080167403 1.576310872255522 -1 0 0
2112 4 83.45679128525123 15.752395121406561 0.016308704680017987 -1 0 0
2118 4 86.66666764625222 15.752395121406561 0.016308704680017296 -1 0 0
2299 1 85.06162840221315 16.6789075518014 1.5763108722555215 -1 0 0
2123 4 88.27160582675246 12.972560649772564 0.016308704680017903 -1 0 0
2120 1 89.87644294371475 13.899073080167403 1.576310872255522 -1 0 0
2129 4 91.48148218775347 12.972560649772564 0.016308704680017463 -1 0 0
2126 1 93.08631930471576 13.899073080167403 1.5763108722555221 -1 0 0
2124 4 89.87654400725323 15.752395121406561 0.016308704680016845 -1 0 0
2130 4 93.08642036825424 15.752395121406561 0.01630870468001757 -1 0 0
2305 1 88.27150476321414 16.6789075518014 1.5763108722555208 -1 0 0
2311 1 91.48138112421515 16.6789075518014 1.5763108722555215 -1 0 0
2138 1 99.50607202671776 13.899073080167401 1.5763108722555215 -1 0 0
2135 4 94.69135854875448 12.972560649772564 0.01630870468001809 -1 0 0
2132 1 96.29619566571677 13.899073080167403 1.576310872255522 -1 0 0
2141 4 97.90123490975547 12.972560649772564 0.016308704680018216 -1 0 0
2136 4 96.29629672925523 15.752395121406561 0.016308704680017706 -1 0 0
2317 1 94.69125748521614 16.678907551801398 1.5763108722555221 -1 0 0
2323 1 97.90113384621715 16.6789075518014 1.576310872255521 -1 0 0
2333 4 1.604944079725481 18.53222959304056 0.01630870468001727 0 0 0
2339 4 4.814820440726481 18.53222959304056 0.016308704680017497 0 0 0
2330 1 3.2097811966877643 19.458742023435402 1.576310872255522 0 0 0
2328 4 5.899225235806645e-06 21.312064064674566 0.016308704680017785 0 0 0
2515 1 1.6048430161871488 22.238576495069402 1.5763108722555224 0 0 0
2334 4 3.209882260226232 21.312064064674566 0.016308704680017955 0 0 0
2521 1 4.814719377188148 22.238576495069402 1.5763108722555221 0 0 0
2345 4 8.024696801727476 18.53222959304056 0.01630870468001743 0 0 0
2351 4 11.234573162728477 18.53222959304056 0.016308704680017067 0 0 0
2336 1 6.419657557688763 19.458742023435402 1.5763108722555217 0 0 0
2342 1 9.629533918689761 19.458742023435402 1.5763108722555217 0 0 0
2340 4 6.419758621227231 21.312064064674566 0.016308704680017775 0 0 0
2527 1 8.024595738189145 22.238576495069402 1.576310872255522 0 0 0
2346 4 9.629634982228232 21.312064064674566 0.016308704680017803 0 0 0
2533 1 11.234472099190146 22.238576495069402 1.576310872255522 0 0 0
2357 4 14.444449523729483 18.53222959304056 0.01630870468001737 0 0 0
2348 1 12.839410279690764 19.458742023435402 1.5763108722555217 0 0 0
2354 1 16.049286640691765 19.458742023435402 1.576310872255522 0 0 0
2352 4 12.839511343229233 21.312064064674566 0.016308704680017834 0 0 0
2539 1 14.444348460191149 22.238576495069402 1.5763108722555224 0 0 0
2358 4 16.049387704230234 21.312064064674566 0.01630870468001804 0 0 0
2363 4 17.65432588473048 18.53222959304056 0.016308704680017612 0 0 0
2369 4 20.864202245731477 18.53222959304056 0.01630870468001709 0 0 0
2360 1 19.259163001692762 19.458742023435402 1.5763108722555217 0 0 0
2366 1 22.469039362693763 19.458742023435402 1.576310872255522 0 0 0
2545 1 17.654224821192148 22.238576495069402 1.5763108722555221 0 0 0
2364 4 19.25926406523123 21.312064064674566 0.01630870468001771 0 0 0
2551 1 20.864101182193146 22.238576495069402 1.576310872255522 0 0 0
2370 4 22.469140426232233 21.312064064674566 0.016308704680017716 0 0 0
2375 4 24.074078606732478 18.53222959304056 0.016308704680017442 0 0 0
2381 4 27.28395496773348 18.53222959304056 0.016308704680017102 0 0 0
2372 1 25.678915723694764 19.458742023435402 1.5763108722555217 0 0 0
2378 1 28.888792084695766 19.458742023435402 1.5763108722555217 0 0 0
2557 1 24.073977543194147 22.238576495069402 1.5763108722555226 0 0 0
2376 4 25.67901678723323 21.312064064674566 0.016308704680017827 0 0 0
2563 1 27.283853904195148 22.238576495069402 1.576310872255522 0 0 0
2382 4 28.888893148234235 21.312064064674566 0.01630870468001771 0 0 0
2387 4 30.49383132873448 18.53222959304056 0.016308704680017334 0 0 0
2393 4 33.70370768973548 18.53222959304056 0.01630870468001748 0 0 0
2384 1 32.09866844569677 19.458742023435402 1.576310872255522 0 0 0
2569 1 30.49373026519615 22.238576495069402 1.5763108722555224 0 0 0
2388 4 32.09876950923523 21.312064064674566 0.016308704680018347 0 0 0
2575 1 33.70360662619714 22.238576495069402 1.5763108722555224 0 0 0
2399 4 36.91358405073648 18.53222959304056 0.01630870468001715 0 0 0
2405 4 40.12346041173748 18.53222959304056 0.016308704680017744 0 0 0
2390 1 35.30854480669776 19.458742023435402 1.5763108722555217 0 0 0
2396 1 38.51842116769876 19.458742023435402 1.5763108722555217 0 0 0
2394 4 35.30864587023623 21.312064064674566 0.016308704680017827 0 0 0
2581 1 36.913482987198144 22.238576495069402 1.576310872255522 0 0 0
2400 4 38.518522231237235 21.312064064674566 0.01630870468001776 0 0 0
2587 1 40.123359348199145 22.238576495069402 1.5763108722555221 0 0 0
2411 4 43.33333677273848 18.53222959304056 0.016308704680017057 0 0 0
2417 4 46.543213133739485 18.53222959304056 0.016308704680017303 0 0 0