LAMMPS data file via write_data, version 29 Aug 2024, timestep = 2, units = metal

10044 atoms
9 atom types

0 99.506167191031 xlo xhi
0 100.074040978824 ylo yhi
-50 50 zlo zhi

Masses

1 183.84
2 183.84
3 183.84
4 32.06
5 32.06
6 32.06
7 32.06
8 32.06
9 32.06

Atoms # atomic

1775 5 1.6049442795890756 1.853222756375488 0.01651474641165884 0 0 0
1772 1 3.2097720046064304 2.779725732721219 1.57619512794639 0 0 0
1781 5 4.814820640590075 1.8532227563754884 0.01651474641165887 0 0 0
1770 5 6.099088823773398e-06 4.6330572280094895 0.01651474641165881 0 0 0
1776 5 3.2098824600898195 4.63305722800949 0.01651474641165872 0 0 0
1957 1 1.6048338241058215 5.55956020435522 1.5761951279463908 0 0 0
1963 1 4.814710185106821 5.55956020435522 1.5761951279463902 0 0 0
1778 1 6.419648365607429 2.779725732721219 1.5761951279463897 0 0 0
1787 5 8.024697001591072 1.8532227563754884 0.01651474641165878 0 0 0
1784 1 9.629524726608429 2.779725732721219 1.5761951279463897 0 0 0
1793 5 11.234573362592073 1.8532227563754882 0.01651474641165846 0 0 0
1782 5 6.419758821090819 4.6330572280094895 0.016514746411658485 0 0 0
1788 5 9.62963518209182 4.6330572280094895 0.01651474641165838 0 0 0
1969 1 8.02458654610782 5.55956020435522 1.5761951279463897 0 0 0
1975 1 11.23446290710882 5.55956020435522 1.5761951279463902 0 0 0
1790 1 12.83940108760943 2.779725732721219 1.57619512794639 0 0 0
1799 5 14.444449723593078 1.8532227563754882 0.01651474641165864 0 0 0
1796 1 16.049277448610432 2.779725732721219 1.5761951279463902 0 0 0
1794 5 12.839511543092822 4.63305722800949 0.016514746411658437 0 0 0
1800 5 16.049387904093823 4.6330572280094895 0.016514746411658843 0 0 0
1981 1 14.444339268109823 5.55956020435522 1.5761951279463904 0 0 0
1805 5 17.65432608459407 1.8532227563754884 0.016514746411659134 0 0 0
1802 1 19.25915380961143 2.779725732721219 1.5761951279463897 0 0 0
1811 5 20.86420244559507 1.8532227563754884 0.016514746411658433 0 0 0
1808 1 22.469030170612427 2.779725732721219 1.57619512794639 0 0 0
1806 5 19.259264265094817 4.63305722800949 0.016514746411658454 0 0 0
1812 5 22.46914062609582 4.63305722800949 0.016514746411658354 0 0 0
1987 1 17.65421562911082 5.55956020435522 1.5761951279463902 0 0 0
1993 1 20.864091990111817 5.55956020435522 1.5761951279463897 0 0 0
1817 5 24.074078806596074 1.8532227563754877 0.016514746411658766 0 0 0
1814 1 25.67890653161343 2.779725732721219 1.5761951279463897 0 0 0
1823 5 27.28395516759707 1.8532227563754884 0.016514746411658444 0 0 0
1820 1 28.88878289261443 2.779725732721219 1.57619512794639 0 0 0
1818 5 25.67901698709682 4.6330572280094895 0.016514746411658548 0 0 0
1824 5 28.888893348097824 4.63305722800949 0.016514746411658426 0 0 0
1999 1 24.07396835111282 5.559560204355219 1.5761951279463904 0 0 0
2005 1 27.28384471211382 5.55956020435522 1.5761951279463897 0 0 0
1829 5 30.493831528598076 1.8532227563754877 0.016514746411658936 0 0 0
1835 5 33.70370788959907 1.853222756375488 0.016514746411658374 0 0 0
1826 1 32.09865925361543 2.779725732721219 1.5761951279463902 0 0 0
1830 5 32.09876970909882 4.6330572280094895 0.01651474641165909 0 0 0
2011 1 30.49372107311482 5.559560204355219 1.5761951279463906 0 0 0
2017 1 33.70359743411582 5.55956020435522 1.57619512794639 0 0 0
1832 1 35.30853561461643 2.779725732721219 1.5761951279463897 0 0 0
1841 5 36.913584250600074 1.8532227563754882 0.016514746411658628 0 0 0
1838 1 38.51841197561743 2.779725732721219 1.57619512794639 0 0 0
1847 5 40.123460611601075 1.8532227563754884 0.016514746411659148 0 0 0
1836 5 35.30864607009982 4.63305722800949 0.01651474641165852 0 0 0
1842 5 38.51852243110082 4.6330572280094895 0.01651474641165843 0 0 0
2023 1 36.91347379511682 5.55956020435522 1.5761951279463902 0 0 0
2029 1 40.12335015611782 5.55956020435522 1.5761951279463897 0 0 0
1844 1 41.72828833661843 2.779725732721219 1.57619512794639 0 0 0
1853 5 43.33333697260207 1.8532227563754882 0.016514746411658527 0 0 0
1850 1 44.93816469761943 2.779725732721219 1.5761951279463897 0 0 0
1859 5 46.54321333360308 1.8532227563754877 0.01651474641165885 0 0 0
1848 5 41.72839879210182 4.6330572280094895 0.01651474641165834 0 0 0
1854 5 44.93827515310282 4.63305722800949 0.01651474641165861 0 0 0
2035 1 43.33322651711882 5.55956020435522 1.57619512794639 0 0 0
2041 1 46.54310287811982 5.559560204355219 1.5761951279463904 0 0 0
1856 1 48.14804105862043 2.779725732721219 1.5761951279463902 0 0 0
1679 5 49.75308969460407 1.8532227563754884 0.01651474641165866 -1 0 0
1676 1 51.35791741962143 2.779725732721219 1.5761951279463897 -1 0 0
1860 5 48.148151514103816 4.6330572280094895 0.0165147464116588 0 0 0
1680 5 51.35802787510482 4.6330572280094895 0.016514746411658378 -1 0 0
1861 1 49.75297923912082 5.55956020435522 1.5761951279463897 -1 0 0
1685 5 52.96296605560507 1.8532227563754882 0.016514746411658586 -1 0 0
1682 1 54.567793780622424 2.779725732721219 1.57619512794639 -1 0 0
1691 5 56.17284241660607 1.8532227563754882 0.016514746411658572 -1 0 0
1688 1 57.777670141623425 2.779725732721219 1.5761951279463897 -1 0 0
1686 5 54.56790423610582 4.6330572280094895 0.016514746411658416 -1 0 0
1692 5 57.77778059710682 4.6330572280094895 0.016514746411658645 -1 0 0
1867 1 52.96285560012182 5.55956020435522 1.57619512794639 -1 0 0
1873 1 56.17273196112282 5.55956020435522 1.5761951279463902 -1 0 0
1697 5 59.382718777607074 1.8532227563754882 0.01651474641165892 -1 0 0
1694 1 60.987546502624426 2.779725732721219 1.5761951279463902 -1 0 0
1703 5 62.59259513860807 1.8532227563754884 0.01651474641165819 -1 0 0
1700 1 64.19742286362543 2.779725732721219 1.5761951279463895 -1 0 0
1698 5 60.98765695810782 4.6330572280094895 0.016514746411658225 -1 0 0
1704 5 64.19753331910883 4.63305722800949 0.016514746411658263 -1 0 0
1879 1 59.382608322123815 5.55956020435522 1.5761951279463902 -1 0 0
1885 1 62.592484683124816 5.55956020435522 1.5761951279463895 -1 0 0
1709 5 65.80247149960908 1.8532227563754877 0.016514746411658524 -1 0 0
1706 1 67.40729922462643 2.779725732721219 1.57619512794639 -1 0 0
1715 5 69.01234786061008 1.8532227563754884 0.016514746411659086 -1 0 0
1710 5 67.40740968010982 4.63305722800949 0.016514746411659106 -1 0 0
1891 1 65.80236104412582 5.559560204355219 1.5761951279463906 -1 0 0
1897 1 69.01223740512681 5.55956020435522 1.5761951279463902 -1 0 0
1712 1 70.61717558562742 2.779725732721219 1.5761951279463897 -1 0 0
1721 5 72.22222422161107 1.8532227563754884 0.016514746411658558 -1 0 0
1718 1 73.82705194662843 2.779725732721219 1.57619512794639 -1 0 0
1727 5 75.43210058261208 1.8532227563754877 0.016514746411658697 -1 0 0
1716 5 70.61728604111082 4.6330572280094895 0.016514746411658333 -1 0 0
1722 5 73.82716240211182 4.6330572280094895 0.016514746411658447 -1 0 0
1903 1 72.22211376612782 5.55956020435522 1.5761951279463895 -1 0 0
1909 1 75.43199012712881 5.559560204355219 1.5761951279463906 -1 0 0
1724 1 77.03692830762942 2.779725732721219 1.57619512794639 -1 0 0
1733 5 78.64197694361307 1.8532227563754884 0.016514746411658565 -1 0 0
1730 1 80.24680466863043 2.779725732721219 1.57619512794639 -1 0 0
1739 5 81.85185330461408 1.8532227563754877 0.01651474641165869 -1 0 0
1728 5 77.03703876311282 4.6330572280094895 0.016514746411658423 -1 0 0
1734 5 80.24691512411383 4.6330572280094895 0.016514746411658437 -1 0 0
1915 1 78.64186648812982 5.55956020435522 1.5761951279463895 -1 0 0
1921 1 81.85174284913082 5.559560204355219 1.5761951279463906 -1 0 0
1736 1 83.45668102963143 2.779725732721219 1.57619512794639 -1 0 0
1745 5 85.06172966561508 1.8532227563754884 0.016514746411659086 -1 0 0
1742 1 86.66655739063242 2.779725732721219 1.5761951279463897 -1 0 0
1740 5 83.45679148511482 4.63305722800949 0.016514746411659103 -1 0 0
1746 5 86.66666784611581 4.6330572280094895 0.016514746411658347 -1 0 0
1927 1 85.06161921013181 5.55956020435522 1.5761951279463902 -1 0 0
1751 5 88.27160602661607 1.8532227563754884 0.01651474641165859 -1 0 0
1748 1 89.87643375163343 2.779725732721219 1.5761951279463897 -1 0 0
1757 5 91.48148238761708 1.8532227563754877 0.016514746411658107 -1 0 0
1754 1 93.08631011263444 2.779725732721219 1.57619512794639 -1 0 0
1752 5 89.87654420711682 4.6330572280094895 0.01651474641165785 -1 0 0
1758 5 93.08642056811783 4.6330572280094895 0.016514746411658537 -1 0 0
1933 1 88.27149557113282 5.55956020435522 1.5761951279463895 -1 0 0
1939 1 91.48137193213381 5.55956020435522 1.5761951279463902 -1 0 0
1766 1 99.50606283463642 2.779725732721219 1.5761951279463897 -1 0 0
1763 5 94.69135874861809 1.8532227563754877 0.01651474641165871 -1 0 0
1760 1 96.29618647363543 2.779725732721219 1.5761951279463897 -1 0 0
1769 5 97.90123510961908 1.8532227563754882 0.016514746411659346 -1 0 0
1764 5 96.29629692911882 4.63305722800949 0.01651474641165913 -1 0 0
1945 1 94.69124829313482 5.559560204355219 1.5761951279463908 -1 0 0
1951 1 97.90112465413581 5.55956020435522 1.5761951279463897 -1 0 0
1961 5 1.6049442795890756 7.412891699643489 0.016514746411658687 0 0 0
1958 1 3.2097720046064304 8.33939467598922 1.57619512794639 0 0 0
1967 5 4.814820640590075 7.412891699643489 0.01651474641165873 0 0 0
1956 5 6.0990888237968915e-06 10.19272617127749 0.016514746411658777 0 0 0
1962 5 3.2098824600898195 10.192726171277492 0.016514746411658753 0 0 0
2143 1 1.6048338241058215 11.119229147623221 1.5761951279463908 0 0 0
2149 1 4.814710185106821 11.119229147623221 1.5761951279463904 0 0 0
1964 1 6.419648365607429 8.33939467598922 1.5761951279463897 0 0 0
1973 5 8.024697001591072 7.412891699643489 0.016514746411658624 0 0 0
1970 1 9.629524726608429 8.33939467598922 1.5761951279463897 0 0 0
1979 5 11.234573362592073 7.412891699643488 0.016514746411658288 0 0 0
1968 5 6.419758821090819 10.19272617127749 0.016514746411658465 0 0 0
1974 5 9.62963518209182 10.192726171277492 0.01651474641165839 0 0 0
2155 1 8.02458654610782 11.119229147623221 1.5761951279463902 0 0 0
2161 1 11.23446290710882 11.119229147623221 1.5761951279463904 0 0 0
1976 1 12.83940108760943 8.33939467598922 1.57619512794639 0 0 0
1985 5 14.444449723593078 7.412891699643489 0.016514746411658527 0 0 0
1982 1 16.049277448610432 8.33939467598922 1.57619512794639 0 0 0
1980 5 12.839511543092822 10.192726171277492 0.016514746411658322 0 0 0
1986 5 16.049387904093823 10.192726171277492 0.01651474641165881 0 0 0
2167 1 14.444339268109823 11.119229147623221 1.5761951279463908 0 0 0
1991 5 17.65432608459407 7.412891699643489 0.01651474641165899 0 0 0
1988 1 19.25915380961143 8.33939467598922 1.5761951279463897 0 0 0
1997 5 20.86420244559507 7.412891699643489 0.01651474641165831 0 0 0
1994 1 22.469030170612427 8.33939467598922 1.57619512794639 0 0 0
1992 5 19.259264265094817 10.19272617127749 0.01651474641165843 0 0 0
1998 5 22.46914062609582 10.192726171277492 0.01651474641165837 0 0 0
2173 1 17.65421562911082 11.119229147623221 1.5761951279463904 0 0 0
2179 1 20.864091990111817 11.119229147623221 1.57619512794639 0 0 0
2003 5 24.074078806596074 7.412891699643488 0.01651474641165867 0 0 0
2000 1 25.67890653161343 8.33939467598922 1.5761951279463897 0 0 0
2009 5 27.28395516759707 7.412891699643489 0.016514746411658322 0 0 0
2006 1 28.88878289261443 8.33939467598922 1.57619512794639 0 0 0
2004 5 25.67901698709682 10.19272617127749 0.016514746411658534 0 0 0
2010 5 28.888893348097824 10.192726171277492 0.016514746411658426 0 0 0
2185 1 24.07396835111282 11.119229147623221 1.5761951279463906 0 0 0
2191 1 27.28384471211382 11.119229147623221 1.57619512794639 0 0 0
2015 5 30.493831528598076 7.412891699643488 0.01651474641165881 0 0 0
2021 5 33.70370788959907 7.412891699643489 0.016514746411658187 0 0 0
2012 1 32.09865925361543 8.33939467598922 1.57619512794639 0 0 0
2016 5 32.09876970909882 10.19272617127749 0.016514746411659044 0 0 0
2197 1 30.49372107311482 11.119229147623221 1.5761951279463908 0 0 0
2203 1 33.70359743411582 11.119229147623221 1.5761951279463902 0 0 0
2018 1 35.30853561461643 8.33939467598922 1.5761951279463895 0 0 0
2027 5 36.913584250600074 7.412891699643489 0.016514746411658503 0 0 0
2024 1 38.51841197561743 8.33939467598922 1.5761951279463897 0 0 0
2033 5 40.123460611601075 7.412891699643489 0.016514746411659054 0 0 0
2022 5 35.30864607009982 10.192726171277492 0.016514746411658496 0 0 0
2028 5 38.51852243110082 10.19272617127749 0.016514746411658433 0 0 0
2209 1 36.91347379511682 11.119229147623221 1.5761951279463906 0 0 0
2215 1 40.12335015611782 11.119229147623221 1.57619512794639 0 0 0
2030 1 41.72828833661843 8.33939467598922 1.57619512794639 0 0 0
2039 5 43.33333697260207 7.412891699643489 0.01651474641165837 0 0 0
2036 1 44.93816469761943 8.33939467598922 1.5761951279463897 0 0 0
2045 5 46.54321333360308 7.412891699643488 0.016514746411658718 0 0 0
2034 5 41.72839879210182 10.19272617127749 0.016514746411658336 0 0 0
2040 5 44.93827515310282 10.192726171277492 0.016514746411658617 0 0 0
2221 1 43.33322651711882 11.119229147623221 1.5761951279463902 0 0 0
2227 1 46.54310287811982 11.119229147623221 1.5761951279463908 0 0 0
2042 1 48.14804105862043 8.33939467598922 1.57619512794639 0 0 0
1865 5 49.75308969460407 7.41289169964349 0.016514746411658475 -1 0 0
1862 1 51.35791741962143 8.33939467598922 1.5761951279463897 -1 0 0
2046 5 48.148151514103816 10.192726171277492 0.016514746411658777 0 0 0
1866 5 51.35802787510482 10.192726171277492 0.016514746411658406 -1 0 0
2047 1 49.75297923912082 11.119229147623221 1.5761951279463902 -1 0 0
1871 5 52.96296605560507 7.412891699643489 0.016514746411658423 -1 0 0
1868 1 54.567793780622424 8.33939467598922 1.57619512794639 -1 0 0
1877 5 56.17284241660607 7.412891699643489 0.016514746411658416 -1 0 0
1874 1 57.777670141623425 8.33939467598922 1.5761951279463897 -1 0 0
1872 5 54.56790423610582 10.192726171277492 0.016514746411658458 -1 0 0
1878 5 57.77778059710682 10.192726171277492 0.0165147464116587 -1 0 0
2053 1 52.96285560012182 11.119229147623221 1.5761951279463904 -1 0 0
2059 1 56.17273196112282 11.119229147623221 1.5761951279463904 -1 0 0
1883 5 59.382718777607074 7.412891699643489 0.01651474641165877 -1 0 0
1880 1 60.987546502624426 8.33939467598922 1.5761951279463902 -1 0 0
1889 5 62.59259513860807 7.412891699643489 0.01651474641165803 -1 0 0
1886 1 64.19742286362543 8.33939467598922 1.5761951279463895 -1 0 0
1884 5 60.98765695810782 10.19272617127749 0.01651474641165821 -1 0 0
1890 5 64.19753331910883 10.192726171277492 0.016514746411658256 -1 0 0
2065 1 59.382608322123815 11.119229147623221 1.5761951279463904 -1 0 0
2071 1 62.592484683124816 11.119229147623221 1.57619512794639 -1 0 0
1895 5 65.80247149960908 7.412891699643488 0.01651474641165833 -1 0 0
1892 1 67.40729922462643 8.33939467598922 1.57619512794639 -1 0 0
1901 5 69.01234786061008 7.412891699643489 0.016514746411658964 -1 0 0
1896 5 67.40740968010982 10.192726171277492 0.01651474641165911 -1 0 0
2077 1 65.80236104412582 11.119229147623221 1.576195127946391 -1 0 0
2083 1 69.01223740512681 11.119229147623221 1.5761951279463904 -1 0 0
1898 1 70.61717558562742 8.33939467598922 1.5761951279463897 -1 0 0
1907 5 72.22222422161107 7.412891699643489 0.016514746411658406 -1 0 0
1904 1 73.82705194662843 8.33939467598922 1.57619512794639 -1 0 0
1913 5 75.43210058261208 7.412891699643488 0.016514746411658537 -1 0 0
1902 5 70.61728604111082 10.19272617127749 0.01651474641165831 -1 0 0
1908 5 73.82716240211182 10.192726171277492 0.016514746411658465 -1 0 0
2089 1 72.22211376612782 11.119229147623221 1.5761951279463897 -1 0 0
2095 1 75.43199012712881 11.119229147623221 1.5761951279463908 -1 0 0
1910 1 77.03692830762942 8.33939467598922 1.5761951279463897 -1 0 0
1919 5 78.64197694361307 7.412891699643489 0.01651474641165842 -1 0 0
1916 1 80.24680466863043 8.33939467598922 1.57619512794639 -1 0 0
1925 5 81.85185330461408 7.412891699643488 0.016514746411658492 -1 0 0
1914 5 77.03703876311282 10.19272617127749 0.016514746411658416 -1 0 0
1920 5 80.24691512411383 10.192726171277492 0.01651474641165843 -1 0 0
2101 1 78.64186648812982 11.119229147623221 1.57619512794639 -1 0 0
2107 1 81.85174284913082 11.119229147623221 1.576195127946391 -1 0 0
1922 1 83.45668102963143 8.33939467598922 1.57619512794639 -1 0 0
1931 5 85.06172966561508 7.412891699643489 0.016514746411658964 -1 0 0
1928 1 86.66655739063242 8.33939467598922 1.5761951279463897 -1 0 0
1926 5 83.45679148511482 10.192726171277492 0.016514746411659106 -1 0 0
1932 5 86.66666784611581 10.19272617127749 0.01651474641165834 -1 0 0
2113 1 85.06161921013181 11.119229147623221 1.5761951279463904 -1 0 0
1937 5 88.27160602661607 7.412891699643489 0.016514746411658468 -1 0 0
1934 1 89.87643375163343 8.33939467598922 1.5761951279463897 -1 0 0
1943 5 91.48148238761708 7.412891699643488 0.016514746411657996 -1 0 0
1940 1 93.08631011263444 8.33939467598922 1.57619512794639 -1 0 0
1938 5 89.87654420711682 10.19272617127749 0.016514746411657778 -1 0 0
1944 5 93.08642056811783 10.192726171277492 0.01651474641165853 -1 0 0
2119 1 88.27149557113282 11.119229147623221 1.5761951279463897 -1 0 0
2125 1 91.48137193213381 11.119229147623221 1.5761951279463904 -1 0 0
1952 1 99.50606283463642 8.339394675989219 1.5761951279463897 -1 0 0
1949 5 94.69135874861809 7.412891699643488 0.016514746411658517 -1 0 0
1946 1 96.29618647363543 8.33939467598922 1.5761951279463897 -1 0 0
1955 5 97.90123510961908 7.412891699643489 0.01651474641165924 -1 0 0
1950 5 96.29629692911882 10.192726171277492 0.016514746411659148 -1 0 0
2131 1 94.69124829313482 11.119229147623221 1.576195127946391 -1 0 0
2137 1 97.90112465413581 11.119229147623221 1.57619512794639 -1 0 0
2147 5 1.6049442795890756 12.972560642911489 0.016514746411659228 0 0 0
2144 1 3.2097720046064304 13.899063619257221 1.5761951279463902 0 0 0
2153 5 4.814820640590075 12.972560642911489 0.0165147464116592 0 0 0
2142 5 6.099088823728499e-06 15.752395114545486 0.016514746411658815 0 0 0
2148 5 3.2098824600898195 15.752395114545488 0.016514746411658586 0 0 0
2329 1 1.6048338241058215 16.67889809089122 1.57619512794639 0 0 0
2335 1 4.814710185106821 16.67889809089122 1.5761951279463895 0 0 0
2150 1 6.419648365607429 13.899063619257221 1.5761951279463902 0 0 0
2159 5 8.024697001591072 12.972560642911489 0.016514746411659134 0 0 0
2156 1 9.629524726608429 13.89906361925722 1.5761951279463902 0 0 0
2165 5 11.234573362592073 12.972560642911489 0.016514746411658843 0 0 0
2154 5 6.419758821090819 15.752395114545486 0.016514746411658385 0 0 0
2160 5 9.62963518209182 15.752395114545486 0.01651474641165836 0 0 0
2341 1 8.02458654610782 16.67889809089122 1.5761951279463893 0 0 0
2347 1 11.23446290710882 16.67889809089122 1.5761951279463897 0 0 0
2162 1 12.83940108760943 13.89906361925722 1.5761951279463902 0 0 0
2171 5 14.444449723593078 12.972560642911489 0.01651474641165907 0 0 0
2168 1 16.049277448610432 13.89906361925722 1.5761951279463904 0 0 0
2166 5 12.839511543092822 15.752395114545486 0.016514746411658326 0 0 0
2172 5 16.049387904093823 15.752395114545486 0.01651474641165868 0 0 0
2353 1 14.444339268109823 16.678898090891217 1.5761951279463897 0 0 0
2177 5 17.65432608459407 12.972560642911489 0.01651474641165946 0 0 0
2174 1 19.25915380961143 13.899063619257221 1.57619512794639 0 0 0
2183 5 20.86420244559507 12.972560642911489 0.016514746411658853 0 0 0
2180 1 22.469030170612427 13.89906361925722 1.5761951279463902 0 0 0
2178 5 19.259264265094817 15.752395114545486 0.01651474641165833 0 0 0
2184 5 22.46914062609582 15.752395114545486 0.016514746411658284 0 0 0
2359 1 17.65421562911082 16.67889809089122 1.5761951279463895 0 0 0
2365 1 20.864091990111817 16.67889809089122 1.576195127946389 0 0 0
2189 5 24.074078806596074 12.972560642911489 0.016514746411659124 0 0 0
2186 1 25.67890653161343 13.899063619257221 1.57619512794639 0 0 0
2195 5 27.28395516759707 12.972560642911489 0.016514746411658857 0 0 0
2192 1 28.88878289261443 13.89906361925722 1.5761951279463902 0 0 0
2190 5 25.67901698709682 15.752395114545486 0.016514746411658374 0 0 0
2196 5 28.888893348097824 15.752395114545486 0.016514746411658364 0 0 0
2371 1 24.07396835111282 16.678898090891217 1.57619512794639 0 0 0
2377 1 27.28384471211382 16.67889809089122 1.5761951279463893 0 0 0
2201 5 30.493831528598076 12.972560642911489 0.01651474641165932 0 0 0
2207 5 33.70370788959907 12.972560642911489 0.016514746411658773 0 0 0
2198 1 32.09865925361543 13.89906361925722 1.5761951279463904 0 0 0
2202 5 32.09876970909882 15.752395114545486 0.016514746411658853 0 0 0
2383 1 30.49372107311482 16.678898090891217 1.57619512794639 0 0 0
2389 1 33.70359743411582 16.67889809089122 1.5761951279463893 0 0 0
2204 1 35.30853561461643 13.899063619257221 1.57619512794639 0 0 0
2213 5 36.913584250600074 12.972560642911489 0.016514746411658954 0 0 0
2210 1 38.51841197561743 13.899063619257221 1.5761951279463902 0 0 0
2219 5 40.123460611601075 12.972560642911489 0.016514746411659433 0 0 0
2208 5 35.30864607009982 15.752395114545486 0.016514746411658395 0 0 0
2214 5 38.51852243110082 15.752395114545486 0.0165147464116583 0 0 0
2395 1 36.91347379511682 16.67889809089122 1.5761951279463897 0 0 0
2401 1 40.12335015611782 16.67889809089122 1.5761951279463893 0 0 0
2216 1 41.72828833661843 13.89906361925722 1.5761951279463902 0 0 0
2225 5 43.33333697260207 12.972560642911489 0.01651474641165891 0 0 0
2222 1 44.93816469761943 13.899063619257221 1.57619512794639 0 0 0
2231 5 46.54321333360308 12.972560642911489 0.01651474641165925 0 0 0
2220 5 41.72839879210182 15.752395114545486 0.016514746411658246 0 0 0
2226 5 44.93827515310282 15.752395114545486 0.016514746411658544 0 0 0
2407 1 43.33322651711882 16.67889809089122 1.5761951279463893 0 0 0
2413 1 46.54310287811982 16.678898090891217 1.57619512794639 0 0 0
2228 1 48.14804105862043 13.89906361925722 1.5761951279463906 0 0 0
2051 5 49.75308969460407 12.972560642911489 0.01651474641165905 -1 0 0
2048 1 51.35791741962143 13.899063619257221 1.5761951279463902 -1 0 0
2232 5 48.148151514103816 15.752395114545486 0.016514746411658617 0 0 0
2052 5 51.35802787510482 15.752395114545486 0.016514746411658364 -1 0 0
2233 1 49.75297923912082 16.67889809089122 1.5761951279463893 -1 0 0
2057 5 52.96296605560507 12.972560642911489 0.016514746411659044 -1 0 0
2054 1 54.567793780622424 13.899063619257221 1.5761951279463902 -1 0 0
2063 5 56.17284241660607 12.972560642911489 0.01651474641165903 -1 0 0
2060 1 57.777670141623425 13.899063619257221 1.57619512794639 -1 0 0
2058 5 54.56790423610582 15.752395114545486 0.0165147464116584 -1 0 0
2064 5 57.77778059710682 15.752395114545486 0.01651474641165856 -1 0 0
2239 1 52.96285560012182 16.67889809089122 1.5761951279463895 -1 0 0
2245 1 56.17273196112282 16.67889809089122 1.5761951279463893 -1 0 0
2069 5 59.382718777607074 12.972560642911489 0.01651474641165931 -1 0 0
2066 1 60.987546502624426 13.89906361925722 1.5761951279463904 -1 0 0
2075 5 62.59259513860807 12.972560642911489 0.016514746411658565 -1 0 0
2072 1 64.19742286362543 13.899063619257221 1.5761951279463897 -1 0 0
2070 5 60.98765695810782 15.752395114545486 0.016514746411658135 -1 0 0
2076 5 64.19753331910883 15.752395114545486 0.0165147464116582 -1 0 0
2251 1 59.382608322123815 16.67889809089122 1.5761951279463895 -1 0 0
2257 1 62.592484683124816 16.67889809089122 1.5761951279463888 -1 0 0
2081 5 65.80247149960908 12.972560642911489 0.016514746411658846 -1 0 0
2078 1 67.40729922462643 13.89906361925722 1.5761951279463904 -1 0 0
2087 5 69.01234786061008 12.972560642911489 0.016514746411659478 -1 0 0
2082 5 67.40740968010982 15.752395114545486 0.016514746411658916 -1 0 0
2263 1 65.80236104412582 16.678898090891217 1.57619512794639 -1 0 0
2269 1 69.01223740512681 16.67889809089122 1.5761951279463895 -1 0 0
2084 1 70.61717558562742 13.899063619257221 1.57619512794639 -1 0 0
2093 5 72.22222422161107 12.972560642911489 0.016514746411658895 -1 0 0
2090 1 73.82705194662843 13.89906361925722 1.5761951279463902 -1 0 0
2099 5 75.43210058261208 12.972560642911489 0.016514746411658992 -1 0 0
2088 5 70.61728604111082 15.752395114545486 0.016514746411658232 -1 0 0
2094 5 73.82716240211182 15.752395114545486 0.01651474641165838 -1 0 0
2275 1 72.22211376612782 16.67889809089122 1.5761951279463888 -1 0 0
2281 1 75.43199012712881 16.678898090891217 1.5761951279463902 -1 0 0
2096 1 77.03692830762942 13.89906361925722 1.5761951279463902 -1 0 0
2105 5 78.64197694361307 12.972560642911489 0.0165147464116589 -1 0 0
2102 1 80.24680466863043 13.89906361925722 1.5761951279463902 -1 0 0
2111 5 81.85185330461408 12.972560642911489 0.01651474641165901 -1 0 0
2100 5 77.03703876311282 15.752395114545486 0.01651474641165828 -1 0 0
2106 5 80.24691512411383 15.752395114545486 0.016514746411658374 -1 0 0
2287 1 78.64186648812982 16.67889809089122 1.576195127946389 -1 0 0
2293 1 81.85174284913082 16.678898090891217 1.5761951279463902 -1 0 0
2108 1 83.45668102963143 13.89906361925722 1.5761951279463904 -1 0 0
2117 5 85.06172966561508 12.972560642911489 0.016514746411659478 -1 0 0
2114 1 86.66655739063242 13.899063619257221 1.5761951279463902 -1 0 0
2112 5 83.45679148511482 15.752395114545486 0.01651474641165892 -1 0 0
2118 5 86.66666784611581 15.752395114545486 0.016514746411658243 -1 0 0
2299 1 85.06161921013181 16.67889809089122 1.5761951279463895 -1 0 0
2123 5 88.27160602661607 12.972560642911489 0.016514746411658867 -1 0 0
2120 1 89.87643375163343 13.899063619257221 1.5761951279463902 -1 0 0
2129 5 91.48148238761708 12.972560642911489 0.0165147464116584 -1 0 0
2126 1 93.08631011263444 13.89906361925722 1.5761951279463902 -1 0 0
2124 5 89.87654420711682 15.752395114545486 0.01651474641165783 -1 0 0
2130 5 93.08642056811783 15.752395114545486 0.016514746411658465 -1 0 0
2305 1 88.27149557113282 16.67889809089122 1.5761951279463888 -1 0 0
2311 1 91.48137193213381 16.67889809089122 1.5761951279463895 -1 0 0
2138 1 99.50606283463642 13.89906361925722 1.57619512794639 -1 0 0
2135 5 94.69135874861809 12.972560642911489 0.01651474641165902 -1 0 0
2132 1 96.29618647363543 13.89906361925722 1.5761951279463902 -1 0 0
2141 5 97.90123510961908 12.972560642911489 0.01651474641165978 -1 0 0
2136 5 96.29629692911882 15.752395114545486 0.016514746411658954 -1 0 0
2317 1 94.69124829313482 16.678898090891217 1.5761951279463902 -1 0 0
2323 1 97.90112465413581 16.67889809089122 1.576195127946389 -1 0 0
2333 5 1.6049442795890756 18.53222958617949 0.016514746411658357 0 0 0
2339 5 4.814820640590075 18.53222958617949 0.016514746411658288 0 0 0
2330 1 3.2097720046064304 19.45873256252522 1.5761951279463902 0 0 0
2328 5 6.0990888237329185e-06 21.31206405781349 0.016514746411659148 0 0 0
2515 1 1.6048338241058215 22.23856703415922 1.5761951279463906 0 0 0
2334 5 3.2098824600898195 21.31206405781349 0.016514746411658905 0 0 0
2521 1 4.814710185106821 22.23856703415922 1.5761951279463904 0 0 0
2345 5 8.024697001591072 18.53222958617949 0.01651474641165823 0 0 0
2351 5 11.234573362592073 18.53222958617949 0.01651474641165788 0 0 0
2336 1 6.419648365607429 19.45873256252522 1.57619512794639 0 0 0
2342 1 9.629524726608429 19.45873256252522 1.57619512794639 0 0 0
2340 5 6.419758821090819 21.31206405781349 0.016514746411658742 0 0 0
2527 1 8.02458654610782 22.23856703415922 1.57619512794639 0 0 0
2346 5 9.62963518209182 21.31206405781349 0.01651474641165872 0 0 0
2533 1 11.23446290710882 22.23856703415922 1.5761951279463902 0 0 0
2357 5 14.444449723593078 18.53222958617949 0.01651474641165828 0 0 0
2348 1 12.839401087609431 19.45873256252522 1.57619512794639 0 0 0
2354 1 16.049277448610432 19.45873256252522 1.5761951279463902 0 0 0
2352 5 12.839511543092822 21.31206405781349 0.016514746411658718 0 0 0
2539 1 14.444339268109823 22.23856703415922 1.5761951279463904 0 0 0
2358 5 16.049387904093823 21.31206405781349 0.016514746411658995 0 0 0
2363 5 17.65432608459407 18.53222958617949 0.016514746411658558 0 0 0
2369 5 20.86420244559507 18.53222958617949 0.016514746411657923 0 0 0
2360 1 19.25915380961143 19.45873256252522 1.5761951279463897 0 0 0
2366 1 22.46903017061243 19.45873256252522 1.5761951279463902 0 0 0
2545 1 17.65421562911082 22.23856703415922 1.5761951279463902 0 0 0
2364 5 19.259264265094817 21.31206405781349 0.016514746411658687 0 0 0
2551 1 20.864091990111817 22.23856703415922 1.57619512794639 0 0 0
2370 5 22.46914062609582 21.31206405781349 0.016514746411658666 0 0 0
2375 5 24.074078806596074 18.53222958617949 0.01651474641165838 0 0 0
2381 5 27.28395516759707 18.53222958617949 0.016514746411657934 0 0 0
2372 1 25.67890653161343 19.45873256252522 1.57619512794639 0 0 0
2378 1 28.888782892614433 19.45873256252522 1.5761951279463902 0 0 0
2557 1 24.07396835111282 22.23856703415922 1.5761951279463906 0 0 0
2376 5 25.67901698709682 21.31206405781349 0.0165147464116588 0 0 0
2563 1 27.28384471211382 22.23856703415922 1.57619512794639 0 0 0
2382 5 28.888893348097824 21.31206405781349 0.016514746411658742 0 0 0
2387 5 30.493831528598076 18.532229586179486 0.01651474641165854 0 0 0
2393 5 33.70370788959907 18.53222958617949 0.01651474641165788 0 0 0
2384 1 32.09865925361543 19.45873256252522 1.5761951279463902 0 0 0
2569 1 30.49372107311482 22.23856703415922 1.5761951279463908 0 0 0
2388 5 32.09876970909882 21.31206405781349 0.016514746411659297 0 0 0
2575 1 33.70359743411582 22.23856703415922 1.5761951279463902 0 0 0
2399 5 36.913584250600074 18.53222958617949 0.0165147464116581 0 0 0
2405 5 40.123460611601075 18.53222958617949 0.016514746411658603 0 0 0
2390 1 35.30853561461643 19.45873256252522 1.5761951279463897 0 0 0
2396 1 38.51841197561743 19.45873256252522 1.57619512794639 0 0 0
2394 5 35.30864607009982 21.31206405781349 0.01651474641165876 0 0 0
2581 1 36.91347379511682 22.23856703415922 1.5761951279463906 0 0 0
2400 5 38.51852243110082 21.31206405781349 0.01651474641165868 0 0 0
2587 1 40.12335015611782 22.23856703415922 1.57619512794639 0 0 0
2411 5 43.33333697260207 18.53222958617949 0.016514746411658007 0 0 0
2417 5 46.54321333360308 18.532229586179486 0.01651474641165846 0 0 0
2402 1 41.72828833661843 19.45873256252522 1.5761951279463902 0 0 0
2408 1 44.93816469761943 19.45873256252522 1.5761951279463897 0 0 0