LAMMPS data file via write_data, version 29 Aug 2024, timestep = 0, units = metal

3348 atoms
3 atom types

0 99.506167191031 xlo xhi
0 100.074040978824 ylo yhi
0 18.156217925846 zlo zhi

Masses

1 183.84
2 32.06
3 32.06

Atoms # atomic

1771 1 1.604938180500504 0 1.5772002092970006 0 0 0
1777 1 4.814814541501505 0 1.5772002092970006 0 0 0
1783 1 8.024690902502499 0 1.5772002092970006 0 0 0
1789 1 11.2345672635035 0 1.5772002092970006 0 0 0
1795 1 14.444443624504508 0 1.5772002092970006 0 0 0
1801 1 17.654319985505502 0 1.5772002092970006 0 0 0
1807 1 20.864196346506496 0 1.5772002092970006 0 0 0
1813 1 24.074072707507504 0 1.5772002092970006 0 0 0
1819 1 27.283949068508498 0 1.5772002092970006 0 0 0
1825 1 30.493825429509506 0 1.5772002092970006 0 0 0
1831 1 33.7037017905105 0 1.5772002092970006 0 0 0
1837 1 36.91357815151151 0 1.5772002092970006 0 0 0
1843 1 40.1234545125125 0 1.5772002092970006 0 0 0
1849 1 43.333330873513496 0 1.5772002092970006 0 0 0
1855 1 46.543207234514504 0 1.5772002092970006 0 0 0
1675 1 49.7530835955155 0 1.5772002092970006 -1 0 0
1681 1 52.9629599565165 0 1.5772002092970006 -1 0 0
1687 1 56.1728363175175 0 1.5772002092970006 -1 0 0
1693 1 59.3827126785185 0 1.5772002092970006 -1 0 0
1699 1 62.592589039519495 0 1.5772002092970006 -1 0 0
1705 1 65.8024654005205 0 1.5772002092970006 -1 0 0
1711 1 69.0123417615215 0 1.5772002092970006 -1 0 0
1717 1 72.22221812252249 0 1.5772002092970006 -1 0 0
1723 1 75.4320944835235 0 1.5772002092970006 -1 0 0
1729 1 78.6419708445245 0 1.5772002092970006 -1 0 0
1735 1 81.8518472055255 0 1.5772002092970006 -1 0 0
1741 1 85.0617235665265 0 1.5772002092970006 -1 0 0
1747 1 88.27159992752749 0 1.5772002092970006 -1 0 0
1753 1 91.4814762885285 0 1.5772002092970006 -1 0 0
1759 1 94.6913526495295 0 1.5772002092970006 -1 0 0
1765 1 97.9012290105305 0 1.5772002092970006 -1 0 0
1775 3 1.604938180500504 1.8532229810889973 0 0 0 0
1766 1 5.044853423896711e-13 2.779834471633997 1.5772002092970006 0 0 0
1772 1 3.2098763610014984 2.779834471633997 1.5772002092970006 0 0 0
1781 3 4.814814541501505 1.8532229810889973 0 0 0 0
1778 1 6.4197527220024995 2.779834471633997 1.5772002092970006 0 0 0
1787 3 8.024690902502499 1.8532229810889973 0 0 0 0
1784 1 9.6296290830035 2.779834471633997 1.5772002092970006 0 0 0
1793 3 11.2345672635035 1.8532229810889973 0 0 0 0
1790 1 12.839505444004502 2.779834471633997 1.5772002092970006 0 0 0
1799 3 14.444443624504508 1.8532229810889973 0 0 0 0
1805 3 17.654319985505502 1.8532229810889973 0 0 0 0
1796 1 16.049381805005503 2.779834471633997 1.5772002092970006 0 0 0
1802 1 19.259258166006497 2.779834471633997 1.5772002092970006 0 0 0
1811 3 20.864196346506496 1.8532229810889973 0 0 0 0
1808 1 22.469134527007505 2.779834471633997 1.5772002092970006 0 0 0
1817 3 24.074072707507504 1.8532229810889973 0 0 0 0
1814 1 25.6790108880085 2.779834471633997 1.5772002092970006 0 0 0
1823 3 27.283949068508498 1.8532229810889973 0 0 0 0
1820 1 28.888887249009507 2.779834471633997 1.5772002092970006 0 0 0
1829 3 30.493825429509506 1.8532229810889973 0 0 0 0
1835 3 33.7037017905105 1.8532229810889973 0 0 0 0
1826 1 32.0987636100105 2.779834471633997 1.5772002092970006 0 0 0
1832 1 35.308639971011495 2.779834471633997 1.5772002092970006 0 0 0
1841 3 36.91357815151151 1.8532229810889973 0 0 0 0
1838 1 38.5185163320125 2.779834471633997 1.5772002092970006 0 0 0
1847 3 40.1234545125125 1.8532229810889973 0 0 0 0
1844 1 41.7283926930135 2.779834471633997 1.5772002092970006 0 0 0
1853 3 43.333330873513496 1.8532229810889973 0 0 0 0
1850 1 44.938269054014505 2.779834471633997 1.5772002092970006 0 0 0
1859 3 46.543207234514504 1.8532229810889973 0 0 0 0
1856 1 48.1481454150155 2.779834471633997 1.5772002092970006 0 0 0
1679 3 49.7530835955155 1.8532229810889973 0 -1 0 0
1676 1 51.3580217760165 2.779834471633997 1.5772002092970006 -1 0 0
1685 3 52.9629599565165 1.8532229810889973 0 -1 0 0
1682 1 54.5678981370175 2.779834471633997 1.5772002092970006 -1 0 0
1691 3 56.1728363175175 1.8532229810889973 0 -1 0 0
1688 1 57.7777744980185 2.779834471633997 1.5772002092970006 -1 0 0
1697 3 59.3827126785185 1.8532229810889973 0 -1 0 0
1694 1 60.987650859019496 2.779834471633997 1.5772002092970006 -1 0 0
1703 3 62.592589039519495 1.8532229810889973 0 -1 0 0
1700 1 64.1975272200205 2.779834471633997 1.5772002092970006 -1 0 0
1709 3 65.8024654005205 1.8532229810889973 0 -1 0 0
1706 1 67.4074035810215 2.779834471633997 1.5772002092970006 -1 0 0
1715 3 69.0123417615215 1.8532229810889973 0 -1 0 0
1712 1 70.61727994202249 2.779834471633997 1.5772002092970006 -1 0 0
1721 3 72.22221812252249 1.8532229810889973 0 -1 0 0
1718 1 73.8271563030235 2.779834471633997 1.5772002092970006 -1 0 0
1727 3 75.4320944835235 1.8532229810889973 0 -1 0 0
1724 1 77.0370326640245 2.779834471633997 1.5772002092970006 -1 0 0
1733 3 78.6419708445245 1.8532229810889973 0 -1 0 0
1730 1 80.2469090250255 2.779834471633997 1.5772002092970006 -1 0 0
1739 3 81.8518472055255 1.8532229810889973 0 -1 0 0
1736 1 83.4567853860265 2.779834471633997 1.5772002092970006 -1 0 0
1745 3 85.0617235665265 1.8532229810889973 0 -1 0 0
1742 1 86.66666174702749 2.779834471633997 1.5772002092970006 -1 0 0
1751 3 88.27159992752749 1.8532229810889973 0 -1 0 0
1748 1 89.8765381080285 2.779834471633997 1.5772002092970006 -1 0 0
1757 3 91.4814762885285 1.8532229810889973 0 -1 0 0
1754 1 93.0864144690295 2.779834471633997 1.5772002092970006 -1 0 0
1763 3 94.6913526495295 1.8532229810889973 0 -1 0 0
1760 1 96.2962908300305 2.779834471633997 1.5772002092970006 -1 0 0
1769 3 97.9012290105305 1.8532229810889973 0 -1 0 0
1770 3 5.044853423896711e-13 4.633057452723001 0 0 0 0
1776 3 3.2098763610014984 4.633057452723001 0 0 0 0
1782 3 6.4197527220024995 4.633057452723001 0 0 0 0
1788 3 9.6296290830035 4.633057452723001 0 0 0 0
1794 3 12.839505444004502 4.633057452723001 0 0 0 0
1800 3 16.049381805005503 4.633057452723001 0 0 0 0
1806 3 19.259258166006497 4.633057452723001 0 0 0 0
1812 3 22.469134527007505 4.633057452723001 0 0 0 0
1818 3 25.6790108880085 4.633057452723001 0 0 0 0
1824 3 28.888887249009507 4.633057452723001 0 0 0 0
1830 3 32.0987636100105 4.633057452723001 0 0 0 0
1836 3 35.308639971011495 4.633057452723001 0 0 0 0
1842 3 38.5185163320125 4.633057452723001 0 0 0 0
1848 3 41.7283926930135 4.633057452723001 0 0 0 0
1854 3 44.938269054014505 4.633057452723001 0 0 0 0
1860 3 48.1481454150155 4.633057452723001 0 0 0 0
1680 3 51.3580217760165 4.633057452723001 0 -1 0 0
1686 3 54.5678981370175 4.633057452723001 0 -1 0 0
1692 3 57.7777744980185 4.633057452723001 0 -1 0 0
1698 3 60.987650859019496 4.633057452723001 0 -1 0 0
1704 3 64.1975272200205 4.633057452723001 0 -1 0 0
1710 3 67.4074035810215 4.633057452723001 0 -1 0 0
1716 3 70.61727994202249 4.633057452723001 0 -1 0 0
1722 3 73.8271563030235 4.633057452723001 0 -1 0 0
1728 3 77.0370326640245 4.633057452723001 0 -1 0 0
1734 3 80.2469090250255 4.633057452723001 0 -1 0 0
1740 3 83.4567853860265 4.633057452723001 0 -1 0 0
1746 3 86.66666174702749 4.633057452723001 0 -1 0 0
1752 3 89.8765381080285 4.633057452723001 0 -1 0 0
1758 3 93.0864144690295 4.633057452723001 0 -1 0 0
1764 3 96.2962908300305 4.633057452723001 0 -1 0 0
1957 1 1.604938180500504 5.559668943268001 1.5772002092970006 0 0 0
1963 1 4.814814541501505 5.559668943268001 1.5772002092970006 0 0 0
1969 1 8.024690902502499 5.559668943268001 1.5772002092970006 0 0 0
1975 1 11.2345672635035 5.559668943268001 1.5772002092970006 0 0 0
1981 1 14.444443624504508 5.559668943268001 1.5772002092970006 0 0 0
1987 1 17.654319985505502 5.559668943268001 1.5772002092970006 0 0 0
1993 1 20.864196346506496 5.559668943268001 1.5772002092970006 0 0 0
1999 1 24.074072707507504 5.559668943268001 1.5772002092970006 0 0 0
2005 1 27.283949068508498 5.559668943268001 1.5772002092970006 0 0 0
2011 1 30.493825429509506 5.559668943268001 1.5772002092970006 0 0 0
2017 1 33.7037017905105 5.559668943268001 1.5772002092970006 0 0 0
2023 1 36.91357815151151 5.559668943268001 1.5772002092970006 0 0 0
2029 1 40.1234545125125 5.559668943268001 1.5772002092970006 0 0 0
2035 1 43.333330873513496 5.559668943268001 1.5772002092970006 0 0 0
2041 1 46.543207234514504 5.559668943268001 1.5772002092970006 0 0 0
1861 1 49.7530835955155 5.559668943268001 1.5772002092970006 -1 0 0
1867 1 52.9629599565165 5.559668943268001 1.5772002092970006 -1 0 0
1873 1 56.1728363175175 5.559668943268001 1.5772002092970006 -1 0 0
1879 1 59.3827126785185 5.559668943268001 1.5772002092970006 -1 0 0
1885 1 62.592589039519495 5.559668943268001 1.5772002092970006 -1 0 0
1891 1 65.8024654005205 5.559668943268001 1.5772002092970006 -1 0 0
1897 1 69.0123417615215 5.559668943268001 1.5772002092970006 -1 0 0
1903 1 72.22221812252249 5.559668943268001 1.5772002092970006 -1 0 0
1909 1 75.4320944835235 5.559668943268001 1.5772002092970006 -1 0 0
1915 1 78.6419708445245 5.559668943268001 1.5772002092970006 -1 0 0
1921 1 81.8518472055255 5.559668943268001 1.5772002092970006 -1 0 0
1927 1 85.0617235665265 5.559668943268001 1.5772002092970006 -1 0 0
1933 1 88.27159992752749 5.559668943268001 1.5772002092970006 -1 0 0
1939 1 91.4814762885285 5.559668943268001 1.5772002092970006 -1 0 0
1945 1 94.6913526495295 5.559668943268001 1.5772002092970006 -1 0 0
1951 1 97.9012290105305 5.559668943268001 1.5772002092970006 -1 0 0
1961 3 1.604938180500504 7.412891924356998 0 0 0 0
1952 1 5.044853423896711e-13 8.339503414901998 1.5772002092970006 0 0 0
1958 1 3.2098763610014984 8.339503414901998 1.5772002092970006 0 0 0
1967 3 4.814814541501505 7.412891924356998 0 0 0 0
1964 1 6.4197527220024995 8.339503414901998 1.5772002092970006 0 0 0
1973 3 8.024690902502499 7.412891924356998 0 0 0 0
1970 1 9.6296290830035 8.339503414901998 1.5772002092970006 0 0 0
1979 3 11.2345672635035 7.412891924356998 0 0 0 0
1976 1 12.839505444004502 8.339503414901998 1.5772002092970006 0 0 0
1985 3 14.444443624504508 7.412891924356998 0 0 0 0
1991 3 17.654319985505502 7.412891924356998 0 0 0 0
1982 1 16.049381805005503 8.339503414901998 1.5772002092970006 0 0 0
1988 1 19.259258166006497 8.339503414901998 1.5772002092970006 0 0 0
1997 3 20.864196346506496 7.412891924356998 0 0 0 0
1994 1 22.469134527007505 8.339503414901998 1.5772002092970006 0 0 0
2003 3 24.074072707507504 7.412891924356998 0 0 0 0
2000 1 25.6790108880085 8.339503414901998 1.5772002092970006 0 0 0
2009 3 27.283949068508498 7.412891924356998 0 0 0 0
2006 1 28.888887249009507 8.339503414901998 1.5772002092970006 0 0 0
2015 3 30.493825429509506 7.412891924356998 0 0 0 0
2021 3 33.7037017905105 7.412891924356998 0 0 0 0
2012 1 32.0987636100105 8.339503414901998 1.5772002092970006 0 0 0
2018 1 35.308639971011495 8.339503414901998 1.5772002092970006 0 0 0
2027 3 36.91357815151151 7.412891924356998 0 0 0 0
2024 1 38.5185163320125 8.339503414901998 1.5772002092970006 0 0 0
2033 3 40.1234545125125 7.412891924356998 0 0 0 0
2030 1 41.7283926930135 8.339503414901998 1.5772002092970006 0 0 0
2039 3 43.333330873513496 7.412891924356998 0 0 0 0
2036 1 44.938269054014505 8.339503414901998 1.5772002092970006 0 0 0
2045 3 46.543207234514504 7.412891924356998 0 0 0 0
2042 1 48.1481454150155 8.339503414901998 1.5772002092970006 0 0 0
1865 3 49.7530835955155 7.412891924356998 0 -1 0 0
1862 1 51.3580217760165 8.339503414901998 1.5772002092970006 -1 0 0
1871 3 52.9629599565165 7.412891924356998 0 -1 0 0
1868 1 54.5678981370175 8.339503414901998 1.5772002092970006 -1 0 0
1877 3 56.1728363175175 7.412891924356998 0 -1 0 0
1874 1 57.7777744980185 8.339503414901998 1.5772002092970006 -1 0 0
1883 3 59.3827126785185 7.412891924356998 0 -1 0 0
1880 1 60.987650859019496 8.339503414901998 1.5772002092970006 -1 0 0
1889 3 62.592589039519495 7.412891924356998 0 -1 0 0
1886 1 64.1975272200205 8.339503414901998 1.5772002092970006 -1 0 0
1895 3 65.8024654005205 7.412891924356998 0 -1 0 0
1892 1 67.4074035810215 8.339503414901998 1.5772002092970006 -1 0 0
1901 3 69.0123417615215 7.412891924356998 0 -1 0 0
1898 1 70.61727994202249 8.339503414901998 1.5772002092970006 -1 0 0
1907 3 72.22221812252249 7.412891924356998 0 -1 0 0
1904 1 73.8271563030235 8.339503414901998 1.5772002092970006 -1 0 0
1913 3 75.4320944835235 7.412891924356998 0 -1 0 0
1910 1 77.0370326640245 8.339503414901998 1.5772002092970006 -1 0 0
1919 3 78.6419708445245 7.412891924356998 0 -1 0 0
1916 1 80.2469090250255 8.339503414901998 1.5772002092970006 -1 0 0
1925 3 81.8518472055255 7.412891924356998 0 -1 0 0
1922 1 83.4567853860265 8.339503414901998 1.5772002092970006 -1 0 0
1931 3 85.0617235665265 7.412891924356998 0 -1 0 0
1928 1 86.66666174702749 8.339503414901998 1.5772002092970006 -1 0 0
1937 3 88.27159992752749 7.412891924356998 0 -1 0 0
1934 1 89.8765381080285 8.339503414901998 1.5772002092970006 -1 0 0
1943 3 91.4814762885285 7.412891924356998 0 -1 0 0
1940 1 93.0864144690295 8.339503414901998 1.5772002092970006 -1 0 0
1949 3 94.6913526495295 7.412891924356998 0 -1 0 0
1946 1 96.2962908300305 8.339503414901998 1.5772002092970006 -1 0 0
1955 3 97.9012290105305 7.412891924356998 0 -1 0 0
1956 3 5.044853423896711e-13 10.192726395991002 0 0 0 0
1962 3 3.2098763610014984 10.192726395991002 0 0 0 0
1968 3 6.4197527220024995 10.192726395991002 0 0 0 0
1974 3 9.6296290830035 10.192726395991002 0 0 0 0
1980 3 12.839505444004502 10.192726395991002 0 0 0 0
1986 3 16.049381805005503 10.192726395991002 0 0 0 0
1992 3 19.259258166006497 10.192726395991002 0 0 0 0
1998 3 22.469134527007505 10.192726395991002 0 0 0 0
2004 3 25.6790108880085 10.192726395991002 0 0 0 0
2010 3 28.888887249009507 10.192726395991002 0 0 0 0
2016 3 32.0987636100105 10.192726395991002 0 0 0 0
2022 3 35.308639971011495 10.192726395991002 0 0 0 0
2028 3 38.5185163320125 10.192726395991002 0 0 0 0
2034 3 41.7283926930135 10.192726395991002 0 0 0 0
2040 3 44.938269054014505 10.192726395991002 0 0 0 0
2046 3 48.1481454150155 10.192726395991002 0 0 0 0
1866 3 51.3580217760165 10.192726395991002 0 -1 0 0
1872 3 54.5678981370175 10.192726395991002 0 -1 0 0
1878 3 57.7777744980185 10.192726395991002 0 -1 0 0
1884 3 60.987650859019496 10.192726395991002 0 -1 0 0
1890 3 64.1975272200205 10.192726395991002 0 -1 0 0
1896 3 67.4074035810215 10.192726395991002 0 -1 0 0
1902 3 70.61727994202249 10.192726395991002 0 -1 0 0
1908 3 73.8271563030235 10.192726395991002 0 -1 0 0
1914 3 77.0370326640245 10.192726395991002 0 -1 0 0
1920 3 80.2469090250255 10.192726395991002 0 -1 0 0
1926 3 83.4567853860265 10.192726395991002 0 -1 0 0
1932 3 86.66666174702749 10.192726395991002 0 -1 0 0
1938 3 89.8765381080285 10.192726395991002 0 -1 0 0
1944 3 93.0864144690295 10.192726395991002 0 -1 0 0
1950 3 96.2962908300305 10.192726395991002 0 -1 0 0
2143 1 1.604938180500504 11.119337886536002 1.5772002092970006 0 0 0
2149 1 4.814814541501505 11.119337886536002 1.5772002092970006 0 0 0
2155 1 8.024690902502499 11.119337886536002 1.5772002092970006 0 0 0
2161 1 11.2345672635035 11.119337886536002 1.5772002092970006 0 0 0
2167 1 14.444443624504508 11.119337886536002 1.5772002092970006 0 0 0
2173 1 17.654319985505502 11.119337886536002 1.5772002092970006 0 0 0
2179 1 20.864196346506496 11.119337886536002 1.5772002092970006 0 0 0
2185 1 24.074072707507504 11.119337886536002 1.5772002092970006 0 0 0
2191 1 27.283949068508498 11.119337886536002 1.5772002092970006 0 0 0
2197 1 30.493825429509506 11.119337886536002 1.5772002092970006 0 0 0
2203 1 33.7037017905105 11.119337886536002 1.5772002092970006 0 0 0
2209 1 36.91357815151151 11.119337886536002 1.5772002092970006 0 0 0
2215 1 40.1234545125125 11.119337886536002 1.5772002092970006 0 0 0
2221 1 43.333330873513496 11.119337886536002 1.5772002092970006 0 0 0
2227 1 46.543207234514504 11.119337886536002 1.5772002092970006 0 0 0
2047 1 49.7530835955155 11.119337886536002 1.5772002092970006 -1 0 0
2053 1 52.9629599565165 11.119337886536002 1.5772002092970006 -1 0 0
2059 1 56.1728363175175 11.119337886536002 1.5772002092970006 -1 0 0
2065 1 59.3827126785185 11.119337886536002 1.5772002092970006 -1 0 0
2071 1 62.592589039519495 11.119337886536002 1.5772002092970006 -1 0 0
2077 1 65.8024654005205 11.119337886536002 1.5772002092970006 -1 0 0
2083 1 69.0123417615215 11.119337886536002 1.5772002092970006 -1 0 0
2089 1 72.22221812252249 11.119337886536002 1.5772002092970006 -1 0 0
2095 1 75.4320944835235 11.119337886536002 1.5772002092970006 -1 0 0
2101 1 78.6419708445245 11.119337886536002 1.5772002092970006 -1 0 0
2107 1 81.8518472055255 11.119337886536002 1.5772002092970006 -1 0 0
2113 1 85.0617235665265 11.119337886536002 1.5772002092970006 -1 0 0
2119 1 88.27159992752749 11.119337886536002 1.5772002092970006 -1 0 0
2125 1 91.4814762885285 11.119337886536002 1.5772002092970006 -1 0 0
2131 1 94.6913526495295 11.119337886536002 1.5772002092970006 -1 0 0
2137 1 97.9012290105305 11.119337886536002 1.5772002092970006 -1 0 0
2147 3 1.604938180500504 12.972560867624999 0 0 0 0
2138 1 5.044853423896711e-13 13.899172358169999 1.5772002092970006 0 0 0
2144 1 3.2098763610014984 13.899172358169999 1.5772002092970006 0 0 0
2153 3 4.814814541501505 12.972560867624999 0 0 0 0
2150 1 6.4197527220024995 13.899172358169999 1.5772002092970006 0 0 0
2159 3 8.024690902502499 12.972560867624999 0 0 0 0
2156 1 9.6296290830035 13.899172358169999 1.5772002092970006 0 0 0
2165 3 11.2345672635035 12.972560867624999 0 0 0 0
2162 1 12.839505444004502 13.899172358169999 1.5772002092970006 0 0 0
2171 3 14.444443624504508 12.972560867624999 0 0 0 0
2177 3 17.654319985505502 12.972560867624999 0 0 0 0
2168 1 16.049381805005503 13.899172358169999 1.5772002092970006 0 0 0
2174 1 19.259258166006497 13.899172358169999 1.5772002092970006 0 0 0
2183 3 20.864196346506496 12.972560867624999 0 0 0 0
2180 1 22.469134527007505 13.899172358169999 1.5772002092970006 0 0 0
2189 3 24.074072707507504 12.972560867624999 0 0 0 0
2186 1 25.6790108880085 13.899172358169999 1.5772002092970006 0 0 0
2195 3 27.283949068508498 12.972560867624999 0 0 0 0
2192 1 28.888887249009507 13.899172358169999 1.5772002092970006 0 0 0
2201 3 30.493825429509506 12.972560867624999 0 0 0 0
2207 3 33.7037017905105 12.972560867624999 0 0 0 0
2198 1 32.0987636100105 13.899172358169999 1.5772002092970006 0 0 0
2204 1 35.308639971011495 13.899172358169999 1.5772002092970006 0 0 0
2213 3 36.91357815151151 12.972560867624999 0 0 0 0
2210 1 38.5185163320125 13.899172358169999 1.5772002092970006 0 0 0
2219 3 40.1234545125125 12.972560867624999 0 0 0 0
2216 1 41.7283926930135 13.899172358169999 1.5772002092970006 0 0 0
2225 3 43.333330873513496 12.972560867624999 0 0 0 0
2222 1 44.938269054014505 13.899172358169999 1.5772002092970006 0 0 0
2231 3 46.543207234514504 12.972560867624999 0 0 0 0
2228 1 48.1481454150155 13.899172358169999 1.5772002092970006 0 0 0
2051 3 49.7530835955155 12.972560867624999 0 -1 0 0
2048 1 51.3580217760165 13.899172358169999 1.5772002092970006 -1 0 0
2057 3 52.9629599565165 12.972560867624999 0 -1 0 0
2054 1 54.5678981370175 13.899172358169999 1.5772002092970006 -1 0 0
2063 3 56.1728363175175 12.972560867624999 0 -1 0 0
2060 1 57.7777744980185 13.899172358169999 1.5772002092970006 -1 0 0
2069 3 59.3827126785185 12.972560867624999 0 -1 0 0
2066 1 60.987650859019496 13.899172358169999 1.5772002092970006 -1 0 0
2075 3 62.592589039519495 12.972560867624999 0 -1 0 0
2072 1 64.1975272200205 13.899172358169999 1.5772002092970006 -1 0 0
2081 3 65.8024654005205 12.972560867624999 0 -1 0 0
2078 1 67.4074035810215 13.899172358169999 1.5772002092970006 -1 0 0
2087 3 69.0123417615215 12.972560867624999 0 -1 0 0
2084 1 70.61727994202249 13.899172358169999 1.5772002092970006 -1 0 0
2093 3 72.22221812252249 12.972560867624999 0 -1 0 0
2090 1 73.8271563030235 13.899172358169999 1.5772002092970006 -1 0 0
2099 3 75.4320944835235 12.972560867624999 0 -1 0 0
2096 1 77.0370326640245 13.899172358169999 1.5772002092970006 -1 0 0
2105 3 78.6419708445245 12.972560867624999 0 -1 0 0
2102 1 80.2469090250255 13.899172358169999 1.5772002092970006 -1 0 0
2111 3 81.8518472055255 12.972560867624999 0 -1 0 0
2108 1 83.4567853860265 13.899172358169999 1.5772002092970006 -1 0 0
2117 3 85.0617235665265 12.972560867624999 0 -1 0 0
2114 1 86.66666174702749 13.899172358169999 1.5772002092970006 -1 0 0
2123 3 88.27159992752749 12.972560867624999 0 -1 0 0
2120 1 89.8765381080285 13.899172358169999 1.5772002092970006 -1 0 0
2129 3 91.4814762885285 12.972560867624999 0 -1 0 0
2126 1 93.0864144690295 13.899172358169999 1.5772002092970006 -1 0 0
2135 3 94.6913526495295 12.972560867624999 0 -1 0 0
2132 1 96.2962908300305 13.899172358169999 1.5772002092970006 -1 0 0
2141 3 97.9012290105305 12.972560867624999 0 -1 0 0
2142 3 5.044853423896711e-13 15.752395339258996 0 0 0 0
2148 3 3.2098763610014984 15.752395339258996 0 0 0 0
2154 3 6.4197527220024995 15.752395339258996 0 0 0 0
2160 3 9.6296290830035 15.752395339258996 0 0 0 0
2166 3 12.839505444004502 15.752395339258996 0 0 0 0
2172 3 16.049381805005503 15.752395339258996 0 0 0 0
2178 3 19.259258166006497 15.752395339258996 0 0 0 0
2184 3 22.469134527007505 15.752395339258996 0 0 0 0
2190 3 25.6790108880085 15.752395339258996 0 0 0 0
2196 3 28.888887249009507 15.752395339258996 0 0 0 0
2202 3 32.0987636100105 15.752395339258996 0 0 0 0
2208 3 35.308639971011495 15.752395339258996 0 0 0 0
2214 3 38.5185163320125 15.752395339258996 0 0 0 0
2220 3 41.7283926930135 15.752395339258996 0 0 0 0
2226 3 44.938269054014505 15.752395339258996 0 0 0 0
2232 3 48.1481454150155 15.752395339258996 0 0 0 0
2052 3 51.3580217760165 15.752395339258996 0 -1 0 0
2058 3 54.5678981370175 15.752395339258996 0 -1 0 0
2064 3 57.7777744980185 15.752395339258996 0 -1 0 0
2070 3 60.987650859019496 15.752395339258996 0 -1 0 0
2076 3 64.1975272200205 15.752395339258996 0 -1 0 0
2082 3 67.4074035810215 15.752395339258996 0 -1 0 0
2088 3 70.61727994202249 15.752395339258996 0 -1 0 0
2094 3 73.8271563030235 15.752395339258996 0 -1 0 0
2100 3 77.0370326640245 15.752395339258996 0 -1 0 0
2106 3 80.2469090250255 15.752395339258996 0 -1 0 0
2112 3 83.4567853860265 15.752395339258996 0 -1 0 0
2118 3 86.66666174702749 15.752395339258996 0 -1 0 0
2124 3 89.8765381080285 15.752395339258996 0 -1 0 0
2130 3 93.0864144690295 15.752395339258996 0 -1 0 0
2136 3 96.2962908300305 15.752395339258996 0 -1 0 0
2329 1 1.604938180500504 16.679006829803996 1.5772002092970006 0 0 0
2335 1 4.814814541501505 16.679006829803996 1.5772002092970006 0 0 0
2341 1 8.024690902502499 16.679006829803996 1.5772002092970006 0 0 0
2347 1 11.2345672635035 16.679006829803996 1.5772002092970006 0 0 0
2353 1 14.444443624504508 16.679006829803996 1.5772002092970006 0 0 0
2359 1 17.654319985505502 16.679006829803996 1.5772002092970006 0 0 0
2365 1 20.864196346506496 16.679006829803996 1.5772002092970006 0 0 0
2371 1 24.074072707507504 16.679006829803996 1.5772002092970006 0 0 0
2377 1 27.283949068508498 16.679006829803996 1.5772002092970006 0 0 0
2383 1 30.493825429509506 16.679006829803996 1.5772002092970006 0 0 0
2389 1 33.7037017905105 16.679006829803996 1.5772002092970006 0 0 0
2395 1 36.91357815151151 16.679006829803996 1.5772002092970006 0 0 0
2401 1 40.1234545125125 16.679006829803996 1.5772002092970006 0 0 0
2407 1 43.333330873513496 16.679006829803996 1.5772002092970006 0 0 0
2413 1 46.543207234514504 16.679006829803996 1.5772002092970006 0 0 0
2233 1 49.7530835955155 16.679006829803996 1.5772002092970006 -1 0 0
2239 1 52.9629599565165 16.679006829803996 1.5772002092970006 -1 0 0
2245 1 56.1728363175175 16.679006829803996 1.5772002092970006 -1 0 0
2251 1 59.3827126785185 16.679006829803996 1.5772002092970006 -1 0 0
2257 1 62.592589039519495 16.679006829803996 1.5772002092970006 -1 0 0
2263 1 65.8024654005205 16.679006829803996 1.5772002092970006 -1 0 0
2269 1 69.0123417615215 16.679006829803996 1.5772002092970006 -1 0 0
2275 1 72.22221812252249 16.679006829803996 1.5772002092970006 -1 0 0
2281 1 75.4320944835235 16.679006829803996 1.5772002092970006 -1 0 0
2287 1 78.6419708445245 16.679006829803996 1.5772002092970006 -1 0 0
2293 1 81.8518472055255 16.679006829803996 1.5772002092970006 -1 0 0
2299 1 85.0617235665265 16.679006829803996 1.5772002092970006 -1 0 0
2305 1 88.27159992752749 16.679006829803996 1.5772002092970006 -1 0 0
2311 1 91.4814762885285 16.679006829803996 1.5772002092970006 -1 0 0
2317 1 94.6913526495295 16.679006829803996 1.5772002092970006 -1 0 0
2323 1 97.9012290105305 16.679006829803996 1.5772002092970006 -1 0 0
2333 3 1.604938180500504 18.532229810893 0 0 0 0
2339 3 4.814814541501505 18.532229810893 0 0 0 0
2345 3 8.024690902502499 18.532229810893 0 0 0 0
2351 3 11.2345672635035 18.532229810893 0 0 0 0
2357 3 14.444443624504508 18.532229810893 0 0 0 0
2363 3 17.654319985505502 18.532229810893 0 0 0 0
2369 3 20.864196346506496 18.532229810893 0 0 0 0
2375 3 24.074072707507504 18.532229810893 0 0 0 0
2381 3 27.283949068508498 18.532229810893 0 0 0 0
2387 3 30.493825429509506 18.532229810893 0 0 0 0
2393 3 33.7037017905105 18.532229810893 0 0 0 0
2399 3 36.91357815151151 18.532229810893 0 0 0 0
2405 3 40.1234545125125 18.532229810893 0 0 0 0
2411 3 43.333330873513496 18.532229810893 0 0 0 0
2417 3 46.543207234514504 18.532229810893 0 0 0 0
2237 3 49.7530835955155 18.532229810893 0 -1 0 0
2243 3 52.9629599565165 18.532229810893 0 -1 0 0
2249 3 56.1728363175175 18.532229810893 0 -1 0 0
2255 3 59.3827126785185 18.532229810893 0 -1 0 0
2261 3 62.592589039519495 18.532229810893 0 -1 0 0
2267 3 65.8024654005205 18.532229810893 0 -1 0 0
2273 3 69.0123417615215 18.532229810893 0 -1 0 0
2279 3 72.22221812252249 18.532229810893 0 -1 0 0
2285 3 75.4320944835235 18.532229810893 0 -1 0 0
2291 3 78.6419708445245 18.532229810893 0 -1 0 0
2297 3 81.8518472055255 18.532229810893 0 -1 0 0
2303 3 85.0617235665265 18.532229810893 0 -1 0 0
2309 3 88.27159992752749 18.532229810893 0 -1 0 0
2315 3 91.4814762885285 18.532229810893 0 -1 0 0
2321 3 94.6913526495295 18.532229810893 0 -1 0 0
2327 3 97.9012290105305 18.532229810893 0 -1 0 0
2324 1 5.044853423896711e-13 19.458841301438 1.5772002092970006 0 0 0
2330 1 3.2098763610014984 19.458841301438 1.5772002092970006 0 0 0
2336 1 6.4197527220024995 19.458841301438 1.5772002092970006 0 0 0
2342 1 9.6296290830035 19.458841301438 1.5772002092970006 0 0 0
2348 1 12.839505444004502 19.458841301438 1.5772002092970006 0 0 0
2354 1 16.049381805005503 19.458841301438 1.5772002092970006 0 0 0
2360 1 19.259258166006497 19.458841301438 1.5772002092970006 0 0 0
2366 1 22.469134527007505 19.458841301438 1.5772002092970006 0 0 0
2372 1 25.6790108880085 19.458841301438 1.5772002092970006 0 0 0
2378 1 28.888887249009507 19.458841301438 1.5772002092970006 0 0 0
2384 1 32.0987636100105 19.458841301438 1.5772002092970006 0 0 0
2390 1 35.308639971011495 19.458841301438 1.5772002092970006 0 0 0
2396 1 38.5185163320125 19.458841301438 1.5772002092970006 0 0 0
2402 1 41.7283926930135 19.458841301438 1.5772002092970006 0 0 0
2408 1 44.938269054014505 19.458841301438 1.5772002092970006 0 0 0
2414 1 48.1481454150155 19.458841301438 1.5772002092970006 0 0 0
2234 1 51.3580217760165 19.458841301438 1.5772002092970006 -1 0 0
2240 1 54.5678981370175 19.458841301438 1.5772002092970006 -1 0 0
2246 1 57.7777744980185 19.458841301438 1.5772002092970006 -1 0 0
2252 1 60.987650859019496 19.458841301438 1.5772002092970006 -1 0 0
2258 1 64.1975272200205 19.458841301438 1.5772002092970006 -1 0 0
2264 1 67.4074035810215 19.458841301438 1.5772002092970006 -1 0 0
2270 1 70.61727994202249 19.458841301438 1.5772002092970006 -1 0 0
2276 1 73.8271563030235 19.458841301438 1.5772002092970006 -1 0 0
2282 1 77.0370326640245 19.458841301438 1.5772002092970006 -1 0 0
2288 1 80.2469090250255 19.458841301438 1.5772002092970006 -1 0 0
2294 1 83.4567853860265 19.458841301438 1.5772002092970006 -1 0 0
2300 1 86.66666174702749 19.458841301438 1.5772002092970006 -1 0 0
2306 1 89.8765381080285 19.458841301438 1.5772002092970006 -1 0 0
2312 1 93.0864144690295 19.458841301438 1.5772002092970006 -1 0 0
2318 1 96.2962908300305 19.458841301438 1.5772002092970006 -1 0 0
2328 3 5.044853423896711e-13 21.312064282527004 0 0 0 0
2515 1 1.604938180500504 22.238675773072003 1.5772002092970006 0 0 0
2334 3 3.2098763610014984 21.312064282527004 0 0 0 0
2521 1 4.814814541501505 22.238675773072003 1.5772002092970006 0 0 0
2340 3 6.4197527220024995 21.312064282527004 0 0 0 0
2527 1 8.024690902502499 22.238675773072003 1.5772002092970006 0 0 0
2346 3 9.6296290830035 21.312064282527004 0 0 0 0
2533 1 11.2345672635035 22.238675773072003 1.5772002092970006 0 0 0
2352 3 12.839505444004502 21.312064282527004 0 0 0 0
2539 1 14.444443624504508 22.238675773072003 1.5772002092970006 0 0 0
2358 3 16.049381805005503 21.312064282527004 0 0 0 0
2545 1 17.654319985505502 22.238675773072003 1.5772002092970006 0 0 0
2364 3 19.259258166006497 21.312064282527004 0 0 0 0
2551 1 20.864196346506496 22.238675773072003 1.5772002092970006 0 0 0
2370 3 22.469134527007505 21.312064282527004 0 0 0 0
2557 1 24.074072707507504 22.238675773072003 1.5772002092970006 0 0 0
2376 3 25.6790108880085 21.312064282527004 0 0 0 0
2563 1 27.283949068508498 22.238675773072003 1.5772002092970006 0 0 0
2382 3 28.888887249009507 21.312064282527004 0 0 0 0
2569 1 30.493825429509506 22.238675773072003 1.5772002092970006 0 0 0
2388 3 32.0987636100105 21.312064282527004 0 0 0 0
2575 1 33.7037017905105 22.238675773072003 1.5772002092970006 0 0 0
2394 3 35.308639971011495 21.312064282527004 0 0 0 0
2581 1 36.91357815151151 22.238675773072003 1.5772002092970006 0 0 0
2400 3 38.5185163320125 21.312064282527004 0 0 0 0
2587 1 40.1234545125125 22.238675773072003 1.5772002092970006 0 0 0
2406 3 41.7283926930135 21.312064282527004 0 0 0 0
2593 1 43.333330873513496 22.238675773072003 1.5772002092970006 0 0 0
2412 3 44.938269054014505 21.312064282527004 0 0 0 0
2599 1 46.543207234514504 22.238675773072003 1.5772002092970006 0 0 0
2418 3 48.1481454150155 21.312064282527004 0 0 0 0
2238 3 51.3580217760165 21.312064282527004 0 -1 0 0
2419 1 49.7530835955155 22.238675773072003 1.5772002092970006 -1 0 0
2425 1 52.9629599565165 22.238675773072003 1.5772002092970006 -1 0 0