LAMMPS data file via write_data, version 29 Aug 2024, timestep = 5, units = metal

4784 atoms
8 atom types

0 100.76760496294 xlo xhi
0 98.649997834206 ylo yhi
-50 50 zlo zhi

Masses

1 114.818
2 114.818
3 114.818
4 114.818
5 127.6
6 127.6
7 127.6
8 127.6

Atoms # atomic

1204 5 2.1848394099801323 1.2596070651494036 -0.07890389872212586 0 0 0
1208 1 4.371726586098074 2.5205480331067185 1.3078008117080306 0 0 0
1387 5 4.3754395178701335 5.053837751080398 -0.07890389872212639 0 0 0
1212 5 6.566039625760132 1.2596070651493985 -0.07890389872212507 0 0 0
1220 5 10.947239841540132 1.2596070651494042 -0.0789038987221257 0 0 0
1216 1 8.752926801878075 2.52054803310672 1.3078008117080298 0 0 0
1395 5 8.756639733650132 5.053837751080396 -0.07890389872212729 0 0 0
1228 5 15.328440057320135 1.2596070651494082 -0.07890389872212587 0 0 0
1224 1 13.134127017658077 2.520548033106716 1.3078008117080344 0 0 0
1232 1 17.515327233438075 2.5205480331067203 1.3078008117080289 0 0 0
1403 5 13.137839949430132 5.0538377510804 -0.07890389872212476 0 0 0
1411 5 17.519040165210132 5.0538377510803985 -0.07890389872212435 0 0 0
1236 5 19.70964027310013 1.259607065149399 -0.07890389872212425 0 0 0
1240 1 21.896527449218073 2.5205480331067243 1.3078008117080304 0 0 0
1419 5 21.900240380990137 5.0538377510804 -0.07890389872212744 0 0 0
1244 5 24.09084048888013 1.2596070651493996 -0.0789038987221252 0 0 0
1252 5 28.47204070466013 1.2596070651494018 -0.0789038987221273 0 0 0
1248 1 26.277727664998075 2.5205480331067216 1.3078008117080313 0 0 0
1427 5 26.28144059677014 5.053837751080399 -0.07890389872212797 0 0 0
1260 5 32.853240920440136 1.2596070651494062 -0.0789038987221283 0 0 0
1256 1 30.658927880778073 2.520548033106721 1.3078008117080333 0 0 0
1264 1 35.04012809655807 2.5205480331067194 1.3078008117080364 0 0 0
1435 5 30.662640812550137 5.0538377510803985 -0.07890389872213059 0 0 0
1443 5 35.043841028330135 5.053837751080399 -0.07890389872212702 0 0 0
1268 5 37.234441136220134 1.2596070651494071 -0.07890389872212801 0 0 0
1272 1 39.421328312338076 2.520548033106719 1.3078008117080298 0 0 0
1451 5 39.425041244110126 5.053837751080402 -0.07890389872212744 0 0 0
1276 5 41.61564135200014 1.2596070651493991 -0.0789038987221235 0 0 0
1284 5 45.99684156778014 1.2596070651494002 -0.07890389872213027 0 0 0
1280 1 43.80252852811808 2.5205480331067225 1.3078008117080258 0 0 0
1459 5 43.80624145989013 5.053837751080399 -0.07890389872212467 0 0 0
1108 5 50.37804178356013 1.2596070651493998 -0.07890389872212443 -1 0 0
1288 1 48.18372874389808 2.5205480331067207 1.3078008117080382 0 0 0
1112 1 52.56492895967808 2.5205480331067194 1.3078008117080309 -1 0 0
1467 5 48.18744167567013 5.053837751080401 -0.07890389872212801 0 0 0
1291 5 52.568641891450135 5.053837751080401 -0.07890389872212583 -1 0 0
1116 5 54.75924199934013 1.2596070651494082 -0.07890389872212501 -1 0 0
1124 5 59.14044221512013 1.2596070651494076 -0.07890389872212582 -1 0 0
1120 1 56.94612917545808 2.520548033106716 1.3078008117080315 -1 0 0
1299 5 56.949842107230126 5.0538377510803985 -0.07890389872212825 -1 0 0
1132 5 63.52164243090014 1.259607065149405 -0.07890389872213095 -1 0 0
1128 1 61.327329391238074 2.520548033106718 1.3078008117080366 -1 0 0
1307 5 61.33104232301013 5.053837751080396 -0.07890389872212675 -1 0 0
1140 5 67.90284264668014 1.2596070651494018 -0.07890389872212247 -1 0 0
1136 1 65.70852960701806 2.5205480331067167 1.3078008117080293 -1 0 0
1144 1 70.08972982279808 2.5205480331067154 1.307800811708033 -1 0 0
1315 5 65.71224253879014 5.053837751080397 -0.07890389872212664 -1 0 0
1323 5 70.09344275457013 5.0538377510804 -0.07890389872212389 -1 0 0
1148 5 72.28404286246013 1.259607065149399 -0.0789038987221295 -1 0 0
1156 5 76.66524307824012 1.2596070651493991 -0.0789038987221217 -1 0 0
1152 1 74.47093003857808 2.5205480331067167 1.3078008117080329 -1 0 0
1331 5 74.47464297035013 5.053837751080403 -0.0789038987221266 -1 0 0
1164 5 81.04644329402012 1.2596070651494062 -0.07890389872212727 -1 0 0
1160 1 78.85213025435807 2.520548033106717 1.3078008117080346 -1 0 0
1339 5 78.85584318613013 5.053837751080401 -0.07890389872213197 -1 0 0
1172 5 85.42764350980012 1.2596070651493978 -0.07890389872212232 -1 0 0
1168 1 83.23333047013807 2.5205480331067145 1.3078008117080306 -1 0 0
1176 1 87.61453068591808 2.520548033106715 1.3078008117080362 -1 0 0
1347 5 83.23704340191014 5.053837751080399 -0.07890389872212226 -1 0 0
1355 5 87.61824361769014 5.053837751080395 -0.07890389872212922 -1 0 0
1180 5 89.80884372558013 1.2596070651494078 -0.07890389872212754 -1 0 0
1188 5 94.19004394136013 1.2596070651494058 -0.07890389872213109 -1 0 0
1184 1 91.99573090169808 2.5205480331067163 1.3078008117080338 -1 0 0
1363 5 91.99944383347012 5.053837751080392 -0.07890389872212478 -1 0 0
1379 5 100.76184426503012 5.0538377510804 -0.078903898722127 -1 0 0
1196 5 98.57124415714013 1.2596070651493985 -0.0789038987221203 -1 0 0
1192 1 96.37693111747807 2.5205480331067207 1.307800811708034 -1 0 0
1200 1 100.75813133325808 2.520548033106716 1.3078008117080298 -1 0 0
1371 5 96.38064404925012 5.0538377510803985 -0.07890389872212156 -1 0 0
1383 1 2.181126478208078 6.314778719037719 1.3078008117080355 0 0 0
1388 5 2.18483940998013 8.848068437011401 -0.07890389872212684 0 0 0
1392 1 4.371726586098074 10.109009404968715 1.3078008117080417 0 0 0
1391 1 6.5623266939880756 6.314778719037718 1.3078008117080353 0 0 0
1399 1 10.943526909768073 6.314778719037718 1.3078008117080349 0 0 0
1396 5 6.566039625760132 8.8480684370114 -0.0789038987221283 0 0 0
1400 1 8.752926801878075 10.109009404968715 1.3078008117080397 0 0 0
1404 5 10.947239841540132 8.848068437011401 -0.0789038987221283 0 0 0
1407 1 15.324727125548074 6.314778719037717 1.3078008117080366 0 0 0
1408 1 13.134127017658075 10.109009404968715 1.3078008117080366 0 0 0
1412 5 15.328440057320131 8.848068437011397 -0.07890389872212696 0 0 0
1416 1 17.515327233438075 10.109009404968717 1.3078008117080397 0 0 0
1415 1 19.705927341328078 6.314778719037719 1.3078008117080342 0 0 0
1420 5 19.70964027310013 8.848068437011401 -0.0789038987221282 0 0 0
1424 1 21.896527449218073 10.109009404968717 1.3078008117080389 0 0 0
1423 1 24.08712755710808 6.314778719037717 1.3078008117080353 0 0 0
1431 1 28.46832777288808 6.314778719037716 1.307800811708039 0 0 0
1428 5 24.09084048888013 8.8480684370114 -0.07890389872212888 0 0 0
1432 1 26.27772766499807 10.109009404968715 1.3078008117080386 0 0 0
1436 5 28.47204070466013 8.8480684370114 -0.07890389872212962 0 0 0
1439 1 32.84952798866808 6.314778719037716 1.3078008117080357 0 0 0
1440 1 30.658927880778073 10.109009404968717 1.3078008117080404 0 0 0
1444 5 32.853240920440136 8.848068437011401 -0.0789038987221274 0 0 0
1448 1 35.04012809655807 10.109009404968715 1.3078008117080373 0 0 0
1447 1 37.23072820444807 6.3147787190377205 1.307800811708035 0 0 0
1452 5 37.234441136220134 8.848068437011401 -0.07890389872212765 0 0 0
1456 1 39.421328312338076 10.109009404968715 1.3078008117080326 0 0 0
1455 1 41.611928420228075 6.314778719037718 1.3078008117080355 0 0 0
1463 1 45.99312863600807 6.314778719037719 1.3078008117080335 0 0 0
1460 5 41.61564135200014 8.8480684370114 -0.07890389872212669 0 0 0
1464 1 43.80252852811808 10.109009404968715 1.307800811708037 0 0 0
1468 5 45.99684156778013 8.848068437011397 -0.07890389872213387 0 0 0
1471 1 50.37432885178807 6.31477871903772 1.3078008117080369 0 0 0
1472 1 48.18372874389808 10.109009404968717 1.307800811708043 0 0 0
1292 5 50.37804178356013 8.848068437011403 -0.07890389872212729 -1 0 0
1296 1 52.56492895967808 10.109009404968715 1.3078008117080395 -1 0 0
1295 1 54.75552906756808 6.31477871903772 1.3078008117080369 -1 0 0
1303 1 59.136729283348075 6.314778719037717 1.3078008117080338 -1 0 0
1300 5 54.759241999340134 8.8480684370114 -0.0789038987221259 -1 0 0
1304 1 56.946129175458076 10.109009404968717 1.3078008117080377 -1 0 0
1308 5 59.14044221512013 8.848068437011401 -0.07890389872212816 -1 0 0
1311 1 63.51792949912807 6.314778719037716 1.3078008117080406 -1 0 0
1312 1 61.327329391238074 10.109009404968717 1.307800811708039 -1 0 0
1316 5 63.52164243090013 8.848068437011401 -0.0789038987221363 -1 0 0
1319 1 67.89912971490807 6.314778719037719 1.3078008117080298 -1 0 0
1320 1 65.70852960701806 10.109009404968715 1.3078008117080335 -1 0 0
1324 5 67.90284264668013 8.848068437011403 -0.078903898722121 -1 0 0
1328 1 70.08972982279808 10.109009404968713 1.3078008117080329 -1 0 0
1327 1 72.28032993068808 6.3147787190377205 1.3078008117080382 -1 0 0
1335 1 76.66153014646808 6.3147787190377205 1.307800811708031 -1 0 0
1332 5 72.28404286246013 8.848068437011397 -0.0789038987221298 -1 0 0
1336 1 74.47093003857808 10.109009404968715 1.3078008117080455 -1 0 0
1340 5 76.66524307824012 8.848068437011394 -0.07890389872212697 -1 0 0
1343 1 81.04273036224807 6.314778719037717 1.3078008117080364 -1 0 0
1344 1 78.85213025435807 10.109009404968713 1.3078008117080446 -1 0 0
1348 5 81.04644329402012 8.848068437011397 -0.07890389872212884 -1 0 0
1351 1 85.42393057802806 6.31477871903772 1.3078008117080304 -1 0 0
1352 1 83.23333047013806 10.109009404968717 1.307800811708034 -1 0 0
1356 5 85.42764350980012 8.848068437011401 -0.07890389872212637 -1 0 0
1360 1 87.61453068591808 10.109009404968715 1.3078008117080353 -1 0 0
1359 1 89.80513079380808 6.314778719037717 1.307800811708039 -1 0 0
1367 1 94.18633100958807 6.314778719037716 1.3078008117080346 -1 0 0
1364 5 89.80884372558013 8.848068437011403 -0.07890389872212898 -1 0 0
1368 1 91.99573090169808 10.109009404968718 1.3078008117080384 -1 0 0
1372 5 94.19004394136013 8.848068437011403 -0.0789038987221323 -1 0 0
1375 1 98.56753122536807 6.314778719037719 1.3078008117080397 -1 0 0
1376 1 96.37693111747807 10.109009404968715 1.3078008117080293 -1 0 0
1380 5 98.57124415714014 8.848068437011397 -0.07890389872212265 -1 0 0
1384 1 100.75813133325808 10.109009404968715 1.3078008117080402 -1 0 0
1571 5 4.375439517870134 12.642299122942399 -0.07890389872212815 0 0 0
1567 1 2.1811264782080784 13.903240090899715 1.3078008117080389 0 0 0
1572 5 2.184839409980135 16.4365298088734 -0.07890389872212578 0 0 0
1579 5 8.75663973365013 12.642299122942397 -0.07890389872213005 0 0 0
1575 1 6.5623266939880756 13.903240090899713 1.3078008117080386 0 0 0
1583 1 10.943526909768071 13.903240090899713 1.3078008117080404 0 0 0
1580 5 6.566039625760132 16.4365298088734 -0.07890389872212503 0 0 0
1588 5 10.947239841540132 16.4365298088734 -0.07890389872212634 0 0 0
1587 5 13.137839949430132 12.6422991229424 -0.0789038987221265 0 0 0
1595 5 17.519040165210132 12.642299122942399 -0.07890389872212507 0 0 0
1591 1 15.324727125548074 13.903240090899715 1.3078008117080382 0 0 0
1596 5 15.328440057320133 16.436529808873395 -0.07890389872212243 0 0 0
1603 5 21.900240380990134 12.642299122942399 -0.07890389872212793 0 0 0
1599 1 19.705927341328078 13.903240090899715 1.3078008117080344 0 0 0
1604 5 19.70964027310013 16.4365298088734 -0.07890389872212562 0 0 0
1611 5 26.28144059677014 12.642299122942399 -0.07890389872212945 0 0 0
1607 1 24.087127557108076 13.903240090899715 1.30780081170804 0 0 0
1615 1 28.46832777288808 13.903240090899713 1.3078008117080384 0 0 0
1612 5 24.09084048888013 16.4365298088734 -0.07890389872212515 0 0 0
1620 5 28.472040704660127 16.436529808873402 -0.0789038987221256 0 0 0
1619 5 30.662640812550137 12.642299122942399 -0.07890389872213004 0 0 0
1627 5 35.043841028330135 12.642299122942395 -0.07890389872212826 0 0 0
1623 1 32.84952798866808 13.903240090899713 1.307800811708039 0 0 0
1628 5 32.853240920440136 16.4365298088734 -0.078903898722126 0 0 0
1635 5 39.425041244110126 12.642299122942402 -0.07890389872212733 0 0 0
1631 1 37.23072820444807 13.903240090899715 1.3078008117080373 0 0 0
1636 5 37.234441136220134 16.4365298088734 -0.07890389872212306 0 0 0
1643 5 43.80624145989013 12.642299122942397 -0.07890389872212494 0 0 0
1639 1 41.611928420228075 13.903240090899711 1.3078008117080335 0 0 0
1647 1 45.99312863600808 13.903240090899713 1.307800811708039 0 0 0
1644 5 41.61564135200013 16.4365298088734 -0.07890389872212339 0 0 0
1652 5 45.99684156778013 16.4365298088734 -0.07890389872212998 0 0 0
1651 5 48.18744167567013 12.642299122942399 -0.07890389872213036 0 0 0
1475 5 52.568641891450135 12.6422991229424 -0.07890389872212569 -1 0 0
1655 1 50.37432885178808 13.903240090899715 1.307800811708039 0 0 0
1476 5 50.378041783560136 16.436529808873402 -0.07890389872212371 -1 0 0
1483 5 56.949842107230126 12.642299122942397 -0.07890389872212702 -1 0 0
1479 1 54.75552906756808 13.903240090899716 1.3078008117080373 -1 0 0
1487 1 59.136729283348075 13.903240090899713 1.3078008117080357 -1 0 0
1484 5 54.759241999340134 16.436529808873395 -0.07890389872212358 -1 0 0
1492 5 59.14044221512013 16.4365298088734 -0.07890389872212562 -1 0 0
1491 5 61.33104232301013 12.642299122942397 -0.07890389872212866 -1 0 0
1495 1 63.51792949912807 13.903240090899715 1.3078008117080469 -1 0 0
1500 5 63.52164243090013 16.436529808873402 -0.07890389872213403 -1 0 0
1499 5 65.71224253879012 12.642299122942397 -0.07890389872212832 -1 0 0
1507 5 70.09344275457012 12.6422991229424 -0.07890389872212365 -1 0 0
1503 1 67.89912971490807 13.903240090899711 1.3078008117080306 -1 0 0
1508 5 67.90284264668013 16.436529808873402 -0.07890389872211825 -1 0 0
1515 5 74.47464297035013 12.642299122942402 -0.07890389872212757 -1 0 0
1511 1 72.28032993068808 13.903240090899716 1.3078008117080409 -1 0 0
1519 1 76.66153014646807 13.903240090899715 1.3078008117080318 -1 0 0
1516 5 72.28404286246013 16.436529808873395 -0.07890389872212929 -1 0 0
1524 5 76.66524307824012 16.436529808873395 -0.07890389872212333 -1 0 0
1523 5 78.85584318613013 12.642299122942402 -0.0789038987221318 -1 0 0
1527 1 81.04273036224807 13.903240090899713 1.3078008117080373 -1 0 0
1532 5 81.04644329402014 16.436529808873402 -0.07890389872212535 -1 0 0
1531 5 83.23704340191014 12.6422991229424 -0.0789038987221232 -1 0 0
1539 5 87.61824361769014 12.642299122942394 -0.07890389872213124 -1 0 0
1535 1 85.42393057802806 13.903240090899715 1.3078008117080344 -1 0 0
1540 5 85.42764350980012 16.43652980887339 -0.07890389872212722 -1 0 0
1547 5 91.99944383347012 12.642299122942394 -0.07890389872212482 -1 0 0
1543 1 89.80513079380808 13.903240090899711 1.3078008117080415 -1 0 0
1551 1 94.18633100958807 13.903240090899713 1.307800811708037 -1 0 0
1548 5 89.80884372558013 16.436529808873406 -0.0789038987221249 -1 0 0
1556 5 94.19004394136013 16.436529808873402 -0.07890389872213201 -1 0 0
1563 5 100.76184426503012 12.6422991229424 -0.07890389872212872 -1 0 0
1555 5 96.38064404925012 12.642299122942397 -0.07890389872212324 -1 0 0
1559 1 98.56753122536807 13.903240090899715 1.3078008117080435 -1 0 0
1564 5 98.57124415714013 16.4365298088734 -0.07890389872211954 -1 0 0
1576 1 4.371726586098075 17.697470776830716 1.3078008117080329 0 0 0
1751 1 2.1811264782080793 21.491701462761718 1.3078008117080322 0 0 0
1755 5 4.3754395178701335 20.230760494804404 -0.07890389872212472 0 0 0
1584 1 8.752926801878075 17.697470776830716 1.3078008117080326 0 0 0
1759 1 6.5623266939880756 21.491701462761718 1.3078008117080333 0 0 0
1763 5 8.75663973365013 20.2307604948044 -0.07890389872212791 0 0 0
1767 1 10.943526909768071 21.491701462761718 1.3078008117080349 0 0 0
1592 1 13.134127017658075 17.697470776830716 1.307800811708029 0 0 0
1600 1 17.515327233438075 17.69747077683072 1.3078008117080302 0 0 0
1771 5 13.137839949430134 20.230760494804404 -0.07890389872212303 0 0 0
1775 1 15.324727125548074 21.49170146276172 1.3078008117080364 0 0 0
1779 5 17.519040165210136 20.230760494804404 -0.07890389872212313 0 0 0
1608 1 21.89652744921807 17.69747077683072 1.3078008117080315 0 0 0
1783 1 19.705927341328078 21.49170146276172 1.30780081170803 0 0 0
1787 5 21.900240380990137 20.2307604948044 -0.07890389872212587 0 0 0
1616 1 26.27772766499807 17.697470776830716 1.307800811708031 0 0 0
1791 1 24.08712755710808 21.49170146276172 1.3078008117080322 0 0 0
1795 5 26.281440596770132 20.230760494804404 -0.07890389872212472 0 0 0
1799 1 28.46832777288808 21.491701462761718 1.3078008117080366 0 0 0
1624 1 30.658927880778073 17.69747077683072 1.3078008117080344 0 0 0
1632 1 35.04012809655807 17.69747077683072 1.3078008117080313 0 0 0
1803 5 30.662640812550137 20.2307604948044 -0.07890389872213033 0 0 0
1807 1 32.84952798866807 21.491701462761718 1.307800811708035 0 0 0
1811 5 35.04384102833013 20.2307604948044 -0.07890389872212586 0 0 0
1640 1 39.421328312338076 17.69747077683072 1.3078008117080258 0 0 0
1815 1 37.23072820444807 21.49170146276172 1.3078008117080377 0 0 0
1819 5 39.425041244110126 20.230760494804404 -0.07890389872212471 0 0 0
1648 1 43.80252852811808 17.697470776830716 1.3078008117080289 0 0 0
1823 1 41.611928420228075 21.491701462761718 1.307800811708032 0 0 0
1827 5 43.80624145989013 20.2307604948044 -0.07890389872212485 0 0 0
1831 1 45.99312863600808 21.491701462761718 1.307800811708031 0 0 0
1656 1 48.18372874389807 17.697470776830716 1.3078008117080344 0 0 0
1480 1 52.56492895967808 17.697470776830716 1.3078008117080326 -1 0 0
1835 5 48.18744167567013 20.230760494804404 -0.07890389872212478 0 0 0
1839 1 50.37432885178808 21.491701462761718 1.3078008117080344 0 0 0
1659 5 52.56864189145013 20.230760494804404 -0.07890389872212471 -1 0 0
1488 1 56.946129175458076 17.69747077683072 1.3078008117080302 -1 0 0
1663 1 54.75552906756807 21.491701462761718 1.3078008117080342 -1 0 0
1667 5 56.949842107230126 20.2307604948044 -0.07890389872212432 -1 0 0
1671 1 59.136729283348075 21.491701462761718 1.3078008117080313 -1 0 0
1496 1 61.327329391238074 17.69747077683072 1.3078008117080315 -1 0 0
1675 5 61.33104232301013 20.2307604948044 -0.07890389872212535 -1 0 0
1679 1 63.51792949912807 21.491701462761714 1.3078008117080375 -1 0 0
1504 1 65.70852960701806 17.697470776830716 1.3078008117080293 -1 0 0
1512 1 70.08972982279806 17.69747077683072 1.3078008117080342 -1 0 0
1683 5 65.71224253879014 20.2307604948044 -0.07890389872212793 -1 0 0
1687 1 67.89912971490807 21.491701462761718 1.3078008117080278 -1 0 0
1691 5 70.09344275457013 20.230760494804407 -0.07890389872212215 -1 0 0
1520 1 74.47093003857808 17.697470776830713 1.3078008117080304 -1 0 0
1695 1 72.28032993068808 21.49170146276172 1.3078008117080364 -1 0 0
1699 5 74.47464297035013 20.230760494804407 -0.07890389872212511 -1 0 0
1703 1 76.66153014646808 21.49170146276172 1.307800811708026 -1 0 0
1528 1 78.85213025435807 17.697470776830713 1.3078008117080349 -1 0 0
1707 5 78.85584318613013 20.230760494804404 -0.07890389872213041 -1 0 0
1711 1 81.04273036224807 21.491701462761718 1.307800811708037 -1 0 0
1536 1 83.23333047013807 17.69747077683072 1.3078008117080322 -1 0 0
1544 1 87.61453068591807 17.697470776830716 1.3078008117080289 -1 0 0
1715 5 83.23704340191014 20.230760494804404 -0.0789038987221216 -1 0 0
1719 1 85.42393057802806 21.49170146276172 1.307800811708031 -1 0 0
1723 5 87.61824361769013 20.2307604948044 -0.07890389872212757 -1 0 0
1552 1 91.99573090169808 17.69747077683072 1.3078008117080384 -1 0 0
1727 1 89.80513079380808 21.491701462761714 1.3078008117080346 -1 0 0
1731 5 91.99944383347012 20.230760494804397 -0.07890389872212329 -1 0 0
1735 1 94.18633100958807 21.491701462761718 1.3078008117080326 -1 0 0
1747 5 100.76184426503012 20.230760494804404 -0.07890389872212714 -1 0 0
1560 1 96.37693111747807 17.697470776830716 1.3078008117080235 -1 0 0
1568 1 100.75813133325808 17.69747077683072 1.3078008117080369 -1 0 0
1739 5 96.38064404925012 20.2307604948044 -0.07890389872212043 -1 0 0
1743 1 98.56753122536807 21.49170146276172 1.307800811708039 -1 0 0
1756 5 2.184839409980135 24.0249911807354 -0.07890389872212625 0 0 0
1760 1 4.371726586098075 25.285932148692712 1.3078008117080342 0 0 0
1939 5 4.375439517870134 27.8192218666664 -0.07890389872212827 0 0 0
1764 5 6.566039625760132 24.0249911807354 -0.07890389872212887 0 0 0
1772 5 10.947239841540132 24.0249911807354 -0.07890389872212776 0 0 0
1768 1 8.752926801878075 25.285932148692716 1.307800811708034 0 0 0
1947 5 8.75663973365013 27.8192218666664 -0.07890389872213065 0 0 0
1780 5 15.328440057320135 24.0249911807354 -0.07890389872212669 0 0 0
1776 1 13.134127017658077 25.285932148692716 1.3078008117080302 0 0 0
1784 1 17.51532723343808 25.285932148692712 1.3078008117080315 0 0 0
1955 5 13.137839949430132 27.819221866666403 -0.07890389872212826 0 0 0
1963 5 17.51904016521013 27.8192218666664 -0.07890389872212558 0 0 0
1788 5 19.709640273100128 24.0249911807354 -0.07890389872212789 0 0 0
1792 1 21.896527449218073 25.28593214869272 1.3078008117080324 0 0 0
1971 5 21.900240380990134 27.8192218666664 -0.07890389872212868 0 0 0
1796 5 24.09084048888013 24.0249911807354 -0.07890389872212712 0 0 0
1804 5 28.472040704660127 24.0249911807354 -0.07890389872212818 0 0 0
1800 1 26.27772766499807 25.285932148692712 1.3078008117080306 0 0 0
1979 5 26.28144059677014 27.8192218666664 -0.07890389872212832 0 0 0
1812 5 32.853240920440136 24.024991180735398 -0.07890389872212779 0 0 0
1808 1 30.658927880778073 25.285932148692716 1.3078008117080362 0 0 0
1816 1 35.04012809655808 25.285932148692716 1.3078008117080293 0 0 0
1987 5 30.662640812550137 27.819221866666396 -0.0789038987221298 0 0 0
1995 5 35.04384102833013 27.819221866666403 -0.07890389872212708 0 0 0
1820 5 37.23444113622014 24.0249911807354 -0.07890389872212748 0 0 0
1824 1 39.421328312338076 25.285932148692712 1.3078008117080289 0 0 0
2003 5 39.425041244110126 27.819221866666403 -0.07890389872212737 0 0 0
1828 5 41.61564135200014 24.0249911807354 -0.07890389872212566 0 0 0
1836 5 45.99684156778013 24.0249911807354 -0.07890389872213138 0 0 0
1832 1 43.80252852811808 25.285932148692712 1.307800811708028 0 0 0
2011 5 43.806241459890124 27.8192218666664 -0.07890389872212492 0 0 0
1660 5 50.37804178356013 24.0249911807354 -0.078903898722126 -1 0 0
1840 1 48.18372874389808 25.285932148692716 1.3078008117080315 0 0 0
1664 1 52.56492895967808 25.285932148692712 1.3078008117080322 -1 0 0
2019 5 48.18744167567013 27.819221866666403 -0.07890389872213024 0 0 0
1843 5 52.56864189145013 27.8192218666664 -0.07890389872212838 -1 0 0
1668 5 54.759241999340134 24.024991180735398 -0.07890389872212407 -1 0 0
1676 5 59.14044221512013 24.024991180735398 -0.07890389872212428 -1 0 0
1672 1 56.946129175458076 25.285932148692716 1.3078008117080286 -1 0 0
1851 5 56.94984210723013 27.8192218666664 -0.07890389872212616 -1 0 0
1684 5 63.52164243090014 24.024991180735405 -0.07890389872213355 -1 0 0
1680 1 61.327329391238074 25.28593214869272 1.3078008117080273 -1 0 0
1859 5 61.33104232301013 27.8192218666664 -0.0789038987221268 -1 0 0
1692 5 67.90284264668013 24.0249911807354 -0.07890389872212034 -1 0 0
1688 1 65.70852960701806 25.285932148692716 1.3078008117080253 -1 0 0
1696 1 70.08972982279808 25.285932148692716 1.3078008117080302 -1 0 0
1867 5 65.71224253879014 27.8192218666664 -0.07890389872213112 -1 0 0
1875 5 70.09344275457012 27.8192218666664 -0.07890389872212596 -1 0 0
1700 5 72.28404286246013 24.024991180735398 -0.07890389872213142 -1 0 0
1708 5 76.66524307824012 24.024991180735398 -0.07890389872212243 -1 0 0
1704 1 74.47093003857808 25.285932148692716 1.3078008117080313 -1 0 0
1883 5 74.47464297035013 27.819221866666407 -0.07890389872212303 -1 0 0
1716 5 81.04644329402012 24.0249911807354 -0.07890389872212761 -1 0 0
1712 1 78.85213025435807 25.285932148692712 1.3078008117080335 -1 0 0
1891 5 78.85584318613013 27.819221866666403 -0.07890389872213074 -1 0 0
1724 5 85.42764350980012 24.024991180735398 -0.07890389872212734 -1 0 0
1720 1 83.23333047013807 25.285932148692716 1.30780081170803 -1 0 0
1728 1 87.61453068591807 25.285932148692716 1.3078008117080253 -1 0 0
1899 5 83.23704340191014 27.819221866666403 -0.07890389872212328 -1 0 0
1907 5 87.61824361769013 27.8192218666664 -0.07890389872212936 -1 0 0
1732 5 89.80884372558013 24.02499118073541 -0.07890389872212436 -1 0 0
1740 5 94.19004394136013 24.0249911807354 -0.0789038987221326 -1 0 0
1736 1 91.99573090169808 25.28593214869272 1.3078008117080364 -1 0 0
1915 5 91.99944383347012 27.819221866666396 -0.07890389872212625 -1 0 0
1931 5 100.76184426503012 27.819221866666403 -0.07890389872212952 -1 0 0
1748 5 98.57124415714014 24.024991180735398 -0.07890389872212167 -1 0 0
1744 1 96.37693111747807 25.285932148692716 1.3078008117080224 -1 0 0
1752 1 100.75813133325808 25.28593214869272 1.3078008117080329 -1 0 0
1923 5 96.38064404925012 27.8192218666664 -0.07890389872212163 -1 0 0
1935 1 2.1811264782080806 29.080162834623717 1.307800811708034 0 0 0
1940 5 2.1848394099801296 31.6134525525974 -0.07890389872212532 0 0 0
1944 1 4.371726586098075 32.87439352055472 1.3078008117080384 0 0 0
1943 1 6.562326693988075 29.080162834623717 1.3078008117080357 0 0 0
1951 1 10.943526909768073 29.080162834623714 1.3078008117080377 0 0 0
1948 5 6.566039625760133 31.6134525525974 -0.07890389872212782 0 0 0
1956 5 10.947239841540133 31.6134525525974 -0.07890389872212823 0 0 0
1952 1 8.752926801878074 32.87439352055472 1.3078008117080429 0 0 0
1959 1 15.324727125548076 29.080162834623714 1.30780081170804 0 0 0
1964 5 15.328440057320133 31.6134525525974 -0.07890389872212761 0 0 0
1960 1 13.134127017658075 32.87439352055471 1.3078008117080362 0 0 0
1968 1 17.51532723343808 32.87439352055471 1.3078008117080349 0 0 0
1967 1 19.705927341328078 29.080162834623714 1.307800811708032 0 0 0
1972 5 19.70964027310013 31.6134525525974 -0.07890389872212554 0 0 0
1976 1 21.896527449218073 32.87439352055472 1.3078008117080364 0 0 0
1975 1 24.087127557108076 29.080162834623714 1.3078008117080375 0 0 0
1983 1 28.46832777288808 29.080162834623714 1.307800811708036 0 0 0
1980 5 24.09084048888013 31.6134525525974 -0.07890389872212525 0 0 0
1988 5 28.47204070466013 31.613452552597398 -0.07890389872212777 0 0 0
1984 1 26.27772766499807 32.87439352055472 1.3078008117080384 0 0 0
1991 1 32.84952798866808 29.080162834623714 1.3078008117080355 0 0 0
1996 5 32.853240920440136 31.6134525525974 -0.07890389872212807 0 0 0
1992 1 30.658927880778073 32.87439352055472 1.3078008117080433 0 0 0
2000 1 35.04012809655807 32.87439352055472 1.3078008117080357 0 0 0
1999 1 37.23072820444808 29.080162834623714 1.3078008117080322 0 0 0
2004 5 37.234441136220134 31.6134525525974 -0.07890389872212455 0 0 0
2008 1 39.421328312338076 32.87439352055472 1.3078008117080322 0 0 0
2007 1 41.611928420228075 29.08016283462371 1.3078008117080306 0 0 0
2015 1 45.99312863600808 29.08016283462371 1.3078008117080338 0 0 0
2012 5 41.61564135200013 31.6134525525974 -0.078903898722124 0 0 0
2020 5 45.99684156778014 31.613452552597398 -0.07890389872213117 0 0 0
2016 1 43.80252852811808 32.87439352055472 1.3078008117080324 0 0 0
2023 1 50.37432885178808 29.080162834623714 1.3078008117080349 0 0 0
1844 5 50.37804178356013 31.613452552597398 -0.0789038987221258 -1 0 0
2024 1 48.18372874389807 32.87439352055471 1.3078008117080433 0 0 0
1848 1 52.56492895967808 32.87439352055471 1.3078008117080382 -1 0 0
1847 1 54.75552906756808 29.080162834623714 1.3078008117080373 -1 0 0
1855 1 59.136729283348075 29.080162834623714 1.3078008117080335 -1 0 0
1852 5 54.75924199934013 31.613452552597398 -0.07890389872212726 -1 0 0
1860 5 59.14044221512013 31.613452552597398 -0.07890389872212669 -1 0 0
1856 1 56.946129175458076 32.87439352055472 1.3078008117080413 -1 0 0
1863 1 63.51792949912807 29.080162834623714 1.307800811708038 -1 0 0
1868 5 63.52164243090013 31.613452552597398 -0.07890389872213499 -1 0 0
1864 1 61.327329391238074 32.87439352055472 1.3078008117080406 -1 0 0
1871 1 67.89912971490807 29.080162834623714 1.3078008117080313 -1 0 0
1876 5 67.90284264668013 31.6134525525974 -0.07890389872211917 -1 0 0
1872 1 65.70852960701806 32.87439352055471 1.307800811708033 -1 0 0
1880 1 70.08972982279808 32.87439352055471 1.307800811708033 -1 0 0
1879 1 72.28032993068808 29.080162834623714 1.3078008117080357 -1 0 0
1887 1 76.66153014646808 29.080162834623714 1.3078008117080295 -1 0 0
1884 5 72.28404286246013 31.613452552597394 -0.07890389872212936 -1 0 0
1892 5 76.66524307824012 31.613452552597394 -0.07890389872212486 -1 0 0
1888 1 74.47093003857808 32.87439352055471 1.307800811708042 -1 0 0
1895 1 81.04273036224807 29.08016283462371 1.307800811708039 -1 0 0
1900 5 81.04644329402012 31.613452552597398 -0.07890389872212927 -1 0 0
1896 1 78.85213025435807 32.87439352055471 1.3078008117080455 -1 0 0
1903 1 85.42393057802806 29.080162834623717 1.3078008117080295 -1 0 0
1908 5 85.42764350980012 31.613452552597398 -0.0789038987221256 -1 0 0
1904 1 83.23333047013807 32.87439352055471 1.3078008117080369 -1 0 0
1912 1 87.61453068591808 32.87439352055472 1.3078008117080366 -1 0 0
1911 1 89.80513079380808 29.08016283462371 1.3078008117080309 -1 0 0
1919 1 94.18633100958807 29.080162834623714 1.307800811708035 -1 0 0
1916 5 89.80884372558013 31.61345255259741 -0.07890389872212325 -1 0 0
1924 5 94.19004394136013 31.6134525525974 -0.07890389872213534 -1 0 0
1920 1 91.99573090169808 32.87439352055472 1.30780081170804 -1 0 0
1927 1 98.56753122536807 29.080162834623717 1.3078008117080384 -1 0 0
1932 5 98.57124415714014 31.6134525525974 -0.07890389872212014 -1 0 0
1928 1 96.37693111747807 32.87439352055471 1.3078008117080302 -1 0 0
1936 1 100.75813133325808 32.87439352055472 1.307800811708036 -1 0 0
2119 1 2.181126478208073 36.66862420648572 1.3078008117080335 0 0 0
2123 5 4.375439517870133 35.4076832385284 -0.07890389872212873 0 0 0
2124 5 2.1848394099801323 39.2019139244594 -0.07890389872212455 0 0 0
2128 1 4.3717265860980765 40.46285489241671 1.3078008117080377 0 0 0
2127 1 6.562326693988076 36.66862420648571 1.3078008117080369 0 0 0
2131 5 8.756639733650129 35.4076832385284 -0.07890389872213063 0 0 0
2135 1 10.943526909768071 36.66862420648572 1.307800811708034 0 0 0
2132 5 6.566039625760131 39.201913924459404 -0.07890389872212583 0 0 0
2140 5 10.947239841540132 39.2019139244594 -0.07890389872212525 0 0 0
2136 1 8.752926801878075 40.462854892416715 1.3078008117080397 0 0 0
2139 5 13.137839949430132 35.407683238528406 -0.07890389872212612 0 0 0