LAMMPS data file via write_data, version 29 Aug 2024, timestep = 6, units = metal

7176 atoms
12 atom types

0 100.76760496294 xlo xhi
0 98.649997834206 ylo yhi
-50 50 zlo zhi

Masses

1 114.818
2 114.818
3 114.818
4 114.818
5 114.818
6 114.818
7 127.6
8 127.6
9 127.6
10 127.6
11 127.6
12 127.6

Atoms # atomic

1204 7 2.1776416203614963 1.2523510479974984 -0.08227567132341015 0 0 0
1208 1 4.36161574512627 2.5105585638836256 1.3087247999971936 0 0 0
1387 7 4.368241728251498 5.0465817339285115 -0.08227567132345197 0 0 0
1212 7 6.55884183614149 1.2523510479974744 -0.0822756713234257 0 0 0
1220 7 10.940042051921493 1.2523510479974815 -0.08227567132342649 0 0 0
1216 1 8.742815960906292 2.510558563883641 1.3087247999972085 0 0 0
1395 7 8.749441944031485 5.04658173392852 -0.0822756713234466 0 0 0
1228 7 15.321242267701487 1.252351047997515 -0.08227567132345631 0 0 0
1224 1 13.12401617668628 2.5105585638836434 1.3087247999972098 0 0 0
1232 1 17.50521639246628 2.51055856388367 1.3087247999972158 0 0 0
1403 7 13.130642159811488 5.046581733928508 -0.08227567132344613 0 0 0
1411 7 17.511842375591478 5.0465817339284955 -0.08227567132344105 0 0 0
1236 7 19.702442483481487 1.2523510479975228 -0.08227567132347484 0 0 0
1240 1 21.886416608246293 2.510558563883658 1.3087247999972154 0 0 0
1419 7 21.893042591371472 5.046581733928504 -0.08227567132344146 0 0 0
1244 7 24.083642699261496 1.252351047997475 -0.08227567132342545 0 0 0
1252 7 28.464842915041505 1.2523510479975355 -0.082275671323469 0 0 0
1248 1 26.267616824026273 2.5105585638836474 1.3087247999972127 0 0 0
1427 7 26.274242807151477 5.046581733928516 -0.082275671323437 0 0 0
1260 7 32.8460431308215 1.2523510479975268 -0.08227567132345444 0 0 0
1256 1 30.648817039806282 2.510558563883658 1.308724799997209 0 0 0
1264 1 35.03001725558627 2.5105585638836514 1.3087247999972145 0 0 0
1435 7 30.655443022931475 5.046581733928488 -0.08227567132345803 0 0 0
1443 7 35.03664323871148 5.046581733928522 -0.08227567132342553 0 0 0
1268 7 37.22724334660148 1.2523510479974653 -0.08227567132344864 0 0 0
1272 1 39.41121747136631 2.510558563883639 1.308724799997226 0 0 0
1451 7 39.4178434544915 5.046581733928527 -0.0822756713234433 0 0 0
1276 7 41.608443562381474 1.2523510479974849 -0.08227567132344235 0 0 0
1284 7 45.9896437781615 1.2523510479975286 -0.08227567132345033 0 0 0
1280 1 43.79241768714629 2.510558563883657 1.3087247999972098 0 0 0
1459 7 43.79904367027149 5.046581733928507 -0.08227567132343659 0 0 0
1108 7 50.370843993941506 1.2523510479974758 -0.08227567132344729 -1 0 0
1288 1 48.17361790292625 2.5105585638836385 1.308724799997231 0 0 0
1112 1 52.55481811870628 2.5105585638836536 1.3087247999972105 -1 0 0
1467 7 48.180243886051514 5.046581733928512 -0.08227567132345695 0 0 0
1291 7 52.561444101831505 5.046581733928505 -0.0822756713234407 -1 0 0
1116 7 54.7520442097215 1.2523510479975346 -0.08227567132345655 -1 0 0
1124 7 59.13324442550147 1.2523510479974607 -0.08227567132344091 -1 0 0
1120 1 56.93601833448628 2.510558563883653 1.3087247999972043 -1 0 0
1299 7 56.94264431761151 5.046581733928509 -0.08227567132342876 -1 0 0
1132 7 63.51444464128147 1.2523510479975068 -0.08227567132346217 -1 0 0
1128 1 61.317218550266304 2.510558563883654 1.3087247999972287 -1 0 0
1307 7 61.32384453339149 5.0465817339285115 -0.08227567132346053 -1 0 0
1140 7 67.8956448570615 1.2523510479974678 -0.0822756713234337 -1 0 0
1136 1 65.69841876604629 2.5105585638836683 1.308724799997206 -1 0 0
1144 1 70.07961898182631 2.510558563883627 1.3087247999971763 -1 0 0
1315 7 65.70504474917149 5.046581733928529 -0.08227567132341115 -1 0 0
1323 7 70.08624496495158 5.046581733928512 -0.082275671323433 -1 0 0
1148 7 72.27684507284147 1.2523510479975015 -0.08227567132337713 -1 0 0
1156 7 76.65804528862152 1.2523510479975026 -0.08227567132345055 -1 0 0
1152 1 74.46081919760626 2.510558563883637 1.3087247999972198 -1 0 0
1331 7 74.46744518073147 5.046581733928494 -0.08227567132350233 -1 0 0
1164 7 81.03924550440155 1.2523510479974889 -0.08227567132341344 -1 0 0
1160 1 78.84201941338624 2.5105585638836496 1.3087247999971967 -1 0 0
1339 7 78.8486453965115 5.046581733928523 -0.08227567132343269 -1 0 0
1172 7 85.42044572018158 1.2523510479974829 -0.08227567132342353 -1 0 0
1168 1 83.22321962916621 2.510558563883634 1.308724799997222 -1 0 0
1176 1 87.6044198449462 2.510558563883668 1.3087247999971996 -1 0 0
1347 7 83.22984561229148 5.0465817339285115 -0.08227567132345691 -1 0 0
1355 7 87.61104582807148 5.046581733928519 -0.08227567132340302 -1 0 0
1180 7 89.80164593596149 1.2523510479974873 -0.08227567132350459 -1 0 0
1188 7 94.18284615174147 1.252351047997501 -0.0822756713234412 -1 0 0
1184 1 91.98562006072633 2.5105585638836696 1.308724799997221 -1 0 0
1363 7 91.99224604385152 5.04658173392851 -0.08227567132344439 -1 0 0
1379 7 100.75464647541152 5.046581733928499 -0.08227567132342663 -1 0 0
1196 7 98.56404636752147 1.2523510479975233 -0.08227567132347965 -1 0 0
1192 1 96.3668202765063 2.5105585638836607 1.3087247999972134 -1 0 0
1200 1 100.7480204922863 2.5105585638836714 1.3087247999972158 -1 0 0
1371 7 96.37344625963148 5.046581733928498 -0.0822756713234584 -1 0 0
1383 1 2.1710156372362537 6.304789249814654 1.3087247999971956 0 0 0
1388 7 2.1776416203614914 8.840812419859516 -0.08227567132341962 0 0 0
1392 1 4.361615745126271 10.099019935745632 1.308724799997208 0 0 0
1391 1 6.55221585301629 6.304789249814654 1.308724799997215 0 0 0
1399 1 10.933416068796282 6.304789249814648 1.3087247999972174 0 0 0
1396 7 6.558841836141491 8.840812419859498 -0.08227567132344737 0 0 0
1400 1 8.742815960906292 10.099019935745655 1.3087247999972151 0 0 0
1404 7 10.940042051921491 8.840812419859509 -0.08227567132344565 0 0 0
1407 1 15.314616284576296 6.304789249814644 1.3087247999972162 0 0 0
1408 1 13.124016176686283 10.09901993574564 1.3087247999972171 0 0 0
1412 7 15.321242267701491 8.840812419859512 -0.08227567132344178 0 0 0
1416 1 17.505216392466277 10.099019935745648 1.3087247999972111 0 0 0
1415 1 19.695816500356297 6.304789249814641 1.3087247999972138 0 0 0
1420 7 19.702442483481498 8.840812419859517 -0.08227567132344558 0 0 0
1424 1 21.88641660824628 10.099019935745643 1.308724799997217 0 0 0
1423 1 24.077016716136306 6.30478924981465 1.3087247999972107 0 0 0
1431 1 28.458216931916276 6.304789249814643 1.3087247999972265 0 0 0
1428 7 24.0836426992615 8.840812419859517 -0.08227567132343383 0 0 0
1432 1 26.26761682402626 10.099019935745646 1.3087247999972116 0 0 0
1436 7 28.464842915041512 8.840812419859516 -0.08227567132345288 0 0 0
1439 1 32.839417147696324 6.304789249814652 1.3087247999972218 0 0 0
1440 1 30.648817039806293 10.099019935745646 1.3087247999971983 0 0 0
1444 7 32.84604313082149 8.84081241985951 -0.08227567132343572 0 0 0
1448 1 35.030017255586266 10.099019935745654 1.3087247999972225 0 0 0
1447 1 37.22061736347628 6.304789249814645 1.3087247999972025 0 0 0
1452 7 37.22724334660149 8.840812419859493 -0.08227567132346275 0 0 0
1456 1 39.411217471366285 10.09901993574565 1.3087247999972318 0 0 0
1455 1 41.60181757925628 6.304789249814648 1.3087247999972138 0 0 0
1463 1 45.98301779503627 6.304789249814667 1.3087247999972071 0 0 0
1460 7 41.60844356238152 8.840812419859498 -0.08227567132344807 0 0 0
1464 1 43.79241768714628 10.099019935745638 1.308724799997197 0 0 0
1468 7 45.98964377816148 8.840812419859509 -0.08227567132342496 0 0 0
1471 1 50.36421801081626 6.304789249814641 1.3087247999972318 0 0 0
1472 1 48.17361790292627 10.09901993574564 1.3087247999972207 0 0 0
1292 7 50.37084399394151 8.840812419859509 -0.08227567132345992 -1 0 0
1296 1 52.554818118706294 10.099019935745648 1.308724799997206 -1 0 0
1295 1 54.74541822659628 6.304789249814642 1.308724799997195 -1 0 0
1303 1 59.12661844237627 6.304789249814634 1.3087247999972265 -1 0 0
1300 7 54.75204420972147 8.84081241985952 -0.08227567132343072 -1 0 0
1304 1 56.936018334486285 10.099019935745646 1.3087247999972191 -1 0 0
1308 7 59.13324442550147 8.840812419859502 -0.08227567132347027 -1 0 0
1311 1 63.5078186581563 6.304789249814644 1.3087247999972027 -1 0 0
1312 1 61.317218550266325 10.099019935745632 1.308724799997242 -1 0 0
1316 7 63.514444641281464 8.840812419859507 -0.08227567132344289 -1 0 0
1319 1 67.88901887393622 6.30478924981465 1.3087247999972302 -1 0 0
1320 1 65.6984187660463 10.099019935745646 1.3087247999972123 -1 0 0
1324 7 67.89564485706146 8.840812419859498 -0.08227567132346157 -1 0 0
1328 1 70.07961898182636 10.099019935745648 1.3087247999971867 -1 0 0
1327 1 72.2702190897162 6.304789249814651 1.308724799997196 -1 0 0
1335 1 76.65141930549633 6.304789249814652 1.3087247999972411 -1 0 0
1332 7 72.27684507284145 8.840812419859525 -0.08227567132339995 -1 0 0
1336 1 74.4608191976063 10.099019935745632 1.3087247999972413 -1 0 0
1340 7 76.6580452886215 8.840812419859525 -0.08227567132344438 -1 0 0
1343 1 81.03261952127627 6.304789249814647 1.3087247999972176 -1 0 0
1344 1 78.84201941338625 10.099019935745654 1.308724799997198 -1 0 0
1348 7 81.03924550440152 8.840812419859517 -0.08227567132344474 -1 0 0
1351 1 85.41381973705631 6.304789249814651 1.3087247999971858 -1 0 0
1352 1 83.22321962916624 10.099019935745657 1.3087247999972393 -1 0 0
1356 7 85.42044572018159 8.840812419859503 -0.08227567132343286 -1 0 0
1360 1 87.60441984494621 10.099019935745657 1.3087247999971998 -1 0 0
1359 1 89.79501995283626 6.304789249814628 1.3087247999972327 -1 0 0
1367 1 94.17622016861627 6.304789249814659 1.308724799997208 -1 0 0
1364 7 89.80164593596149 8.840812419859494 -0.0822756713234989 -1 0 0
1368 1 91.98562006072636 10.09901993574564 1.308724799997228 -1 0 0
1372 7 94.18284615174143 8.840812419859493 -0.08227567132343624 -1 0 0
1375 1 98.5574203843963 6.3047892498146245 1.3087247999972467 -1 0 0
1376 1 96.3668202765063 10.099019935745664 1.3087247999972411 -1 0 0
1380 7 98.56404636752151 8.840812419859533 -0.0822756713234641 -1 0 0
1384 1 100.74802049228627 10.099019935745646 1.3087247999972087 -1 0 0
1571 7 4.368241728251496 12.63504310579051 -0.0822756713234559 0 0 0
1567 1 2.171015637236258 13.893250621676659 1.308724799997201 0 0 0
1572 7 2.1776416203614883 16.429273791721517 -0.08227567132342273 0 0 0
1579 7 8.749441944031485 12.635043105790508 -0.08227567132343996 0 0 0
1575 1 6.5522158530162935 13.893250621676655 1.3087247999972167 0 0 0
1583 1 10.933416068796282 13.89325062167666 1.3087247999972094 0 0 0
1580 7 6.558841836141493 16.429273791721503 -0.08227567132345211 0 0 0
1588 7 10.940042051921488 16.4292737917215 -0.08227567132344803 0 0 0
1587 7 13.13064215981149 12.635043105790512 -0.08227567132344904 0 0 0
1595 7 17.511842375591485 12.63504310579051 -0.08227567132344074 0 0 0
1591 1 15.314616284576294 13.893250621676646 1.3087247999972174 0 0 0
1596 7 15.321242267701482 16.429273791721517 -0.08227567132344502 0 0 0
1603 7 21.89304259137149 12.635043105790501 -0.08227567132344846 0 0 0
1599 1 19.695816500356283 13.893250621676643 1.3087247999972182 0 0 0
1604 7 19.702442483481494 16.429273791721517 -0.08227567132345631 0 0 0
1611 7 26.274242807151474 12.6350431057905 -0.08227567132344857 0 0 0
1607 1 24.077016716136292 13.893250621676648 1.3087247999972174 0 0 0
1615 1 28.458216931916297 13.893250621676653 1.3087247999972242 0 0 0
1612 7 24.083642699261492 16.429273791721517 -0.0822756713234451 0 0 0
1620 7 28.46484291504152 16.429273791721506 -0.08227567132345148 0 0 0
1619 7 30.655443022931472 12.635043105790501 -0.08227567132344775 0 0 0
1627 7 35.03664323871147 12.63504310579052 -0.08227567132342775 0 0 0
1623 1 32.839417147696324 13.893250621676632 1.3087247999972196 0 0 0
1628 7 32.846043130821485 16.42927379172151 -0.08227567132346013 0 0 0
1635 7 39.41784345449149 12.635043105790528 -0.08227567132344725 0 0 0
1631 1 37.220617363476286 13.893250621676655 1.308724799997201 0 0 0
1636 7 37.2272433466015 16.429273791721496 -0.0822756713234506 0 0 0
1643 7 43.79904367027151 12.63504310579051 -0.08227567132343254 0 0 0
1639 1 41.601817579256284 13.893250621676657 1.3087247999972116 0 0 0
1647 1 45.98301779503627 13.893250621676657 1.3087247999972018 0 0 0
1644 7 41.60844356238148 16.429273791721506 -0.08227567132343969 0 0 0
1652 7 45.989643778161486 16.429273791721506 -0.08227567132343595 0 0 0
1651 7 48.18024388605149 12.635043105790515 -0.0822756713234502 0 0 0
1475 7 52.561444101831505 12.635043105790489 -0.08227567132344857 -1 0 0
1655 1 50.364218010816266 13.89325062167665 1.3087247999972331 0 0 0
1476 7 50.37084399394149 16.42927379172151 -0.08227567132346245 -1 0 0
1483 7 56.94264431761149 12.635043105790514 -0.08227567132343938 -1 0 0
1479 1 54.74541822659629 13.893250621676648 1.3087247999972027 -1 0 0
1487 1 59.12661844237629 13.893250621676652 1.308724799997226 -1 0 0
1484 7 54.7520442097215 16.42927379172153 -0.0822756713234216 -1 0 0
1492 7 59.133244425501466 16.429273791721496 -0.08227567132346662 -1 0 0
1491 7 61.32384453339149 12.635043105790526 -0.08227567132345169 -1 0 0
1495 1 63.507818658156275 13.893250621676653 1.3087247999972134 -1 0 0
1500 7 63.51444464128148 16.429273791721503 -0.08227567132345165 -1 0 0
1499 7 65.7050447491715 12.635043105790515 -0.08227567132343992 -1 0 0
1507 7 70.08624496495158 12.635043105790508 -0.08227567132342131 -1 0 0
1503 1 67.88901887393624 13.893250621676668 1.3087247999972231 -1 0 0
1508 7 67.89564485706144 16.429273791721492 -0.08227567132345927 -1 0 0
1515 7 74.46744518073149 12.635043105790485 -0.08227567132349663 -1 0 0
1511 1 72.2702190897162 13.89325062167664 1.3087247999972 -1 0 0
1519 1 76.65141930549633 13.893250621676655 1.3087247999972298 -1 0 0
1516 7 72.27684507284144 16.42927379172153 -0.08227567132342226 -1 0 0
1524 7 76.65804528862147 16.429273791721528 -0.08227567132343416 -1 0 0
1523 7 78.84864539651149 12.635043105790508 -0.08227567132343466 -1 0 0
1527 1 81.03261952127627 13.893250621676653 1.308724799997214 -1 0 0
1532 7 81.03924550440156 16.42927379172152 -0.08227567132343332 -1 0 0
1531 7 83.22984561229144 12.635043105790492 -0.08227567132347083 -1 0 0
1539 7 87.61104582807147 12.635043105790528 -0.082275671323395 -1 0 0
1535 1 85.41381973705636 13.893250621676648 1.3087247999972136 -1 0 0
1540 7 85.42044572018158 16.429273791721506 -0.08227567132343874 -1 0 0
1547 7 91.99224604385152 12.635043105790515 -0.0822756713234438 -1 0 0
1543 1 89.79501995283626 13.893250621676637 1.3087247999972265 -1 0 0
1551 1 94.17622016861627 13.893250621676657 1.3087247999971987 -1 0 0
1548 7 89.80164593596143 16.429273791721485 -0.08227567132350014 -1 0 0
1556 7 94.18284615174149 16.429273791721503 -0.08227567132343137 -1 0 0
1563 7 100.75464647541155 12.635043105790485 -0.08227567132345119 -1 0 0
1555 7 96.3734462596315 12.635043105790528 -0.0822756713234479 -1 0 0
1559 1 98.55742038439624 13.893250621676636 1.308724799997248 -1 0 0
1564 7 98.56404636752151 16.429273791721524 -0.08227567132347025 -1 0 0
1576 1 4.361615745126271 17.687481307607644 1.308724799997207 0 0 0
1751 1 2.1710156372362603 21.48171199353866 1.308724799997197 0 0 0
1755 7 4.368241728251502 20.22350447765251 -0.08227567132344295 0 0 0
1584 1 8.742815960906288 17.687481307607655 1.308724799997226 0 0 0
1759 1 6.552215853016283 21.48171199353863 1.3087247999972103 0 0 0
1763 7 8.749441944031483 20.22350447765251 -0.08227567132344442 0 0 0
1767 1 10.933416068796275 21.48171199353866 1.3087247999972125 0 0 0
1592 1 13.124016176686297 17.68748130760764 1.308724799997224 0 0 0
1600 1 17.50521639246628 17.687481307607662 1.30872479999722 0 0 0
1771 7 13.1306421598115 20.223504477652515 -0.08227567132345415 0 0 0
1775 1 15.314616284576296 21.481711993538646 1.3087247999971996 0 0 0
1779 7 17.51184237559148 20.223504477652508 -0.08227567132343236 0 0 0
1608 1 21.886416608246286 17.687481307607655 1.3087247999972167 0 0 0
1783 1 19.695816500356283 21.481711993538624 1.3087247999972142 0 0 0
1787 7 21.89304259137148 20.223504477652497 -0.0822756713234438 0 0 0
1616 1 26.267616824026266 17.68748130760767 1.3087247999972151 0 0 0
1791 1 24.077016716136306 21.481711993538653 1.3087247999972051 0 0 0
1795 7 26.274242807151474 20.2235044776525 -0.08227567132343351 0 0 0
1799 1 28.45821693191629 21.48171199353866 1.3087247999972087 0 0 0
1624 1 30.64881703980627 17.68748130760766 1.3087247999972116 0 0 0
1632 1 35.03001725558628 17.687481307607673 1.3087247999972147 0 0 0
1803 7 30.655443022931482 20.2235044776525 -0.08227567132344177 0 0 0
1807 1 32.83941714769628 21.481711993538653 1.30872479999722 0 0 0
1811 7 35.03664323871151 20.2235044776525 -0.08227567132343763 0 0 0
1640 1 39.41121747136629 17.68748130760764 1.3087247999972254 0 0 0
1815 1 37.22061736347627 21.481711993538664 1.3087247999971885 0 0 0
1819 7 39.417843454491475 20.223504477652515 -0.08227567132345612 0 0 0
1648 1 43.79241768714628 17.687481307607648 1.3087247999972074 0 0 0
1823 1 41.60181757925631 21.481711993538656 1.308724799997205 0 0 0
1827 7 43.79904367027148 20.223504477652515 -0.0822756713234332 0 0 0
1831 1 45.98301779503628 21.481711993538656 1.3087247999971972 0 0 0
1656 1 48.173617902926274 17.687481307607634 1.308724799997234 0 0 0
1480 1 52.55481811870631 17.687481307607655 1.3087247999972114 -1 0 0
1835 7 48.18024388605149 20.22350447765253 -0.0822756713234561 0 0 0
1839 1 50.364218010816266 21.481711993538635 1.3087247999972318 0 0 0
1659 7 52.5614441018315 20.223504477652504 -0.08227567132344567 -1 0 0
1488 1 56.93601833448626 17.687481307607637 1.308724799997214 -1 0 0
1663 1 54.745418226596286 21.48171199353864 1.3087247999972003 -1 0 0
1667 7 56.94264431761149 20.22350447765251 -0.08227567132344482 -1 0 0
1671 1 59.12661844237629 21.481711993538656 1.3087247999972098 -1 0 0
1496 1 61.31721855026631 17.68748130760765 1.3087247999972351 -1 0 0
1675 7 61.32384453339148 20.223504477652515 -0.08227567132345157 -1 0 0
1679 1 63.50781865815631 21.481711993538646 1.3087247999971978 -1 0 0
1504 1 65.6984187660463 17.687481307607637 1.3087247999972258 -1 0 0
1512 1 70.07961898182636 17.68748130760767 1.3087247999972016 -1 0 0
1683 7 65.70504474917146 20.223504477652526 -0.08227567132344671 -1 0 0
1687 1 67.8890188739363 21.481711993538656 1.308724799997226 -1 0 0
1691 7 70.08624496495155 20.2235044776525 -0.08227567132341063 -1 0 0
1520 1 74.46081919760633 17.687481307607616 1.308724799997234 -1 0 0
1695 1 72.27021908971622 21.481711993538664 1.308724799997193 -1 0 0
1699 7 74.4674451807315 20.22350447765251 -0.08227567132348704 -1 0 0
1703 1 76.65141930549628 21.481711993538678 1.3087247999972085 -1 0 0
1528 1 78.84201941338624 17.687481307607676 1.3087247999972125 -1 0 0
1707 7 78.84864539651151 20.223504477652494 -0.08227567132344067 -1 0 0
1711 1 81.03261952127627 21.48171199353865 1.308724799997197 -1 0 0
1536 1 83.22321962916621 17.687481307607637 1.3087247999972067 -1 0 0
1544 1 87.60441984494622 17.687481307607655 1.3087247999971956 -1 0 0
1715 7 83.22984561229146 20.223504477652504 -0.08227567132346207 -1 0 0
1719 1 85.41381973705634 21.481711993538656 1.3087247999971958 -1 0 0
1723 7 87.61104582807151 20.223504477652526 -0.08227567132339336 -1 0 0
1552 1 91.98562006072635 17.687481307607676 1.3087247999972547 -1 0 0
1727 1 89.7950199528362 21.481711993538656 1.3087247999972313 -1 0 0
1731 7 91.99224604385157 20.223504477652494 -0.08227567132345805 -1 0 0
1735 1 94.17622016861624 21.481711993538656 1.3087247999971805 -1 0 0
1747 7 100.75464647541152 20.22350447765249 -0.08227567132343376 -1 0 0
1560 1 96.36682027650626 17.68748130760764 1.3087247999972345 -1 0 0
1568 1 100.74802049228627 17.687481307607666 1.3087247999972074 -1 0 0
1739 7 96.37344625963148 20.223504477652522 -0.08227567132346823 -1 0 0
1743 1 98.55742038439628 21.481711993538642 1.3087247999972367 -1 0 0
1756 7 2.177641620361487 24.017735163583527 -0.08227567132340649 0 0 0
1760 1 4.361615745126271 25.275942679469637 1.3087247999971934 0 0 0
1939 7 4.368241728251499 27.8119658495145 -0.0822756713234565 0 0 0
1764 7 6.558841836141486 24.017735163583524 -0.08227567132345173 0 0 0
1772 7 10.940042051921493 24.017735163583513 -0.0822756713234355 0 0 0
1768 1 8.742815960906295 25.275942679469647 1.3087247999972165 0 0 0
1947 7 8.749441944031492 27.81196584951452 -0.08227567132344213 0 0 0
1780 7 15.321242267701477 24.01773516358351 -0.08227567132343888 0 0 0
1776 1 13.124016176686286 25.27594267946963 1.3087247999972162 0 0 0
1784 1 17.50521639246629 25.275942679469647 1.3087247999972256 0 0 0
1955 7 13.130642159811492 27.81196584951453 -0.08227567132345676 0 0 0
1963 7 17.511842375591492 27.811965849514518 -0.08227567132344937 0 0 0
1788 7 19.70244248348149 24.017735163583538 -0.08227567132345791 0 0 0
1792 1 21.88641660824629 25.275942679469654 1.3087247999972103 0 0 0
1971 7 21.89304259137147 27.81196584951451 -0.08227567132343916 0 0 0
1796 7 24.083642699261492 24.01773516358351 -0.08227567132343545 0 0 0
1804 7 28.464842915041512 24.0177351635835 -0.08227567132343361 0 0 0
1800 1 26.267616824026277 25.275942679469647 1.3087247999972051 0 0 0
1979 7 26.274242807151477 27.81196584951451 -0.0822756713234497 0 0 0
1812 7 32.84604313082151 24.01773516358351 -0.08227567132344338 0 0 0
1808 1 30.648817039806268 25.27594267946966 1.3087247999972087 0 0 0
1816 1 35.030017255586245 25.27594267946967 1.3087247999972007 0 0 0
1987 7 30.65544302293146 27.811965849514497 -0.08227567132345047 0 0 0
1995 7 35.03664323871149 27.81196584951451 -0.08227567132342384 0 0 0
1820 7 37.22724334660151 24.01773516358348 -0.08227567132344284 0 0 0
1824 1 39.41121747136628 25.275942679469644 1.3087247999972125 0 0 0
2003 7 39.41784345449149 27.81196584951452 -0.0822756713234491 0 0 0
1828 7 41.608443562381524 24.017735163583513 -0.08227567132342306 0 0 0
1836 7 45.98964377816149 24.0177351635835 -0.08227567132344525 0 0 0
1832 1 43.79241768714624 25.27594267946965 1.3087247999971914 0 0 0
2011 7 43.79904367027148 27.811965849514497 -0.08227567132344168 0 0 0
1660 7 50.37084399394152 24.017735163583524 -0.08227567132346782 -1 0 0
1840 1 48.173617902926274 25.275942679469665 1.3087247999972318 0 0 0
1664 1 52.5548181187063 25.275942679469654 1.3087247999971932 -1 0 0
2019 7 48.18024388605149 27.811965849514507 -0.08227567132344356 0 0 0
1843 7 52.56144410183148 27.811965849514504 -0.08227567132343515 -1 0 0
1668 7 54.752044209721454 24.01773516358352 -0.08227567132343003 -1 0 0
1676 7 59.13324442550149 24.017735163583506 -0.0822756713234403 -1 0 0
1672 1 56.9360183344863 25.275942679469658 1.3087247999971967 -1 0 0
1851 7 56.94264431761149 27.811965849514518 -0.08227567132343373 -1 0 0
1684 7 63.51444464128145 24.017735163583502 -0.08227567132345408 -1 0 0
1680 1 61.317218550266304 25.27594267946964 1.3087247999972393 -1 0 0
1859 7 61.32384453339149 27.811965849514504 -0.08227567132347154 -1 0 0
1692 7 67.89564485706144 24.017735163583502 -0.08227567132345613 -1 0 0
1688 1 65.69841876604633 25.275942679469658 1.308724799997208 -1 0 0
1696 1 70.07961898182636 25.275942679469637 1.3087247999972087 -1 0 0
1867 7 65.7050447491715 27.811965849514547 -0.08227567132341572 -1 0 0
1875 7 70.08624496495158 27.811965849514525 -0.08227567132342879 -1 0 0
1700 7 72.27684507284143 24.017735163583517 -0.08227567132341432 -1 0 0
1708 7 76.6580452886215 24.017735163583495 -0.08227567132342839 -1 0 0
1704 1 74.46081919760631 25.275942679469637 1.308724799997251 -1 0 0
1883 7 74.46744518073147 27.811965849514504 -0.08227567132350021 -1 0 0
1716 7 81.03924550440155 24.01773516358352 -0.08227567132342702 -1 0 0
1712 1 78.84201941338625 25.275942679469665 1.3087247999971883 -1 0 0
1891 7 78.84864539651149 27.811965849514515 -0.08227567132342586 -1 0 0
1724 7 85.42044572018158 24.017735163583517 -0.08227567132342595 -1 0 0
1720 1 83.22321962916621 25.27594267946964 1.308724799997234 -1 0 0
1728 1 87.60441984494621 25.275942679469647 1.3087247999971923 -1 0 0
1899 7 83.22984561229144 27.811965849514507 -0.08227567132347251 -1 0 0
1907 7 87.61104582807145 27.811965849514536 -0.08227567132339339 -1 0 0
1732 7 89.80164593596149 24.017735163583485 -0.08227567132348268 -1 0 0
1740 7 94.18284615174146 24.01773516358349 -0.08227567132344021 -1 0 0
1736 1 91.98562006072633 25.275942679469647 1.3087247999972178 -1 0 0
1915 7 91.99224604385158 27.811965849514515 -0.08227567132345386 -1 0 0
1931 7 100.75464647541152 27.81196584951451 -0.08227567132342613 -1 0 0
1748 7 98.56404636752148 24.01773516358353 -0.08227567132344958 -1 0 0
1744 1 96.3668202765063 25.275942679469654 1.3087247999972516 -1 0 0
1752 1 100.74802049228629 25.275942679469647 1.3087247999971858 -1 0 0
1923 7 96.37344625963146 27.81196584951451 -0.08227567132347811 -1 0 0
1935 1 2.1710156372362444 29.070173365400645 1.3087247999972007 0 0 0
1940 7 2.1776416203614533 31.606196535445537 -0.08227567132340553 0 0 0
1944 1 4.36161574512628 32.86440405133165 1.3087247999972125 0 0 0
1943 1 6.552215853016294 29.070173365400642 1.3087247999972222 0 0 0
1951 1 10.933416068796275 29.070173365400642 1.308724799997213 0 0 0
1948 7 6.558841836141493 31.60619653544552 -0.08227567132345197 0 0 0
1956 7 10.940042051921504 31.606196535445502 -0.08227567132345896 0 0 0
1952 1 8.74281596090627 32.86440405133169 1.3087247999972147 0 0 0
1959 1 15.314616284576285 29.070173365400652 1.308724799997213 0 0 0
1964 7 15.32124226770149 31.606196535445505 -0.08227567132343865 0 0 0
1960 1 13.12401617668629 32.864404051331654 1.3087247999971954 0 0 0
1968 1 17.50521639246628 32.864404051331675 1.3087247999972071 0 0 0
1967 1 19.6958165003563 29.070173365400624 1.3087247999972105 0 0 0
1972 7 19.70244248348149 31.606196535445527 -0.08227567132345472 0 0 0
1976 1 21.886416608246293 32.86440405133165 1.3087247999972076 0 0 0
1975 1 24.077016716136292 29.07017336540064 1.308724799997223 0 0 0
1983 1 28.458216931916304 29.070173365400642 1.3087247999972234 0 0 0
1980 7 24.08364269926148 31.606196535445527 -0.08227567132344636 0 0 0
1988 7 28.46484291504152 31.60619653544551 -0.0822756713234465 0 0 0
1984 1 26.267616824026277 32.86440405133168 1.308724799997214 0 0 0
1991 1 32.83941714769632 29.07017336540065 1.3087247999972225 0 0 0
1996 7 32.84604313082153 31.60619653544551 -0.08227567132344753 0 0 0
1992 1 30.648817039806254 32.864404051331675 1.3087247999972031 0 0 0
2000 1 35.030017255586266 32.864404051331626 1.3087247999972058 0 0 0
1999 1 37.22061736347627 29.070173365400645 1.3087247999972027 0 0 0
2004 7 37.22724334660149 31.606196535445505 -0.08227567132344585 0 0 0
2008 1 39.411217471366285 32.864404051331654 1.308724799997216 0 0 0
2007 1 41.601817579256284 29.07017336540063 1.3087247999972194 0 0 0
2015 1 45.983017795036304 29.070173365400642 1.3087247999972031 0 0 0
2012 7 41.6084435623815 31.606196535445527 -0.08227567132345044 0 0 0
2020 7 45.989643778161465 31.60619653544554 -0.08227567132343326 0 0 0
2016 1 43.7924176871463 32.86440405133165 1.3087247999971934 0 0 0
2023 1 50.36421801081628 29.07017336540062 1.3087247999972265 0 0 0
1844 7 50.3708439939415 31.60619653544553 -0.08227567132345849 -1 0 0
2024 1 48.17361790292628 32.86440405133163 1.3087247999972165 0 0 0
1848 1 52.55481811870629 32.86440405133167 1.3087247999972063 -1 0 0
1847 1 54.7454182265963 29.070173365400624 1.308724799997208 -1 0 0
1855 1 59.126618442376284 29.070173365400645 1.3087247999972256 -1 0 0
1852 7 54.75204420972148 31.606196535445527 -0.08227567132345212 -1 0 0
1860 7 59.13324442550148 31.606196535445513 -0.08227567132344665 -1 0 0
1856 1 56.9360183344863 32.864404051331675 1.3087247999972045 -1 0 0
1863 1 63.50781865815631 29.070173365400624 1.3087247999972238 -1 0 0
1868 7 63.51444464128147 31.60619653544553 -0.08227567132345599 -1 0 0
1864 1 61.317218550266304 32.86440405133163 1.3087247999972087 -1 0 0
1871 1 67.88901887393622 29.070173365400624 1.308724799997222 -1 0 0
1876 7 67.89564485706146 31.6061965354455 -0.08227567132348897 -1 0 0
1872 1 65.69841876604629 32.86440405133169 1.3087247999972178 -1 0 0
1880 1 70.07961898182636 32.86440405133169 1.308724799997196 -1 0 0
1879 1 72.2702190897162 29.07017336540063 1.3087247999971992 -1 0 0
1887 1 76.65141930549633 29.07017336540065 1.3087247999972222 -1 0 0
1884 7 72.27684507284148 31.606196535445545 -0.08227567132340814 -1 0 0
1892 7 76.6580452886215 31.606196535445527 -0.08227567132344209 -1 0 0
1888 1 74.46081919760627 32.864404051331626 1.3087247999972118 -1 0 0
1895 1 81.03261952127627 29.070173365400645 1.3087247999972074 -1 0 0
1900 7 81.03924550440156 31.606196535445527 -0.08227567132342958 -1 0 0
1896 1 78.84201941338624 32.86440405133167 1.3087247999972087 -1 0 0
1903 1 85.41381973705637 29.07017336540065 1.3087247999971854 -1 0 0
1908 7 85.42044572018149 31.606196535445502 -0.08227567132343304 -1 0 0
1904 1 83.22321962916624 32.86440405133161 1.3087247999971894 -1 0 0
1912 1 87.60441984494629 32.86440405133168 1.3087247999971918 -1 0 0
1911 1 89.79501995283623 29.070173365400635 1.3087247999972509 -1 0 0
1919 1 94.17622016861624 29.070173365400656 1.3087247999971843 -1 0 0
1916 7 89.80164593596146 31.606196535445534 -0.08227567132347974 -1 0 0
1924 7 94.18284615174144 31.606196535445513 -0.08227567132341834 -1 0 0
1920 1 91.98562006072633 32.86440405133161 1.3087247999972258 -1 0 0
1927 1 98.5574203843963 29.07017336540063 1.3087247999972547 -1 0 0
1932 7 98.56404636752148 31.606196535445534 -0.08227567132347362 -1 0 0
1928 1 96.36682027650629 32.86440405133161 1.308724799997244 -1 0 0
1936 1 100.74802049228633 32.86440405133164 1.3087247999971903 -1 0 0
2119 1 2.1710156372362754 36.65863473726268 1.3087247999972245 0 0 0
2123 7 4.368241728251519 35.40042722137649 -0.08227567132346326 0 0 0
2124 7 2.1776416203614612 39.19465790730753 -0.08227567132339472 0 0 0
2128 1 4.361615745126279 40.45286542319362 1.3087247999972056 0 0 0
2127 1 6.552215853016287 36.658634737262645 1.308724799997219 0 0 0
2131 7 8.749441944031489 35.40042722137649 -0.08227567132342622 0 0 0
2135 1 10.933416068796282 36.65863473726266 1.308724799997208 0 0 0
2132 7 6.558841836141482 39.19465790730752 -0.08227567132344571 0 0 0
2140 7 10.94004205192149 39.19465790730749 -0.08227567132345144 0 0 0
2136 1 8.742815960906281 40.45286542319366 1.3087247999972216 0 0 0