LAMMPS data file via write_data, version 29 Aug 2024, timestep = 0, units = metal

2392 atoms
4 atom types

0 100.76760496294 xlo xhi
0 98.649997834206 ylo yhi
0 20.557731982903 zlo zhi

Masses

1 114.818
2 114.818
3 127.6
4 127.6

Atoms # atomic

1204 3 2.1906065828150005 1.2646642830619967 0 0 0 0
1212 3 6.571806798594999 1.2646642830619967 0 0 0 0
1220 3 10.953007014374997 1.2646642830619967 0 0 0 0
1228 3 15.334207230154995 1.2646642830619967 0 0 0 0
1236 3 19.715407445934993 1.2646642830619967 0 0 0 0
1244 3 24.096607661715005 1.2646642830619967 0 0 0 0
1252 3 28.477807877495003 1.2646642830619967 0 0 0 0
1260 3 32.859008093275 1.2646642830619967 0 0 0 0
1268 3 37.240208309055 1.2646642830619967 0 0 0 0
1276 3 41.621408524835 1.2646642830619967 0 0 0 0
1284 3 46.002608740614995 1.2646642830619967 0 0 0 0
1108 3 50.383808956395 1.2646642830619967 0 -1 0 0
1116 3 54.765009172175 1.2646642830619967 0 -1 0 0
1124 3 59.146209387955 1.2646642830619967 0 -1 0 0
1132 3 63.527409603734995 1.2646642830619967 0 -1 0 0
1140 3 67.908609819515 1.2646642830619967 0 -1 0 0
1148 3 72.289810035295 1.2646642830619967 0 -1 0 0
1156 3 76.671010251075 1.2646642830619967 0 -1 0 0
1164 3 81.052210466855 1.2646642830619967 0 -1 0 0
1172 3 85.433410682635 1.2646642830619967 0 -1 0 0
1180 3 89.814610898415 1.2646642830619967 0 -1 0 0
1188 3 94.195811114195 1.2646642830619967 0 -1 0 0
1196 3 98.577011329975 1.2646642830619967 0 -1 0 0
1208 1 4.381146301736997 2.5300012406069996 1.3745712080990007 0 0 0
1216 1 8.762346517517003 2.5300012406069996 1.3745712080990007 0 0 0
1224 1 13.143546733297 2.5300012406069996 1.3745712080990007 0 0 0
1232 1 17.524746949077006 2.5300012406069996 1.3745712080990007 0 0 0
1240 1 21.905947164857004 2.5300012406069996 1.3745712080990007 0 0 0
1248 1 26.287147380637002 2.5300012406069996 1.3745712080990007 0 0 0
1256 1 30.668347596417 2.5300012406069996 1.3745712080990007 0 0 0
1264 1 35.049547812197 2.5300012406069996 1.3745712080990007 0 0 0
1272 1 39.430748027976996 2.5300012406069996 1.3745712080990007 0 0 0
1280 1 43.811948243756994 2.5300012406069996 1.3745712080990007 0 0 0
1288 1 48.19314845953701 2.5300012406069996 1.3745712080990007 0 0 0
1112 1 52.574348675317 2.5300012406069996 1.3745712080990007 -1 0 0
1120 1 56.955548891096996 2.5300012406069996 1.3745712080990007 -1 0 0
1128 1 61.336749106876994 2.5300012406069996 1.3745712080990007 -1 0 0
1136 1 65.717949322657 2.5300012406069996 1.3745712080990007 -1 0 0
1144 1 70.09914953843699 2.5300012406069996 1.3745712080990007 -1 0 0
1152 1 74.480349754217 2.5300012406069996 1.3745712080990007 -1 0 0
1160 1 78.861549969997 2.5300012406069996 1.3745712080990007 -1 0 0
1168 1 83.242750185777 2.5300012406069996 1.3745712080990007 -1 0 0
1176 1 87.623950401557 2.5300012406069996 1.3745712080990007 -1 0 0
1184 1 92.005150617337 2.5300012406069996 1.3745712080990007 -1 0 0
1192 1 96.386350833117 2.5300012406069996 1.3745712080990007 -1 0 0
1200 1 100.76755104889699 2.5300012406069996 1.3745712080990007 -1 0 0
1379 3 6.474925001498377e-06 5.058894968992995 0 0 0 0
1383 1 2.1905461938469983 6.324231926537998 1.3745712080990007 0 0 0
1387 3 4.381206690705 5.058894968992995 0 0 0 0
1391 1 6.571746409626996 6.324231926537998 1.3745712080990007 0 0 0
1395 3 8.762406906484998 5.058894968992995 0 0 0 0
1399 1 10.952946625407002 6.324231926537998 1.3745712080990007 0 0 0
1403 3 13.143607122265003 5.058894968992995 0 0 0 0
1407 1 15.334146841187 6.324231926537998 1.3745712080990007 0 0 0
1411 3 17.524807338045 5.058894968992995 0 0 0 0
1415 1 19.715347056966998 6.324231926537998 1.3745712080990007 0 0 0
1419 3 21.906007553825 5.058894968992995 0 0 0 0
1423 1 24.096547272746996 6.324231926537998 1.3745712080990007 0 0 0
1427 3 26.287207769604997 5.058894968992995 0 0 0 0
1431 1 28.477747488526994 6.324231926537998 1.3745712080990007 0 0 0
1435 3 30.668407985384995 5.058894968992995 0 0 0 0
1439 1 32.858947704307006 6.324231926537998 1.3745712080990007 0 0 0
1443 3 35.04960820116499 5.058894968992995 0 0 0 0
1447 1 37.240147920087004 6.324231926537998 1.3745712080990007 0 0 0
1451 3 39.430808416945005 5.058894968992995 0 0 0 0
1455 1 41.621348135867 6.324231926537998 1.3745712080990007 0 0 0
1459 3 43.812008632725004 5.058894968992995 0 0 0 0
1463 1 46.002548351647 6.324231926537998 1.3745712080990007 0 0 0
1467 3 48.193208848505 5.058894968992995 0 0 0 0
1471 1 50.383748567427 6.324231926537998 1.3745712080990007 0 0 0
1291 3 52.574409064285 5.058894968992995 0 -1 0 0
1295 1 54.764948783207 6.324231926537998 1.3745712080990007 -1 0 0
1299 3 56.955609280065 5.058894968992995 0 -1 0 0
1303 1 59.146148998987 6.324231926537998 1.3745712080990007 -1 0 0
1307 3 61.336809495844996 5.058894968992995 0 -1 0 0
1311 1 63.527349214767 6.324231926537998 1.3745712080990007 -1 0 0
1315 3 65.718009711625 5.058894968992995 0 -1 0 0
1319 1 67.908549430547 6.324231926537998 1.3745712080990007 -1 0 0
1323 3 70.099209927405 5.058894968992995 0 -1 0 0
1327 1 72.289749646327 6.324231926537998 1.3745712080990007 -1 0 0
1331 3 74.480410143185 5.058894968992995 0 -1 0 0
1335 1 76.670949862107 6.324231926537998 1.3745712080990007 -1 0 0
1339 3 78.861610358965 5.058894968992995 0 -1 0 0
1343 1 81.052150077887 6.324231926537998 1.3745712080990007 -1 0 0
1347 3 83.242810574745 5.058894968992995 0 -1 0 0
1351 1 85.43335029366699 6.324231926537998 1.3745712080990007 -1 0 0
1355 3 87.624010790525 5.058894968992995 0 -1 0 0
1359 1 89.814550509447 6.324231926537998 1.3745712080990007 -1 0 0
1363 3 92.00521100630499 5.058894968992995 0 -1 0 0
1367 1 94.195750725227 6.324231926537998 1.3745712080990007 -1 0 0
1371 3 96.386411222085 5.058894968992995 0 -1 0 0
1375 1 98.576950941007 6.324231926537998 1.3745712080990007 -1 0 0
1388 3 2.1906065828150005 8.853125654924 0 0 0 0
1392 1 4.381146301736997 10.118462612468996 1.3745712080990007 0 0 0
1396 3 6.571806798594999 8.853125654924 0 0 0 0
1400 1 8.762346517517003 10.118462612468996 1.3745712080990007 0 0 0
1404 3 10.953007014374997 8.853125654924 0 0 0 0
1408 1 13.143546733297 10.118462612468996 1.3745712080990007 0 0 0
1412 3 15.334207230154995 8.853125654924 0 0 0 0
1416 1 17.524746949077006 10.118462612468996 1.3745712080990007 0 0 0
1420 3 19.715407445934993 8.853125654924 0 0 0 0
1424 1 21.905947164857004 10.118462612468996 1.3745712080990007 0 0 0
1428 3 24.096607661715005 8.853125654924 0 0 0 0
1432 1 26.287147380637002 10.118462612468996 1.3745712080990007 0 0 0
1436 3 28.477807877495003 8.853125654924 0 0 0 0
1440 1 30.668347596417 10.118462612468996 1.3745712080990007 0 0 0
1444 3 32.859008093275 8.853125654924 0 0 0 0
1448 1 35.049547812197 10.118462612468996 1.3745712080990007 0 0 0
1452 3 37.240208309055 8.853125654924 0 0 0 0
1456 1 39.430748027976996 10.118462612468996 1.3745712080990007 0 0 0
1460 3 41.621408524835 8.853125654924 0 0 0 0
1464 1 43.811948243756994 10.118462612468996 1.3745712080990007 0 0 0
1468 3 46.002608740614995 8.853125654924 0 0 0 0
1472 1 48.19314845953701 10.118462612468996 1.3745712080990007 0 0 0
1292 3 50.383808956395 8.853125654924 0 -1 0 0
1296 1 52.574348675317 10.118462612468996 1.3745712080990007 -1 0 0
1300 3 54.765009172175 8.853125654924 0 -1 0 0
1304 1 56.955548891096996 10.118462612468996 1.3745712080990007 -1 0 0
1308 3 59.146209387955 8.853125654924 0 -1 0 0
1312 1 61.336749106876994 10.118462612468996 1.3745712080990007 -1 0 0
1316 3 63.527409603734995 8.853125654924 0 -1 0 0
1320 1 65.717949322657 10.118462612468996 1.3745712080990007 -1 0 0
1324 3 67.908609819515 8.853125654924 0 -1 0 0
1328 1 70.09914953843699 10.118462612468996 1.3745712080990007 -1 0 0
1332 3 72.289810035295 8.853125654924 0 -1 0 0
1336 1 74.480349754217 10.118462612468996 1.3745712080990007 -1 0 0
1340 3 76.671010251075 8.853125654924 0 -1 0 0
1344 1 78.861549969997 10.118462612468996 1.3745712080990007 -1 0 0
1348 3 81.052210466855 8.853125654924 0 -1 0 0
1352 1 83.242750185777 10.118462612468996 1.3745712080990007 -1 0 0
1356 3 85.433410682635 8.853125654924 0 -1 0 0
1360 1 87.623950401557 10.118462612468996 1.3745712080990007 -1 0 0
1364 3 89.814610898415 8.853125654924 0 -1 0 0
1368 1 92.005150617337 10.118462612468996 1.3745712080990007 -1 0 0
1372 3 94.195811114195 8.853125654924 0 -1 0 0
1376 1 96.386350833117 10.118462612468996 1.3745712080990007 -1 0 0
1380 3 98.577011329975 8.853125654924 0 -1 0 0
1384 1 100.76755104889699 10.118462612468996 1.3745712080990007 -1 0 0
1563 3 6.474925001498377e-06 12.647356340854998 0 0 0 0
1571 3 4.381206690705 12.647356340854998 0 0 0 0
1579 3 8.762406906484998 12.647356340854998 0 0 0 0
1587 3 13.143607122265003 12.647356340854998 0 0 0 0
1595 3 17.524807338045 12.647356340854998 0 0 0 0
1603 3 21.906007553825 12.647356340854998 0 0 0 0
1611 3 26.287207769604997 12.647356340854998 0 0 0 0
1619 3 30.668407985384995 12.647356340854998 0 0 0 0
1627 3 35.04960820116499 12.647356340854998 0 0 0 0
1635 3 39.430808416945005 12.647356340854998 0 0 0 0
1643 3 43.812008632725004 12.647356340854998 0 0 0 0
1651 3 48.193208848505 12.647356340854998 0 0 0 0
1475 3 52.574409064285 12.647356340854998 0 -1 0 0
1483 3 56.955609280065 12.647356340854998 0 -1 0 0
1491 3 61.336809495844996 12.647356340854998 0 -1 0 0
1499 3 65.718009711625 12.647356340854998 0 -1 0 0
1507 3 70.099209927405 12.647356340854998 0 -1 0 0
1515 3 74.480410143185 12.647356340854998 0 -1 0 0
1523 3 78.861610358965 12.647356340854998 0 -1 0 0
1531 3 83.242810574745 12.647356340854998 0 -1 0 0
1539 3 87.624010790525 12.647356340854998 0 -1 0 0
1547 3 92.00521100630499 12.647356340854998 0 -1 0 0
1555 3 96.386411222085 12.647356340854998 0 -1 0 0
1567 1 2.1905461938469983 13.9126932984 1.3745712080990007 0 0 0
1575 1 6.571746409626996 13.9126932984 1.3745712080990007 0 0 0
1583 1 10.952946625407002 13.9126932984 1.3745712080990007 0 0 0
1591 1 15.334146841187 13.9126932984 1.3745712080990007 0 0 0
1599 1 19.715347056966998 13.9126932984 1.3745712080990007 0 0 0
1607 1 24.096547272746996 13.9126932984 1.3745712080990007 0 0 0
1615 1 28.477747488526994 13.9126932984 1.3745712080990007 0 0 0
1623 1 32.858947704307006 13.9126932984 1.3745712080990007 0 0 0
1631 1 37.240147920087004 13.9126932984 1.3745712080990007 0 0 0
1639 1 41.621348135867 13.9126932984 1.3745712080990007 0 0 0
1647 1 46.002548351647 13.9126932984 1.3745712080990007 0 0 0
1655 1 50.383748567427 13.9126932984 1.3745712080990007 0 0 0
1479 1 54.764948783207 13.9126932984 1.3745712080990007 -1 0 0
1487 1 59.146148998987 13.9126932984 1.3745712080990007 -1 0 0
1495 1 63.527349214767 13.9126932984 1.3745712080990007 -1 0 0
1503 1 67.908549430547 13.9126932984 1.3745712080990007 -1 0 0
1511 1 72.289749646327 13.9126932984 1.3745712080990007 -1 0 0
1519 1 76.670949862107 13.9126932984 1.3745712080990007 -1 0 0
1527 1 81.052150077887 13.9126932984 1.3745712080990007 -1 0 0
1535 1 85.43335029366699 13.9126932984 1.3745712080990007 -1 0 0
1543 1 89.814550509447 13.9126932984 1.3745712080990007 -1 0 0
1551 1 94.195750725227 13.9126932984 1.3745712080990007 -1 0 0
1559 1 98.576950941007 13.9126932984 1.3745712080990007 -1 0 0
1572 3 2.1906065828150005 16.441587026785996 0 0 0 0
1580 3 6.571806798594999 16.441587026785996 0 0 0 0
1588 3 10.953007014374997 16.441587026785996 0 0 0 0
1596 3 15.334207230154995 16.441587026785996 0 0 0 0
1604 3 19.715407445934993 16.441587026785996 0 0 0 0
1612 3 24.096607661715005 16.441587026785996 0 0 0 0
1620 3 28.477807877495003 16.441587026785996 0 0 0 0
1628 3 32.859008093275 16.441587026785996 0 0 0 0
1636 3 37.240208309055 16.441587026785996 0 0 0 0
1644 3 41.621408524835 16.441587026785996 0 0 0 0
1652 3 46.002608740614995 16.441587026785996 0 0 0 0
1476 3 50.383808956395 16.441587026785996 0 -1 0 0
1484 3 54.765009172175 16.441587026785996 0 -1 0 0
1492 3 59.146209387955 16.441587026785996 0 -1 0 0
1500 3 63.527409603734995 16.441587026785996 0 -1 0 0
1508 3 67.908609819515 16.441587026785996 0 -1 0 0
1516 3 72.289810035295 16.441587026785996 0 -1 0 0
1524 3 76.671010251075 16.441587026785996 0 -1 0 0
1532 3 81.052210466855 16.441587026785996 0 -1 0 0
1540 3 85.433410682635 16.441587026785996 0 -1 0 0
1548 3 89.814610898415 16.441587026785996 0 -1 0 0
1556 3 94.195811114195 16.441587026785996 0 -1 0 0
1564 3 98.577011329975 16.441587026785996 0 -1 0 0
1576 1 4.381146301736997 17.706923984331 1.3745712080990007 0 0 0
1584 1 8.762346517517003 17.706923984331 1.3745712080990007 0 0 0
1592 1 13.143546733297 17.706923984331 1.3745712080990007 0 0 0
1600 1 17.524746949077006 17.706923984331 1.3745712080990007 0 0 0
1608 1 21.905947164857004 17.706923984331 1.3745712080990007 0 0 0
1616 1 26.287147380637002 17.706923984331 1.3745712080990007 0 0 0
1624 1 30.668347596417 17.706923984331 1.3745712080990007 0 0 0
1632 1 35.049547812197 17.706923984331 1.3745712080990007 0 0 0
1640 1 39.430748027976996 17.706923984331 1.3745712080990007 0 0 0
1648 1 43.811948243756994 17.706923984331 1.3745712080990007 0 0 0
1656 1 48.19314845953701 17.706923984331 1.3745712080990007 0 0 0
1480 1 52.574348675317 17.706923984331 1.3745712080990007 -1 0 0
1488 1 56.955548891096996 17.706923984331 1.3745712080990007 -1 0 0
1496 1 61.336749106876994 17.706923984331 1.3745712080990007 -1 0 0
1504 1 65.717949322657 17.706923984331 1.3745712080990007 -1 0 0
1512 1 70.09914953843699 17.706923984331 1.3745712080990007 -1 0 0
1520 1 74.480349754217 17.706923984331 1.3745712080990007 -1 0 0
1528 1 78.861549969997 17.706923984331 1.3745712080990007 -1 0 0
1536 1 83.242750185777 17.706923984331 1.3745712080990007 -1 0 0
1544 1 87.623950401557 17.706923984331 1.3745712080990007 -1 0 0
1552 1 92.005150617337 17.706923984331 1.3745712080990007 -1 0 0
1560 1 96.386350833117 17.706923984331 1.3745712080990007 -1 0 0
1568 1 100.76755104889699 17.706923984331 1.3745712080990007 -1 0 0
1747 3 6.474925001498377e-06 20.235817712716994 0 0 0 0
1751 1 2.1905461938469983 21.501154670261997 1.3745712080990007 0 0 0
1755 3 4.381206690705 20.235817712716994 0 0 0 0
1759 1 6.571746409626996 21.501154670261997 1.3745712080990007 0 0 0
1763 3 8.762406906484998 20.235817712716994 0 0 0 0
1767 1 10.952946625407002 21.501154670261997 1.3745712080990007 0 0 0
1771 3 13.143607122265003 20.235817712716994 0 0 0 0
1775 1 15.334146841187 21.501154670261997 1.3745712080990007 0 0 0
1779 3 17.524807338045 20.235817712716994 0 0 0 0
1783 1 19.715347056966998 21.501154670261997 1.3745712080990007 0 0 0
1787 3 21.906007553825 20.235817712716994 0 0 0 0
1791 1 24.096547272746996 21.501154670261997 1.3745712080990007 0 0 0
1795 3 26.287207769604997 20.235817712716994 0 0 0 0
1799 1 28.477747488526994 21.501154670261997 1.3745712080990007 0 0 0
1803 3 30.668407985384995 20.235817712716994 0 0 0 0
1807 1 32.858947704307006 21.501154670261997 1.3745712080990007 0 0 0
1811 3 35.04960820116499 20.235817712716994 0 0 0 0
1815 1 37.240147920087004 21.501154670261997 1.3745712080990007 0 0 0
1819 3 39.430808416945005 20.235817712716994 0 0 0 0
1823 1 41.621348135867 21.501154670261997 1.3745712080990007 0 0 0
1827 3 43.812008632725004 20.235817712716994 0 0 0 0
1831 1 46.002548351647 21.501154670261997 1.3745712080990007 0 0 0
1835 3 48.193208848505 20.235817712716994 0 0 0 0
1839 1 50.383748567427 21.501154670261997 1.3745712080990007 0 0 0
1659 3 52.574409064285 20.235817712716994 0 -1 0 0
1663 1 54.764948783207 21.501154670261997 1.3745712080990007 -1 0 0
1667 3 56.955609280065 20.235817712716994 0 -1 0 0
1671 1 59.146148998987 21.501154670261997 1.3745712080990007 -1 0 0
1675 3 61.336809495844996 20.235817712716994 0 -1 0 0
1679 1 63.527349214767 21.501154670261997 1.3745712080990007 -1 0 0
1683 3 65.718009711625 20.235817712716994 0 -1 0 0
1687 1 67.908549430547 21.501154670261997 1.3745712080990007 -1 0 0
1691 3 70.099209927405 20.235817712716994 0 -1 0 0
1695 1 72.289749646327 21.501154670261997 1.3745712080990007 -1 0 0
1699 3 74.480410143185 20.235817712716994 0 -1 0 0
1703 1 76.670949862107 21.501154670261997 1.3745712080990007 -1 0 0
1707 3 78.861610358965 20.235817712716994 0 -1 0 0
1711 1 81.052150077887 21.501154670261997 1.3745712080990007 -1 0 0
1715 3 83.242810574745 20.235817712716994 0 -1 0 0
1719 1 85.43335029366699 21.501154670261997 1.3745712080990007 -1 0 0
1723 3 87.624010790525 20.235817712716994 0 -1 0 0
1727 1 89.814550509447 21.501154670261997 1.3745712080990007 -1 0 0
1731 3 92.00521100630499 20.235817712716994 0 -1 0 0
1735 1 94.195750725227 21.501154670261997 1.3745712080990007 -1 0 0
1739 3 96.386411222085 20.235817712716994 0 -1 0 0
1743 1 98.576950941007 21.501154670261997 1.3745712080990007 -1 0 0
1756 3 2.1906065828150005 24.030048398647992 0 0 0 0
1764 3 6.571806798594999 24.030048398647992 0 0 0 0
1772 3 10.953007014374997 24.030048398647992 0 0 0 0
1780 3 15.334207230154995 24.030048398647992 0 0 0 0
1788 3 19.715407445934993 24.030048398647992 0 0 0 0
1796 3 24.096607661715005 24.030048398647992 0 0 0 0
1804 3 28.477807877495003 24.030048398647992 0 0 0 0
1812 3 32.859008093275 24.030048398647992 0 0 0 0
1820 3 37.240208309055 24.030048398647992 0 0 0 0
1828 3 41.621408524835 24.030048398647992 0 0 0 0
1836 3 46.002608740614995 24.030048398647992 0 0 0 0
1660 3 50.383808956395 24.030048398647992 0 -1 0 0
1668 3 54.765009172175 24.030048398647992 0 -1 0 0
1676 3 59.146209387955 24.030048398647992 0 -1 0 0
1684 3 63.527409603734995 24.030048398647992 0 -1 0 0
1692 3 67.908609819515 24.030048398647992 0 -1 0 0
1700 3 72.289810035295 24.030048398647992 0 -1 0 0
1708 3 76.671010251075 24.030048398647992 0 -1 0 0
1716 3 81.052210466855 24.030048398647992 0 -1 0 0
1724 3 85.433410682635 24.030048398647992 0 -1 0 0
1732 3 89.814610898415 24.030048398647992 0 -1 0 0
1740 3 94.195811114195 24.030048398647992 0 -1 0 0
1748 3 98.577011329975 24.030048398647992 0 -1 0 0
1760 1 4.381146301736997 25.295385356192995 1.3745712080990007 0 0 0
1768 1 8.762346517517003 25.295385356192995 1.3745712080990007 0 0 0
1776 1 13.143546733297 25.295385356192995 1.3745712080990007 0 0 0
1784 1 17.524746949077006 25.295385356192995 1.3745712080990007 0 0 0
1792 1 21.905947164857004 25.295385356192995 1.3745712080990007 0 0 0
1800 1 26.287147380637002 25.295385356192995 1.3745712080990007 0 0 0
1808 1 30.668347596417 25.295385356192995 1.3745712080990007 0 0 0
1816 1 35.049547812197 25.295385356192995 1.3745712080990007 0 0 0
1824 1 39.430748027976996 25.295385356192995 1.3745712080990007 0 0 0
1832 1 43.811948243756994 25.295385356192995 1.3745712080990007 0 0 0
1840 1 48.19314845953701 25.295385356192995 1.3745712080990007 0 0 0
1664 1 52.574348675317 25.295385356192995 1.3745712080990007 -1 0 0
1672 1 56.955548891096996 25.295385356192995 1.3745712080990007 -1 0 0
1680 1 61.336749106876994 25.295385356192995 1.3745712080990007 -1 0 0
1688 1 65.717949322657 25.295385356192995 1.3745712080990007 -1 0 0
1696 1 70.09914953843699 25.295385356192995 1.3745712080990007 -1 0 0
1704 1 74.480349754217 25.295385356192995 1.3745712080990007 -1 0 0
1712 1 78.861549969997 25.295385356192995 1.3745712080990007 -1 0 0
1720 1 83.242750185777 25.295385356192995 1.3745712080990007 -1 0 0
1728 1 87.623950401557 25.295385356192995 1.3745712080990007 -1 0 0
1736 1 92.005150617337 25.295385356192995 1.3745712080990007 -1 0 0
1744 1 96.386350833117 25.295385356192995 1.3745712080990007 -1 0 0
1752 1 100.76755104889699 25.295385356192995 1.3745712080990007 -1 0 0
1931 3 6.474925001498377e-06 27.824279084579004 0 0 0 0
1939 3 4.381206690705 27.824279084579004 0 0 0 0
1947 3 8.762406906484998 27.824279084579004 0 0 0 0
1955 3 13.143607122265003 27.824279084579004 0 0 0 0
1963 3 17.524807338045 27.824279084579004 0 0 0 0
1971 3 21.906007553825 27.824279084579004 0 0 0 0
1979 3 26.287207769604997 27.824279084579004 0 0 0 0
1987 3 30.668407985384995 27.824279084579004 0 0 0 0
1995 3 35.04960820116499 27.824279084579004 0 0 0 0
2003 3 39.430808416945005 27.824279084579004 0 0 0 0
2011 3 43.812008632725004 27.824279084579004 0 0 0 0
2019 3 48.193208848505 27.824279084579004 0 0 0 0
1843 3 52.574409064285 27.824279084579004 0 -1 0 0
1851 3 56.955609280065 27.824279084579004 0 -1 0 0
1859 3 61.336809495844996 27.824279084579004 0 -1 0 0
1867 3 65.718009711625 27.824279084579004 0 -1 0 0
1875 3 70.099209927405 27.824279084579004 0 -1 0 0
1883 3 74.480410143185 27.824279084579004 0 -1 0 0
1891 3 78.861610358965 27.824279084579004 0 -1 0 0
1899 3 83.242810574745 27.824279084579004 0 -1 0 0
1907 3 87.624010790525 27.824279084579004 0 -1 0 0
1915 3 92.00521100630499 27.824279084579004 0 -1 0 0
1923 3 96.386411222085 27.824279084579004 0 -1 0 0
1935 1 2.1905461938469983 29.089616042123993 1.3745712080990007 0 0 0
1943 1 6.571746409626996 29.089616042123993 1.3745712080990007 0 0 0
1951 1 10.952946625407002 29.089616042123993 1.3745712080990007 0 0 0
1959 1 15.334146841187 29.089616042123993 1.3745712080990007 0 0 0
1967 1 19.715347056966998 29.089616042123993 1.3745712080990007 0 0 0
1975 1 24.096547272746996 29.089616042123993 1.3745712080990007 0 0 0
1983 1 28.477747488526994 29.089616042123993 1.3745712080990007 0 0 0
1991 1 32.858947704307006 29.089616042123993 1.3745712080990007 0 0 0
1999 1 37.240147920087004 29.089616042123993 1.3745712080990007 0 0 0
2007 1 41.621348135867 29.089616042123993 1.3745712080990007 0 0 0
2015 1 46.002548351647 29.089616042123993 1.3745712080990007 0 0 0
2023 1 50.383748567427 29.089616042123993 1.3745712080990007 0 0 0
1847 1 54.764948783207 29.089616042123993 1.3745712080990007 -1 0 0
1855 1 59.146148998987 29.089616042123993 1.3745712080990007 -1 0 0
1863 1 63.527349214767 29.089616042123993 1.3745712080990007 -1 0 0
1871 1 67.908549430547 29.089616042123993 1.3745712080990007 -1 0 0
1879 1 72.289749646327 29.089616042123993 1.3745712080990007 -1 0 0
1887 1 76.670949862107 29.089616042123993 1.3745712080990007 -1 0 0
1895 1 81.052150077887 29.089616042123993 1.3745712080990007 -1 0 0
1903 1 85.43335029366699 29.089616042123993 1.3745712080990007 -1 0 0
1911 1 89.814550509447 29.089616042123993 1.3745712080990007 -1 0 0
1919 1 94.195750725227 29.089616042123993 1.3745712080990007 -1 0 0
1927 1 98.576950941007 29.089616042123993 1.3745712080990007 -1 0 0
1940 3 2.1906065828150005 31.618509770510002 0 0 0 0
1948 3 6.571806798594999 31.618509770510002 0 0 0 0
1956 3 10.953007014374997 31.618509770510002 0 0 0 0
1964 3 15.334207230154995 31.618509770510002 0 0 0 0
1972 3 19.715407445934993 31.618509770510002 0 0 0 0
1980 3 24.096607661715005 31.618509770510002 0 0 0 0
1988 3 28.477807877495003 31.618509770510002 0 0 0 0
1996 3 32.859008093275 31.618509770510002 0 0 0 0
2004 3 37.240208309055 31.618509770510002 0 0 0 0
2012 3 41.621408524835 31.618509770510002 0 0 0 0
2020 3 46.002608740614995 31.618509770510002 0 0 0 0
1844 3 50.383808956395 31.618509770510002 0 -1 0 0
1852 3 54.765009172175 31.618509770510002 0 -1 0 0
1860 3 59.146209387955 31.618509770510002 0 -1 0 0
1868 3 63.527409603734995 31.618509770510002 0 -1 0 0
1876 3 67.908609819515 31.618509770510002 0 -1 0 0
1884 3 72.289810035295 31.618509770510002 0 -1 0 0
1892 3 76.671010251075 31.618509770510002 0 -1 0 0
1900 3 81.052210466855 31.618509770510002 0 -1 0 0
1908 3 85.433410682635 31.618509770510002 0 -1 0 0
1916 3 89.814610898415 31.618509770510002 0 -1 0 0
1924 3 94.195811114195 31.618509770510002 0 -1 0 0
1932 3 98.577011329975 31.618509770510002 0 -1 0 0
1944 1 4.381146301736997 32.88384672805499 1.3745712080990007 0 0 0
1952 1 8.762346517517003 32.88384672805499 1.3745712080990007 0 0 0
1960 1 13.143546733297 32.88384672805499 1.3745712080990007 0 0 0
1968 1 17.524746949077006 32.88384672805499 1.3745712080990007 0 0 0
1976 1 21.905947164857004 32.88384672805499 1.3745712080990007 0 0 0
1984 1 26.287147380637002 32.88384672805499 1.3745712080990007 0 0 0
1992 1 30.668347596417 32.88384672805499 1.3745712080990007 0 0 0
2000 1 35.049547812197 32.88384672805499 1.3745712080990007 0 0 0
2008 1 39.430748027976996 32.88384672805499 1.3745712080990007 0 0 0
2016 1 43.811948243756994 32.88384672805499 1.3745712080990007 0 0 0
2024 1 48.19314845953701 32.88384672805499 1.3745712080990007 0 0 0
1848 1 52.574348675317 32.88384672805499 1.3745712080990007 -1 0 0
1856 1 56.955548891096996 32.88384672805499 1.3745712080990007 -1 0 0
1864 1 61.336749106876994 32.88384672805499 1.3745712080990007 -1 0 0
1872 1 65.717949322657 32.88384672805499 1.3745712080990007 -1 0 0
1880 1 70.09914953843699 32.88384672805499 1.3745712080990007 -1 0 0
1888 1 74.480349754217 32.88384672805499 1.3745712080990007 -1 0 0
1896 1 78.861549969997 32.88384672805499 1.3745712080990007 -1 0 0
1904 1 83.242750185777 32.88384672805499 1.3745712080990007 -1 0 0
1912 1 87.623950401557 32.88384672805499 1.3745712080990007 -1 0 0
1920 1 92.005150617337 32.88384672805499 1.3745712080990007 -1 0 0
1928 1 96.386350833117 32.88384672805499 1.3745712080990007 -1 0 0
1936 1 100.76755104889699 32.88384672805499 1.3745712080990007 -1 0 0
2115 3 6.474925001498377e-06 35.412740456441 0 0 0 0
2119 1 2.1905461938469983 36.678077413986 1.3745712080990007 0 0 0
2123 3 4.381206690705 35.412740456441 0 0 0 0
2127 1 6.571746409626996 36.678077413986 1.3745712080990007 0 0 0
2131 3 8.762406906484998 35.412740456441 0 0 0 0
2135 1 10.952946625407002 36.678077413986 1.3745712080990007 0 0 0
2139 3 13.143607122265003 35.412740456441 0 0 0 0
2143 1 15.334146841187 36.678077413986 1.3745712080990007 0 0 0
2147 3 17.524807338045 35.412740456441 0 0 0 0
2151 1 19.715347056966998 36.678077413986 1.3745712080990007 0 0 0
2155 3 21.906007553825 35.412740456441 0 0 0 0
2159 1 24.096547272746996 36.678077413986 1.3745712080990007 0 0 0
2163 3 26.287207769604997 35.412740456441 0 0 0 0
2167 1 28.477747488526994 36.678077413986 1.3745712080990007 0 0 0
2171 3 30.668407985384995 35.412740456441 0 0 0 0
2175 1 32.858947704307006 36.678077413986 1.3745712080990007 0 0 0
2179 3 35.04960820116499 35.412740456441 0 0 0 0
2183 1 37.240147920087004 36.678077413986 1.3745712080990007 0 0 0
2187 3 39.430808416945005 35.412740456441 0 0 0 0
2191 1 41.621348135867 36.678077413986 1.3745712080990007 0 0 0
2195 3 43.812008632725004 35.412740456441 0 0 0 0
2199 1 46.002548351647 36.678077413986 1.3745712080990007 0 0 0
2203 3 48.193208848505 35.412740456441 0 0 0 0
2207 1 50.383748567427 36.678077413986 1.3745712080990007 0 0 0
2027 3 52.574409064285 35.412740456441 0 -1 0 0
2031 1 54.764948783207 36.678077413986 1.3745712080990007 -1 0 0
2035 3 56.955609280065 35.412740456441 0 -1 0 0
2039 1 59.146148998987 36.678077413986 1.3745712080990007 -1 0 0
2043 3 61.336809495844996 35.412740456441 0 -1 0 0
2047 1 63.527349214767 36.678077413986 1.3745712080990007 -1 0 0
2051 3 65.718009711625 35.412740456441 0 -1 0 0
2055 1 67.908549430547 36.678077413986 1.3745712080990007 -1 0 0
2059 3 70.099209927405 35.412740456441 0 -1 0 0
2063 1 72.289749646327 36.678077413986 1.3745712080990007 -1 0 0
2067 3 74.480410143185 35.412740456441 0 -1 0 0
2071 1 76.670949862107 36.678077413986 1.3745712080990007 -1 0 0
2075 3 78.861610358965 35.412740456441 0 -1 0 0
2079 1 81.052150077887 36.678077413986 1.3745712080990007 -1 0 0
2083 3 83.242810574745 35.412740456441 0 -1 0 0
2087 1 85.43335029366699 36.678077413986 1.3745712080990007 -1 0 0
2091 3 87.624010790525 35.412740456441 0 -1 0 0
2095 1 89.814550509447 36.678077413986 1.3745712080990007 -1 0 0
2099 3 92.00521100630499 35.412740456441 0 -1 0 0
2103 1 94.195750725227 36.678077413986 1.3745712080990007 -1 0 0
2107 3 96.386411222085 35.412740456441 0 -1 0 0
2111 1 98.576950941007 36.678077413986 1.3745712080990007 -1 0 0
2124 3 2.1906065828150005 39.206971142372 0 0 0 0
2132 3 6.571806798594999 39.206971142372 0 0 0 0
2140 3 10.953007014374997 39.206971142372 0 0 0 0
2148 3 15.334207230154995 39.206971142372 0 0 0 0
2156 3 19.715407445934993 39.206971142372 0 0 0 0
2164 3 24.096607661715005 39.206971142372 0 0 0 0
2172 3 28.477807877495003 39.206971142372 0 0 0 0
2180 3 32.859008093275 39.206971142372 0 0 0 0
2188 3 37.240208309055 39.206971142372 0 0 0 0
2196 3 41.621408524835 39.206971142372 0 0 0 0
2204 3 46.002608740614995 39.206971142372 0 0 0 0
2028 3 50.383808956395 39.206971142372 0 -1 0 0
2036 3 54.765009172175 39.206971142372 0 -1 0 0
2044 3 59.146209387955 39.206971142372 0 -1 0 0
2052 3 63.527409603734995 39.206971142372 0 -1 0 0
2060 3 67.908609819515 39.206971142372 0 -1 0 0
2068 3 72.289810035295 39.206971142372 0 -1 0 0
2076 3 76.671010251075 39.206971142372 0 -1 0 0
2084 3 81.052210466855 39.206971142372 0 -1 0 0
2092 3 85.433410682635 39.206971142372 0 -1 0 0
2100 3 89.814610898415 39.206971142372 0 -1 0 0
2108 3 94.195811114195 39.206971142372 0 -1 0 0
2116 3 98.577011329975 39.206971142372 0 -1 0 0
2128 1 4.381146301736997 40.472308099917 1.3745712080990007 0 0 0
2136 1 8.762346517517003 40.472308099917 1.3745712080990007 0 0 0
2144 1 13.143546733297 40.472308099917 1.3745712080990007 0 0 0
2152 1 17.524746949077006 40.472308099917 1.3745712080990007 0 0 0
2160 1 21.905947164857004 40.472308099917 1.3745712080990007 0 0 0
2168 1 26.287147380637002 40.472308099917 1.3745712080990007 0 0 0
2176 1 30.668347596417 40.472308099917 1.3745712080990007 0 0 0
2184 1 35.049547812197 40.472308099917 1.3745712080990007 0 0 0
2192 1 39.430748027976996 40.472308099917 1.3745712080990007 0 0 0
2200 1 43.811948243756994 40.472308099917 1.3745712080990007 0 0 0
2208 1 48.19314845953701 40.472308099917 1.3745712080990007 0 0 0
2032 1 52.574348675317 40.472308099917 1.3745712080990007 -1 0 0
2040 1 56.955548891096996 40.472308099917 1.3745712080990007 -1 0 0
2048 1 61.336749106876994 40.472308099917 1.3745712080990007 -1 0 0
2056 1 65.717949322657 40.472308099917 1.3745712080990007 -1 0 0
2064 1 70.09914953843699 40.472308099917 1.3745712080990007 -1 0 0
2072 1 74.480349754217 40.472308099917 1.3745712080990007 -1 0 0
2080 1 78.861549969997 40.472308099917 1.3745712080990007 -1 0 0
2088 1 83.242750185777 40.472308099917 1.3745712080990007 -1 0 0
2096 1 87.623950401557 40.472308099917 1.3745712080990007 -1 0 0
2104 1 92.005150617337 40.472308099917 1.3745712080990007 -1 0 0