LAMMPS data file via write_data, version 29 Aug 2024, timestep = 2, units = metal

4032 atoms
6 atom types

0 101.04 xlo xhi
0 102.087074598096 ylo yhi
-50 115.18449169359096 zlo zhi

Masses

1 118.71
2 118.71
3 118.71
4 28.085
5 28.085
6 28.085

Atoms # atomic

723 1 1.774094027258658e-14 1.215322316644672 0.005071991717613274 0 0 0
727 1 4.209999999999984 1.2153223166446674 0.00507199171761591 0 0 0
722 4 1.8787982237202843e-14 3.645966949931337 0.6603461595839795 0 0 0
726 4 4.209999999999984 3.645966949931342 0.6603461595839769 0 0 0
724 1 2.104999999999997 4.861289266576641 0.005071991717615409 0 0 0
731 1 8.419999999999979 1.2153223166446658 0.005071991717617317 0 0 0
730 4 8.419999999999979 3.645966949931343 0.6603461595839756 0 0 0
728 1 6.315000000000013 4.861289266576653 0.005071991717615567 0 0 0
732 1 10.52500000000001 4.861289266576656 0.0050719917176135715 0 0 0
735 1 12.629999999999995 1.2153223166446534 0.00507199171761759 0 0 0
739 1 16.839999999999993 1.2153223166446792 0.0050719917176163505 0 0 0
734 4 12.629999999999995 3.645966949931356 0.6603461595839752 0 0 0
738 4 16.839999999999993 3.64596694993133 0.6603461595839767 0 0 0
736 1 14.734999999999987 4.861289266576654 0.005071991717615389 0 0 0
743 1 21.049999999999976 1.2153223166446574 0.005071991717617201 0 0 0
742 4 21.049999999999976 3.645966949931352 0.6603461595839757 0 0 0
740 1 18.945000000000018 4.8612892665766445 0.00507199171761519 0 0 0
744 1 23.155 4.861289266576665 0.005071991717615418 0 0 0
747 1 25.25999999999999 1.215322316644677 0.005071991717617742 0 0 0
751 1 29.469999999999978 1.2153223166446574 0.0050719917176171355 0 0 0
746 4 25.25999999999999 3.645966949931332 0.660346159583975 0 0 0
750 4 29.469999999999978 3.645966949931352 0.6603461595839757 0 0 0
748 1 27.365000000000016 4.8612892665766445 0.005071991717614626 0 0 0
755 1 33.67999999999999 1.215322316644677 0.005071991717617729 0 0 0
754 4 33.67999999999999 3.6459669499313323 0.6603461595839752 0 0 0
752 1 31.575000000000003 4.861289266576665 0.005071991717615503 0 0 0
759 1 37.88999999999998 1.2153223166446567 0.005071991717617379 0 0 0
758 4 37.88999999999998 3.645966949931352 0.6603461595839756 0 0 0
756 1 35.78500000000002 4.861289266576645 0.005071991717614949 0 0 0
760 1 39.995 4.8612892665766685 0.0050719917176134666 0 0 0
763 1 42.100000000000016 1.2153223166446567 0.005071991717617556 0 0 0
767 1 46.31 1.2153223166446772 0.005071991717617524 0 0 0
762 4 42.100000000000016 3.645966949931352 0.6603461595839755 0 0 0
766 4 46.31 3.645966949931332 0.6603461595839755 0 0 0
764 1 44.20499999999998 4.8612892665766445 0.005071991717614585 0 0 0
675 1 50.52000000000001 1.215322316644665 0.005071991717618494 -1 0 0
674 4 50.52000000000001 3.6459669499313443 0.6603461595839746 -1 0 0
768 1 48.415 4.861289266576664 0.005071991717616633 0 0 0
676 1 52.624999999999986 4.861289266576654 0.005071991717615216 -1 0 0
679 1 54.73000000000002 1.2153223166446658 0.0050719917176172994 -1 0 0
683 1 58.94000000000002 1.2153223166446656 0.005071991717617635 -1 0 0
678 4 54.73000000000002 3.6459669499313434 0.6603461595839755 -1 0 0
682 4 58.94000000000002 3.6459669499313434 0.6603461595839755 -1 0 0
680 1 56.83499999999999 4.861289266576654 0.005071991717615386 -1 0 0
687 1 63.15000000000003 1.2153223166446576 0.005071991717615846 -1 0 0
686 4 63.15000000000003 3.645966949931352 0.6603461595839767 -1 0 0
684 1 61.04499999999999 4.861289266576655 0.005071991717614182 -1 0 0
688 1 65.25499999999998 4.8612892665766445 0.005071991717615137 -1 0 0
691 1 67.36000000000001 1.2153223166446776 0.005071991717617344 -1 0 0
690 4 67.36000000000001 3.645966949931332 0.6603461595839754 -1 0 0
692 1 69.465 4.861289266576662 0.0050719917176178225 -1 0 0
695 1 71.57 1.2153223166446776 0.0050719917176175215 -1 0 0
699 1 75.77999999999999 1.215322316644657 0.005071991717617515 -1 0 0
694 4 71.57 3.645966949931332 0.6603461595839752 -1 0 0
698 4 75.77999999999999 3.6459669499313523 0.6603461595839756 -1 0 0
696 1 73.67500000000003 4.8612892665766445 0.0050719917176150885 -1 0 0
703 1 79.99000000000002 1.2153223166446567 0.005071991717617347 -1 0 0
702 4 79.99000000000002 3.6459669499313527 0.6603461595839754 -1 0 0
700 1 77.885 4.8612892665766685 0.005071991717613829 -1 0 0
704 1 82.09499999999998 4.861289266576644 0.005071991717614946 -1 0 0
707 1 84.2 1.2153223166446796 0.005071991717615955 -1 0 0
711 1 88.40999999999998 1.2153223166446567 0.00507199171761737 -1 0 0
706 4 84.2 3.6459669499313296 0.6603461595839772 -1 0 0
710 4 88.40999999999998 3.6459669499313523 0.6603461595839756 -1 0 0
708 1 86.30500000000002 4.8612892665766445 0.005071991717615302 -1 0 0
715 1 92.62000000000003 1.2153223166446536 0.005071991717619507 -1 0 0
714 4 92.62000000000003 3.645966949931356 0.6603461595839735 -1 0 0
712 1 90.515 4.8612892665766685 0.0050719917176133295 -1 0 0
716 1 94.72499999999995 4.861289266576666 0.0050719917176159975 -1 0 0
719 1 96.83000000000006 1.215322316644678 0.0050719917176177635 -1 0 0
718 4 96.83000000000006 3.645966949931332 0.660346159583975 -1 0 0
720 1 98.93499999999997 4.861289266576646 0.005071991717614129 -1 0 0
817 4 2.1049999999999973 7.291933899863367 0.660346159583977 0 0 0
819 1 1.824324600250235e-14 8.507256216508678 0.005071991717615959 0 0 0
823 1 4.209999999999984 8.507256216508674 0.005071991717618588 0 0 0
818 4 1.8091319843388133e-14 10.937900849795316 0.6603461595839824 0 0 0
822 4 4.209999999999984 10.93790084979532 0.6603461595839798 0 0 0
821 4 6.315000000000014 7.291933899863355 0.660346159583977 0 0 0
825 4 10.52500000000001 7.291933899863352 0.6603461595839792 0 0 0
827 1 8.419999999999979 8.507256216508672 0.00507199171761994 0 0 0
826 4 8.419999999999979 10.937900849795321 0.6603461595839782 0 0 0
829 4 14.734999999999985 7.291933899863354 0.6603461595839775 0 0 0
831 1 12.629999999999995 8.507256216508662 0.005071991717620476 0 0 0
835 1 16.839999999999993 8.507256216508686 0.005071991717618649 0 0 0
830 4 12.629999999999995 10.937900849795334 0.6603461595839774 0 0 0
834 4 16.83999999999999 10.937900849795307 0.6603461595839802 0 0 0
833 4 18.945000000000018 7.291933899863364 0.6603461595839777 0 0 0
837 4 23.155 7.291933899863344 0.6603461595839769 0 0 0
839 1 21.049999999999976 8.507256216508663 0.00507199171761992 0 0 0
838 4 21.049999999999965 10.937900849795332 0.6603461595839775 0 0 0
841 4 27.365000000000016 7.2919338998633645 0.6603461595839776 0 0 0
843 1 25.25999999999999 8.507256216508683 0.005071991717620267 0 0 0
847 1 29.469999999999978 8.507256216508663 0.005071991717619864 0 0 0
842 4 25.259999999999987 10.93790084979531 0.6603461595839785 0 0 0
846 4 29.469999999999967 10.937900849795334 0.6603461595839774 0 0 0
845 4 31.575000000000003 7.291933899863344 0.6603461595839769 0 0 0
851 1 33.67999999999999 8.507256216508683 0.005071991717620328 0 0 0
850 4 33.67999999999999 10.937900849795312 0.6603461595839777 0 0 0
849 4 35.78500000000002 7.291933899863364 0.6603461595839775 0 0 0
853 4 39.995 7.2919338998633405 0.6603461595839788 0 0 0
855 1 37.88999999999998 8.507256216508662 0.005071991717619871 0 0 0
854 4 37.88999999999998 10.937900849795332 0.6603461595839782 0 0 0
857 4 44.20499999999998 7.2919338998633645 0.6603461595839776 0 0 0
859 1 42.100000000000016 8.507256216508662 0.005071991717620052 0 0 0
863 1 46.31 8.507256216508683 0.0050719917176201175 0 0 0
858 4 42.100000000000016 10.937900849795332 0.6603461595839782 0 0 0
862 4 46.31 10.93790084979531 0.660346159583978 0 0 0
861 4 48.41499999999999 7.291933899863344 0.6603461595839764 0 0 0
769 4 52.624999999999986 7.291933899863355 0.6603461595839775 -1 0 0
771 1 50.52000000000001 8.50725621650867 0.005071991717620757 -1 0 0
770 4 50.52000000000001 10.937900849795323 0.6603461595839776 -1 0 0
773 4 56.83499999999999 7.291933899863355 0.6603461595839774 -1 0 0
775 1 54.73000000000002 8.507256216508672 0.0050719917176199674 -1 0 0
779 1 58.94000000000002 8.507256216508672 0.0050719917176202485 -1 0 0
774 4 54.73000000000002 10.937900849795323 0.6603461595839782 -1 0 0
778 4 58.94000000000002 10.937900849795323 0.660346159583978 -1 0 0
777 4 61.04499999999999 7.291933899863354 0.6603461595839781 -1 0 0
781 4 65.25499999999998 7.291933899863364 0.6603461595839772 -1 0 0
783 1 63.15000000000003 8.507256216508663 0.005071991717618902 -1 0 0
782 4 63.15000000000003 10.93790084979533 0.6603461595839795 -1 0 0
785 4 69.465 7.291933899863346 0.6603461595839751 -1 0 0
787 1 67.36000000000001 8.507256216508683 0.005071991717619971 -1 0 0
786 4 67.36000000000001 10.93790084979531 0.6603461595839781 -1 0 0
789 4 73.67500000000003 7.291933899863364 0.6603461595839776 -1 0 0
791 1 71.57 8.507256216508683 0.005071991717620087 -1 0 0
795 1 75.77999999999999 8.507256216508662 0.00507199171761998 -1 0 0
790 4 71.57 10.93790084979531 0.660346159583978 -1 0 0
794 4 75.77999999999999 10.937900849795332 0.6603461595839785 -1 0 0
793 4 77.885 7.2919338998633405 0.6603461595839789 -1 0 0
797 4 82.09499999999998 7.2919338998633645 0.6603461595839776 -1 0 0
799 1 79.99000000000002 8.507256216508662 0.00507199171761983 -1 0 0
798 4 79.99000000000002 10.937900849795332 0.6603461595839784 -1 0 0
801 4 86.30500000000002 7.291933899863364 0.6603461595839776 -1 0 0
803 1 84.2 8.507256216508688 0.005071991717619001 -1 0 0
807 1 88.40999999999998 8.507256216508662 0.0050719917176198295 -1 0 0
802 4 84.2 10.937900849795305 0.6603461595839797 -1 0 0
806 4 88.40999999999998 10.937900849795332 0.6603461595839782 -1 0 0
805 4 90.515 7.29193389986334 0.6603461595839791 -1 0 0
809 4 94.72499999999995 7.291933899863341 0.6603461595839777 -1 0 0
811 1 92.62000000000003 8.50725621650866 0.005071991717622047 -1 0 0
810 4 92.62000000000003 10.937900849795335 0.660346159583976 -1 0 0
813 4 98.93499999999997 7.291933899863362 0.6603461595839782 -1 0 0
815 1 96.83000000000006 8.507256216508685 0.005071991717620419 -1 0 0
814 4 96.83000000000006 10.937900849795309 0.6603461595839774 -1 0 0
820 1 2.104999999999997 12.153223166440686 0.00507199171761813 0 0 0
915 1 1.8148617461516667e-14 15.799190116372689 0.005071991717608359 0 0 0
913 4 2.1049999999999973 14.583867799727326 0.6603461595839748 0 0 0
919 1 4.209999999999984 15.799190116372685 0.00507199171761115 0 0 0
824 1 6.315000000000014 12.153223166440696 0.005071991717617845 0 0 0
828 1 10.52500000000001 12.153223166440698 0.005071991717615868 0 0 0
917 4 6.315000000000013 14.583867799727315 0.6603461595839751 0 0 0
923 1 8.419999999999979 15.799190116372683 0.005071991717612652 0 0 0
921 4 10.52500000000001 14.583867799727313 0.660346159583977 0 0 0
832 1 14.734999999999987 12.153223166440696 0.005071991717617718 0 0 0
927 1 12.629999999999995 15.799190116372671 0.00507199171761329 0 0 0
925 4 14.734999999999987 14.583867799727315 0.6603461595839754 0 0 0
931 1 16.839999999999993 15.799190116372696 0.00507199171761132 0 0 0
836 1 18.945000000000025 12.153223166440686 0.005071991717618621 0 0 0
840 1 23.155000000000005 12.153223166440709 0.005071991717616896 0 0 0
929 4 18.945000000000018 14.583867799727326 0.6603461595839746 0 0 0
935 1 21.04999999999997 15.799190116372673 0.0050719917176121855 0 0 0
933 4 23.155000000000005 14.583867799727303 0.6603461595839761 0 0 0
844 1 27.365000000000023 12.153223166440686 0.005071991717618088 0 0 0
939 1 25.259999999999987 15.799190116372694 0.005071991717612092 0 0 0
937 4 27.365000000000023 14.583867799727326 0.6603461595839749 0 0 0
943 1 29.46999999999997 15.799190116372673 0.005071991717613085 0 0 0
848 1 31.575000000000006 12.153223166440709 0.005071991717616993 0 0 0
941 4 31.575000000000006 14.583867799727303 0.660346159583976 0 0 0
947 1 33.67999999999999 15.799190116372692 0.0050719917176130155 0 0 0
852 1 35.78500000000002 12.153223166440688 0.005071991717617351 0 0 0
856 1 39.995 12.15322316644071 0.005071991717616135 0 0 0
945 4 35.78500000000002 14.583867799727324 0.6603461595839759 0 0 0
951 1 37.88999999999998 15.799190116372674 0.00507199171761198 0 0 0
949 4 39.995 14.583867799727301 0.6603461595839776 0 0 0
860 1 44.20499999999998 12.153223166440688 0.005071991717616801 0 0 0
955 1 42.100000000000016 15.799190116372674 0.005071991717612141 0 0 0
953 4 44.20499999999998 14.583867799727324 0.6603461595839761 0 0 0
959 1 46.31 15.799190116372694 0.0050719917176126955 0 0 0
864 1 48.41499999999999 12.153223166440705 0.005071991717618961 0 0 0
772 1 52.624999999999986 12.153223166440696 0.005071991717617353 -1 0 0
957 4 48.41499999999999 14.583867799727305 0.6603461595839742 0 0 0
867 1 50.52000000000001 15.799190116372683 0.005071991717613388 -1 0 0
865 4 52.624999999999986 14.583867799727313 0.6603461595839758 -1 0 0
776 1 56.83499999999999 12.153223166440696 0.005071991717617727 -1 0 0
871 1 54.73000000000002 15.799190116372683 0.005071991717612586 -1 0 0
869 4 56.83499999999999 14.583867799727315 0.6603461595839755 -1 0 0
875 1 58.94000000000002 15.799190116372683 0.0050719917176128984 -1 0 0
780 1 61.04499999999999 12.153223166440698 0.005071991717616494 -1 0 0
784 1 65.25499999999998 12.153223166440688 0.005071991717617321 -1 0 0
873 4 61.04499999999999 14.583867799727313 0.6603461595839766 -1 0 0
879 1 63.15000000000003 15.799190116372674 0.00507199171761113 -1 0 0
877 4 65.25499999999998 14.583867799727324 0.6603461595839757 -1 0 0
788 1 69.465 12.153223166440704 0.00507199171762017 -1 0 0
883 1 67.36000000000001 15.799190116372694 0.005071991717612565 -1 0 0
881 4 69.465 14.583867799727308 0.6603461595839728 -1 0 0
792 1 73.67500000000003 12.153223166440688 0.0050719917176173185 -1 0 0
887 1 71.57 15.799190116372694 0.005071991717612691 -1 0 0
885 4 73.67500000000003 14.583867799727324 0.660346159583976 -1 0 0
891 1 75.77999999999999 15.799190116372674 0.005071991717612088 -1 0 0
796 1 77.885 12.15322316644071 0.0050719917176162525 -1 0 0
800 1 82.09499999999998 12.153223166440688 0.005071991717616765 -1 0 0
889 4 77.885 14.583867799727301 0.6603461595839776 -1 0 0
895 1 79.99000000000002 15.799190116372674 0.005071991717611898 -1 0 0
893 4 82.09499999999998 14.583867799727324 0.660346159583976 -1 0 0
804 1 86.30500000000002 12.153223166440688 0.005071991717617177 -1 0 0
899 1 84.2 15.799190116372698 0.005071991717610571 -1 0 0
897 4 86.30500000000002 14.583867799727324 0.660346159583976 -1 0 0
903 1 88.40999999999998 15.799190116372674 0.00507199171761191 -1 0 0
808 1 90.515 12.15322316644071 0.0050719917176160045 -1 0 0
812 1 94.72499999999995 12.153223166440707 0.005071991717617724 -1 0 0
901 4 90.515 14.5838677997273 0.6603461595839778 -1 0 0
907 1 92.62000000000003 15.799190116372671 0.0050719917176144155 -1 0 0
905 4 94.72499999999995 14.583867799727305 0.6603461595839758 -1 0 0
816 1 98.93499999999997 12.15322316644069 0.005071991717616596 -1 0 0
911 1 96.83000000000006 15.799190116372694 0.005071991717612804 -1 0 0
909 4 98.93499999999997 14.583867799727322 0.6603461595839762 -1 0 0
914 4 1.7951619863357522e-14 18.229834749659354 0.660346159583974 0 0 0
918 4 4.209999999999983 18.229834749659357 0.6603461595839718 0 0 0
916 1 2.1049999999999978 19.445157066304603 0.005071991717613298 0 0 0
1009 4 2.1049999999999978 21.87580169959141 0.6603461595839794 0 0 0
922 4 8.419999999999982 18.229834749659357 0.6603461595839704 0 0 0
920 1 6.315000000000012 19.445157066304617 0.00507199171761238 0 0 0
924 1 10.525000000000006 19.445157066304617 0.00507199171761169 0 0 0
1013 4 6.315000000000011 21.875801699591396 0.6603461595839788 0 0 0
1017 4 10.525000000000006 21.875801699591392 0.6603461595839797 0 0 0
926 4 12.629999999999995 18.229834749659368 0.660346159583971 0 0 0
930 4 16.839999999999993 18.229834749659346 0.6603461595839716 0 0 0
928 1 14.734999999999987 19.445157066304617 0.005071991717612912 0 0 0
1021 4 14.734999999999989 21.875801699591396 0.6603461595839782 0 0 0
934 4 21.049999999999976 18.229834749659368 0.6603461595839707 0 0 0
932 1 18.945000000000018 19.445157066304603 0.005071991717612347 0 0 0
936 1 23.155 19.445157066304628 0.005071991717613296 0 0 0
1025 4 18.945000000000014 21.87580169959141 0.6603461595839801 0 0 0
1029 4 23.155 21.875801699591385 0.6603461595839781 0 0 0
938 4 25.25999999999999 18.22983474965935 0.6603461595839698 0 0 0
942 4 29.469999999999974 18.229834749659368 0.6603461595839705 0 0 0
940 1 27.365000000000016 19.445157066304603 0.0050719917176121985 0 0 0
1033 4 27.365000000000016 21.87580169959141 0.6603461595839801 0 0 0
946 4 33.67999999999999 18.22983474965935 0.66034615958397 0 0 0
944 1 31.575000000000003 19.445157066304628 0.0050719917176133425 0 0 0
1037 4 31.575000000000003 21.875801699591385 0.6603461595839781 0 0 0
950 4 37.88999999999997 18.229834749659368 0.6603461595839706 0 0 0
948 1 35.78500000000002 19.445157066304603 0.005071991717612426 0 0 0
952 1 39.995 19.445157066304628 0.005071991717610995 0 0 0
1041 4 35.78500000000002 21.87580169959141 0.6603461595839801 0 0 0
1045 4 39.995 21.87580169959138 0.6603461595839804 0 0 0
954 4 42.100000000000016 18.229834749659368 0.6603461595839702 0 0 0
958 4 46.31 18.22983474965935 0.6603461595839696 0 0 0
956 1 44.20499999999998 19.445157066304603 0.005071991717612323 0 0 0
1049 4 44.20499999999998 21.87580169959141 0.6603461595839801 0 0 0
866 4 50.52000000000001 18.22983474965936 0.6603461595839694 -1 0 0
960 1 48.41499999999999 19.44515706630462 0.005071991717614379 0 0 0
868 1 52.624999999999986 19.445157066304617 0.0050719917176125845 -1 0 0
1053 4 48.41499999999999 21.87580169959139 0.6603461595839785 0 0 0
961 4 52.624999999999986 21.875801699591396 0.6603461595839787 -1 0 0
870 4 54.73000000000002 18.229834749659357 0.6603461595839708 -1 0 0
874 4 58.94000000000002 18.229834749659357 0.6603461595839707 -1 0 0
872 1 56.83499999999999 19.445157066304617 0.005071991717612879 -1 0 0
965 4 56.83499999999999 21.875801699591396 0.6603461595839786 -1 0 0
878 4 63.15000000000003 18.229834749659368 0.6603461595839718 -1 0 0
876 1 61.04499999999999 19.445157066304617 0.005071991717611694 -1 0 0
880 1 65.25499999999998 19.445157066304603 0.005071991717612647 -1 0 0
969 4 61.04499999999999 21.875801699591392 0.6603461595839796 -1 0 0
973 4 65.25499999999998 21.87580169959141 0.6603461595839799 -1 0 0
882 4 67.36000000000001 18.22983474965935 0.6603461595839697 -1 0 0
884 1 69.465 19.44515706630462 0.005071991717615435 -1 0 0
977 4 69.465 21.875801699591392 0.6603461595839771 -1 0 0
886 4 71.57 18.22983474965935 0.6603461595839697 -1 0 0
890 4 75.77999999999999 18.229834749659368 0.6603461595839706 -1 0 0
888 1 73.67500000000003 19.445157066304603 0.005071991717612445 -1 0 0
981 4 73.67500000000003 21.87580169959141 0.6603461595839802 -1 0 0
894 4 79.99000000000002 18.229834749659368 0.6603461595839705 -1 0 0
892 1 77.885 19.445157066304628 0.005071991717611138 -1 0 0
896 1 82.09499999999998 19.445157066304603 0.005071991717612423 -1 0 0
985 4 77.885 21.87580169959138 0.6603461595839804 -1 0 0
989 4 82.09499999999998 21.87580169959141 0.6603461595839798 -1 0 0
898 4 84.2 18.229834749659346 0.6603461595839715 -1 0 0
902 4 88.40999999999998 18.229834749659368 0.6603461595839705 -1 0 0
900 1 86.30500000000002 19.445157066304603 0.005071991717612611 -1 0 0
993 4 86.30500000000002 21.87580169959141 0.6603461595839799 -1 0 0
906 4 92.62000000000003 18.22983474965937 0.6603461595839688 -1 0 0
904 1 90.515 19.44515706630463 0.005071991717610575 -1 0 0
908 1 94.72499999999995 19.445157066304628 0.005071991717612961 -1 0 0
997 4 90.515 21.87580169959138 0.6603461595839808 -1 0 0
1001 4 94.72499999999995 21.875801699591385 0.6603461595839788 -1 0 0
910 4 96.83000000000006 18.22983474965935 0.6603461595839701 -1 0 0
912 1 98.93499999999997 19.445157066304603 0.005071991717611794 -1 0 0
1005 4 98.93499999999997 21.875801699591406 0.6603461595839807 -1 0 0
1011 1 1.7864172044084506e-14 23.091124016236655 0.005071991717618898 0 0 0
1015 1 4.209999999999985 23.091124016236652 0.0050719917176221055 0 0 0
1010 4 1.813973298349439e-14 25.52176864952332 0.660346159583985 0 0 0
1014 4 4.209999999999984 25.521768649523324 0.6603461595839824 0 0 0
1012 1 2.104999999999997 26.737090966168683 0.005071991717616903 0 0 0
1019 1 8.419999999999982 23.09112401623665 0.005071991717623638 0 0 0
1018 4 8.419999999999979 25.521768649523327 0.6603461595839807 0 0 0
1016 1 6.315000000000014 26.737090966168697 0.005071991717618021 0 0 0
1020 1 10.525000000000011 26.737090966168697 0.005071991717616558 0 0 0
1023 1 12.629999999999995 23.091124016236634 0.005071991717621727 0 0 0
1027 1 16.839999999999993 23.091124016236662 0.005071991717622494 0 0 0
1022 4 12.629999999999995 25.52176864952334 0.6603461595839802 0 0 0
1026 4 16.839999999999993 25.521768649523313 0.6603461595839832 0 0 0
1024 1 14.734999999999985 26.737090966168697 0.005071991717618471 0 0 0
1031 1 21.049999999999976 23.09112401623664 0.00507199171762294 0 0 0
1030 4 21.04999999999997 25.521768649523338 0.6603461595839801 0 0 0
1028 1 18.945000000000025 26.737090966168687 0.005071991717618728 0 0 0
1032 1 23.155000000000005 26.737090966168708 0.005071991717616607 0 0 0
1035 1 25.25999999999999 23.09112401623666 0.005071991717623588 0 0 0
1039 1 29.469999999999978 23.09112401623664 0.005071991717622897 0 0 0
1034 4 25.259999999999987 25.521768649523313 0.6603461595839814 0 0 0
1038 4 29.469999999999967 25.521768649523338 0.6603461595839801 0 0 0
1036 1 27.365000000000023 26.737090966168687 0.005071991717618231 0 0 0
1043 1 33.67999999999999 23.09112401623666 0.005071991717623642 0 0 0
1042 4 33.67999999999999 25.521768649523317 0.6603461595839807 0 0 0
1040 1 31.575000000000006 26.73709096616871 0.005071991717616865 0 0 0
1047 1 37.88999999999998 23.09112401623664 0.0050719917176230865 0 0 0
1046 4 37.88999999999998 25.521768649523338 0.660346159583981 0 0 0
1044 1 35.78500000000002 26.73709096616869 0.00507199171761721 0 0 0
1048 1 39.995 26.73709096616871 0.005071991717615621 0 0 0
1051 1 42.100000000000016 23.09112401623664 0.005071991717623235 0 0 0
1055 1 46.31 23.09112401623666 0.005071991717623407 0 0 0
1050 4 42.100000000000016 25.521768649523334 0.660346159583981 0 0 0
1054 4 46.31 25.521768649523317 0.6603461595839809 0 0 0
1052 1 44.20499999999998 26.737090966168687 0.0050719917176168805 0 0 0
963 1 50.52000000000001 23.09112401623665 0.0050719917176243745 -1 0 0
962 4 50.52000000000001 25.521768649523327 0.6603461595839801 -1 0 0
1056 1 48.41499999999999 26.737090966168708 0.005071991717618826 0 0 0
964 1 52.624999999999986 26.737090966168697 0.005071991717617284 -1 0 0
967 1 54.73000000000002 23.091124016236652 0.005071991717623336 -1 0 0
971 1 58.94000000000002 23.09112401623665 0.0050719917176236615 -1 0 0
966 4 54.73000000000002 25.521768649523327 0.660346159583981 -1 0 0
970 4 58.94000000000002 25.521768649523327 0.6603461595839808 -1 0 0
968 1 56.83499999999999 26.737090966168697 0.005071991717617629 -1 0 0
975 1 63.15000000000003 23.09112401623664 0.00507199171762172 -1 0 0
974 4 63.15000000000003 25.521768649523334 0.6603461595839822 -1 0 0
972 1 61.04499999999999 26.7370909661687 0.005071991717616421 -1 0 0
976 1 65.25499999999998 26.73709096616869 0.0050719917176173905 -1 0 0
979 1 67.36000000000001 23.09112401623666 0.005071991717623262 -1 0 0
978 4 67.36000000000001 25.521768649523317 0.660346159583981 -1 0 0
980 1 69.465 26.737090966168708 0.005071991717619789 -1 0 0
983 1 71.57 23.09112401623666 0.005071991717623417 -1 0 0
987 1 75.77999999999999 23.09112401623664 0.005071991717623192 -1 0 0
982 4 71.57 25.521768649523317 0.660346159583981 -1 0 0
986 4 75.77999999999999 25.521768649523338 0.6603461595839812 -1 0 0
984 1 73.67500000000003 26.73709096616869 0.005071991717617186 -1 0 0
991 1 79.99000000000002 23.09112401623664 0.005071991717623082 -1 0 0
990 4 79.99000000000002 25.521768649523338 0.660346159583981 -1 0 0
988 1 77.885 26.73709096616871 0.005071991717615745 -1 0 0
992 1 82.09499999999998 26.737090966168687 0.005071991717617163 -1 0 0
995 1 84.2 23.091124016236662 0.005071991717621691 -1 0 0
999 1 88.40999999999998 23.09112401623664 0.005071991717622907 -1 0 0
994 4 84.2 25.521768649523313 0.6603461595839828 -1 0 0
998 4 88.40999999999998 25.521768649523338 0.660346159583981 -1 0 0
996 1 86.30500000000002 26.737090966168687 0.005071991717617519 -1 0 0
1003 1 92.62000000000003 23.091124016236634 0.005071991717624155 -1 0 0
1002 4 92.62000000000003 25.52176864952334 0.6603461595839789 -1 0 0
1000 1 90.515 26.737090966168708 0.005071991717615915 -1 0 0
1004 1 94.72499999999995 26.737090966168708 0.005071991717618253 -1 0 0
1007 1 96.83000000000006 23.09112401623666 0.005071991717623639 -1 0 0
1006 4 96.83000000000006 25.521768649523317 0.6603461595839808 -1 0 0
1008 1 98.93499999999997 26.737090966168687 0.005071991717615372 -1 0 0
1107 1 1.7967815384119287e-14 30.383057916100704 0.005071991717614644 0 0 0
1105 4 2.1049999999999973 29.167735599455327 0.6603461595839748 0 0 0
1111 1 4.209999999999983 30.3830579161007 0.005071991717616667 0 0 0
1106 4 1.8101295469982344e-14 32.81370254938731 0.6603461595839796 0 0 0
1110 4 4.209999999999983 32.81370254938731 0.6603461595839777 0 0 0
1109 4 6.315000000000014 29.167735599455312 0.660346159583975 0 0 0
1115 1 8.419999999999979 30.3830579161007 0.0050719917176176785 0 0 0
1113 4 10.52500000000001 29.16773559945531 0.6603461595839771 0 0 0
1114 4 8.419999999999979 32.81370254938731 0.6603461595839767 0 0 0
1119 1 12.629999999999995 30.383057916100686 0.005071991717617058 0 0 0
1117 4 14.734999999999987 29.16773559945531 0.6603461595839755 0 0 0
1123 1 16.839999999999993 30.383057916100707 0.005071991717615039 0 0 0
1118 4 12.629999999999995 32.81370254938732 0.6603461595839758 0 0 0
1122 4 16.839999999999993 32.8137025493873 0.6603461595839786 0 0 0
1121 4 18.945000000000018 29.167735599455323 0.6603461595839745 0 0 0
1127 1 21.049999999999972 30.383057916100686 0.005071991717616114 0 0 0
1125 4 23.155000000000005 29.1677355994553 0.6603461595839764 0 0 0
1126 4 21.04999999999997 32.81370254938733 0.6603461595839746 0 0 0
1131 1 25.259999999999987 30.383057916100707 0.0050719917176155534 0 0 0
1129 4 27.365000000000023 29.167735599455323 0.6603461595839748 0 0 0
1135 1 29.46999999999997 30.383057916100686 0.005071991717616796 0 0 0
1130 4 25.259999999999987 32.81370254938731 0.6603461595839759 0 0 0
1134 4 29.46999999999997 32.81370254938733 0.6603461595839746 0 0 0
1133 4 31.575000000000006 29.1677355994553 0.660346159583976 0 0 0
1139 1 33.67999999999999 30.383057916100707 0.005071991717616815 0 0 0
1138 4 33.67999999999999 32.81370254938731 0.6603461595839751 0 0 0
1137 4 35.78500000000002 29.16773559945532 0.6603461595839756 0 0 0
1143 1 37.88999999999998 30.383057916100686 0.005071991717616097 0 0 0
1141 4 39.995 29.1677355994553 0.6603461595839772 0 0 0
1142 4 37.88999999999998 32.81370254938733 0.6603461595839757 0 0 0
1147 1 42.100000000000016 30.383057916100686 0.005071991717616294 0 0 0
1145 4 44.20499999999998 29.16773559945532 0.6603461595839759 0 0 0
1151 1 46.31 30.383057916100707 0.005071991717616574 0 0 0
1146 4 42.100000000000016 32.81370254938733 0.6603461595839754 0 0 0
1150 4 46.31 32.81370254938731 0.6603461595839754 0 0 0
1149 4 48.41499999999999 29.167735599455302 0.6603461595839742 0 0 0
1059 1 50.52000000000001 30.3830579161007 0.005071991717618561 -1 0 0
1057 4 52.624999999999986 29.16773559945531 0.6603461595839756 -1 0 0
1058 4 50.52000000000001 32.813702549387315 0.6603461595839754 -1 0 0
1063 1 54.73000000000002 30.3830579161007 0.005071991717617604 -1 0 0
1061 4 56.83499999999999 29.16773559945531 0.6603461595839756 -1 0 0
1067 1 58.94000000000002 30.3830579161007 0.005071991717617951 -1 0 0
1062 4 54.73000000000002 32.81370254938731 0.6603461595839769 -1 0 0
1066 4 58.94000000000002 32.81370254938731 0.6603461595839767 -1 0 0
1065 4 61.04499999999999 29.16773559945531 0.6603461595839762 -1 0 0
1071 1 63.15000000000003 30.383057916100686 0.005071991717614981 -1 0 0
1069 4 65.25499999999998 29.16773559945532 0.6603461595839755 -1 0 0
1070 4 63.15000000000003 32.81370254938732 0.6603461595839775 -1 0 0
1075 1 67.36000000000001 30.383057916100707 0.0050719917176164425 -1 0 0
1073 4 69.465 29.167735599455302 0.6603461595839729 -1 0 0
1074 4 67.36000000000001 32.81370254938731 0.6603461595839755 -1 0 0
1079 1 71.57 30.383057916100707 0.005071991717616587 -1 0 0
1077 4 73.67500000000003 29.16773559945532 0.6603461595839758 -1 0 0
1083 1 75.77999999999999 30.383057916100686 0.005071991717616433 -1 0 0
1078 4 71.57 32.81370254938731 0.6603461595839755 -1 0 0
1082 4 75.77999999999999 32.81370254938733 0.6603461595839757 -1 0 0
1081 4 77.885 29.1677355994553 0.6603461595839772 -1 0 0
1087 1 79.99000000000002 30.383057916100686 0.005071991717615907 -1 0 0
1085 4 82.09499999999998 29.16773559945532 0.6603461595839757 -1 0 0
1086 4 79.99000000000002 32.81370254938733 0.6603461595839756 -1 0 0
1091 1 84.2 30.383057916100707 0.005071991717614675 -1 0 0
1089 4 86.30500000000002 29.16773559945532 0.6603461595839756 -1 0 0
1095 1 88.40999999999998 30.383057916100686 0.005071991717615917 -1 0 0
1090 4 84.2 32.81370254938731 0.6603461595839774 -1 0 0
1094 4 88.40999999999998 32.81370254938733 0.6603461595839757 -1 0 0
1093 4 90.515 29.1677355994553 0.6603461595839776 -1 0 0
1099 1 92.62000000000003 30.383057916100682 0.005071991717618503 -1 0 0
1097 4 94.72499999999995 29.1677355994553 0.6603461595839758 -1 0 0
1098 4 92.62000000000003 32.81370254938733 0.6603461595839732 -1 0 0
1103 1 96.83000000000006 30.383057916100704 0.005071991717617174 -1 0 0
1101 4 98.93499999999997 29.167735599455323 0.6603461595839762 -1 0 0
1102 4 96.83000000000006 32.81370254938731 0.6603461595839754 -1 0 0
1108 1 2.1049999999999973 34.02902486603267 0.005071991717612337 0 0 0
1201 4 2.1049999999999978 36.459669499319375 0.660346159583969 0 0 0
1203 1 1.789093673980949e-14 37.674991815964624 0.005071991717609861 0 0 0
1207 1 4.209999999999987 37.67499181596462 0.005071991717613408 0 0 0
1112 1 6.315000000000014 34.029024866032685 0.005071991717610978 0 0 0
1116 1 10.525000000000011 34.029024866032685 0.005071991717609676 0 0 0