LAMMPS data file via write_data, version 29 Aug 2024, timestep = 1, units = metal

2688 atoms
4 atom types

0 101.04 xlo xhi
0 102.087074598096 ylo yhi
-50 110.59224584679548 zlo zhi

Masses

1 118.71
2 118.71
3 28.085
4 28.085

Atoms # atomic

721 3 2.104999999999997 2.5075110643616244e-13 0.6585401179527457 0 0 0
727 1 4.210000000000002 1.2153223166437501 0.0047440970388268645 0 0 0
726 3 4.210000000000002 3.64596694993226 0.6585401179527459 0 0 0
724 1 2.104999999999997 4.86128926657576 0.004744097038826945 0 0 0
725 3 6.31499999999999 2.5445505363821183e-13 0.6585401179527431 0 0 0
731 1 8.420000000000002 1.2153223166437503 0.004744097038826765 0 0 0
729 3 10.524999999999991 2.5463421939556177e-13 0.658540117952743 0 0 0
730 3 8.420000000000002 3.64596694993226 0.6585401179527461 0 0 0
728 1 6.31499999999999 4.861289266575756 0.0047440970388294154 0 0 0
732 1 10.524999999999991 4.861289266575755 0.004744097038829511 0 0 0
735 1 12.629999999999995 1.2153223166437541 0.004744097038824299 0 0 0
733 3 14.735 2.5449669732291056e-13 0.6585401179527433 0 0 0
739 1 16.839999999999996 1.2153223166437466 0.004744097038829332 0 0 0
734 3 12.629999999999995 3.6459669499322565 0.6585401179527485 0 0 0
738 3 16.839999999999996 3.645966949932264 0.6585401179527435 0 0 0
736 1 14.735 4.861289266575756 0.004744097038829411 0 0 0
737 3 18.944999999999986 2.5140803479733797e-13 0.6585401179527453 0 0 0
743 1 21.050000000000004 1.2153223166437535 0.004744097038824715 0 0 0
741 3 23.154999999999994 2.582108948073803e-13 0.6585401179527406 0 0 0
742 3 21.050000000000004 3.645966949932257 0.6585401179527482 0 0 0
740 1 18.944999999999986 4.861289266575759 0.004744097038827358 0 0 0
744 1 23.154999999999994 4.861289266575752 0.004744097038831897 0 0 0
747 1 25.259999999999998 1.2153223166437466 0.004744097038829259 0 0 0
745 3 27.364999999999988 2.513663452158523e-13 0.6585401179527451 0 0 0
751 1 29.470000000000006 1.2153223166437535 0.004744097038824729 0 0 0
746 3 25.259999999999998 3.645966949932264 0.6585401179527436 0 0 0
750 3 29.470000000000006 3.645966949932257 0.6585401179527481 0 0 0
748 1 27.364999999999988 4.861289266575759 0.0047440970388273815 0 0 0
749 3 31.574999999999996 2.5823330008887965e-13 0.6585401179527407 0 0 0
755 1 33.68 1.2153223166437466 0.004744097038829242 0 0 0
754 3 33.68 3.645966949932264 0.6585401179527436 0 0 0
752 1 31.574999999999996 4.861289266575752 0.004744097038831894 0 0 0
753 3 35.78499999999999 2.5140681853248363e-13 0.6585401179527453 0 0 0
759 1 37.89000000000001 1.2153223166437535 0.0047440970388247265 0 0 0
757 3 39.995 2.5860182833974836e-13 0.6585401179527405 0 0 0
758 3 37.89000000000001 3.645966949932257 0.658540117952748 0 0 0
756 1 35.78499999999999 4.861289266575759 0.004744097038827369 0 0 0
760 1 39.995 4.861289266575752 0.004744097038832102 0 0 0
763 1 42.09999999999999 1.2153223166437535 0.004744097038824724 0 0 0
761 3 44.205000000000005 2.5136470823045087e-13 0.6585401179527451 0 0 0
767 1 46.309999999999995 1.2153223166437466 0.004744097038829245 0 0 0
762 3 42.09999999999999 3.645966949932257 0.6585401179527482 0 0 0
766 3 46.309999999999995 3.645966949932264 0.6585401179527436 0 0 0
764 1 44.205000000000005 4.861289266575759 0.004744097038827374 0 0 0
765 3 48.415 2.580657232702363e-13 0.6585401179527409 0 0 0
675 1 50.519999999999996 1.2153223166437506 0.004744097038826654 -1 0 0
673 3 52.62500000000001 2.5445479355641907e-13 0.6585401179527431 -1 0 0
674 3 50.519999999999996 3.64596694993226 0.6585401179527463 -1 0 0
768 1 48.415 4.861289266575753 0.00474409703883177 0 0 0
676 1 52.62500000000001 4.861289266575756 0.004744097038829412 -1 0 0
679 1 54.73 1.2153223166437503 0.004744097038826766 -1 0 0
677 3 56.83500000000001 2.54498831523504e-13 0.6585401179527433 -1 0 0
683 1 58.94 1.2153223166437503 0.00474409703882675 -1 0 0
678 3 54.73 3.64596694993226 0.658540117952746 -1 0 0
682 3 58.94 3.64596694993226 0.6585401179527461 -1 0 0
680 1 56.83500000000001 4.861289266575756 0.004744097038829401 -1 0 0
681 3 61.04500000000001 2.546548117539763e-13 0.658540117952743 -1 0 0
687 1 63.14999999999999 1.2153223166437532 0.004744097038824826 -1 0 0
685 3 65.25500000000001 2.514057629063836e-13 0.6585401179527453 -1 0 0
686 3 63.14999999999999 3.6459669499322573 0.658540117952748 -1 0 0
684 1 61.04500000000001 4.861289266575755 0.004744097038829523 -1 0 0
688 1 65.25500000000001 4.861289266575759 0.004744097038827375 -1 0 0
691 1 67.36 1.2153223166437466 0.004744097038829248 -1 0 0
689 3 69.465 2.5784263428776884e-13 0.6585401179527408 -1 0 0
690 3 67.36 3.645966949932264 0.6585401179527436 -1 0 0
692 1 69.465 4.861289266575753 0.004744097038831685 -1 0 0
695 1 71.57000000000001 1.2153223166437466 0.00474409703882923 -1 0 0
693 3 73.675 2.514114158606438e-13 0.6585401179527453 -1 0 0
699 1 75.78000000000002 1.2153223166437535 0.004744097038824698 -1 0 0
694 3 71.57000000000001 3.645966949932264 0.6585401179527437 -1 0 0
698 3 75.78000000000002 3.645966949932257 0.6585401179527481 -1 0 0
696 1 73.675 4.861289266575759 0.004744097038827346 -1 0 0
697 3 77.885 2.586444358569731e-13 0.6585401179527406 -1 0 0
703 1 79.99 1.2153223166437535 0.004744097038824724 -1 0 0
701 3 82.09500000000001 2.51363996830253e-13 0.6585401179527451 -1 0 0
702 3 79.99 3.645966949932257 0.658540117952748 -1 0 0
700 1 77.885 4.861289266575752 0.004744097038832087 -1 0 0
704 1 82.09500000000001 4.861289266575759 0.004744097038827373 -1 0 0
707 1 84.2 1.2153223166437463 0.0047440970388294415 -1 0 0
705 3 86.30499999999999 2.514075452316104e-13 0.6585401179527453 -1 0 0
711 1 88.41000000000001 1.2153223166437535 0.004744097038824724 -1 0 0
706 3 84.2 3.6459669499322644 0.6585401179527435 -1 0 0
710 3 88.41000000000001 3.645966949932257 0.658540117952748 -1 0 0
708 1 86.30499999999999 4.861289266575759 0.0047440970388273615 -1 0 0
709 3 90.515 2.586014764643817e-13 0.6585401179527404 -1 0 0
715 1 92.61999999999999 1.215322316643754 0.0047440970388245105 -1 0 0
713 3 94.72500000000002 2.5864324254051225e-13 0.6585401179527405 -1 0 0
714 3 92.61999999999999 3.6459669499322565 0.6585401179527484 -1 0 0
712 1 90.515 4.861289266575752 0.0047440970388321 -1 0 0
716 1 94.72500000000002 4.861289266575752 0.004744097038832097 -1 0 0
723 1 101.03999999999999 1.2153223166437501 0.004744097038826974 -1 0 0
722 3 101.03999999999999 3.6459669499322604 0.6585401179527458 -1 0 0
719 1 96.82999999999998 1.2153223166437463 0.004744097038829459 -1 0 0
717 3 98.93500000000002 2.511781989871879e-13 0.6585401179527453 -1 0 0
718 3 96.82999999999998 3.6459669499322644 0.6585401179527435 -1 0 0
720 1 98.93500000000002 4.861289266575759 0.0047440970388272705 -1 0 0
817 3 2.104999999999997 7.291933899864249 0.658540117952746 0 0 0
823 1 4.210000000000002 8.507256216507749 0.004744097038826552 0 0 0
822 3 4.210000000000002 10.937900849796266 0.6585401179527431 0 0 0
821 3 6.31499999999999 7.291933899864253 0.6585401179527435 0 0 0
825 3 10.524999999999991 7.2919338998642536 0.6585401179527434 0 0 0
827 1 8.420000000000002 8.507256216507749 0.004744097038826453 0 0 0
826 3 8.420000000000002 10.937900849796266 0.6585401179527434 0 0 0
829 3 14.735 7.291933899864253 0.6585401179527436 0 0 0
831 1 12.629999999999995 8.507256216507752 0.004744097038823991 0 0 0
835 1 16.839999999999996 8.507256216507745 0.004744097038829016 0 0 0
830 3 12.629999999999995 10.937900849796263 0.6585401179527457 0 0 0
834 3 16.839999999999996 10.93790084979627 0.6585401179527407 0 0 0
833 3 18.944999999999986 7.29193389986425 0.6585401179527456 0 0 0
837 3 23.154999999999994 7.291933899864257 0.6585401179527409 0 0 0
839 1 21.050000000000004 8.507256216507752 0.004744097038824396 0 0 0
838 3 21.050000000000004 10.937900849796263 0.6585401179527456 0 0 0
841 3 27.364999999999988 7.29193389986425 0.6585401179527455 0 0 0
843 1 25.259999999999998 8.507256216507745 0.004744097038828942 0 0 0
847 1 29.470000000000006 8.507256216507752 0.00474409703882441 0 0 0
842 3 25.259999999999998 10.93790084979627 0.6585401179527408 0 0 0
846 3 29.470000000000006 10.937900849796263 0.6585401179527456 0 0 0
845 3 31.574999999999996 7.291933899864257 0.658540117952741 0 0 0
851 1 33.68 8.507256216507745 0.004744097038828926 0 0 0
850 3 33.68 10.93790084979627 0.6585401179527408 0 0 0
849 3 35.78499999999999 7.29193389986425 0.6585401179527456 0 0 0
853 3 39.995 7.291933899864257 0.6585401179527408 0 0 0
855 1 37.89000000000001 8.507256216507752 0.004744097038824406 0 0 0
854 3 37.89000000000001 10.937900849796263 0.6585401179527455 0 0 0
857 3 44.205000000000005 7.29193389986425 0.6585401179527455 0 0 0
859 1 42.09999999999999 8.507256216507752 0.004744097038824406 0 0 0
863 1 46.309999999999995 8.507256216507745 0.004744097038828927 0 0 0
858 3 42.09999999999999 10.937900849796263 0.6585401179527457 0 0 0
862 3 46.309999999999995 10.93790084979627 0.6585401179527408 0 0 0
861 3 48.415 7.291933899864256 0.6585401179527413 0 0 0
769 3 52.62500000000001 7.291933899864253 0.6585401179527435 -1 0 0
771 1 50.519999999999996 8.507256216507749 0.004744097038826342 -1 0 0
770 3 50.519999999999996 10.937900849796266 0.6585401179527435 -1 0 0
773 3 56.83500000000001 7.291933899864253 0.6585401179527436 -1 0 0
775 1 54.73 8.507256216507749 0.004744097038826454 -1 0 0
779 1 58.94 8.507256216507749 0.004744097038826441 -1 0 0
774 3 54.73 10.937900849796266 0.6585401179527433 -1 0 0
778 3 58.94 10.937900849796266 0.6585401179527434 -1 0 0
777 3 61.04500000000001 7.2919338998642536 0.6585401179527434 -1 0 0
781 3 65.25500000000001 7.29193389986425 0.6585401179527456 -1 0 0
783 1 63.14999999999999 8.507256216507752 0.004744097038824506 -1 0 0
782 3 63.14999999999999 10.937900849796263 0.6585401179527454 -1 0 0
785 3 69.465 7.291933899864256 0.6585401179527411 -1 0 0
787 1 67.36 8.507256216507745 0.004744097038828933 -1 0 0
786 3 67.36 10.93790084979627 0.6585401179527408 -1 0 0
789 3 73.675 7.29193389986425 0.6585401179527456 -1 0 0
791 1 71.57000000000001 8.507256216507745 0.004744097038828916 -1 0 0
795 1 75.78000000000002 8.507256216507752 0.004744097038824377 -1 0 0
790 3 71.57000000000001 10.93790084979627 0.6585401179527409 -1 0 0
794 3 75.78000000000002 10.937900849796263 0.6585401179527456 -1 0 0
793 3 77.885 7.291933899864257 0.6585401179527409 -1 0 0
797 3 82.09500000000001 7.29193389986425 0.6585401179527455 -1 0 0
799 1 79.99 8.507256216507752 0.004744097038824405 -1 0 0
798 3 79.99 10.937900849796263 0.6585401179527455 -1 0 0
801 3 86.30499999999999 7.29193389986425 0.6585401179527456 -1 0 0
803 1 84.2 8.507256216507745 0.004744097038829124 -1 0 0
807 1 88.41000000000001 8.507256216507752 0.004744097038824404 -1 0 0
802 3 84.2 10.937900849796272 0.6585401179527407 -1 0 0
806 3 88.41000000000001 10.937900849796263 0.6585401179527455 -1 0 0
805 3 90.515 7.291933899864257 0.6585401179527408 -1 0 0
809 3 94.72500000000002 7.291933899864257 0.6585401179527408 -1 0 0
811 1 92.61999999999999 8.507256216507752 0.00474409703882419 -1 0 0
810 3 92.61999999999999 10.937900849796263 0.6585401179527458 -1 0 0
819 1 101.03999999999999 8.507256216507749 0.004744097038826662 -1 0 0
818 3 101.03999999999999 10.937900849796266 0.658540117952743 -1 0 0
813 3 98.93500000000002 7.29193389986425 0.6585401179527456 -1 0 0
815 1 96.82999999999998 8.507256216507745 0.004744097038829136 -1 0 0
814 3 96.82999999999998 10.93790084979627 0.658540117952741 -1 0 0
820 1 2.104999999999997 12.153223166439748 0.004744097038826896 0 0 0
913 3 2.104999999999997 14.583867799728266 0.6585401179527461 0 0 0
919 1 4.210000000000002 15.799190116371747 0.004744097038830067 0 0 0
824 1 6.31499999999999 12.153223166439744 0.004744097038829336 0 0 0
828 1 10.524999999999991 12.153223166439744 0.004744097038829433 0 0 0
917 3 6.31499999999999 14.583867799728269 0.6585401179527435 0 0 0
923 1 8.420000000000002 15.799190116371747 0.004744097038829968 0 0 0
921 3 10.524999999999991 14.583867799728269 0.6585401179527435 0 0 0
832 1 14.735 12.153223166439744 0.00474409703882933 0 0 0
927 1 12.629999999999995 15.79919011637175 0.004744097038827527 0 0 0
925 3 14.735 14.583867799728269 0.6585401179527437 0 0 0
931 1 16.839999999999996 15.799190116371744 0.004744097038832505 0 0 0
836 1 18.944999999999986 12.153223166439748 0.004744097038827046 0 0 0
840 1 23.154999999999994 12.15322316643974 0.004744097038831782 0 0 0
929 3 18.944999999999986 14.583867799728266 0.6585401179527459 0 0 0
935 1 21.050000000000004 15.79919011637175 0.00474409703882769 0 0 0
933 3 23.154999999999994 14.583867799728273 0.658540117952741 0 0 0
844 1 27.364999999999988 12.153223166439748 0.00474409703882707 0 0 0
939 1 25.259999999999998 15.799190116371744 0.0047440970388324295 0 0 0
937 3 27.364999999999988 14.583867799728266 0.6585401179527458 0 0 0
943 1 29.470000000000006 15.79919011637175 0.004744097038827703 0 0 0
848 1 31.574999999999996 12.15322316643974 0.004744097038831781 0 0 0
941 3 31.574999999999996 14.583867799728273 0.6585401179527411 0 0 0
947 1 33.68 15.799190116371744 0.004744097038832413 0 0 0
852 1 35.78499999999999 12.153223166439748 0.004744097038827056 0 0 0
856 1 39.995 12.15322316643974 0.004744097038831983 0 0 0
945 3 35.78499999999999 14.583867799728266 0.6585401179527459 0 0 0
951 1 37.89000000000001 15.79919011637175 0.0047440970388277015 0 0 0
949 3 39.995 14.583867799728274 0.6585401179527409 0 0 0
860 1 44.205000000000005 12.153223166439748 0.004744097038827061 0 0 0
955 1 42.09999999999999 15.79919011637175 0.0047440970388277 0 0 0
953 3 44.205000000000005 14.583867799728266 0.6585401179527458 0 0 0
959 1 46.309999999999995 15.799190116371744 0.004744097038832415 0 0 0
864 1 48.415 12.15322316643974 0.00474409703883166 0 0 0
772 1 52.62500000000001 12.153223166439744 0.004744097038829331 -1 0 0
957 3 48.415 14.583867799728273 0.6585401179527414 0 0 0
867 1 50.519999999999996 15.799190116371747 0.004744097038829858 -1 0 0
865 3 52.62500000000001 14.583867799728269 0.6585401179527435 -1 0 0
776 1 56.83500000000001 12.153223166439744 0.004744097038829321 -1 0 0
871 1 54.73 15.799190116371747 0.004744097038829966 -1 0 0
869 3 56.83500000000001 14.583867799728269 0.6585401179527437 -1 0 0
875 1 58.94 15.799190116371747 0.004744097038829956 -1 0 0
780 1 61.04500000000001 12.153223166439744 0.004744097038829439 -1 0 0
784 1 65.25500000000001 12.153223166439748 0.00474409703882706 -1 0 0
873 3 61.04500000000001 14.583867799728269 0.6585401179527435 -1 0 0
879 1 63.14999999999999 15.79919011637175 0.004744097038827799 -1 0 0
877 3 65.25500000000001 14.583867799728266 0.6585401179527459 -1 0 0
788 1 69.465 12.15322316643974 0.0047440970388315734 -1 0 0
883 1 67.36 15.799190116371744 0.004744097038832419 -1 0 0
881 3 69.465 14.583867799728273 0.6585401179527413 -1 0 0
792 1 73.675 12.153223166439748 0.004744097038827034 -1 0 0
887 1 71.57000000000001 15.799190116371744 0.0047440970388324035 -1 0 0
885 3 73.675 14.583867799728266 0.6585401179527459 -1 0 0
891 1 75.78000000000002 15.79919011637175 0.00474409703882767 -1 0 0
796 1 77.885 12.15322316643974 0.004744097038831965 -1 0 0
800 1 82.09500000000001 12.153223166439748 0.004744097038827058 -1 0 0
889 3 77.885 14.583867799728274 0.658540117952741 -1 0 0
895 1 79.99 15.79919011637175 0.004744097038827697 -1 0 0
893 3 82.09500000000001 14.583867799728266 0.6585401179527458 -1 0 0
804 1 86.30499999999999 12.153223166439748 0.004744097038827048 -1 0 0
899 1 84.2 15.799190116371742 0.004744097038832608 -1 0 0
897 3 86.30499999999999 14.583867799728266 0.6585401179527459 -1 0 0
903 1 88.41000000000001 15.79919011637175 0.004744097038827697 -1 0 0
808 1 90.515 12.15322316643974 0.004744097038831979 -1 0 0
812 1 94.72500000000002 12.15322316643974 0.00474409703883157 -1 0 0
901 3 90.515 14.583867799728274 0.6585401179527409 -1 0 0
907 1 92.61999999999999 15.79919011637175 0.004744097038827475 -1 0 0
905 3 94.72500000000002 14.583867799728273 0.6585401179527414 -1 0 0
915 1 101.03999999999999 15.799190116371747 0.004744097038830173 -1 0 0
816 1 98.93500000000002 12.153223166439748 0.0047440970388269495 -1 0 0
911 1 96.82999999999998 15.799190116371744 0.0047440970388322205 -1 0 0
909 3 98.93500000000002 14.583867799728266 0.6585401179527459 -1 0 0
914 3 0 18.229834749660256 0.6585401179527488 0 0 0
918 3 4.210000000000001 18.229834749660256 0.6585401179527489 0 0 0
916 1 2.104999999999997 19.445157066303775 0.004744097038827189 0 0 0
1009 3 2.104999999999997 21.875801699592238 0.6585401179527458 0 0 0
922 3 8.420000000000002 18.229834749660256 0.6585401179527491 0 0 0
920 1 6.314999999999991 19.44515706630377 0.004744097038829457 0 0 0
924 1 10.524999999999991 19.44515706630377 0.0047440970388295655 0 0 0
1013 3 6.314999999999991 21.87580169959224 0.6585401179527435 0 0 0
1017 3 10.524999999999991 21.87580169959224 0.6585401179527434 0 0 0
926 3 12.629999999999995 18.229834749660252 0.6585401179527512 0 0 0
930 3 16.839999999999996 18.22983474966026 0.6585401179527466 0 0 0
928 1 14.735 19.44515706630377 0.004744097038829458 0 0 0
1021 3 14.735 21.87580169959224 0.6585401179527436 0 0 0
934 3 21.050000000000004 18.229834749660252 0.6585401179527514 0 0 0
932 1 18.944999999999986 19.445157066303775 0.00474409703882717 0 0 0
936 1 23.154999999999994 19.445157066303768 0.004744097038831741 0 0 0
1025 3 18.944999999999986 21.875801699592238 0.6585401179527458 0 0 0
1029 3 23.154999999999994 21.875801699592245 0.6585401179527411 0 0 0
938 3 25.259999999999998 18.22983474966026 0.6585401179527467 0 0 0
942 3 29.470000000000006 18.229834749660252 0.6585401179527514 0 0 0
940 1 27.364999999999988 19.445157066303775 0.004744097038827192 0 0 0
1033 3 27.364999999999988 21.875801699592238 0.6585401179527457 0 0 0
946 3 33.68 18.22983474966026 0.6585401179527467 0 0 0
944 1 31.574999999999996 19.445157066303768 0.004744097038831737 0 0 0
1037 3 31.574999999999996 21.875801699592245 0.6585401179527411 0 0 0
950 3 37.89000000000001 18.229834749660252 0.6585401179527512 0 0 0
948 1 35.78499999999999 19.445157066303775 0.004744097038827181 0 0 0
952 1 39.995 19.445157066303768 0.004744097038831946 0 0 0
1041 3 35.78499999999999 21.875801699592238 0.6585401179527458 0 0 0
1045 3 39.995 21.875801699592245 0.6585401179527409 0 0 0
954 3 42.09999999999999 18.229834749660252 0.6585401179527514 0 0 0
958 3 46.309999999999995 18.22983474966026 0.6585401179527467 0 0 0
956 1 44.205000000000005 19.445157066303775 0.004744097038827187 0 0 0
1049 3 44.205000000000005 21.875801699592238 0.6585401179527457 0 0 0
866 3 50.519999999999996 18.229834749660256 0.6585401179527492 -1 0 0
960 1 48.415 19.445157066303768 0.004744097038831619 0 0 0
868 1 52.62500000000001 19.44515706630377 0.004744097038829455 -1 0 0
1053 3 48.415 21.875801699592245 0.6585401179527414 0 0 0
961 3 52.62500000000001 21.87580169959224 0.6585401179527434 -1 0 0
870 3 54.73 18.229834749660256 0.658540117952749 -1 0 0
874 3 58.94 18.229834749660256 0.6585401179527491 -1 0 0
872 1 56.83500000000001 19.44515706630377 0.004744097038829445 -1 0 0
965 3 56.83500000000001 21.87580169959224 0.6585401179527436 -1 0 0
878 3 63.14999999999999 18.229834749660252 0.6585401179527511 -1 0 0
876 1 61.04500000000001 19.44515706630377 0.004744097038829561 -1 0 0
880 1 65.25500000000001 19.445157066303775 0.004744097038827183 -1 0 0
969 3 61.04500000000001 21.87580169959224 0.6585401179527434 -1 0 0
973 3 65.25500000000001 21.875801699592238 0.6585401179527458 -1 0 0
882 3 67.36 18.22983474966026 0.6585401179527467 -1 0 0
884 1 69.465 19.445157066303768 0.004744097038831528 -1 0 0
977 3 69.465 21.875801699592245 0.6585401179527414 -1 0 0
886 3 71.57000000000001 18.22983474966026 0.6585401179527468 -1 0 0
890 3 75.78000000000002 18.229834749660252 0.6585401179527514 -1 0 0
888 1 73.675 19.445157066303775 0.0047440970388271594 -1 0 0
981 3 73.675 21.875801699592238 0.6585401179527458 -1 0 0
894 3 79.99 18.229834749660252 0.6585401179527512 -1 0 0
892 1 77.885 19.445157066303768 0.0047440970388319265 -1 0 0
896 1 82.09500000000001 19.445157066303775 0.004744097038827183 -1 0 0
985 3 77.885 21.875801699592245 0.658540117952741 -1 0 0
989 3 82.09500000000001 21.875801699592238 0.6585401179527457 -1 0 0
898 3 84.2 18.22983474966026 0.6585401179527466 -1 0 0
902 3 88.41000000000001 18.229834749660252 0.6585401179527512 -1 0 0
900 1 86.30499999999999 19.445157066303775 0.004744097038827171 -1 0 0
993 3 86.30499999999999 21.875801699592238 0.6585401179527458 -1 0 0
906 3 92.61999999999999 18.229834749660252 0.6585401179527516 -1 0 0
904 1 90.515 19.445157066303768 0.004744097038831942 -1 0 0
908 1 94.72500000000002 19.445157066303768 0.0047440970388319 -1 0 0
997 3 90.515 21.875801699592245 0.6585401179527409 -1 0 0
1001 3 94.72500000000002 21.875801699592245 0.658540117952741 -1 0 0
910 3 96.82999999999998 18.22983474966026 0.6585401179527467 -1 0 0
912 1 98.93500000000002 19.445157066303775 0.0047440970388270805 -1 0 0
1005 3 98.93500000000002 21.875801699592238 0.6585401179527458 -1 0 0
1015 1 4.210000000000001 23.091124016235753 0.004744097038823842 0 0 0
1014 3 4.210000000000002 25.521768649524265 0.6585401179527428 0 0 0
1012 1 2.104999999999997 26.737090966167745 0.0047440970388268975 0 0 0
1019 1 8.420000000000002 23.091124016235753 0.004744097038823734 0 0 0
1018 3 8.420000000000002 25.521768649524265 0.658540117952743 0 0 0
1016 1 6.31499999999999 26.73709096616774 0.0047440970388293365 0 0 0
1020 1 10.524999999999991 26.73709096616774 0.004744097038829432 0 0 0
1023 1 12.629999999999995 23.091124016235756 0.004744097038821464 0 0 0
1027 1 16.839999999999996 23.09112401623575 0.004744097038826108 0 0 0
1022 3 12.629999999999995 25.52176864952426 0.6585401179527454 0 0 0
1026 3 16.839999999999996 25.52176864952427 0.6585401179527404 0 0 0
1024 1 14.735 26.73709096616774 0.004744097038829332 0 0 0
1031 1 21.050000000000004 23.091124016235756 0.0047440970388214565 0 0 0
1030 3 21.050000000000004 25.52176864952426 0.6585401179527454 0 0 0
1028 1 18.944999999999986 26.737090966167745 0.0047440970388270476 0 0 0
1032 1 23.154999999999994 26.737090966167738 0.0047440970388317825 0 0 0
1035 1 25.259999999999998 23.09112401623575 0.00474409703882603 0 0 0
1039 1 29.470000000000006 23.091124016235756 0.00474409703882147 0 0 0
1034 3 25.259999999999998 25.52176864952427 0.6585401179527405 0 0 0
1038 3 29.470000000000006 25.52176864952426 0.6585401179527453 0 0 0
1036 1 27.364999999999988 26.737090966167745 0.00474409703882707 0 0 0
1043 1 33.68 23.09112401623575 0.004744097038826014 0 0 0
1042 3 33.68 25.52176864952427 0.6585401179527405 0 0 0
1040 1 31.574999999999996 26.737090966167738 0.004744097038831782 0 0 0
1047 1 37.89000000000001 23.091124016235756 0.004744097038821464 0 0 0
1046 3 37.89000000000001 25.52176864952426 0.6585401179527451 0 0 0
1044 1 35.78499999999999 26.737090966167745 0.004744097038827057 0 0 0
1048 1 39.995 26.737090966167738 0.004744097038831984 0 0 0
1051 1 42.09999999999999 23.091124016235756 0.004744097038821468 0 0 0
1055 1 46.309999999999995 23.09112401623575 0.004744097038826016 0 0 0
1050 3 42.09999999999999 25.52176864952426 0.6585401179527454 0 0 0
1054 3 46.309999999999995 25.52176864952427 0.6585401179527405 0 0 0
1052 1 44.205000000000005 26.737090966167745 0.004744097038827063 0 0 0
963 1 50.519999999999996 23.091124016235753 0.0047440970388236215 -1 0 0
962 3 50.519999999999996 25.521768649524265 0.6585401179527431 -1 0 0
1056 1 48.415 26.737090966167738 0.004744097038831661 0 0 0
964 1 52.62500000000001 26.73709096616774 0.004744097038829334 -1 0 0
967 1 54.73 23.091124016235753 0.004744097038823734 -1 0 0
971 1 58.94 23.091124016235753 0.004744097038823722 -1 0 0
966 3 54.73 25.521768649524265 0.6585401179527429 -1 0 0
970 3 58.94 25.521768649524265 0.658540117952743 -1 0 0
968 1 56.83500000000001 26.73709096616774 0.004744097038829321 -1 0 0
975 1 63.14999999999999 23.091124016235756 0.004744097038821571 -1 0 0
974 3 63.14999999999999 25.52176864952426 0.658540117952745 -1 0 0
972 1 61.04500000000001 26.73709096616774 0.00474409703882944 -1 0 0
976 1 65.25500000000001 26.737090966167745 0.004744097038827062 -1 0 0
979 1 67.36 23.09112401623575 0.004744097038826022 -1 0 0
978 3 67.36 25.52176864952427 0.6585401179527405 -1 0 0
980 1 69.465 26.737090966167738 0.004744097038831575 -1 0 0
983 1 71.57000000000001 23.09112401623575 0.004744097038826005 -1 0 0
987 1 75.78000000000002 23.091124016235756 0.0047440970388214375 -1 0 0
982 3 71.57000000000001 25.52176864952427 0.6585401179527406 -1 0 0
986 3 75.78000000000002 25.52176864952426 0.6585401179527453 -1 0 0
984 1 73.675 26.737090966167745 0.0047440970388270345 -1 0 0
991 1 79.99 23.091124016235756 0.004744097038821465 -1 0 0
990 3 79.99 25.52176864952426 0.6585401179527451 -1 0 0
988 1 77.885 26.737090966167738 0.004744097038831968 -1 0 0
992 1 82.09500000000001 26.737090966167745 0.00474409703882706 -1 0 0
995 1 84.2 23.09112401623575 0.004744097038826213 -1 0 0
999 1 88.41000000000001 23.091124016235756 0.004744097038821465 -1 0 0
994 3 84.2 25.52176864952427 0.6585401179527404 -1 0 0
998 3 88.41000000000001 25.52176864952426 0.6585401179527451 -1 0 0
996 1 86.30499999999999 26.737090966167745 0.004744097038827048 -1 0 0
1003 1 92.61999999999999 23.091124016235756 0.004744097038821247 -1 0 0
1002 3 92.61999999999999 25.52176864952426 0.6585401179527455 -1 0 0
1000 1 90.515 26.737090966167738 0.00474409703883198 -1 0 0
1004 1 94.72500000000002 26.737090966167738 0.00474409703883157 -1 0 0
1011 1 101.03999999999999 23.091124016235753 0.004744097038823948 -1 0 0
1010 3 101.03999999999999 25.521768649524265 0.6585401179527427 -1 0 0
1007 1 96.82999999999998 23.09112401623575 0.004744097038826185 -1 0 0
1006 3 96.82999999999998 25.52176864952427 0.6585401179527408 -1 0 0
1008 1 98.93500000000002 26.737090966167745 0.004744097038826951 -1 0 0
1105 3 2.104999999999997 29.167735599456265 0.6585401179527461 0 0 0
1111 1 4.210000000000002 30.383057916099744 0.00474409703882943 0 0 0
1110 3 4.210000000000002 32.81370254938827 0.6585401179527435 0 0 0
1108 1 2.104999999999997 34.02902486603175 0.0047440970388275255 0 0 0
1109 3 6.31499999999999 29.167735599456268 0.6585401179527435 0 0 0
1115 1 8.420000000000002 30.383057916099744 0.004744097038829331 0 0 0
1113 3 10.524999999999991 29.167735599456268 0.6585401179527434 0 0 0
1114 3 8.420000000000002 32.81370254938827 0.6585401179527437 0 0 0
1112 1 6.31499999999999 34.02902486603175 0.0047440970388299706 0 0 0
1116 1 10.524999999999991 34.02902486603175 0.004744097038830069 0 0 0
1119 1 12.629999999999995 30.383057916099748 0.004744097038826896 0 0 0
1117 3 14.735 29.167735599456268 0.6585401179527437 0 0 0
1123 1 16.839999999999996 30.38305791609974 0.004744097038831864 0 0 0
1118 3 12.629999999999995 32.81370254938827 0.6585401179527459 0 0 0
1122 3 16.839999999999996 32.813702549388275 0.6585401179527409 0 0 0
1120 1 14.735 34.02902486603175 0.004744097038829964 0 0 0
1121 3 18.944999999999986 29.167735599456265 0.6585401179527459 0 0 0
1127 1 21.050000000000004 30.383057916099748 0.004744097038827049 0 0 0
1125 3 23.154999999999994 29.16773559945627 0.658540117952741 0 0 0
1126 3 21.050000000000004 32.81370254938827 0.6585401179527459 0 0 0
1124 1 18.944999999999986 34.02902486603175 0.004744097038827685 0 0 0
1128 1 23.154999999999994 34.02902486603174 0.004744097038832419 0 0 0
1131 1 25.259999999999998 30.38305791609974 0.0047440970388317886 0 0 0
1129 3 27.364999999999988 29.167735599456265 0.6585401179527458 0 0 0
1135 1 29.470000000000006 30.383057916099748 0.004744097038827063 0 0 0
1130 3 25.259999999999998 32.813702549388275 0.6585401179527411 0 0 0
1134 3 29.470000000000006 32.81370254938827 0.6585401179527459 0 0 0
1132 1 27.364999999999988 34.02902486603175 0.0047440970388277085 0 0 0
1133 3 31.574999999999996 29.16773559945627 0.6585401179527411 0 0 0
1139 1 33.68 30.38305791609974 0.004744097038831773 0 0 0
1138 3 33.68 32.813702549388275 0.6585401179527411 0 0 0
1136 1 31.574999999999996 34.02902486603174 0.00474409703883242 0 0 0
1137 3 35.78499999999999 29.167735599456265 0.6585401179527459 0 0 0
1143 1 37.89000000000001 30.383057916099748 0.0047440970388270606 0 0 0
1141 3 39.995 29.16773559945627 0.6585401179527408 0 0 0
1142 3 37.89000000000001 32.81370254938827 0.6585401179527458 0 0 0
1140 1 35.78499999999999 34.02902486603175 0.004744097038827695 0 0 0
1144 1 39.995 34.02902486603174 0.004744097038832622 0 0 0
1147 1 42.09999999999999 30.383057916099748 0.004744097038827058 0 0 0
1145 3 44.205000000000005 29.167735599456265 0.6585401179527458 0 0 0
1151 1 46.309999999999995 30.38305791609974 0.0047440970388317755 0 0 0
1146 3 42.09999999999999 32.81370254938827 0.6585401179527459 0 0 0
1150 3 46.309999999999995 32.813702549388275 0.658540117952741 0 0 0
1148 1 44.205000000000005 34.02902486603175 0.004744097038827701 0 0 0
1149 3 48.415 29.16773559945627 0.6585401179527414 0 0 0
1059 1 50.519999999999996 30.383057916099744 0.004744097038829219 -1 0 0
1057 3 52.62500000000001 29.167735599456268 0.6585401179527435 -1 0 0
1058 3 50.519999999999996 32.81370254938827 0.6585401179527438 -1 0 0
1152 1 48.415 34.02902486603174 0.0047440970388322986 0 0 0
1060 1 52.62500000000001 34.02902486603175 0.004744097038829966 -1 0 0
1063 1 54.73 30.383057916099744 0.00474409703882933 -1 0 0
1061 3 56.83500000000001 29.167735599456268 0.6585401179527437 -1 0 0
1067 1 58.94 30.383057916099744 0.004744097038829319 -1 0 0
1062 3 54.73 32.81370254938827 0.6585401179527435 -1 0 0
1066 3 58.94 32.81370254938827 0.6585401179527437 -1 0 0
1064 1 56.83500000000001 34.02902486603175 0.004744097038829956 -1 0 0
1065 3 61.04500000000001 29.167735599456268 0.6585401179527434 -1 0 0
1071 1 63.14999999999999 30.383057916099748 0.004744097038827157 -1 0 0
1069 3 65.25500000000001 29.167735599456265 0.6585401179527459 -1 0 0
1070 3 63.14999999999999 32.81370254938827 0.6585401179527457 -1 0 0
1068 1 61.04500000000001 34.02902486603175 0.004744097038830072 -1 0 0
1072 1 65.25500000000001 34.02902486603175 0.004744097038827699 -1 0 0