LAMMPS data file via write_data, version 29 Aug 2024, timestep = 0, units = metal

1344 atoms
2 atom types

0 101.04 xlo xhi
0 102.087074598096 ylo yhi
0 106 zlo zhi

Masses

1 118.71
2 28.085

Atoms # atomic

723 1 0 1.2153223166440057 0 0 0 0
721 2 2.104999999999997 7.105427357601002e-15 0.6651000000000025 0 0 0
727 1 4.209999999999994 1.2153223166440057 0 0 0 0
725 2 6.314999999999998 7.105427357601002e-15 0.6651000000000025 0 0 0
731 1 8.419999999999995 1.2153223166440057 0 0 0 0
729 2 10.524999999999999 7.105427357601002e-15 0.6651000000000025 0 0 0
735 1 12.629999999999995 1.2153223166440057 0 0 0 0
733 2 14.734999999999992 7.105427357601002e-15 0.6651000000000025 0 0 0
739 1 16.839999999999996 1.2153223166440057 0 0 0 0
737 2 18.945 7.105427357601002e-15 0.6651000000000025 0 0 0
743 1 21.04999999999999 1.2153223166440057 0 0 0 0
741 2 23.154999999999994 7.105427357601002e-15 0.6651000000000025 0 0 0
747 1 25.259999999999998 1.2153223166440057 0 0 0 0
745 2 27.365000000000002 7.105427357601002e-15 0.6651000000000025 0 0 0
751 1 29.46999999999999 1.2153223166440057 0 0 0 0
749 2 31.574999999999996 7.105427357601002e-15 0.6651000000000025 0 0 0
755 1 33.68 1.2153223166440057 0 0 0 0
753 2 35.785000000000004 7.105427357601002e-15 0.6651000000000025 0 0 0
759 1 37.88999999999999 1.2153223166440057 0 0 0 0
757 2 39.995 7.105427357601002e-15 0.6651000000000025 0 0 0
763 1 42.1 1.2153223166440057 0 0 0 0
761 2 44.20499999999999 7.105427357601002e-15 0.6651000000000025 0 0 0
767 1 46.309999999999995 1.2153223166440057 0 0 0 0
765 2 48.415 7.105427357601002e-15 0.6651000000000025 0 0 0
675 1 50.52 1.2153223166440057 0 -1 0 0
673 2 52.625 7.105427357601002e-15 0.6651000000000025 -1 0 0
679 1 54.730000000000004 1.2153223166440057 0 -1 0 0
677 2 56.835 7.105427357601002e-15 0.6651000000000025 -1 0 0
683 1 58.940000000000005 1.2153223166440057 0 -1 0 0
681 2 61.045 7.105427357601002e-15 0.6651000000000025 -1 0 0
687 1 63.150000000000006 1.2153223166440057 0 -1 0 0
685 2 65.255 7.105427357601002e-15 0.6651000000000025 -1 0 0
691 1 67.36 1.2153223166440057 0 -1 0 0
689 2 69.465 7.105427357601002e-15 0.6651000000000025 -1 0 0
695 1 71.57000000000001 1.2153223166440057 0 -1 0 0
693 2 73.67500000000001 7.105427357601002e-15 0.6651000000000025 -1 0 0
699 1 75.78 1.2153223166440057 0 -1 0 0
697 2 77.885 7.105427357601002e-15 0.6651000000000025 -1 0 0
703 1 79.99000000000001 1.2153223166440057 0 -1 0 0
701 2 82.095 7.105427357601002e-15 0.6651000000000025 -1 0 0
707 1 84.2 1.2153223166440057 0 -1 0 0
705 2 86.305 7.105427357601002e-15 0.6651000000000025 -1 0 0
711 1 88.41 1.2153223166440057 0 -1 0 0
709 2 90.515 7.105427357601002e-15 0.6651000000000025 -1 0 0
715 1 92.62 1.2153223166440057 0 -1 0 0
713 2 94.725 7.105427357601002e-15 0.6651000000000025 -1 0 0
719 1 96.83000000000001 1.2153223166440057 0 -1 0 0
717 2 98.935 7.105427357601002e-15 0.6651000000000025 -1 0 0
722 2 0 3.645966949932003 0.6651000000000025 0 0 0
726 2 4.209999999999994 3.645966949932003 0.6651000000000025 0 0 0
730 2 8.419999999999995 3.645966949932003 0.6651000000000025 0 0 0
734 2 12.629999999999995 3.645966949932003 0.6651000000000025 0 0 0
738 2 16.839999999999996 3.645966949932003 0.6651000000000025 0 0 0
742 2 21.04999999999999 3.645966949932003 0.6651000000000025 0 0 0
746 2 25.259999999999998 3.645966949932003 0.6651000000000025 0 0 0
750 2 29.46999999999999 3.645966949932003 0.6651000000000025 0 0 0
754 2 33.68 3.645966949932003 0.6651000000000025 0 0 0
758 2 37.88999999999999 3.645966949932003 0.6651000000000025 0 0 0
762 2 42.1 3.645966949932003 0.6651000000000025 0 0 0
766 2 46.309999999999995 3.645966949932003 0.6651000000000025 0 0 0
674 2 50.52 3.645966949932003 0.6651000000000025 -1 0 0
678 2 54.730000000000004 3.645966949932003 0.6651000000000025 -1 0 0
682 2 58.940000000000005 3.645966949932003 0.6651000000000025 -1 0 0
686 2 63.150000000000006 3.645966949932003 0.6651000000000025 -1 0 0
690 2 67.36 3.645966949932003 0.6651000000000025 -1 0 0
694 2 71.57000000000001 3.645966949932003 0.6651000000000025 -1 0 0
698 2 75.78 3.645966949932003 0.6651000000000025 -1 0 0
702 2 79.99000000000001 3.645966949932003 0.6651000000000025 -1 0 0
706 2 84.2 3.645966949932003 0.6651000000000025 -1 0 0
710 2 88.41 3.645966949932003 0.6651000000000025 -1 0 0
714 2 92.62 3.645966949932003 0.6651000000000025 -1 0 0
718 2 96.83000000000001 3.645966949932003 0.6651000000000025 -1 0 0
724 1 2.104999999999997 4.8612892665760015 0 0 0 0
728 1 6.314999999999998 4.8612892665760015 0 0 0 0
732 1 10.524999999999999 4.8612892665760015 0 0 0 0
736 1 14.734999999999992 4.8612892665760015 0 0 0 0
740 1 18.945 4.8612892665760015 0 0 0 0
744 1 23.154999999999994 4.8612892665760015 0 0 0 0
748 1 27.365000000000002 4.8612892665760015 0 0 0 0
752 1 31.574999999999996 4.8612892665760015 0 0 0 0
756 1 35.785000000000004 4.8612892665760015 0 0 0 0
760 1 39.995 4.8612892665760015 0 0 0 0
764 1 44.20499999999999 4.8612892665760015 0 0 0 0
768 1 48.415 4.8612892665760015 0 0 0 0
676 1 52.625 4.8612892665760015 0 -1 0 0
680 1 56.835 4.8612892665760015 0 -1 0 0
684 1 61.045 4.8612892665760015 0 -1 0 0
688 1 65.255 4.8612892665760015 0 -1 0 0
692 1 69.465 4.8612892665760015 0 -1 0 0
696 1 73.67500000000001 4.8612892665760015 0 -1 0 0
700 1 77.885 4.8612892665760015 0 -1 0 0
704 1 82.095 4.8612892665760015 0 -1 0 0
708 1 86.305 4.8612892665760015 0 -1 0 0
712 1 90.515 4.8612892665760015 0 -1 0 0
716 1 94.725 4.8612892665760015 0 -1 0 0
720 1 98.935 4.8612892665760015 0 -1 0 0
817 2 2.104999999999997 7.291933899864006 0.6651000000000025 0 0 0
821 2 6.314999999999998 7.291933899864006 0.6651000000000025 0 0 0
825 2 10.524999999999999 7.291933899864006 0.6651000000000025 0 0 0
829 2 14.734999999999992 7.291933899864006 0.6651000000000025 0 0 0
833 2 18.945 7.291933899864006 0.6651000000000025 0 0 0
837 2 23.154999999999994 7.291933899864006 0.6651000000000025 0 0 0
841 2 27.365000000000002 7.291933899864006 0.6651000000000025 0 0 0
845 2 31.574999999999996 7.291933899864006 0.6651000000000025 0 0 0
849 2 35.785000000000004 7.291933899864006 0.6651000000000025 0 0 0
853 2 39.995 7.291933899864006 0.6651000000000025 0 0 0
857 2 44.20499999999999 7.291933899864006 0.6651000000000025 0 0 0
861 2 48.415 7.291933899864006 0.6651000000000025 0 0 0
769 2 52.625 7.291933899864006 0.6651000000000025 -1 0 0
773 2 56.835 7.291933899864006 0.6651000000000025 -1 0 0
777 2 61.045 7.291933899864006 0.6651000000000025 -1 0 0
781 2 65.255 7.291933899864006 0.6651000000000025 -1 0 0
785 2 69.465 7.291933899864006 0.6651000000000025 -1 0 0
789 2 73.67500000000001 7.291933899864006 0.6651000000000025 -1 0 0
793 2 77.885 7.291933899864006 0.6651000000000025 -1 0 0
797 2 82.095 7.291933899864006 0.6651000000000025 -1 0 0
801 2 86.305 7.291933899864006 0.6651000000000025 -1 0 0
805 2 90.515 7.291933899864006 0.6651000000000025 -1 0 0
809 2 94.725 7.291933899864006 0.6651000000000025 -1 0 0
813 2 98.935 7.291933899864006 0.6651000000000025 -1 0 0
819 1 0 8.507256216508004 0 0 0 0
823 1 4.209999999999994 8.507256216508004 0 0 0 0
827 1 8.419999999999995 8.507256216508004 0 0 0 0
831 1 12.629999999999995 8.507256216508004 0 0 0 0
835 1 16.839999999999996 8.507256216508004 0 0 0 0
839 1 21.04999999999999 8.507256216508004 0 0 0 0
843 1 25.259999999999998 8.507256216508004 0 0 0 0
847 1 29.46999999999999 8.507256216508004 0 0 0 0
851 1 33.68 8.507256216508004 0 0 0 0
855 1 37.88999999999999 8.507256216508004 0 0 0 0
859 1 42.1 8.507256216508004 0 0 0 0
863 1 46.309999999999995 8.507256216508004 0 0 0 0
771 1 50.52 8.507256216508004 0 -1 0 0
775 1 54.730000000000004 8.507256216508004 0 -1 0 0
779 1 58.940000000000005 8.507256216508004 0 -1 0 0
783 1 63.150000000000006 8.507256216508004 0 -1 0 0
787 1 67.36 8.507256216508004 0 -1 0 0
791 1 71.57000000000001 8.507256216508004 0 -1 0 0
795 1 75.78 8.507256216508004 0 -1 0 0
799 1 79.99000000000001 8.507256216508004 0 -1 0 0
803 1 84.2 8.507256216508004 0 -1 0 0
807 1 88.41 8.507256216508004 0 -1 0 0
811 1 92.62 8.507256216508004 0 -1 0 0
815 1 96.83000000000001 8.507256216508004 0 -1 0 0
818 2 0 10.937900849796002 0.6651000000000025 0 0 0
820 1 2.104999999999997 12.153223166440007 0 0 0 0
822 2 4.209999999999994 10.937900849796002 0.6651000000000025 0 0 0
824 1 6.314999999999998 12.153223166440007 0 0 0 0
826 2 8.419999999999995 10.937900849796002 0.6651000000000025 0 0 0
828 1 10.524999999999999 12.153223166440007 0 0 0 0
830 2 12.629999999999995 10.937900849796002 0.6651000000000025 0 0 0
832 1 14.734999999999992 12.153223166440007 0 0 0 0
834 2 16.839999999999996 10.937900849796002 0.6651000000000025 0 0 0
836 1 18.945 12.153223166440007 0 0 0 0
838 2 21.04999999999999 10.937900849796002 0.6651000000000025 0 0 0
840 1 23.154999999999994 12.153223166440007 0 0 0 0
842 2 25.259999999999998 10.937900849796002 0.6651000000000025 0 0 0
844 1 27.365000000000002 12.153223166440007 0 0 0 0
846 2 29.46999999999999 10.937900849796002 0.6651000000000025 0 0 0
848 1 31.574999999999996 12.153223166440007 0 0 0 0
850 2 33.68 10.937900849796002 0.6651000000000025 0 0 0
852 1 35.785000000000004 12.153223166440007 0 0 0 0
854 2 37.88999999999999 10.937900849796002 0.6651000000000025 0 0 0
856 1 39.995 12.153223166440007 0 0 0 0
858 2 42.1 10.937900849796002 0.6651000000000025 0 0 0
860 1 44.20499999999999 12.153223166440007 0 0 0 0
862 2 46.309999999999995 10.937900849796002 0.6651000000000025 0 0 0
864 1 48.415 12.153223166440007 0 0 0 0
770 2 50.52 10.937900849796002 0.6651000000000025 -1 0 0
772 1 52.625 12.153223166440007 0 -1 0 0
774 2 54.730000000000004 10.937900849796002 0.6651000000000025 -1 0 0
776 1 56.835 12.153223166440007 0 -1 0 0
778 2 58.940000000000005 10.937900849796002 0.6651000000000025 -1 0 0
780 1 61.045 12.153223166440007 0 -1 0 0
782 2 63.150000000000006 10.937900849796002 0.6651000000000025 -1 0 0
784 1 65.255 12.153223166440007 0 -1 0 0
786 2 67.36 10.937900849796002 0.6651000000000025 -1 0 0
788 1 69.465 12.153223166440007 0 -1 0 0
790 2 71.57000000000001 10.937900849796002 0.6651000000000025 -1 0 0
792 1 73.67500000000001 12.153223166440007 0 -1 0 0
794 2 75.78 10.937900849796002 0.6651000000000025 -1 0 0
796 1 77.885 12.153223166440007 0 -1 0 0
798 2 79.99000000000001 10.937900849796002 0.6651000000000025 -1 0 0
800 1 82.095 12.153223166440007 0 -1 0 0
802 2 84.2 10.937900849796002 0.6651000000000025 -1 0 0
804 1 86.305 12.153223166440007 0 -1 0 0
806 2 88.41 10.937900849796002 0.6651000000000025 -1 0 0
808 1 90.515 12.153223166440007 0 -1 0 0
810 2 92.62 10.937900849796002 0.6651000000000025 -1 0 0
812 1 94.725 12.153223166440007 0 -1 0 0
814 2 96.83000000000001 10.937900849796002 0.6651000000000025 -1 0 0
816 1 98.935 12.153223166440007 0 -1 0 0
915 1 0 15.79919011637201 0 0 0 0
913 2 2.104999999999997 14.583867799728004 0.6651000000000025 0 0 0
919 1 4.209999999999994 15.79919011637201 0 0 0 0
917 2 6.314999999999998 14.583867799728004 0.6651000000000025 0 0 0
923 1 8.419999999999995 15.79919011637201 0 0 0 0
921 2 10.524999999999999 14.583867799728004 0.6651000000000025 0 0 0
927 1 12.629999999999995 15.79919011637201 0 0 0 0
925 2 14.734999999999992 14.583867799728004 0.6651000000000025 0 0 0
931 1 16.839999999999996 15.79919011637201 0 0 0 0
929 2 18.945 14.583867799728004 0.6651000000000025 0 0 0
935 1 21.04999999999999 15.79919011637201 0 0 0 0
933 2 23.154999999999994 14.583867799728004 0.6651000000000025 0 0 0
939 1 25.259999999999998 15.79919011637201 0 0 0 0
937 2 27.365000000000002 14.583867799728004 0.6651000000000025 0 0 0
943 1 29.46999999999999 15.79919011637201 0 0 0 0
941 2 31.574999999999996 14.583867799728004 0.6651000000000025 0 0 0
947 1 33.68 15.79919011637201 0 0 0 0
945 2 35.785000000000004 14.583867799728004 0.6651000000000025 0 0 0
951 1 37.88999999999999 15.79919011637201 0 0 0 0
949 2 39.995 14.583867799728004 0.6651000000000025 0 0 0
955 1 42.1 15.79919011637201 0 0 0 0
953 2 44.20499999999999 14.583867799728004 0.6651000000000025 0 0 0
959 1 46.309999999999995 15.79919011637201 0 0 0 0
957 2 48.415 14.583867799728004 0.6651000000000025 0 0 0
867 1 50.52 15.79919011637201 0 -1 0 0
865 2 52.625 14.583867799728004 0.6651000000000025 -1 0 0
871 1 54.730000000000004 15.79919011637201 0 -1 0 0
869 2 56.835 14.583867799728004 0.6651000000000025 -1 0 0
875 1 58.940000000000005 15.79919011637201 0 -1 0 0
873 2 61.045 14.583867799728004 0.6651000000000025 -1 0 0
879 1 63.150000000000006 15.79919011637201 0 -1 0 0
877 2 65.255 14.583867799728004 0.6651000000000025 -1 0 0
883 1 67.36 15.79919011637201 0 -1 0 0
881 2 69.465 14.583867799728004 0.6651000000000025 -1 0 0
887 1 71.57000000000001 15.79919011637201 0 -1 0 0
885 2 73.67500000000001 14.583867799728004 0.6651000000000025 -1 0 0
891 1 75.78 15.79919011637201 0 -1 0 0
889 2 77.885 14.583867799728004 0.6651000000000025 -1 0 0
895 1 79.99000000000001 15.79919011637201 0 -1 0 0
893 2 82.095 14.583867799728004 0.6651000000000025 -1 0 0
899 1 84.2 15.79919011637201 0 -1 0 0
897 2 86.305 14.583867799728004 0.6651000000000025 -1 0 0
903 1 88.41 15.79919011637201 0 -1 0 0
901 2 90.515 14.583867799728004 0.6651000000000025 -1 0 0
907 1 92.62 15.79919011637201 0 -1 0 0
905 2 94.725 14.583867799728004 0.6651000000000025 -1 0 0
911 1 96.83000000000001 15.79919011637201 0 -1 0 0
909 2 98.935 14.583867799728004 0.6651000000000025 -1 0 0
914 2 0 18.229834749660007 0.6651000000000025 0 0 0
918 2 4.209999999999994 18.229834749660007 0.6651000000000025 0 0 0
922 2 8.419999999999995 18.229834749660007 0.6651000000000025 0 0 0
926 2 12.629999999999995 18.229834749660007 0.6651000000000025 0 0 0
930 2 16.839999999999996 18.229834749660007 0.6651000000000025 0 0 0
934 2 21.04999999999999 18.229834749660007 0.6651000000000025 0 0 0
938 2 25.259999999999998 18.229834749660007 0.6651000000000025 0 0 0
942 2 29.46999999999999 18.229834749660007 0.6651000000000025 0 0 0
946 2 33.68 18.229834749660007 0.6651000000000025 0 0 0
950 2 37.88999999999999 18.229834749660007 0.6651000000000025 0 0 0
954 2 42.1 18.229834749660007 0.6651000000000025 0 0 0
958 2 46.309999999999995 18.229834749660007 0.6651000000000025 0 0 0
866 2 50.52 18.229834749660007 0.6651000000000025 -1 0 0
870 2 54.730000000000004 18.229834749660007 0.6651000000000025 -1 0 0
874 2 58.940000000000005 18.229834749660007 0.6651000000000025 -1 0 0
878 2 63.150000000000006 18.229834749660007 0.6651000000000025 -1 0 0
882 2 67.36 18.229834749660007 0.6651000000000025 -1 0 0
886 2 71.57000000000001 18.229834749660007 0.6651000000000025 -1 0 0
890 2 75.78 18.229834749660007 0.6651000000000025 -1 0 0
894 2 79.99000000000001 18.229834749660007 0.6651000000000025 -1 0 0
898 2 84.2 18.229834749660007 0.6651000000000025 -1 0 0
902 2 88.41 18.229834749660007 0.6651000000000025 -1 0 0
906 2 92.62 18.229834749660007 0.6651000000000025 -1 0 0
910 2 96.83000000000001 18.229834749660007 0.6651000000000025 -1 0 0
916 1 2.104999999999997 19.445157066304 0 0 0 0
920 1 6.314999999999998 19.445157066304 0 0 0 0
924 1 10.524999999999999 19.445157066304 0 0 0 0
928 1 14.734999999999992 19.445157066304 0 0 0 0
932 1 18.945 19.445157066304 0 0 0 0
936 1 23.154999999999994 19.445157066304 0 0 0 0
940 1 27.365000000000002 19.445157066304 0 0 0 0
944 1 31.574999999999996 19.445157066304 0 0 0 0
948 1 35.785000000000004 19.445157066304 0 0 0 0
952 1 39.995 19.445157066304 0 0 0 0
956 1 44.20499999999999 19.445157066304 0 0 0 0
960 1 48.415 19.445157066304 0 0 0 0
868 1 52.625 19.445157066304 0 -1 0 0
872 1 56.835 19.445157066304 0 -1 0 0
876 1 61.045 19.445157066304 0 -1 0 0
880 1 65.255 19.445157066304 0 -1 0 0
884 1 69.465 19.445157066304 0 -1 0 0
888 1 73.67500000000001 19.445157066304 0 -1 0 0
892 1 77.885 19.445157066304 0 -1 0 0
896 1 82.095 19.445157066304 0 -1 0 0
900 1 86.305 19.445157066304 0 -1 0 0
904 1 90.515 19.445157066304 0 -1 0 0
908 1 94.725 19.445157066304 0 -1 0 0
912 1 98.935 19.445157066304 0 -1 0 0
1009 2 2.104999999999997 21.87580169959201 0.6651000000000025 0 0 0
1013 2 6.314999999999998 21.87580169959201 0.6651000000000025 0 0 0
1017 2 10.524999999999999 21.87580169959201 0.6651000000000025 0 0 0
1021 2 14.734999999999992 21.87580169959201 0.6651000000000025 0 0 0
1025 2 18.945 21.87580169959201 0.6651000000000025 0 0 0
1029 2 23.154999999999994 21.87580169959201 0.6651000000000025 0 0 0
1033 2 27.365000000000002 21.87580169959201 0.6651000000000025 0 0 0
1037 2 31.574999999999996 21.87580169959201 0.6651000000000025 0 0 0
1041 2 35.785000000000004 21.87580169959201 0.6651000000000025 0 0 0
1045 2 39.995 21.87580169959201 0.6651000000000025 0 0 0
1049 2 44.20499999999999 21.87580169959201 0.6651000000000025 0 0 0
1053 2 48.415 21.87580169959201 0.6651000000000025 0 0 0
961 2 52.625 21.87580169959201 0.6651000000000025 -1 0 0
965 2 56.835 21.87580169959201 0.6651000000000025 -1 0 0
969 2 61.045 21.87580169959201 0.6651000000000025 -1 0 0
973 2 65.255 21.87580169959201 0.6651000000000025 -1 0 0
977 2 69.465 21.87580169959201 0.6651000000000025 -1 0 0
981 2 73.67500000000001 21.87580169959201 0.6651000000000025 -1 0 0
985 2 77.885 21.87580169959201 0.6651000000000025 -1 0 0
989 2 82.095 21.87580169959201 0.6651000000000025 -1 0 0
993 2 86.305 21.87580169959201 0.6651000000000025 -1 0 0
997 2 90.515 21.87580169959201 0.6651000000000025 -1 0 0
1001 2 94.725 21.87580169959201 0.6651000000000025 -1 0 0
1005 2 98.935 21.87580169959201 0.6651000000000025 -1 0 0
1011 1 0 23.091124016236 0 0 0 0
1015 1 4.209999999999994 23.091124016236 0 0 0 0
1019 1 8.419999999999995 23.091124016236 0 0 0 0
1023 1 12.629999999999995 23.091124016236 0 0 0 0
1027 1 16.839999999999996 23.091124016236 0 0 0 0
1031 1 21.04999999999999 23.091124016236 0 0 0 0
1035 1 25.259999999999998 23.091124016236 0 0 0 0
1039 1 29.46999999999999 23.091124016236 0 0 0 0
1043 1 33.68 23.091124016236 0 0 0 0
1047 1 37.88999999999999 23.091124016236 0 0 0 0
1051 1 42.1 23.091124016236 0 0 0 0
1055 1 46.309999999999995 23.091124016236 0 0 0 0
963 1 50.52 23.091124016236 0 -1 0 0
967 1 54.730000000000004 23.091124016236 0 -1 0 0
971 1 58.940000000000005 23.091124016236 0 -1 0 0
975 1 63.150000000000006 23.091124016236 0 -1 0 0
979 1 67.36 23.091124016236 0 -1 0 0
983 1 71.57000000000001 23.091124016236 0 -1 0 0
987 1 75.78 23.091124016236 0 -1 0 0
991 1 79.99000000000001 23.091124016236 0 -1 0 0
995 1 84.2 23.091124016236 0 -1 0 0
999 1 88.41 23.091124016236 0 -1 0 0
1003 1 92.62 23.091124016236 0 -1 0 0
1007 1 96.83000000000001 23.091124016236 0 -1 0 0
1010 2 0 25.521768649524 0.6651000000000025 0 0 0
1014 2 4.209999999999994 25.521768649524 0.6651000000000025 0 0 0
1018 2 8.419999999999995 25.521768649524 0.6651000000000025 0 0 0
1022 2 12.629999999999995 25.521768649524 0.6651000000000025 0 0 0
1026 2 16.839999999999996 25.521768649524 0.6651000000000025 0 0 0
1030 2 21.04999999999999 25.521768649524 0.6651000000000025 0 0 0
1034 2 25.259999999999998 25.521768649524 0.6651000000000025 0 0 0
1038 2 29.46999999999999 25.521768649524 0.6651000000000025 0 0 0
1042 2 33.68 25.521768649524 0.6651000000000025 0 0 0
1046 2 37.88999999999999 25.521768649524 0.6651000000000025 0 0 0
1050 2 42.1 25.521768649524 0.6651000000000025 0 0 0
1054 2 46.309999999999995 25.521768649524 0.6651000000000025 0 0 0
962 2 50.52 25.521768649524 0.6651000000000025 -1 0 0
966 2 54.730000000000004 25.521768649524 0.6651000000000025 -1 0 0
970 2 58.940000000000005 25.521768649524 0.6651000000000025 -1 0 0
974 2 63.150000000000006 25.521768649524 0.6651000000000025 -1 0 0
978 2 67.36 25.521768649524 0.6651000000000025 -1 0 0
982 2 71.57000000000001 25.521768649524 0.6651000000000025 -1 0 0
986 2 75.78 25.521768649524 0.6651000000000025 -1 0 0
990 2 79.99000000000001 25.521768649524 0.6651000000000025 -1 0 0
994 2 84.2 25.521768649524 0.6651000000000025 -1 0 0
998 2 88.41 25.521768649524 0.6651000000000025 -1 0 0
1002 2 92.62 25.521768649524 0.6651000000000025 -1 0 0
1006 2 96.83000000000001 25.521768649524 0.6651000000000025 -1 0 0
1012 1 2.104999999999997 26.737090966168005 0 0 0 0
1016 1 6.314999999999998 26.737090966168005 0 0 0 0
1020 1 10.524999999999999 26.737090966168005 0 0 0 0
1024 1 14.734999999999992 26.737090966168005 0 0 0 0
1028 1 18.945 26.737090966168005 0 0 0 0
1032 1 23.154999999999994 26.737090966168005 0 0 0 0
1036 1 27.365000000000002 26.737090966168005 0 0 0 0
1040 1 31.574999999999996 26.737090966168005 0 0 0 0
1044 1 35.785000000000004 26.737090966168005 0 0 0 0
1048 1 39.995 26.737090966168005 0 0 0 0
1052 1 44.20499999999999 26.737090966168005 0 0 0 0
1056 1 48.415 26.737090966168005 0 0 0 0
964 1 52.625 26.737090966168005 0 -1 0 0
968 1 56.835 26.737090966168005 0 -1 0 0
972 1 61.045 26.737090966168005 0 -1 0 0
976 1 65.255 26.737090966168005 0 -1 0 0
980 1 69.465 26.737090966168005 0 -1 0 0
984 1 73.67500000000001 26.737090966168005 0 -1 0 0
988 1 77.885 26.737090966168005 0 -1 0 0
992 1 82.095 26.737090966168005 0 -1 0 0
996 1 86.305 26.737090966168005 0 -1 0 0
1000 1 90.515 26.737090966168005 0 -1 0 0
1004 1 94.725 26.737090966168005 0 -1 0 0
1008 1 98.935 26.737090966168005 0 -1 0 0
1107 1 0 30.383057916100007 0 0 0 0
1105 2 2.104999999999997 29.167735599456 0.6651000000000025 0 0 0
1111 1 4.209999999999994 30.383057916100007 0 0 0 0
1109 2 6.314999999999998 29.167735599456 0.6651000000000025 0 0 0
1115 1 8.419999999999995 30.383057916100007 0 0 0 0
1113 2 10.524999999999999 29.167735599456 0.6651000000000025 0 0 0
1119 1 12.629999999999995 30.383057916100007 0 0 0 0
1117 2 14.734999999999992 29.167735599456 0.6651000000000025 0 0 0
1123 1 16.839999999999996 30.383057916100007 0 0 0 0
1121 2 18.945 29.167735599456 0.6651000000000025 0 0 0
1127 1 21.04999999999999 30.383057916100007 0 0 0 0
1125 2 23.154999999999994 29.167735599456 0.6651000000000025 0 0 0
1131 1 25.259999999999998 30.383057916100007 0 0 0 0
1129 2 27.365000000000002 29.167735599456 0.6651000000000025 0 0 0
1135 1 29.46999999999999 30.383057916100007 0 0 0 0
1133 2 31.574999999999996 29.167735599456 0.6651000000000025 0 0 0
1139 1 33.68 30.383057916100007 0 0 0 0
1137 2 35.785000000000004 29.167735599456 0.6651000000000025 0 0 0
1143 1 37.88999999999999 30.383057916100007 0 0 0 0
1141 2 39.995 29.167735599456 0.6651000000000025 0 0 0
1147 1 42.1 30.383057916100007 0 0 0 0
1145 2 44.20499999999999 29.167735599456 0.6651000000000025 0 0 0
1151 1 46.309999999999995 30.383057916100007 0 0 0 0
1149 2 48.415 29.167735599456 0.6651000000000025 0 0 0
1059 1 50.52 30.383057916100007 0 -1 0 0
1057 2 52.625 29.167735599456 0.6651000000000025 -1 0 0
1063 1 54.730000000000004 30.383057916100007 0 -1 0 0
1061 2 56.835 29.167735599456 0.6651000000000025 -1 0 0
1067 1 58.940000000000005 30.383057916100007 0 -1 0 0
1065 2 61.045 29.167735599456 0.6651000000000025 -1 0 0
1071 1 63.150000000000006 30.383057916100007 0 -1 0 0
1069 2 65.255 29.167735599456 0.6651000000000025 -1 0 0
1075 1 67.36 30.383057916100007 0 -1 0 0
1073 2 69.465 29.167735599456 0.6651000000000025 -1 0 0
1079 1 71.57000000000001 30.383057916100007 0 -1 0 0
1077 2 73.67500000000001 29.167735599456 0.6651000000000025 -1 0 0
1083 1 75.78 30.383057916100007 0 -1 0 0
1081 2 77.885 29.167735599456 0.6651000000000025 -1 0 0
1087 1 79.99000000000001 30.383057916100007 0 -1 0 0
1085 2 82.095 29.167735599456 0.6651000000000025 -1 0 0
1091 1 84.2 30.383057916100007 0 -1 0 0
1089 2 86.305 29.167735599456 0.6651000000000025 -1 0 0
1095 1 88.41 30.383057916100007 0 -1 0 0
1093 2 90.515 29.167735599456 0.6651000000000025 -1 0 0
1099 1 92.62 30.383057916100007 0 -1 0 0
1097 2 94.725 29.167735599456 0.6651000000000025 -1 0 0
1103 1 96.83000000000001 30.383057916100007 0 -1 0 0
1101 2 98.935 29.167735599456 0.6651000000000025 -1 0 0
1106 2 0 32.813702549388005 0.6651000000000025 0 0 0
1108 1 2.104999999999997 34.02902486603201 0 0 0 0
1110 2 4.209999999999994 32.813702549388005 0.6651000000000025 0 0 0
1112 1 6.314999999999998 34.02902486603201 0 0 0 0
1114 2 8.419999999999995 32.813702549388005 0.6651000000000025 0 0 0
1116 1 10.524999999999999 34.02902486603201 0 0 0 0
1118 2 12.629999999999995 32.813702549388005 0.6651000000000025 0 0 0
1120 1 14.734999999999992 34.02902486603201 0 0 0 0
1122 2 16.839999999999996 32.813702549388005 0.6651000000000025 0 0 0
1124 1 18.945 34.02902486603201 0 0 0 0
1126 2 21.04999999999999 32.813702549388005 0.6651000000000025 0 0 0
1128 1 23.154999999999994 34.02902486603201 0 0 0 0
1130 2 25.259999999999998 32.813702549388005 0.6651000000000025 0 0 0
1132 1 27.365000000000002 34.02902486603201 0 0 0 0
1134 2 29.46999999999999 32.813702549388005 0.6651000000000025 0 0 0
1136 1 31.574999999999996 34.02902486603201 0 0 0 0
1138 2 33.68 32.813702549388005 0.6651000000000025 0 0 0
1140 1 35.785000000000004 34.02902486603201 0 0 0 0
1142 2 37.88999999999999 32.813702549388005 0.6651000000000025 0 0 0
1144 1 39.995 34.02902486603201 0 0 0 0
1146 2 42.1 32.813702549388005 0.6651000000000025 0 0 0
1148 1 44.20499999999999 34.02902486603201 0 0 0 0
1150 2 46.309999999999995 32.813702549388005 0.6651000000000025 0 0 0
1152 1 48.415 34.02902486603201 0 0 0 0
1058 2 50.52 32.813702549388005 0.6651000000000025 -1 0 0
1060 1 52.625 34.02902486603201 0 -1 0 0
1062 2 54.730000000000004 32.813702549388005 0.6651000000000025 -1 0 0
1064 1 56.835 34.02902486603201 0 -1 0 0
1066 2 58.940000000000005 32.813702549388005 0.6651000000000025 -1 0 0
1068 1 61.045 34.02902486603201 0 -1 0 0
1070 2 63.150000000000006 32.813702549388005 0.6651000000000025 -1 0 0
1072 1 65.255 34.02902486603201 0 -1 0 0
1074 2 67.36 32.813702549388005 0.6651000000000025 -1 0 0
1076 1 69.465 34.02902486603201 0 -1 0 0
1078 2 71.57000000000001 32.813702549388005 0.6651000000000025 -1 0 0
1080 1 73.67500000000001 34.02902486603201 0 -1 0 0
1082 2 75.78 32.813702549388005 0.6651000000000025 -1 0 0
1084 1 77.885 34.02902486603201 0 -1 0 0
1086 2 79.99000000000001 32.813702549388005 0.6651000000000025 -1 0 0
1088 1 82.095 34.02902486603201 0 -1 0 0
1090 2 84.2 32.813702549388005 0.6651000000000025 -1 0 0
1092 1 86.305 34.02902486603201 0 -1 0 0
1094 2 88.41 32.813702549388005 0.6651000000000025 -1 0 0
1096 1 90.515 34.02902486603201 0 -1 0 0
1098 2 92.62 32.813702549388005 0.6651000000000025 -1 0 0
1100 1 94.725 34.02902486603201 0 -1 0 0
1102 2 96.83000000000001 32.813702549388005 0.6651000000000025 -1 0 0
1104 1 98.935 34.02902486603201 0 -1 0 0
1201 2 2.104999999999997 36.45966949932001 0.6651000000000025 0 0 0
1205 2 6.314999999999998 36.45966949932001 0.6651000000000025 0 0 0
1209 2 10.524999999999999 36.45966949932001 0.6651000000000025 0 0 0
1213 2 14.734999999999992 36.45966949932001 0.6651000000000025 0 0 0
1217 2 18.945 36.45966949932001 0.6651000000000025 0 0 0
1221 2 23.154999999999994 36.45966949932001 0.6651000000000025 0 0 0
1225 2 27.365000000000002 36.45966949932001 0.6651000000000025 0 0 0
1229 2 31.574999999999996 36.45966949932001 0.6651000000000025 0 0 0
1233 2 35.785000000000004 36.45966949932001 0.6651000000000025 0 0 0
1237 2 39.995 36.45966949932001 0.6651000000000025 0 0 0
1241 2 44.20499999999999 36.45966949932001 0.6651000000000025 0 0 0
1245 2 48.415 36.45966949932001 0.6651000000000025 0 0 0
1153 2 52.625 36.45966949932001 0.6651000000000025 -1 0 0
1157 2 56.835 36.45966949932001 0.6651000000000025 -1 0 0
1161 2 61.045 36.45966949932001 0.6651000000000025 -1 0 0
1165 2 65.255 36.45966949932001 0.6651000000000025 -1 0 0
1169 2 69.465 36.45966949932001 0.6651000000000025 -1 0 0
1173 2 73.67500000000001 36.45966949932001 0.6651000000000025 -1 0 0
1177 2 77.885 36.45966949932001 0.6651000000000025 -1 0 0
1181 2 82.095 36.45966949932001 0.6651000000000025 -1 0 0
1185 2 86.305 36.45966949932001 0.6651000000000025 -1 0 0
1189 2 90.515 36.45966949932001 0.6651000000000025 -1 0 0
1193 2 94.725 36.45966949932001 0.6651000000000025 -1 0 0
1197 2 98.935 36.45966949932001 0.6651000000000025 -1 0 0
1203 1 0 37.674991815964 0 0 0 0
1207 1 4.209999999999994 37.674991815964 0 0 0 0
1211 1 8.419999999999995 37.674991815964 0 0 0 0
1215 1 12.629999999999995 37.674991815964 0 0 0 0
1219 1 16.839999999999996 37.674991815964 0 0 0 0
1223 1 21.04999999999999 37.674991815964 0 0 0 0
1227 1 25.259999999999998 37.674991815964 0 0 0 0
1231 1 29.46999999999999 37.674991815964 0 0 0 0
1235 1 33.68 37.674991815964 0 0 0 0
1239 1 37.88999999999999 37.674991815964 0 0 0 0
1243 1 42.1 37.674991815964 0 0 0 0
1247 1 46.309999999999995 37.674991815964 0 0 0 0
1155 1 50.52 37.674991815964 0 -1 0 0
1159 1 54.730000000000004 37.674991815964 0 -1 0 0
1163 1 58.940000000000005 37.674991815964 0 -1 0 0
1167 1 63.150000000000006 37.674991815964 0 -1 0 0
1171 1 67.36 37.674991815964 0 -1 0 0
1175 1 71.57000000000001 37.674991815964 0 -1 0 0
1179 1 75.78 37.674991815964 0 -1 0 0
1183 1 79.99000000000001 37.674991815964 0 -1 0 0
1187 1 84.2 37.674991815964 0 -1 0 0
1191 1 88.41 37.674991815964 0 -1 0 0
1195 1 92.62 37.674991815964 0 -1 0 0
1199 1 96.83000000000001 37.674991815964 0 -1 0 0
1202 2 0 40.10563644925201 0.6651000000000025 0 0 0
1206 2 4.209999999999994 40.10563644925201 0.6651000000000025 0 0 0
1210 2 8.419999999999995 40.10563644925201 0.6651000000000025 0 0 0
1214 2 12.629999999999995 40.10563644925201 0.6651000000000025 0 0 0
1218 2 16.839999999999996 40.10563644925201 0.6651000000000025 0 0 0
1222 2 21.04999999999999 40.10563644925201 0.6651000000000025 0 0 0
1226 2 25.259999999999998 40.10563644925201 0.6651000000000025 0 0 0
1230 2 29.46999999999999 40.10563644925201 0.6651000000000025 0 0 0
1234 2 33.68 40.10563644925201 0.6651000000000025 0 0 0
1238 2 37.88999999999999 40.10563644925201 0.6651000000000025 0 0 0
1242 2 42.1 40.10563644925201 0.6651000000000025 0 0 0
1246 2 46.309999999999995 40.10563644925201 0.6651000000000025 0 0 0
1154 2 50.52 40.10563644925201 0.6651000000000025 -1 0 0
1158 2 54.730000000000004 40.10563644925201 0.6651000000000025 -1 0 0
1162 2 58.940000000000005 40.10563644925201 0.6651000000000025 -1 0 0
1166 2 63.150000000000006 40.10563644925201 0.6651000000000025 -1 0 0
1170 2 67.36 40.10563644925201 0.6651000000000025 -1 0 0