LAMMPS data file via write_data, version 29 Aug 2024, timestep = 3, units = metal

9216 atoms
8 atom types

0 100.349666176032 xlo xhi
0 97.767220717476 ylo yhi
-50 50 zlo zhi

Masses

1 69.723
2 69.723
3 69.723
4 69.723
5 15.999
6 15.999
7 15.999
8 15.999

Atoms # atomic

2441 1 3.1358531695958622 0.9052597951517894 0.7516880290345963 0 0 0
2434 1 1.5678836093292012 3.6210159262365362 0.7516880291535482 0 0 0
2438 5 3.1359075309048716 2.7157310713619314 0.0427209033412648 0 0 0
2442 1 4.703810677330201 3.6210159262365367 0.7516880291535469 0 0 0
2693 5 1.5679500458379365 5.431487202344383 0.04272090322190028 0 0 0
2701 5 4.703877113838936 5.431487202344383 0.04272090322190053 0 0 0
2449 1 6.271780237596856 0.9052597951517893 0.7516880290345953 0 0 0
2457 1 9.407707305597862 0.9052597951517896 0.751688029034596 0 0 0
2446 5 6.271834598905868 2.715731071361931 0.04272090334126431 0 0 0
2450 1 7.839737745331202 3.621015926236537 0.7516880291535463 0 0 0
2454 5 9.40776166690687 2.7157310713619305 0.0427209033412649 0 0 0
2458 1 10.9756648133322 3.621015926236538 0.7516880291535479 0 0 0
2709 5 7.839804181839935 5.431487202344383 0.04272090322189968 0 0 0
2717 5 10.975731249840935 5.431487202344383 0.04272090322190058 0 0 0
2465 1 12.543634373598858 0.9052597951517853 0.751688029034594 0 0 0
2473 1 15.679561441599855 0.9052597951517884 0.7516880290345965 0 0 0
2462 5 12.54368873490787 2.715731071361931 0.04272090334126495 0 0 0
2466 1 14.111591881333199 3.6210159262365367 0.7516880291535467 0 0 0
2470 5 15.67961580290887 2.715731071361932 0.042720903341263924 0 0 0
2474 1 17.2475189493342 3.621015926236537 0.751688029153546 0 0 0
2725 5 14.11165831784194 5.431487202344382 0.042720903221900544 0 0 0
2733 5 17.24758538584293 5.43148720234438 0.042720903221899295 0 0 0
2481 1 18.81548850960086 0.9052597951517933 0.7516880290345963 0 0 0
2489 1 21.951415577601864 0.9052597951517888 0.7516880290345958 0 0 0
2478 5 18.81554287090987 2.7157310713619314 0.04272090334126418 0 0 0
2482 1 20.3834460173352 3.6210159262365385 0.7516880291535468 0 0 0
2486 5 21.951469938910876 2.715731071361932 0.04272090334126543 0 0 0
2490 1 23.519373085336195 3.621015926236534 0.7516880291535477 0 0 0
2741 5 20.38351245384393 5.431487202344383 0.04272090322189974 0 0 0
2749 5 23.519439521844937 5.4314872023443845 0.04272090322190066 0 0 0
2497 1 25.087342645602856 0.9052597951517897 0.7516880290345956 0 0 0
2505 1 28.223269713603862 0.9052597951517936 0.7516880290345975 0 0 0
2494 5 25.08739700691187 2.7157310713619323 0.04272090334126469 0 0 0
2498 1 26.6553001533372 3.6210159262365362 0.7516880291535459 0 0 0
2502 5 28.22332407491287 2.715731071361931 0.042720903341264486 0 0 0
2757 5 26.655366589845933 5.43148720234438 0.042720903221899566 0 0 0
2513 1 31.359196781604865 0.9052597951517889 0.7516880290345962 0 0 0
2521 1 34.49512384960586 0.9052597951517893 0.7516880290345946 0 0 0
2506 1 29.7912272213382 3.621015926236539 0.7516880291535469 0 0 0
2510 5 31.359251142913877 2.7157310713619323 0.042720903341265895 0 0 0
2514 1 32.9271542893392 3.621015926236533 0.7516880291535473 0 0 0
2518 5 34.49517821091487 2.7157310713619314 0.04272090334126425 0 0 0
2765 5 29.791293657846932 5.431487202344383 0.042720903221900156 0 0 0
2773 5 32.92722072584794 5.4314872023443845 0.04272090322190056 0 0 0
2529 1 37.63105091760686 0.9052597951517942 0.7516880290345992 0 0 0
2537 1 40.766977985607866 0.9052597951517878 0.7516880290345956 0 0 0
2526 5 37.63110527891587 2.7157310713619305 0.04272090334126406 0 0 0
2522 1 36.0630813573402 3.6210159262365362 0.7516880291535458 0 0 0
2530 1 39.199008425341205 3.6210159262365393 0.7516880291535475 0 0 0
2534 5 40.76703234691687 2.7157310713619314 0.04272090334126506 0 0 0
2781 5 36.063147793848934 5.43148720234438 0.042720903221899115 0 0 0
2789 5 39.19907486184993 5.431487202344382 0.04272090322190002 0 0 0
2545 1 43.90290505360886 0.9052597951517916 0.751688029034595 0 0 0
2553 1 47.03883212160986 0.9052597951517936 0.7516880290345976 0 0 0
2538 1 42.33493549334219 3.621015926236537 0.7516880291535468 0 0 0
2542 5 43.902959414917866 2.7157310713619296 0.042720903341264875 0 0 0
2546 1 45.470862561343196 3.6210159262365345 0.7516880291535474 0 0 0
2550 5 47.03888648291887 2.715731071361933 0.042720903341264604 0 0 0
2797 5 42.33500192985093 5.431487202344384 0.04272090322189918 0 0 0
2805 5 45.470928997851935 5.431487202344383 0.04272090322190092 0 0 0
2305 1 50.17475918961086 0.905259795151791 0.7516880290345953 -1 0 0
2558 5 50.174813550919865 2.7157310713619287 0.04272090334126499 0 0 0
2554 1 48.606789629344206 3.6210159262365362 0.7516880291535458 0 0 0
2306 1 51.74271669734521 3.621015926236536 0.7516880291535474 -1 0 0
2813 5 48.60685606585293 5.431487202344382 0.04272090322190005 0 0 0
2565 5 51.74278313385394 5.4314872023443845 0.04272090322190041 -1 0 0
2313 1 53.310686257611856 0.9052597951517857 0.7516880290345951 -1 0 0
2321 1 56.44661332561285 0.9052597951517859 0.7516880290345956 -1 0 0
2310 5 53.31074061892087 2.7157310713619314 0.04272090334126561 -1 0 0
2314 1 54.878643765346204 3.621015926236538 0.751688029153548 -1 0 0
2318 5 56.44666768692187 2.715731071361933 0.04272090334126365 -1 0 0
2322 1 58.0145708333472 3.6210159262365393 0.7516880291535457 -1 0 0
2573 5 54.87871020185494 5.431487202344383 0.042720903221901155 -1 0 0
2581 5 58.01463726985594 5.43148720234438 0.042720903221900565 -1 0 0
2329 1 59.58254039361386 0.9052597951517926 0.7516880290345959 -1 0 0
2337 1 62.71846746161486 0.9052597951517852 0.7516880290345949 -1 0 0
2326 5 59.58259475492287 2.7157310713619283 0.042720903341264944 -1 0 0
2334 5 62.718521822923876 2.7157310713619327 0.042720903341264285 -1 0 0
2330 1 61.150497901348196 3.621015926236535 0.7516880291535472 -1 0 0
2338 1 64.28642496934921 3.621015926236536 0.7516880291535457 -1 0 0
2589 5 61.15056433785694 5.431487202344384 0.042720903221899614 -1 0 0
2597 5 64.28649140585793 5.43148720234438 0.04272090322189943 -1 0 0
2345 1 65.85439452961586 0.9052597951517877 0.7516880290345914 -1 0 0
2353 1 68.99032159761688 0.9052597951517926 0.7516880290345972 -1 0 0
2342 5 65.85444889092486 2.7157310713619265 0.04272090334126219 -1 0 0
2346 1 67.42235203735022 3.621015926236535 0.7516880291535442 -1 0 0
2350 5 68.99037595892585 2.7157310713619336 0.04272090334126561 -1 0 0
2354 1 70.55827910535122 3.6210159262365376 0.7516880291535482 -1 0 0
2605 5 67.42241847385893 5.431487202344383 0.04272090322189827 -1 0 0
2613 5 70.55834554185994 5.4314872023443845 0.04272090322190206 -1 0 0
2361 1 72.12624866561787 0.90525979515179 0.7516880290345984 -1 0 0
2369 1 75.26217573361886 0.9052597951517907 0.7516880290345951 -1 0 0
2358 5 72.12630302692688 2.715731071361936 0.04272090334126627 -1 0 0
2366 5 75.26223009492786 2.715731071361927 0.04272090334126508 -1 0 0
2362 1 73.69420617335221 3.621015926236537 0.7516880291535477 -1 0 0
2621 5 73.69427260986093 5.43148720234438 0.0427209032218992 -1 0 0
2377 1 78.39810280161987 0.9052597951517868 0.7516880290345967 -1 0 0
2385 1 81.53402986962087 0.9052597951517883 0.7516880290345954 -1 0 0
2370 1 76.83013324135322 3.621015926236539 0.7516880291535449 -1 0 0
2374 5 78.39815716292887 2.7157310713619336 0.04272090334126417 -1 0 0
2378 1 79.9660603093542 3.6210159262365362 0.7516880291535479 -1 0 0
2382 5 81.53408423092986 2.715731071361931 0.04272090334126345 -1 0 0
2629 5 76.83019967786193 5.431487202344382 0.042720903221900974 -1 0 0
2637 5 79.96612674586292 5.431487202344383 0.04272090322189821 -1 0 0
2393 1 84.66995693762186 0.9052597951517992 0.7516880290345972 -1 0 0
2401 1 87.80588400562287 0.9052597951517929 0.7516880290345938 -1 0 0
2386 1 83.1019873773552 3.6210159262365393 0.7516880291535514 -1 0 0
2390 5 84.67001129893087 2.71573107136193 0.042720903341266214 -1 0 0
2398 5 87.80593836693185 2.7157310713619265 0.042720903341261884 -1 0 0
2394 1 86.23791444535621 3.6210159262365345 0.7516880291535426 -1 0 0
2645 5 83.10205381386393 5.431487202344382 0.04272090322190116 -1 0 0
2653 5 86.23798088186494 5.431487202344381 0.0427209032219011 -1 0 0
2409 1 90.94181107362388 0.9052597951517928 0.7516880290345965 -1 0 0
2417 1 94.07773814162486 0.9052597951517901 0.7516880290346016 -1 0 0
2402 1 89.37384151335722 3.621015926236536 0.7516880291535444 -1 0 0
2406 5 90.94186543493285 2.715731071361933 0.04272090334126593 -1 0 0
2410 1 92.50976858135822 3.6210159262365385 0.7516880291535504 -1 0 0
2414 5 94.07779250293387 2.7157310713619354 0.0427209033412669 -1 0 0
2661 5 89.37390794986592 5.431487202344381 0.04272090322189658 -1 0 0
2669 5 92.50983501786693 5.4314872023443845 0.04272090322190293 -1 0 0
2433 1 100.34959227762687 0.9052597951517901 0.751688029034596 -1 0 0
2425 1 97.21366520962586 0.9052597951517808 0.7516880290345901 -1 0 0
2418 1 95.6456956493592 3.62101592623654 0.7516880291535468 -1 0 0
2422 5 97.21371957093487 2.715731071361931 0.042720903341265236 -1 0 0
2430 5 100.34964663893588 2.7157310713619327 0.04272090334126483 -1 0 0
2426 1 98.78162271736021 3.621015926236534 0.7516880291535453 -1 0 0
2677 5 95.64576208586794 5.43148720234438 0.04272090322190166 -1 0 0
2685 5 98.78168915386894 5.431487202344385 0.04272090322189908 -1 0 0
2697 1 3.1358531695958596 6.336772057233788 0.7516880290345961 0 0 0
2690 1 1.5678836093292015 9.052528188318533 0.751688029153548 0 0 0
2694 5 3.135907530904871 8.147243333443935 0.04272090334126499 0 0 0
2698 1 4.703810677330201 9.052528188318533 0.7516880291535474 0 0 0
2949 5 1.5679500458379365 10.862999464426386 0.04272090322189963 0 0 0
2957 5 4.703877113838936 10.862999464426387 0.04272090322189954 0 0 0
2705 1 6.271780237596858 6.336772057233788 0.7516880290345952 0 0 0
2713 1 9.40770730559786 6.336772057233787 0.7516880290345962 0 0 0
2702 5 6.271834598905869 8.147243333443935 0.04272090334126449 0 0 0
2706 1 7.8397377453312025 9.052528188318533 0.7516880291535462 0 0 0
2710 5 9.407761666906868 8.147243333443935 0.0427209033412651 0 0 0
2714 1 10.975664813332202 9.052528188318533 0.7516880291535475 0 0 0
2965 5 7.839804181839934 10.862999464426387 0.042720903221898775 0 0 0
2973 5 10.975731249840937 10.862999464426387 0.04272090322189999 0 0 0
2721 1 12.543634373598858 6.3367720572337864 0.7516880290345958 0 0 0
2729 1 15.679561441599859 6.3367720572337864 0.751688029034596 0 0 0
2718 5 12.54368873490787 8.147243333443935 0.042720903341265805 0 0 0
2722 1 14.111591881333199 9.052528188318533 0.7516880291535469 0 0 0
2726 5 15.67961580290887 8.147243333443933 0.0427209033412643 0 0 0
2730 1 17.2475189493342 9.052528188318535 0.7516880291535463 0 0 0
2981 5 14.11165831784194 10.862999464426386 0.042720903221899476 0 0 0
2989 5 17.24758538584293 10.862999464426384 0.04272090322189895 0 0 0
2737 1 18.81548850960086 6.336772057233787 0.7516880290345946 0 0 0
2745 1 21.95141557760186 6.336772057233787 0.7516880290345955 0 0 0
2734 5 18.81554287090987 8.147243333443933 0.04272090334126409 0 0 0
2738 1 20.3834460173352 9.052528188318536 0.7516880291535473 0 0 0
2742 5 21.951469938910872 8.147243333443933 0.04272090334126567 0 0 0
2746 1 23.519373085336195 9.052528188318533 0.7516880291535477 0 0 0
2997 5 20.38351245384393 10.862999464426386 0.04272090322189924 0 0 0
3005 5 23.519439521844934 10.862999464426387 0.042720903221899656 0 0 0
2753 1 25.08734264560286 6.336772057233787 0.7516880290345944 0 0 0
2761 1 28.223269713603862 6.336772057233787 0.751688029034596 0 0 0
2750 5 25.08739700691187 8.147243333443933 0.042720903341264604 0 0 0
2754 1 26.6553001533372 9.052528188318535 0.7516880291535463 0 0 0
2758 5 28.22332407491287 8.147243333443933 0.042720903341264375 0 0 0
3013 5 26.655366589845933 10.862999464426384 0.042720903221899746 0 0 0
2769 1 31.35919678160486 6.336772057233787 0.7516880290345955 0 0 0
2777 1 34.49512384960586 6.336772057233788 0.7516880290345939 0 0 0
2762 1 29.7912272213382 9.052528188318535 0.7516880291535467 0 0 0
2766 5 31.359251142913873 8.147243333443933 0.04272090334126516 0 0 0
2770 1 32.9271542893392 9.052528188318533 0.7516880291535476 0 0 0
2774 5 34.49517821091487 8.147243333443935 0.04272090334126525 0 0 0
3021 5 29.791293657846932 10.862999464426386 0.04272090322189981 0 0 0
3029 5 32.92722072584794 10.862999464426387 0.04272090322190013 0 0 0
2785 1 37.63105091760686 6.336772057233788 0.7516880290345974 0 0 0
2793 1 40.766977985607866 6.3367720572337864 0.7516880290345953 0 0 0
2782 5 37.631105278915875 8.147243333443933 0.04272090334126388 0 0 0
2778 1 36.0630813573402 9.052528188318535 0.7516880291535463 0 0 0
2786 1 39.199008425341205 9.052528188318536 0.7516880291535478 0 0 0
2790 5 40.76703234691687 8.147243333443933 0.042720903341265465 0 0 0
3037 5 36.063147793848934 10.862999464426384 0.042720903221898775 0 0 0
3045 5 39.19907486184993 10.862999464426387 0.042720903221899836 0 0 0
2801 1 43.90290505360886 6.33677205723379 0.7516880290345946 0 0 0
2809 1 47.03883212160986 6.336772057233787 0.7516880290345962 0 0 0
2794 1 42.33493549334219 9.052528188318535 0.7516880291535468 0 0 0
2798 5 43.902959414917866 8.147243333443932 0.04272090334126517 0 0 0
2802 1 45.470862561343196 9.052528188318533 0.7516880291535476 0 0 0
2806 5 47.03888648291887 8.147243333443935 0.04272090334126472 0 0 0
3053 5 42.33500192985093 10.862999464426387 0.04272090322189874 0 0 0
3061 5 45.470928997851935 10.862999464426387 0.042720903221900294 0 0 0
2561 1 50.17475918961086 6.336772057233788 0.7516880290345954 -1 0 0
2814 5 50.174813550919865 8.147243333443932 0.04272090334126521 0 0 0
2810 1 48.606789629344206 9.052528188318535 0.7516880291535457 0 0 0
2562 1 51.74271669734521 9.052528188318531 0.7516880291535473 -1 0 0
3069 5 48.60685606585293 10.862999464426384 0.04272090322189947 0 0 0
2821 5 51.74278313385394 10.862999464426387 0.04272090322189916 -1 0 0
2569 1 53.310686257611856 6.336772057233787 0.7516880290345964 -1 0 0
2577 1 56.44661332561286 6.336772057233784 0.7516880290345958 -1 0 0
2566 5 53.31074061892087 8.147243333443935 0.04272090334126612 -1 0 0
2570 1 54.878643765346204 9.052528188318533 0.7516880291535472 -1 0 0
2574 5 56.44666768692187 8.147243333443937 0.04272090334126392 -1 0 0
2578 1 58.0145708333472 9.052528188318536 0.7516880291535467 -1 0 0
2829 5 54.87871020185494 10.862999464426387 0.042720903221900225 -1 0 0
2837 5 58.01463726985594 10.862999464426384 0.04272090322189974 -1 0 0
2585 1 59.58254039361386 6.336772057233791 0.7516880290345955 -1 0 0
2593 1 62.71846746161486 6.3367720572337864 0.7516880290345964 -1 0 0
2582 5 59.58259475492287 8.147243333443933 0.042720903341265666 -1 0 0
2590 5 62.718521822923876 8.147243333443937 0.042720903341265014 -1 0 0
2586 1 61.150497901348196 9.052528188318531 0.7516880291535469 -1 0 0
2594 1 64.28642496934921 9.052528188318531 0.7516880291535457 -1 0 0
2845 5 61.15056433785694 10.862999464426387 0.04272090322189884 -1 0 0
2853 5 64.28649140585793 10.862999464426384 0.04272090322189857 -1 0 0
2601 1 65.85439452961586 6.3367720572337864 0.7516880290345914 -1 0 0
2609 1 68.99032159761687 6.336772057233789 0.7516880290345977 -1 0 0
2598 5 65.85444889092486 8.14724333344393 0.04272090334126232 -1 0 0
2602 1 67.42235203735022 9.052528188318533 0.7516880291535444 -1 0 0
2606 5 68.99037595892585 8.147243333443935 0.042720903341265236 -1 0 0
2610 1 70.55827910535122 9.052528188318535 0.7516880291535487 -1 0 0
2861 5 67.42241847385893 10.862999464426386 0.042720903221898233 -1 0 0
2869 5 70.55834554185994 10.86299946442639 0.042720903221901634 -1 0 0
2617 1 72.12624866561785 6.336772057233787 0.751688029034596 -1 0 0
2625 1 75.26217573361886 6.336772057233788 0.7516880290345952 -1 0 0
2614 5 72.12630302692688 8.147243333443939 0.04272090334126697 -1 0 0
2622 5 75.26223009492786 8.14724333344393 0.04272090334126517 -1 0 0
2618 1 73.69420617335221 9.052528188318535 0.7516880291535483 -1 0 0
2877 5 73.69427260986093 10.862999464426384 0.04272090322189897 -1 0 0
2633 1 78.39810280161987 6.336772057233786 0.7516880290345961 -1 0 0
2641 1 81.53402986962087 6.336772057233786 0.7516880290345955 -1 0 0
2626 1 76.83013324135322 9.052528188318535 0.7516880291535457 -1 0 0
2630 5 78.39815716292887 8.147243333443937 0.04272090334126463 -1 0 0
2634 1 79.9660603093542 9.052528188318533 0.7516880291535478 -1 0 0
2638 5 81.53408423092986 8.147243333443935 0.04272090334126408 -1 0 0
2885 5 76.83019967786193 10.862999464426386 0.042720903221900516 -1 0 0
2893 5 79.96612674586294 10.862999464426387 0.04272090322189753 -1 0 0
2649 1 84.66995693762186 6.3367720572337936 0.751688029034596 -1 0 0
2657 1 87.80588400562287 6.336772057233787 0.7516880290345924 -1 0 0
2642 1 83.1019873773552 9.052528188318536 0.7516880291535513 -1 0 0
2646 5 84.67001129893087 8.147243333443933 0.04272090334126608 -1 0 0
2654 5 87.80593836693185 8.147243333443928 0.042720903341261836 -1 0 0
2650 1 86.23791444535621 9.052528188318531 0.7516880291535429 -1 0 0
2901 5 83.10205381386393 10.862999464426387 0.04272090322190053 -1 0 0
2909 5 86.23798088186494 10.862999464426386 0.04272090322190058 -1 0 0
2665 1 90.94181107362388 6.336772057233787 0.7516880290345953 -1 0 0
2673 1 94.07773814162486 6.336772057233789 0.7516880290346013 -1 0 0
2658 1 89.37384151335722 9.052528188318533 0.7516880291535447 -1 0 0
2662 5 90.94186543493285 8.147243333443935 0.04272090334126556 -1 0 0
2666 1 92.50976858135822 9.052528188318536 0.7516880291535507 -1 0 0
2670 5 94.07779250293387 8.147243333443937 0.04272090334126699 -1 0 0
2917 5 89.37390794986592 10.862999464426384 0.04272090322189654 -1 0 0
2925 5 92.50983501786693 10.86299946442639 0.04272090322190219 -1 0 0
2689 1 100.34959227762687 6.336772057233789 0.7516880290345953 -1 0 0
2681 1 97.21366520962586 6.336772057233784 0.7516880290345911 -1 0 0
2674 1 95.6456956493592 9.052528188318536 0.7516880291535473 -1 0 0
2678 5 97.21371957093487 8.147243333443933 0.04272090334126584 -1 0 0
2686 5 100.34964663893588 8.147243333443935 0.042720903341265076 -1 0 0
2682 1 98.78162271736021 9.052528188318531 0.7516880291535458 -1 0 0
2933 5 95.64576208586794 10.862999464426386 0.04272090322190104 -1 0 0
2941 5 98.78168915386894 10.86299946442639 0.04272090322189877 -1 0 0
2953 1 3.13585316959586 11.76828431931579 0.7516880290345943 0 0 0
2946 1 1.567883609329202 14.484040450400538 0.7516880291535482 0 0 0
2950 5 3.135907530904871 13.57875559552593 0.04272090334126332 0 0 0
2954 1 4.703810677330201 14.48404045040054 0.7516880291535464 0 0 0
3205 5 1.5679500458379354 16.29451172650838 0.042720903221900655 0 0 0
3209 1 3.13585316959586 17.19979658139779 0.7516880290345962 0 0 0
3213 5 4.703877113838936 16.29451172650838 0.042720903221900586 0 0 0
2961 1 6.271780237596859 11.768284319315788 0.7516880290345936 0 0 0
2969 1 9.40770730559786 11.76828431931579 0.7516880290345943 0 0 0
2958 5 6.271834598905868 13.57875559552593 0.04272090334126251 0 0 0
2962 1 7.839737745331202 14.484040450400544 0.7516880291535456 0 0 0
2966 5 9.40776166690687 13.578755595525928 0.04272090334126327 0 0 0
2970 1 10.975664813332202 14.484040450400544 0.7516880291535473 0 0 0
3217 1 6.271780237596858 17.19979658139779 0.7516880290345954 0 0 0
3221 5 7.839804181839934 16.294511726508375 0.04272090322189997 0 0 0
3225 1 9.40770730559786 17.19979658139779 0.751688029034597 0 0 0
3229 5 10.975731249840935 16.29451172650838 0.042720903221900954 0 0 0
2977 1 12.543634373598856 11.76828431931579 0.7516880290345934 0 0 0
2985 1 15.679561441599859 11.768284319315786 0.7516880290345938 0 0 0
2974 5 12.543688734907871 13.57875559552593 0.0427209033412642 0 0 0
2978 1 14.111591881333199 14.48404045040054 0.7516880291535462 0 0 0
2982 5 15.67961580290887 13.578755595525932 0.042720903341262294 0 0 0
2986 1 17.2475189493342 14.484040450400542 0.7516880291535457 0 0 0
3237 5 14.111658317841941 16.29451172650838 0.042720903221900586 0 0 0
3233 1 12.543634373598858 17.19979658139779 0.7516880290345974 0 0 0
3241 1 15.679561441599857 17.199796581397788 0.7516880290345972 0 0 0
3245 5 17.24758538584293 16.294511726508375 0.04272090322189976 0 0 0
2993 1 18.815488509600865 11.768284319315788 0.7516880290345934 0 0 0
3001 1 21.95141557760186 11.76828431931579 0.7516880290345939 0 0 0
2990 5 18.81554287090987 13.578755595525928 0.0427209033412622 0 0 0
2994 1 20.3834460173352 14.484040450400546 0.7516880291535465 0 0 0
2998 5 21.951469938910876 13.57875559552593 0.04272090334126391 0 0 0
3002 1 23.519373085336195 14.484040450400538 0.7516880291535472 0 0 0
3249 1 18.81548850960086 17.19979658139779 0.7516880290345949 0 0 0
3253 5 20.38351245384393 16.294511726508375 0.042720903221900336 0 0 0
3257 1 21.95141557760186 17.199796581397795 0.751688029034596 0 0 0
3261 5 23.519439521844937 16.29451172650838 0.04272090322190061 0 0 0
3009 1 25.08734264560286 11.768284319315786 0.7516880290345933 0 0 0
3017 1 28.223269713603866 11.76828431931579 0.7516880290345946 0 0 0
3006 5 25.08739700691187 13.578755595525932 0.04272090334126304 0 0 0
3010 1 26.6553001533372 14.48404045040054 0.7516880291535454 0 0 0
3014 5 28.22332407491287 13.57875559552593 0.04272090334126239 0 0 0
3269 5 26.655366589845933 16.29451172650838 0.04272090322189968 0 0 0
3265 1 25.08734264560286 17.19979658139779 0.751688029034596 0 0 0
3273 1 28.223269713603862 17.19979658139779 0.7516880290345965 0 0 0
3025 1 31.35919678160486 11.768284319315788 0.7516880290345938 0 0 0
3033 1 34.49512384960586 11.768284319315788 0.7516880290345934 0 0 0
3018 1 29.7912272213382 14.484040450400546 0.7516880291535463 0 0 0
3022 5 31.359251142913873 13.57875559552593 0.04272090334126335 0 0 0
3026 1 32.9271542893392 14.484040450400537 0.7516880291535467 0 0 0
3030 5 34.49517821091487 13.578755595525932 0.04272090334126356 0 0 0
3277 5 29.791293657846932 16.294511726508375 0.04272090322190074 0 0 0
3281 1 31.359196781604865 17.199796581397795 0.7516880290345959 0 0 0
3285 5 32.92722072584794 16.29451172650838 0.04272090322190054 0 0 0
3289 1 34.49512384960586 17.19979658139779 0.7516880290345955 0 0 0
3041 1 37.63105091760686 11.768284319315788 0.7516880290345953 0 0 0
3049 1 40.766977985607866 11.768284319315786 0.751688029034594 0 0 0
3038 5 37.63110527891587 13.578755595525928 0.04272090334126189 0 0 0
3034 1 36.0630813573402 14.484040450400542 0.7516880291535454 0 0 0
3042 1 39.199008425341205 14.484040450400546 0.7516880291535467 0 0 0
3046 5 40.76703234691687 13.57875559552593 0.04272090334126321 0 0 0
3293 5 36.063147793848934 16.29451172650838 0.042720903221900336 0 0 0
3301 5 39.19907486184993 16.294511726508375 0.04272090322189912 0 0 0
3297 1 37.63105091760686 17.199796581397795 0.7516880290345979 0 0 0
3305 1 40.766977985607866 17.199796581397795 0.7516880290345956 0 0 0
3057 1 43.90290505360886 11.76828431931579 0.7516880290345929 0 0 0
3065 1 47.03883212160986 11.768284319315788 0.7516880290345948 0 0 0
3050 1 42.33493549334219 14.484040450400544 0.7516880291535458 0 0 0
3054 5 43.902959414917866 13.578755595525928 0.04272090334126311 0 0 0
3058 1 45.470862561343196 14.484040450400538 0.7516880291535473 0 0 0
3062 5 47.03888648291887 13.578755595525932 0.04272090334126233 0 0 0
3309 5 42.33500192985093 16.29451172650838 0.04272090322190012 0 0 0
3313 1 43.90290505360886 17.19979658139779 0.7516880290345963 0 0 0
3317 5 45.470928997851935 16.29451172650838 0.04272090322190109 0 0 0
3321 1 47.03883212160986 17.19979658139779 0.7516880290345972 0 0 0
2817 1 50.17475918961086 11.768284319315791 0.7516880290345933 -1 0 0
3070 5 50.174813550919865 13.578755595525926 0.042720903341263716 0 0 0
3066 1 48.606789629344206 14.484040450400542 0.7516880291535452 0 0 0
2818 1 51.74271669734521 14.48404045040054 0.7516880291535474 -1 0 0
3325 5 48.60685606585293 16.294511726508375 0.04272090322190125 0 0 0
3073 1 50.17475918961086 17.199796581397795 0.7516880290345955 -1 0 0
3077 5 51.74278313385394 16.29451172650838 0.04272090322190025 -1 0 0
2825 1 53.310686257611856 11.76828431931579 0.7516880290345941 -1 0 0
2833 1 56.44661332561286 11.768284319315786 0.7516880290345938 -1 0 0
2822 5 53.31074061892087 13.57875559552593 0.04272090334126443 -1 0 0
2826 1 54.878643765346204 14.484040450400542 0.7516880291535464 -1 0 0
2830 5 56.44666768692187 13.578755595525932 0.04272090334126211 -1 0 0
2834 1 58.0145708333472 14.484040450400549 0.7516880291535456 -1 0 0
3081 1 53.310686257611856 17.19979658139779 0.7516880290345967 -1 0 0
3085 5 54.87871020185494 16.29451172650838 0.04272090322190142 -1 0 0
3089 1 56.44661332561286 17.19979658139779 0.7516880290345964 -1 0 0
3093 5 58.01463726985594 16.29451172650837 0.042720903221900336 -1 0 0
2841 1 59.58254039361386 11.768284319315793 0.7516880290345939 -1 0 0
2849 1 62.71846746161486 11.76828431931579 0.7516880290345942 -1 0 0
2838 5 59.58259475492287 13.578755595525926 0.04272090334126312 -1 0 0
2846 5 62.718521822923876 13.578755595525932 0.04272090334126342 -1 0 0
2842 1 61.150497901348196 14.48404045040054 0.7516880291535469 -1 0 0
2850 1 64.28642496934921 14.484040450400538 0.7516880291535454 -1 0 0
3097 1 59.58254039361386 17.199796581397795 0.7516880290345964 -1 0 0
3101 5 61.15056433785694 16.294511726508382 0.04272090322190048 -1 0 0
3109 5 64.28649140585794 16.29451172650838 0.04272090322190124 -1 0 0
3105 1 62.71846746161486 17.19979658139779 0.751688029034597 -1 0 0
2857 1 65.85439452961586 11.768284319315786 0.7516880290345899 -1 0 0
2865 1 68.99032159761688 11.768284319315786 0.751688029034594 -1 0 0
2854 5 65.85444889092486 13.578755595525926 0.04272090334126048 -1 0 0
2858 1 67.42235203735022 14.484040450400538 0.7516880291535443 -1 0 0
2862 5 68.99037595892585 13.578755595525932 0.042720903341263564 -1 0 0
2866 1 70.55827910535122 14.48404045040054 0.7516880291535482 -1 0 0
3113 1 65.85439452961587 17.199796581397788 0.7516880290345921 -1 0 0
3117 5 67.42241847385893 16.29451172650838 0.042720903221897345 -1 0 0
3121 1 68.99032159761687 17.19979658139779 0.7516880290345974 -1 0 0
3125 5 70.55834554185994 16.294511726508382 0.04272090322190252 -1 0 0
2873 1 72.12624866561787 11.768284319315788 0.7516880290345969 -1 0 0
2881 1 75.26217573361886 11.76828431931579 0.7516880290345925 -1 0 0
2870 5 72.12630302692686 13.578755595525935 0.042720903341264424 -1 0 0
2878 5 75.26223009492786 13.578755595525925 0.04272090334126357 -1 0 0
2874 1 73.69420617335221 14.484040450400542 0.7516880291535476 -1 0 0
3129 1 72.12624866561787 17.199796581397788 0.751688029034595 -1 0 0
3133 5 73.69427260986093 16.294511726508375 0.042720903221900176 -1 0 0
3137 1 75.26217573361886 17.199796581397795 0.7516880290345975 -1 0 0
2889 1 78.39810280161987 11.768284319315782 0.7516880290345924 -1 0 0
2897 1 81.53402986962087 11.76828431931579 0.7516880290345954 -1 0 0
2882 1 76.83013324135321 14.484040450400547 0.7516880291535467 -1 0 0
2886 5 78.39815716292887 13.578755595525932 0.04272090334126225 -1 0 0
2890 1 79.9660603093542 14.48404045040054 0.7516880291535456 -1 0 0
2894 5 81.53408423092986 13.57875559552593 0.04272090334126155 -1 0 0
3141 5 76.83019967786193 16.294511726508375 0.04272090322190115 -1 0 0
3145 1 78.39810280161987 17.19979658139779 0.7516880290345962 -1 0 0
3149 5 79.96612674586294 16.294511726508375 0.042720903221898636 -1 0 0
3153 1 81.53402986962087 17.19979658139779 0.7516880290345956 -1 0 0
2905 1 84.66995693762186 11.768284319315793 0.7516880290345943 -1 0 0
2913 1 87.80588400562287 11.768284319315786 0.7516880290345909 -1 0 0
2898 1 83.1019873773552 14.484040450400546 0.7516880291535505 -1 0 0
2902 5 84.67001129893087 13.57875559552593 0.042720903341263695 -1 0 0
2910 5 87.80593836693185 13.578755595525926 0.042720903341259886 -1 0 0
2906 1 86.23791444535621 14.484040450400537 0.7516880291535423 -1 0 0
3157 5 83.10205381386393 16.29451172650838 0.04272090322190163 -1 0 0
3161 1 84.66995693762186 17.199796581397795 0.7516880290345973 -1 0 0
3165 5 86.23798088186494 16.29451172650838 0.04272090322190132 -1 0 0
3169 1 87.80588400562287 17.199796581397788 0.7516880290345933 -1 0 0
2921 1 90.94181107362388 11.768284319315786 0.7516880290345939 -1 0 0
2929 1 94.07773814162486 11.768284319315788 0.7516880290345993 -1 0 0
2914 1 89.37384151335722 14.484040450400538 0.751688029153544 -1 0 0
2918 5 90.94186543493285 13.578755595525932 0.04272090334126404 -1 0 0
2922 1 92.50976858135822 14.484040450400542 0.7516880291535502 -1 0 0
2926 5 94.07779250293387 13.578755595525935 0.042720903341265236 -1 0 0
3173 5 89.37390794986592 16.29451172650838 0.04272090322189734 -1 0 0
3177 1 90.94181107362387 17.19979658139779 0.7516880290345976 -1 0 0
3181 5 92.50983501786693 16.294511726508382 0.042720903221902994 -1 0 0
3185 1 94.07773814162486 17.199796581397788 0.7516880290346004 -1 0 0
2945 1 100.34959227762687 11.76828431931579 0.7516880290345938 -1 0 0
3201 1 100.34959227762687 17.19979658139779 0.7516880290345958 -1 0 0
2937 1 97.21366520962586 11.768284319315782 0.7516880290345896 -1 0 0
2930 1 95.6456956493592 14.484040450400544 0.7516880291535466 -1 0 0
2934 5 97.21371957093487 13.578755595525932 0.04272090334126373 -1 0 0
2942 5 100.34964663893588 13.578755595525932 0.04272090334126277 -1 0 0
2938 1 98.78162271736021 14.484040450400538 0.7516880291535452 -1 0 0
3189 5 95.64576208586793 16.294511726508375 0.04272090322190196 -1 0 0
3193 1 97.21366520962586 17.19979658139779 0.7516880290345929 -1 0 0
3197 5 98.78168915386894 16.29451172650838 0.042720903221897547 -1 0 0
3202 1 1.5678836093292017 19.915552712482537 0.7516880291535479 0 0 0
3206 5 3.1359075309048716 19.010267857607932 0.0427209033412648 0 0 0
3210 1 4.7038106773302015 19.915552712482533 0.7516880291535475 0 0 0
3461 5 1.567950045837936 21.72602398859038 0.04272090322189815 0 0 0
3465 1 3.1358531695958614 22.631308843479793 0.7516880290345941 0 0 0
3469 5 4.703877113838935 21.72602398859038 0.04272090322189897 0 0 0
3214 5 6.271834598905868 19.010267857607932 0.04272090334126459 0 0 0
3218 1 7.839737745331202 19.91555271248254 0.7516880291535464 0 0 0
3222 5 9.40776166690687 19.010267857607932 0.04272090334126527 0 0 0
3226 1 10.9756648133322 19.915552712482537 0.7516880291535472 0 0 0