LAMMPS data file via write_data, version 29 Aug 2024, timestep = 3, units = metal

13824 atoms
12 atom types

0 100.349666176032 xlo xhi
0 97.767220717476 ylo yhi
-50 50 zlo zhi

Masses

1 69.723
2 69.723
3 69.723
4 69.723
5 69.723
6 69.723
7 15.999
8 15.999
9 15.999
10 15.999
11 15.999
12 15.999

Atoms # atomic

2441 1 3.13585572659538 0.905258528015769 0.7513095969106424 0 0 0
2434 1 1.5678850467901826 3.621014659088699 0.7513095969954207 0 0 0
2438 7 3.1359058738657057 2.7157318424577817 0.042066166185218454 0 0 0
2442 1 4.703812114791183 3.621014659088699 0.7513095969954185 0 0 0
2693 7 1.5679495074866023 5.431487973452925 0.042066166100156684 0 0 0
2701 7 4.703876575487596 5.431487973452925 0.04206616610015845 0 0 0
2449 1 6.27178279459638 0.9052585280157704 0.751309596910642 0 0 0
2457 1 9.40770986259738 0.9052585280157694 0.7513095969106429 0 0 0
2446 7 6.271832941866702 2.7157318424577817 0.04206616618521817 0 0 0
2450 1 7.839739182792183 3.6210146590887007 0.7513095969954178 0 0 0
2454 7 9.407760009867705 2.715731842457782 0.04206616618521882 0 0 0
2458 1 10.97566625079318 3.621014659088699 0.7513095969954192 0 0 0
2709 7 7.839803643488596 5.431487973452924 0.042066166100157815 0 0 0
2717 7 10.975730711489597 5.431487973452927 0.042066166100158356 0 0 0
2465 1 12.543636930598378 0.9052585280157703 0.7513095969106416 0 0 0
2473 1 15.679563998599379 0.9052585280157697 0.7513095969106431 0 0 0
2462 7 12.543687077868704 2.7157318424577817 0.04206616618521926 0 0 0
2466 1 14.111593318794181 3.6210146590886976 0.7513095969954181 0 0 0
2470 7 15.679614145869701 2.7157318424577817 0.0420661661852177 0 0 0
2474 1 17.247520386795184 3.6210146590886994 0.7513095969954179 0 0 0
2725 7 14.1116577794906 5.431487973452927 0.042066166100158266 0 0 0
2733 7 17.24758484749159 5.431487973452923 0.04206616610015738 0 0 0
2481 1 18.81549106660038 0.9052585280157692 0.7513095969106414 0 0 0
2489 1 21.951418134601383 0.905258528015769 0.7513095969106427 0 0 0
2478 7 18.8155412138707 2.715731842457781 0.04206616618521766 0 0 0
2482 1 20.383447454796183 3.6210146590887002 0.7513095969954179 0 0 0
2486 7 21.9514682818717 2.715731842457782 0.04206616618521941 0 0 0
2490 1 23.519374522797182 3.6210146590886967 0.7513095969954189 0 0 0
2741 7 20.38351191549259 5.431487973452926 0.04206616610015823 0 0 0
2749 7 23.519438983493597 5.431487973452928 0.04206616610015811 0 0 0
2497 1 25.08734520260238 0.9052585280157703 0.7513095969106418 0 0 0
2505 1 28.22327227060338 0.9052585280157693 0.7513095969106426 0 0 0
2494 7 25.087395349872697 2.7157318424577825 0.04206616618521861 0 0 0
2498 1 26.655301590798185 3.6210146590886994 0.7513095969954179 0 0 0
2502 7 28.223322417873696 2.715731842457781 0.04206616618521819 0 0 0
2757 7 26.655366051494592 5.431487973452924 0.042066166100157905 0 0 0
2513 1 31.359199338604384 0.905258528015769 0.7513095969106426 0 0 0
2521 1 34.49512640660538 0.9052585280157696 0.7513095969106414 0 0 0
2506 1 29.791228658799184 3.6210146590887002 0.7513095969954179 0 0 0
2510 7 31.359249485874702 2.715731842457782 0.04206616618521931 0 0 0
2514 1 32.92715572680018 3.6210146590886976 0.7513095969954188 0 0 0
2518 7 34.4951765538757 2.715731842457783 0.04206616618521903 0 0 0
2765 7 29.79129311949559 5.431487973452926 0.04206616610015841 0 0 0
2773 7 32.927220187496594 5.431487973452926 0.04206616610015801 0 0 0
2529 1 37.63105347460638 0.9052585280157708 0.751309596910644 0 0 0
2537 1 40.76698054260738 0.9052585280157672 0.7513095969106416 0 0 0
2526 7 37.631103621876704 2.7157318424577803 0.04206616618521793 0 0 0
2522 1 36.06308279480119 3.621014659088697 0.7513095969954176 0 0 0
2530 1 39.199009862802185 3.621014659088702 0.7513095969954189 0 0 0
2534 7 40.7670306898777 2.7157318424577817 0.04206616618521892 0 0 0
2781 7 36.0631472554976 5.431487973452927 0.04206616610015837 0 0 0
2789 7 39.19907432349859 5.431487973452924 0.04206616610015724 0 0 0
2545 1 43.90290761060839 0.9052585280157724 0.7513095969106417 0 0 0
2553 1 47.03883467860938 0.9052585280157701 0.751309596910644 0 0 0
2538 1 42.33493693080318 3.6210146590887002 0.7513095969954167 0 0 0
2542 7 43.9029577578787 2.7157318424577803 0.0420661661852183 0 0 0
2546 1 45.47086399880419 3.621014659088697 0.7513095969954187 0 0 0
2550 7 47.0388848258797 2.7157318424577825 0.04206616618521837 0 0 0
2797 7 42.33500139149959 5.431487973452925 0.042066166100158085 0 0 0
2805 7 45.47092845950059 5.431487973452926 0.04206616610015903 0 0 0
2305 1 50.17476174661037 0.905258528015771 0.7513095969106421 -1 0 0
2558 7 50.1748118938807 2.7157318424577803 0.04206616618521995 0 0 0
2554 1 48.60679106680519 3.6210146590887007 0.751309596995419 0 0 0
2306 1 51.74271813480618 3.6210146590886994 0.7513095969954187 -1 0 0
2813 7 48.606855527501594 5.431487973452927 0.04206616610015912 0 0 0
2565 7 51.742782595502604 5.431487973452926 0.0420661661001592 -1 0 0
2313 1 53.310688814611375 0.9052585280157684 0.7513095969106434 -1 0 0
2321 1 56.44661588261238 0.9052585280157683 0.7513095969106417 -1 0 0
2310 7 53.31073896188171 2.7157318424577848 0.04206616618521887 -1 0 0
2314 1 54.87864520280718 3.6210146590887002 0.7513095969954184 -1 0 0
2318 7 56.446666029882714 2.7157318424577817 0.04206616618521873 -1 0 0
2322 1 58.01457227080817 3.6210146590886985 0.7513095969954182 -1 0 0
2573 7 54.87870966350361 5.431487973452925 0.04206616610015847 -1 0 0
2581 7 58.0146367315046 5.431487973452927 0.04206616610015751 -1 0 0
2329 1 59.58254295061338 0.9052585280157721 0.7513095969106428 -1 0 0
2337 1 62.718470018614376 0.9052585280157681 0.7513095969106408 -1 0 0
2326 7 59.582593097883716 2.715731842457781 0.04206616618521825 -1 0 0
2334 7 62.718520165884705 2.7157318424577817 0.04206616618521714 -1 0 0
2330 1 61.150499338809176 3.621014659088701 0.7513095969954182 -1 0 0
2338 1 64.28642640681018 3.621014659088698 0.7513095969954184 -1 0 0
2589 7 61.150563799505605 5.431487973452924 0.0420661661001585 -1 0 0
2597 7 64.2864908675066 5.431487973452925 0.042066166100157926 -1 0 0
2345 1 65.85439708661538 0.9052585280157721 0.7513095969106444 -1 0 0
2353 1 68.99032415461637 0.9052585280157671 0.7513095969106404 -1 0 0
2342 7 65.85444723388571 2.7157318424577817 0.04206616618521894 -1 0 0
2346 1 67.42235347481117 3.6210146590886985 0.7513095969954181 -1 0 0
2350 7 68.99037430188672 2.7157318424577843 0.04206616618521914 -1 0 0
2354 1 70.55828054281217 3.621014659088703 0.7513095969954191 -1 0 0
2605 7 67.42241793550761 5.431487973452927 0.0420661661001586 -1 0 0
2613 7 70.5583450035086 5.4314879734529224 0.04206616610015912 -1 0 0
2361 1 72.12625122261737 0.9052585280157722 0.7513095969106426 -1 0 0
2369 1 75.26217829061837 0.9052585280157697 0.7513095969106443 -1 0 0
2358 7 72.12630136988771 2.71573184245778 0.04206616618521974 -1 0 0
2366 7 75.26222843788872 2.715731842457783 0.042066166185219266 -1 0 0
2362 1 73.69420761081317 3.6210146590886954 0.7513095969954179 -1 0 0
2621 7 73.6942720715096 5.43148797345293 0.0420661661001578 -1 0 0
2377 1 78.39810535861938 0.9052585280157709 0.7513095969106428 -1 0 0
2385 1 81.53403242662037 0.9052585280157699 0.7513095969106418 -1 0 0
2370 1 76.83013467881418 3.6210146590887016 0.7513095969954166 -1 0 0
2374 7 78.39815550588972 2.7157318424577777 0.04206616618521758 -1 0 0
2378 1 79.96606174681517 3.6210146590886976 0.751309596995417 -1 0 0
2382 7 81.53408257389071 2.7157318424577834 0.042066166185219356 -1 0 0
2629 7 76.83019913951063 5.431487973452925 0.042066166100159404 -1 0 0
2637 7 79.96612620751162 5.431487973452928 0.04206616610015609 -1 0 0
2393 1 84.66995949462137 0.9052585280157682 0.7513095969106417 -1 0 0
2401 1 87.80588656262238 0.9052585280157716 0.7513095969106426 -1 0 0
2386 1 83.10198881481617 3.6210146590887025 0.7513095969954222 -1 0 0
2390 7 84.67000964189171 2.715731842457782 0.042066166185217344 -1 0 0
2398 7 87.8059367098927 2.7157318424577794 0.04206616618521692 -1 0 0
2394 1 86.23791588281718 3.621014659088698 0.7513095969954162 -1 0 0
2645 7 83.1020532755126 5.4314879734529224 0.04206616610015561 -1 0 0
2653 7 86.2379803435136 5.431487973452924 0.0420661661001597 -1 0 0
2409 1 90.94181363062337 0.9052585280157707 0.7513095969106391 -1 0 0
2417 1 94.07774069862437 0.9052585280157689 0.7513095969106445 -1 0 0
2402 1 89.37384295081819 3.6210146590886976 0.7513095969954182 -1 0 0
2406 7 90.9418637778937 2.71573184245778 0.042066166185220376 -1 0 0
2410 1 92.50977001881918 3.6210146590887025 0.7513095969954173 -1 0 0
2414 7 94.07779084589471 2.7157318424577856 0.04206616618522068 -1 0 0
2661 7 89.3739074115146 5.431487973452928 0.042066166100158335 -1 0 0
2669 7 92.5098344795156 5.4314879734529224 0.0420661661001597 -1 0 0
2433 1 100.34959483462637 0.9052585280157661 0.7513095969106397 -1 0 0
2425 1 97.21366776662536 0.9052585280157704 0.7513095969106441 -1 0 0
2418 1 95.64569708682018 3.6210146590886985 0.7513095969954192 -1 0 0
2422 7 97.21371791389572 2.7157318424577785 0.042066166185217746 -1 0 0
2430 7 100.34964498189672 2.7157318424577848 0.04206616618521683 -1 0 0
2426 1 98.78162415482117 3.6210146590886962 0.7513095969954163 -1 0 0
2677 7 95.64576154751661 5.43148797345293 0.042066166100160396 -1 0 0
2685 7 98.78168861551761 5.431487973452927 0.04206616610015564 -1 0 0
2697 1 3.1358557265953797 6.336770790097769 0.7513095969106428 0 0 0
2690 1 1.5678850467901828 9.052526921170696 0.7513095969954209 0 0 0
2694 7 3.1359058738657057 8.147244104539784 0.04206616618521866 0 0 0
2698 1 4.703812114791184 9.052526921170696 0.7513095969954189 0 0 0
2949 7 1.5679495074866028 10.86300023553493 0.042066166100156205 0 0 0
2957 7 4.7038765754875955 10.863000235534928 0.04206616610015773 0 0 0
2705 1 6.27178279459638 6.33677079009777 0.7513095969106421 0 0 0
2713 1 9.40770986259738 6.336770790097768 0.7513095969106433 0 0 0
2702 7 6.271832941866703 8.147244104539784 0.04206616618521843 0 0 0
2706 1 7.839739182792184 9.052526921170697 0.7513095969954179 0 0 0
2710 7 9.407760009867705 8.147244104539784 0.04206616618521901 0 0 0
2714 1 10.97566625079318 9.052526921170697 0.7513095969954192 0 0 0
2965 7 7.839803643488595 10.863000235534928 0.04206616610015725 0 0 0
2973 7 10.975730711489597 10.863000235534928 0.042066166100157766 0 0 0
2721 1 12.543636930598378 6.336770790097769 0.7513095969106423 0 0 0
2729 1 15.679563998599377 6.336770790097769 0.751309596910643 0 0 0
2718 7 12.543687077868706 8.147244104539784 0.04206616618521963 0 0 0
2722 1 14.111593318794181 9.052526921170696 0.7513095969954184 0 0 0
2726 7 15.679614145869701 8.147244104539784 0.04206616618521762 0 0 0
2730 1 17.247520386795184 9.052526921170697 0.751309596995417 0 0 0
2981 7 14.1116577794906 10.863000235534928 0.042066166100157246 0 0 0
2989 7 17.24758484749159 10.863000235534928 0.04206616610015684 0 0 0
2737 1 18.815491066600384 6.336770790097769 0.7513095969106423 0 0 0
2745 1 21.951418134601383 6.336770790097767 0.7513095969106428 0 0 0
2734 7 18.8155412138707 8.147244104539784 0.04206616618521838 0 0 0
2738 1 20.383447454796187 9.0525269211707 0.7513095969954181 0 0 0
2742 7 21.9514682818717 8.147244104539785 0.04206616618521998 0 0 0
2746 1 23.519374522797182 9.052526921170694 0.7513095969954193 0 0 0
2997 7 20.38351191549259 10.86300023553493 0.042066166100157294 0 0 0
3005 7 23.519438983493597 10.863000235534932 0.04206616610015783 0 0 0
2753 1 25.08734520260238 6.33677079009777 0.7513095969106419 0 0 0
2761 1 28.223272270603385 6.33677079009777 0.7513095969106433 0 0 0
2750 7 25.087395349872697 8.147244104539784 0.04206616618521856 0 0 0
2754 1 26.65530159079819 9.052526921170697 0.7513095969954172 0 0 0
2758 7 28.2233224178737 8.147244104539784 0.042066166185218766 0 0 0
3013 7 26.655366051494592 10.863000235534928 0.04206616610015762 0 0 0
2769 1 31.359199338604384 6.336770790097767 0.7513095969106428 0 0 0
2777 1 34.49512640660538 6.336770790097768 0.7513095969106418 0 0 0
2762 1 29.791228658799188 9.0525269211707 0.7513095969954181 0 0 0
2766 7 31.359249485874702 8.147244104539785 0.04206616618521949 0 0 0
2770 1 32.92715572680018 9.052526921170694 0.7513095969954193 0 0 0
2774 7 34.495176553875694 8.147244104539785 0.04206616618521952 0 0 0
3021 7 29.79129311949559 10.86300023553493 0.042066166100157634 0 0 0
3029 7 32.927220187496594 10.86300023553493 0.04206616610015766 0 0 0
2785 1 37.63105347460638 6.336770790097771 0.7513095969106447 0 0 0
2793 1 40.76698054260738 6.336770790097767 0.7513095969106426 0 0 0
2782 7 37.631103621876704 8.147244104539782 0.042066166185218336 0 0 0
2778 1 36.06308279480119 9.052526921170694 0.7513095969954178 0 0 0
2786 1 39.199009862802185 9.0525269211707 0.7513095969954189 0 0 0
2790 7 40.7670306898777 8.147244104539785 0.042066166185218884 0 0 0
3037 7 36.0631472554976 10.863000235534932 0.042066166100157995 0 0 0
3045 7 39.19907432349859 10.86300023553493 0.042066166100156406 0 0 0
2801 1 43.90290761060839 6.336770790097769 0.7513095969106405 0 0 0
2809 1 47.03883467860938 6.336770790097769 0.7513095969106443 0 0 0
2794 1 42.33493693080318 9.052526921170696 0.7513095969954174 0 0 0
2798 7 43.902957757878696 8.147244104539784 0.04206616618521923 0 0 0
2802 1 45.47086399880419 9.052526921170696 0.7513095969954184 0 0 0
2806 7 47.0388848258797 8.147244104539785 0.042066166185218405 0 0 0
3053 7 42.335001391499596 10.86300023553493 0.04206616610015725 0 0 0
3061 7 45.47092845950059 10.863000235534928 0.04206616610015752 0 0 0
2561 1 50.17476174661038 6.336770790097772 0.7513095969106438 -1 0 0
2814 7 50.1748118938807 8.147244104539784 0.04206616618522037 0 0 0
2810 1 48.60679106680519 9.052526921170697 0.751309596995419 0 0 0
2562 1 51.74271813480618 9.052526921170697 0.7513095969954188 -1 0 0
3069 7 48.606855527501594 10.863000235534932 0.04206616610015869 0 0 0
2821 7 51.742782595502604 10.86300023553493 0.04206616610015864 -1 0 0
2569 1 53.310688814611375 6.336770790097766 0.7513095969106435 -1 0 0
2577 1 56.44661588261238 6.336770790097769 0.7513095969106428 -1 0 0
2566 7 53.31073896188171 8.147244104539787 0.04206616618521889 -1 0 0
2570 1 54.87864520280718 9.052526921170697 0.7513095969954191 -1 0 0
2574 7 56.446666029882714 8.147244104539784 0.04206616618521873 -1 0 0
2578 1 58.01457227080817 9.052526921170696 0.7513095969954184 -1 0 0
2829 7 54.87870966350361 10.863000235534928 0.04206616610015771 -1 0 0
2837 7 58.0146367315046 10.863000235534932 0.042066166100156774 -1 0 0
2585 1 59.58254295061337 6.336770790097771 0.7513095969106421 -1 0 0
2593 1 62.718470018614376 6.336770790097767 0.7513095969106408 -1 0 0
2582 7 59.582593097883716 8.147244104539784 0.042066166185218586 -1 0 0
2590 7 62.71852016588471 8.147244104539785 0.042066166185219134 -1 0 0
2586 1 61.150499338809176 9.0525269211707 0.7513095969954184 -1 0 0
2594 1 64.28642640681018 9.052526921170696 0.7513095969954188 -1 0 0
2845 7 61.150563799505605 10.863000235534926 0.04206616610015719 -1 0 0
2853 7 64.2864908675066 10.86300023553493 0.04206616610015821 -1 0 0
2601 1 65.85439708661538 6.3367707900977726 0.7513095969106451 -1 0 0
2609 1 68.99032415461637 6.336770790097767 0.7513095969106411 -1 0 0
2598 7 65.85444723388571 8.147244104539782 0.042066166185217524 -1 0 0
2602 1 67.42235347481117 9.052526921170696 0.751309596995418 -1 0 0
2606 7 68.99037430188672 8.147244104539787 0.042066166185219765 -1 0 0
2610 1 70.55828054281217 9.0525269211707 0.7513095969954192 -1 0 0
2861 7 67.42241793550761 10.86300023553493 0.04206616610015785 -1 0 0
2869 7 70.5583450035086 10.863000235534926 0.04206616610015867 -1 0 0
2617 1 72.12625122261737 6.336770790097771 0.7513095969106427 -1 0 0
2625 1 75.26217829061837 6.336770790097768 0.7513095969106448 -1 0 0
2614 7 72.12630136988773 8.147244104539784 0.042066166185219786 -1 0 0
2622 7 75.26222843788872 8.147244104539785 0.04206616618521987 -1 0 0
2618 1 73.69420761081317 9.052526921170692 0.7513095969954185 -1 0 0
2877 7 73.6942720715096 10.863000235534935 0.04206616610015727 -1 0 0
2633 1 78.39810535861938 6.33677079009777 0.7513095969106429 -1 0 0
2641 1 81.53403242662037 6.336770790097769 0.7513095969106428 -1 0 0
2626 1 76.83013467881418 9.052526921170697 0.7513095969954166 -1 0 0
2630 7 78.39815550588973 8.147244104539784 0.04206616618521977 -1 0 0
2634 1 79.96606174681517 9.052526921170694 0.7513095969954177 -1 0 0
2638 7 81.53408257389071 8.147244104539784 0.04206616618521781 -1 0 0
2885 7 76.83019913951063 10.86300023553493 0.04206616610015873 -1 0 0
2893 7 79.96612620751162 10.863000235534933 0.04206616610015532 -1 0 0
2649 1 84.66995949462137 6.336770790097769 0.7513095969106425 -1 0 0
2657 1 87.80588656262238 6.336770790097771 0.7513095969106427 -1 0 0
2642 1 83.10198881481617 9.0525269211707 0.7513095969954221 -1 0 0
2646 7 84.67000964189171 8.147244104539785 0.04206616618521787 -1 0 0
2654 7 87.8059367098927 8.147244104539782 0.04206616618521668 -1 0 0
2650 1 86.23791588281718 9.052526921170697 0.7513095969954161 -1 0 0
2901 7 83.1020532755126 10.863000235534926 0.04206616610015505 -1 0 0
2909 7 86.2379803435136 10.863000235534928 0.04206616610015922 -1 0 0
2665 1 90.94181363062337 6.33677079009777 0.7513095969106405 -1 0 0
2673 1 94.07774069862438 6.336770790097766 0.7513095969106444 -1 0 0
2658 1 89.37384295081817 9.052526921170694 0.7513095969954184 -1 0 0
2662 7 90.9418637778937 8.14724410453978 0.042066166185219 -1 0 0
2666 1 92.50977001881918 9.0525269211707 0.7513095969954171 -1 0 0
2670 7 94.07779084589471 8.147244104539793 0.04206616618522275 -1 0 0
2917 7 89.3739074115146 10.863000235534932 0.042066166100157384 -1 0 0
2925 7 92.5098344795156 10.863000235534926 0.042066166100159355 -1 0 0
2689 1 100.34959483462637 6.336770790097765 0.7513095969106404 -1 0 0
2681 1 97.21366776662536 6.336770790097767 0.751309596910644 -1 0 0
2674 1 95.64569708682018 9.052526921170694 0.7513095969954195 -1 0 0
2678 7 97.21371791389572 8.147244104539784 0.042066166185217815 -1 0 0
2686 7 100.34964498189672 8.147244104539787 0.04206616618521725 -1 0 0
2682 1 98.78162415482117 9.052526921170692 0.7513095969954164 -1 0 0
2933 7 95.64576154751661 10.863000235534935 0.04206616610015922 -1 0 0
2941 7 98.78168861551761 10.863000235534932 0.04206616610015485 -1 0 0
2953 1 3.13585572659538 11.768283052179768 0.7513095969106409 0 0 0
2946 1 1.5678850467901828 14.484039183252703 0.7513095969954202 0 0 0
2950 7 3.1359058738657053 13.57875636662178 0.04206616618521693 0 0 0
2954 1 4.703812114791183 14.484039183252703 0.7513095969954182 0 0 0
3205 7 1.567949507486602 16.29451249761692 0.04206616610015695 0 0 0
3209 1 3.1358557265953797 17.199795314261774 0.7513095969106434 0 0 0
3213 7 4.703876575487596 16.29451249761692 0.04206616610015871 0 0 0
2961 1 6.27178279459638 11.768283052179768 0.7513095969106407 0 0 0
2969 1 9.40770986259738 11.76828305217977 0.7513095969106415 0 0 0
2958 7 6.271832941866703 13.57875636662178 0.04206616618521683 0 0 0
2962 1 7.839739182792183 14.484039183252703 0.7513095969954177 0 0 0
2966 7 9.407760009867705 13.57875636662178 0.04206616618521711 0 0 0
2970 1 10.975666250793182 14.484039183252706 0.7513095969954183 0 0 0
3217 1 6.27178279459638 17.19979531426177 0.7513095969106433 0 0 0
3221 7 7.839803643488596 16.29451249761692 0.042066166100158585 0 0 0
3225 1 9.40770986259738 17.19979531426177 0.7513095969106444 0 0 0
3229 7 10.975730711489597 16.29451249761692 0.04206616610015897 0 0 0
2977 1 12.543636930598378 11.768283052179772 0.7513095969106404 0 0 0
2985 1 15.679563998599377 11.76828305217977 0.7513095969106415 0 0 0
2974 7 12.543687077868706 13.578756366621779 0.04206616618521808 0 0 0
2978 1 14.111593318794181 14.484039183252705 0.7513095969954174 0 0 0
2982 7 15.679614145869701 13.57875636662178 0.04206616618521587 0 0 0
2986 1 17.247520386795184 14.484039183252705 0.7513095969954173 0 0 0
3237 7 14.1116577794906 16.29451249761692 0.04206616610015887 0 0 0
3233 1 12.54363693059838 17.199795314261774 0.7513095969106431 0 0 0
3241 1 15.679563998599379 17.199795314261774 0.7513095969106435 0 0 0
3245 7 17.247584847491595 16.29451249761692 0.04206616610015787 0 0 0
2993 1 18.81549106660038 11.76828305217977 0.7513095969106407 0 0 0
3001 1 21.951418134601383 11.76828305217977 0.751309596910641 0 0 0
2990 7 18.8155412138707 13.578756366621782 0.04206616618521595 0 0 0
2994 1 20.383447454796183 14.484039183252705 0.7513095969954177 0 0 0
2998 7 21.9514682818717 13.578756366621782 0.042066166185217906 0 0 0
3002 1 23.519374522797182 14.484039183252701 0.7513095969954181 0 0 0
3249 1 18.815491066600384 17.19979531426177 0.7513095969106434 0 0 0
3253 7 20.38351191549259 16.294512497616925 0.042066166100158314 0 0 0
3257 1 21.951418134601383 17.19979531426177 0.7513095969106435 0 0 0
3261 7 23.519438983493597 16.294512497616925 0.04206616610015874 0 0 0
3009 1 25.08734520260238 11.76828305217977 0.7513095969106408 0 0 0
3017 1 28.22327227060338 11.76828305217977 0.7513095969106418 0 0 0
3006 7 25.087395349872697 13.578756366621782 0.04206616618521699 0 0 0
3010 1 26.655301590798185 14.484039183252705 0.7513095969954171 0 0 0
3014 7 28.223322417873696 13.578756366621782 0.042066166185216615 0 0 0
3269 7 26.655366051494592 16.29451249761692 0.04206616610015814 0 0 0
3265 1 25.08734520260238 17.19979531426177 0.751309596910643 0 0 0
3273 1 28.223272270603385 17.19979531426177 0.7513095969106444 0 0 0
3025 1 31.359199338604384 11.76828305217977 0.7513095969106407 0 0 0
3033 1 34.49512640660538 11.768283052179768 0.7513095969106401 0 0 0
3018 1 29.791228658799184 14.484039183252705 0.7513095969954179 0 0 0
3022 7 31.359249485874702 13.578756366621782 0.04206616618521792 0 0 0
3026 1 32.92715572680019 14.484039183252701 0.751309596995418 0 0 0
3030 7 34.4951765538757 13.578756366621782 0.04206616618521756 0 0 0
3277 7 29.79129311949559 16.294512497616925 0.042066166100158696 0 0 0
3281 1 31.359199338604384 17.19979531426177 0.7513095969106436 0 0 0
3285 7 32.927220187496594 16.294512497616925 0.04206616610015906 0 0 0
3289 1 34.49512640660538 17.19979531426177 0.7513095969106435 0 0 0
3041 1 37.63105347460638 11.76828305217977 0.7513095969106431 0 0 0
3049 1 40.76698054260738 11.768283052179767 0.7513095969106409 0 0 0
3038 7 37.631103621876704 13.578756366621782 0.04206616618521607 0 0 0
3034 1 36.06308279480119 14.484039183252701 0.7513095969954182 0 0 0
3042 1 39.199009862802185 14.484039183252705 0.7513095969954174 0 0 0
3046 7 40.7670306898777 13.578756366621782 0.04206616618521741 0 0 0
3293 7 36.0631472554976 16.294512497616925 0.04206616610015819 0 0 0
3301 7 39.19907432349859 16.29451249761692 0.04206616610015734 0 0 0
3297 1 37.63105347460638 17.19979531426177 0.7513095969106445 0 0 0
3305 1 40.76698054260738 17.19979531426177 0.7513095969106434 0 0 0
3057 1 43.90290761060838 11.76828305217977 0.7513095969106396 0 0 0
3065 1 47.03883467860938 11.76828305217977 0.7513095969106417 0 0 0
3050 1 42.33493693080318 14.484039183252703 0.751309596995416 0 0 0
3054 7 43.902957757878696 13.57875636662178 0.042066166185216414 0 0 0
3058 1 45.47086399880419 14.484039183252705 0.7513095969954193 0 0 0
3062 7 47.0388848258797 13.578756366621782 0.04206616618521766 0 0 0
3309 7 42.33500139149959 16.29451249761692 0.04206616610015796 0 0 0
3313 1 43.90290761060839 17.199795314261774 0.7513095969106411 0 0 0
3317 7 45.47092845950059 16.29451249761692 0.04206616610015896 0 0 0
3321 1 47.03883467860938 17.199795314261774 0.7513095969106456 0 0 0
2817 1 50.17476174661038 11.768283052179772 0.7513095969106424 -1 0 0
3070 7 50.17481189388071 13.578756366621777 0.04206616618521724 0 0 0
3066 1 48.60679106680519 14.484039183252703 0.751309596995418 0 0 0
2818 1 51.74271813480618 14.484039183252706 0.7513095969954176 -1 0 0
3325 7 48.606855527501594 16.294512497616925 0.042066166100160035 0 0 0
3073 1 50.17476174661038 17.199795314261774 0.7513095969106425 -1 0 0
3077 7 51.742782595502604 16.29451249761692 0.04206616610016016 -1 0 0
2825 1 53.310688814611375 11.768283052179768 0.7513095969106415 -1 0 0
2833 1 56.44661588261238 11.768283052179767 0.7513095969106405 -1 0 0
2822 7 53.31073896188171 13.578756366621782 0.042066166185217434 -1 0 0
2826 1 54.87864520280718 14.484039183252705 0.7513095969954179 -1 0 0
2830 7 56.446666029882714 13.578756366621782 0.04206616618521687 -1 0 0
2834 1 58.01457227080817 14.484039183252701 0.7513095969954183 -1 0 0
3081 1 53.310688814611375 17.199795314261774 0.7513095969106449 -1 0 0
3085 7 54.87870966350361 16.29451249761692 0.04206616610015887 -1 0 0
3089 1 56.44661588261238 17.19979531426177 0.7513095969106435 -1 0 0
3093 7 58.0146367315046 16.294512497616925 0.04206616610015774 -1 0 0
2841 1 59.58254295061337 11.768283052179772 0.7513095969106415 -1 0 0
2849 1 62.718470018614376 11.76828305217977 0.751309596910639 -1 0 0
2838 7 59.58259309788371 13.57875636662178 0.04206616618521661 -1 0 0
2846 7 62.71852016588471 13.578756366621779 0.04206616618521569 -1 0 0
2842 1 61.150499338809176 14.484039183252706 0.7513095969954174 -1 0 0
2850 1 64.28642640681018 14.484039183252703 0.7513095969954187 -1 0 0
3097 1 59.58254295061337 17.199795314261774 0.7513095969106429 -1 0 0
3101 7 61.150563799505605 16.294512497616918 0.04206616610015809 -1 0 0
3109 7 64.2864908675066 16.29451249761692 0.042066166100159445 -1 0 0
3105 1 62.718470018614376 17.19979531426177 0.7513095969106416 -1 0 0
2857 1 65.85439708661538 11.768283052179774 0.7513095969106434 -1 0 0
2865 1 68.99032415461637 11.768283052179767 0.7513095969106396 -1 0 0
2854 7 65.85444723388571 13.57875636662178 0.04206616618521734 -1 0 0
2858 1 67.42235347481117 14.484039183252703 0.751309596995418 -1 0 0
2862 7 68.99037430188672 13.578756366621784 0.04206616618521751 -1 0 0
2866 1 70.55828054281217 14.484039183252708 0.7513095969954188 -1 0 0
3113 1 65.85439708661538 17.199795314261774 0.7513095969106452 -1 0 0
3117 7 67.42241793550761 16.294512497616925 0.04206616610015895 -1 0 0
3121 1 68.99032415461637 17.199795314261767 0.751309596910642 -1 0 0
3125 7 70.5583450035086 16.294512497616918 0.04206616610016006 -1 0 0
2873 1 72.12625122261737 11.768283052179772 0.7513095969106407 -1 0 0
2881 1 75.26217829061837 11.768283052179768 0.7513095969106435 -1 0 0
2870 7 72.12630136988771 13.578756366621779 0.04206616618521844 -1 0 0
2878 7 75.26222843788872 13.578756366621784 0.04206616618521723 -1 0 0
2874 1 73.69420761081318 14.4840391832527 0.7513095969954172 -1 0 0
3129 1 72.12625122261737 17.199795314261774 0.7513095969106439 -1 0 0
3133 7 73.6942720715096 16.294512497616925 0.0420661661001578 -1 0 0
3137 1 75.26217829061837 17.19979531426177 0.7513095969106454 -1 0 0
2889 1 78.39810535861938 11.76828305217977 0.7513095969106411 -1 0 0
2897 1 81.53403242662037 11.768283052179768 0.7513095969106404 -1 0 0
2882 1 76.83013467881418 14.484039183252705 0.7513095969954162 -1 0 0
2886 7 78.39815550588972 13.578756366621779 0.04206616618521634 -1 0 0
2890 1 79.96606174681517 14.484039183252701 0.751309596995417 -1 0 0
2894 7 81.53408257389071 13.578756366621784 0.04206616618521773 -1 0 0
3141 7 76.83019913951063 16.29451249761692 0.04206616610015957 -1 0 0
3145 1 78.39810535861938 17.199795314261774 0.7513095969106431 -1 0 0
3149 7 79.96612620751162 16.294512497616925 0.042066166100155906 -1 0 0
3153 1 81.53403242662037 17.19979531426177 0.751309596910643 -1 0 0
2905 1 84.66995949462137 11.768283052179768 0.751309596910641 -1 0 0
2913 1 87.80588656262238 11.768283052179772 0.7513095969106413 -1 0 0
2898 1 83.10198881481617 14.484039183252706 0.7513095969954218 -1 0 0
2902 7 84.67000964189171 13.578756366621782 0.04206616618521569 -1 0 0
2910 7 87.8059367098927 13.578756366621779 0.042066166185215303 -1 0 0
2906 1 86.23791588281718 14.484039183252705 0.7513095969954151 -1 0 0
3157 7 83.10205327551262 16.29451249761692 0.042066166100157815 -1 0 0
3161 1 84.66995949462137 17.199795314261774 0.7513095969106438 -1 0 0
3165 7 86.2379803435136 16.294512497616918 0.042066166100158515 -1 0 0
3169 1 87.80588656262238 17.199795314261774 0.7513095969106435 -1 0 0
2921 1 90.94181363062337 11.76828305217977 0.7513095969106388 -1 0 0
2929 1 94.07774069862438 11.768283052179768 0.7513095969106423 -1 0 0
2914 1 89.37384295081819 14.484039183252701 0.7513095969954178 -1 0 0
2918 7 90.9418637778937 13.578756366621779 0.04206616618521655 -1 0 0
2922 1 92.50977001881918 14.484039183252708 0.7513095969954168 -1 0 0
2926 7 94.07779084589471 13.578756366621786 0.0420661661852212 -1 0 0
3173 7 89.3739074115146 16.294512497616925 0.04206616610015787 -1 0 0
3177 1 90.94181363062337 17.199795314261774 0.7513095969106408 -1 0 0
3181 7 92.5098344795156 16.294512497616918 0.042066166100160333 -1 0 0
3185 1 94.07774069862438 17.19979531426177 0.7513095969106456 -1 0 0
2945 1 100.34959483462637 11.768283052179765 0.7513095969106384 -1 0 0
3201 1 100.34959483462637 17.199795314261767 0.7513095969106413 -1 0 0
2937 1 97.21366776662536 11.768283052179768 0.751309596910642 -1 0 0
2930 1 95.64569708682018 14.484039183252703 0.7513095969954192 -1 0 0
2934 7 97.21371791389572 13.578756366621779 0.042066166185216275 -1 0 0
2942 7 100.34964498189672 13.578756366621784 0.042066166185215415 -1 0 0
2938 1 98.78162415482117 14.4840391832527 0.7513095969954166 -1 0 0
3189 7 95.64576154751661 16.294512497616928 0.042066166100160056 -1 0 0
3193 1 97.21366776662536 17.19979531426177 0.7513095969106446 -1 0 0
3197 7 98.78168861551762 16.294512497616925 0.04206616610015593 -1 0 0
3202 1 1.5678850467901821 19.9155514453347 0.75130959699542 0 0 0
3206 7 3.1359058738657057 19.01026862870378 0.04206616618521951 0 0 0
3210 1 4.703812114791184 19.9155514453347 0.7513095969954178 0 0 0
3461 7 1.5679495074866021 21.726024759698923 0.042066166100154456 0 0 0
3465 1 3.13585572659538 22.631307576343776 0.7513095969106416 0 0 0
3469 7 4.703876575487596 21.726024759698923 0.042066166100156746 0 0 0
3214 7 6.271832941866704 19.010268628703784 0.042066166185218766 0 0 0
3218 1 7.839739182792183 19.9155514453347 0.751309596995417 0 0 0
3222 7 9.407760009867705 19.010268628703784 0.04206616618521961 0 0 0
3226 1 10.975666250793182 19.9155514453347 0.7513095969954185 0 0 0