LAMMPS data file via write_data, version 29 Aug 2024, timestep = 0, units = metal

4608 atoms
4 atom types

0 100.349666176032 xlo xhi
0 97.767220717476 ylo yhi
0 20.807299721384 zlo zhi

Masses

1 69.723
2 69.723
3 15.999
4 15.999

Atoms # atomic

2437 3 1.5679420262489998 7.105427357601002e-15 0 0 0 0
2433 1 0 0.9052288743030061 0.7492797536250002 0 0 0
2441 1 3.1359270680010027 0.9052288743030061 0.7492797536250002 0 0 0
2445 3 4.7038690942500025 7.105427357601002e-15 0 0 0 0
2449 1 6.2718541360020055 0.9052288743030061 0.7492797536250002 0 0 0
2453 3 7.839796162251005 7.105427357601002e-15 0 0 0 0
2457 1 9.407781204003001 0.9052288743030061 0.7492797536250002 0 0 0
2461 3 10.975723230252001 7.105427357601002e-15 0 0 0 0
2469 3 14.111650298252997 7.105427357601002e-15 0 0 0 0
2465 1 12.543708272004004 0.9052288743030061 0.7492797536250002 0 0 0
2473 1 15.679635340005007 0.9052288743030061 0.7492797536250002 0 0 0
2477 3 17.247577366254006 7.105427357601002e-15 0 0 0 0
2481 1 18.815562408006002 0.9052288743030061 0.7492797536250002 0 0 0
2485 3 20.383504434255002 7.105427357601002e-15 0 0 0 0
2489 1 21.951489476006998 0.9052288743030061 0.7492797536250002 0 0 0
2493 3 23.519431502255998 7.105427357601002e-15 0 0 0 0
2501 3 26.655358570257008 7.105427357601002e-15 0 0 0 0
2497 1 25.087416544008008 0.9052288743030061 0.7492797536250002 0 0 0
2505 1 28.223343612009003 0.9052288743030061 0.7492797536250002 0 0 0
2509 3 29.791285638258003 7.105427357601002e-15 0 0 0 0
2513 1 31.35927068001 0.9052288743030061 0.7492797536250002 0 0 0
2517 3 32.927212706259 7.105427357601002e-15 0 0 0 0
2521 1 34.49519774801101 0.9052288743030061 0.7492797536250002 0 0 0
2525 3 36.06313977426001 7.105427357601002e-15 0 0 0 0
2533 3 39.199066842261004 7.105427357601002e-15 0 0 0 0
2529 1 37.631124816012004 0.9052288743030061 0.7492797536250002 0 0 0
2537 1 40.767051884013 0.9052288743030061 0.7492797536250002 0 0 0
2541 3 42.334993910262 7.105427357601002e-15 0 0 0 0
2545 1 43.902978952013996 0.9052288743030061 0.7492797536250002 0 0 0
2549 3 45.470920978262996 7.105427357601002e-15 0 0 0 0
2553 1 47.038906020015006 0.9052288743030061 0.7492797536250002 0 0 0
2557 3 48.606848046264005 7.105427357601002e-15 0 0 0 0
2305 1 50.174833088016 0.9052288743030061 0.7492797536250002 -1 0 0
2309 3 51.742775114265 7.105427357601002e-15 0 -1 0 0
2313 1 53.310760156017004 0.9052288743030061 0.7492797536250002 -1 0 0
2317 3 54.878702182266004 7.105427357601002e-15 0 -1 0 0
2321 1 56.44668722401801 0.9052288743030061 0.7492797536250002 -1 0 0
2325 3 58.01462925026701 7.105427357601002e-15 0 -1 0 0
2329 1 59.582614292019 0.9052288743030061 0.7492797536250002 -1 0 0
2333 3 61.150556318268 7.105427357601002e-15 0 -1 0 0
2341 3 64.286483386269 7.105427357601002e-15 0 -1 0 0
2337 1 62.718541360020005 0.9052288743030061 0.7492797536250002 -1 0 0
2345 1 65.85446842802101 0.9052288743030061 0.7492797536250002 -1 0 0
2349 3 67.42241045427001 7.105427357601002e-15 0 -1 0 0
2353 1 68.990395496022 0.9052288743030061 0.7492797536250002 -1 0 0
2357 3 70.558337522271 7.105427357601002e-15 0 -1 0 0
2361 1 72.12632256402301 0.9052288743030061 0.7492797536250002 -1 0 0
2365 3 73.69426459027201 7.105427357601002e-15 0 -1 0 0
2373 3 76.83019165827301 7.105427357601002e-15 0 -1 0 0
2369 1 75.26224963202401 0.9052288743030061 0.7492797536250002 -1 0 0
2377 1 78.398176700025 0.9052288743030061 0.7492797536250002 -1 0 0
2381 3 79.966118726274 7.105427357601002e-15 0 -1 0 0
2385 1 81.534103768026 0.9052288743030061 0.7492797536250002 -1 0 0
2389 3 83.102045794275 7.105427357601002e-15 0 -1 0 0
2393 1 84.670030836027 0.9052288743030061 0.7492797536250002 -1 0 0
2397 3 86.237972862276 7.105427357601002e-15 0 -1 0 0
2405 3 89.373899930277 7.105427357601002e-15 0 -1 0 0
2401 1 87.805957904028 0.9052288743030061 0.7492797536250002 -1 0 0
2409 1 90.941884972029 0.9052288743030061 0.7492797536250002 -1 0 0
2413 3 92.509826998278 7.105427357601002e-15 0 -1 0 0
2417 1 94.07781204003001 0.9052288743030061 0.7492797536250002 -1 0 0
2421 3 95.64575406627901 7.105427357601002e-15 0 -1 0 0
2425 1 97.213739108031 0.9052288743030061 0.7492797536250002 -1 0 0
2429 3 98.78168113428 7.105427357601002e-15 0 -1 0 0
2434 1 1.5679036570830007 3.6209850053440036 0.7492797536250002 0 0 0
2438 3 3.1358456833320005 2.7157561310410046 0 0 0 0
2442 1 4.7038307250840035 3.6209850053440036 0.7492797536250002 0 0 0
2446 3 6.271772751333003 2.7157561310410046 0 0 0 0
2450 1 7.839757793084999 3.6209850053440036 0.7492797536250002 0 0 0
2454 3 9.407699819333999 2.7157561310410046 0 0 0 0
2462 3 12.543626887335002 2.7157561310410046 0 0 0 0
2458 1 10.975684861086002 3.6209850053440036 0.7492797536250002 0 0 0
2466 1 14.111611929087005 3.6209850053440036 0.7492797536250002 0 0 0
2470 3 15.679553955336004 2.7157561310410046 0 0 0 0
2474 1 17.247538997088 3.6209850053440036 0.7492797536250002 0 0 0
2478 3 18.815481023337 2.7157561310410046 0 0 0 0
2482 1 20.383466065088996 3.6209850053440036 0.7492797536250002 0 0 0
2486 3 21.951408091337996 2.7157561310410046 0 0 0 0
2494 3 25.087335159339005 2.7157561310410046 0 0 0 0
2490 1 23.519393133090006 3.6209850053440036 0.7492797536250002 0 0 0
2498 1 26.655320201091 3.6209850053440036 0.7492797536250002 0 0 0
2502 3 28.22326222734 2.7157561310410046 0 0 0 0
2506 1 29.791247269091997 3.6209850053440036 0.7492797536250002 0 0 0
2510 3 31.359189295340997 2.7157561310410046 0 0 0 0
2514 1 32.92717433709301 3.6209850053440036 0.7492797536250002 0 0 0
2518 3 34.49511636334201 2.7157561310410046 0 0 0 0
2526 3 37.631043431343 2.7157561310410046 0 0 0 0
2522 1 36.063101405094 3.6209850053440036 0.7492797536250002 0 0 0
2530 1 39.199028473095 3.6209850053440036 0.7492797536250002 0 0 0
2534 3 40.766970499344 2.7157561310410046 0 0 0 0
2538 1 42.33495554109601 3.6209850053440036 0.7492797536250002 0 0 0
2542 3 43.90289756734501 2.7157561310410046 0 0 0 0
2546 1 45.470882609097 3.6209850053440036 0.7492797536250002 0 0 0
2550 3 47.038824635346 2.7157561310410046 0 0 0 0
2558 3 50.174751703347 2.7157561310410046 0 0 0 0
2554 1 48.606809677098 3.6209850053440036 0.7492797536250002 0 0 0
2306 1 51.742736745099 3.6209850053440036 0.7492797536250002 -1 0 0
2310 3 53.310678771348 2.7157561310410046 0 -1 0 0
2314 1 54.878663813100005 3.6209850053440036 0.7492797536250002 -1 0 0
2318 3 56.446605839349004 2.7157561310410046 0 -1 0 0
2322 1 58.01459088110101 3.6209850053440036 0.7492797536250002 -1 0 0
2326 3 59.58253290735 2.7157561310410046 0 -1 0 0
2334 3 62.718459975351 2.7157561310410046 0 -1 0 0
2330 1 61.150517949102 3.6209850053440036 0.7492797536250002 -1 0 0
2338 1 64.286445017103 3.6209850053440036 0.7492797536250002 -1 0 0
2342 3 65.854387043352 2.7157561310410046 0 -1 0 0
2346 1 67.422372085104 3.6209850053440036 0.7492797536250002 -1 0 0
2350 3 68.990314111353 2.7157561310410046 0 -1 0 0
2354 1 70.558299153105 3.6209850053440036 0.7492797536250002 -1 0 0
2358 3 72.126241179354 2.7157561310410046 0 -1 0 0
2366 3 75.262168247355 2.7157561310410046 0 -1 0 0
2362 1 73.694226221106 3.6209850053440036 0.7492797536250002 -1 0 0
2370 1 76.830153289107 3.6209850053440036 0.7492797536250002 -1 0 0
2374 3 78.398095315356 2.7157561310410046 0 -1 0 0
2378 1 79.96608035710801 3.6209850053440036 0.7492797536250002 -1 0 0
2382 3 81.53402238335701 2.7157561310410046 0 -1 0 0
2386 1 83.10200742510901 3.6209850053440036 0.7492797536250002 -1 0 0
2390 3 84.66994945135801 2.7157561310410046 0 -1 0 0
2398 3 87.805876519359 2.7157561310410046 0 -1 0 0
2394 1 86.23793449311 3.6209850053440036 0.7492797536250002 -1 0 0
2402 1 89.373861561111 3.6209850053440036 0.7492797536250002 -1 0 0
2406 3 90.94180358736 2.7157561310410046 0 -1 0 0
2410 1 92.509788629112 3.6209850053440036 0.7492797536250002 -1 0 0
2414 3 94.077730655361 2.7157561310410046 0 -1 0 0
2418 1 95.645715697113 3.6209850053440036 0.7492797536250002 -1 0 0
2422 3 97.213657723362 2.7157561310410046 0 -1 0 0
2430 3 100.34958479136301 2.7157561310410046 0 -1 0 0
2426 1 98.78164276511401 3.6209850053440036 0.7492797536250002 -1 0 0
2693 3 1.5679420262489998 5.431512262082009 0 0 0 0
2689 1 0 6.336741136385008 0.7492797536250002 0 0 0
2697 1 3.1359270680010027 6.336741136385008 0.7492797536250002 0 0 0
2701 3 4.7038690942500025 5.431512262082009 0 0 0 0
2705 1 6.2718541360020055 6.336741136385008 0.7492797536250002 0 0 0
2709 3 7.839796162251005 5.431512262082009 0 0 0 0
2713 1 9.407781204003001 6.336741136385008 0.7492797536250002 0 0 0
2717 3 10.975723230252001 5.431512262082009 0 0 0 0
2725 3 14.111650298252997 5.431512262082009 0 0 0 0
2721 1 12.543708272004004 6.336741136385008 0.7492797536250002 0 0 0
2729 1 15.679635340005007 6.336741136385008 0.7492797536250002 0 0 0
2733 3 17.247577366254006 5.431512262082009 0 0 0 0
2737 1 18.815562408006002 6.336741136385008 0.7492797536250002 0 0 0
2741 3 20.383504434255002 5.431512262082009 0 0 0 0
2745 1 21.951489476006998 6.336741136385008 0.7492797536250002 0 0 0
2749 3 23.519431502255998 5.431512262082009 0 0 0 0
2757 3 26.655358570257008 5.431512262082009 0 0 0 0
2753 1 25.087416544008008 6.336741136385008 0.7492797536250002 0 0 0
2761 1 28.223343612009003 6.336741136385008 0.7492797536250002 0 0 0
2765 3 29.791285638258003 5.431512262082009 0 0 0 0
2769 1 31.35927068001 6.336741136385008 0.7492797536250002 0 0 0
2773 3 32.927212706259 5.431512262082009 0 0 0 0
2777 1 34.49519774801101 6.336741136385008 0.7492797536250002 0 0 0
2781 3 36.06313977426001 5.431512262082009 0 0 0 0
2789 3 39.199066842261004 5.431512262082009 0 0 0 0
2785 1 37.631124816012004 6.336741136385008 0.7492797536250002 0 0 0
2793 1 40.767051884013 6.336741136385008 0.7492797536250002 0 0 0
2797 3 42.334993910262 5.431512262082009 0 0 0 0
2801 1 43.902978952013996 6.336741136385008 0.7492797536250002 0 0 0
2805 3 45.470920978262996 5.431512262082009 0 0 0 0
2809 1 47.038906020015006 6.336741136385008 0.7492797536250002 0 0 0
2813 3 48.606848046264005 5.431512262082009 0 0 0 0
2561 1 50.174833088016 6.336741136385008 0.7492797536250002 -1 0 0
2565 3 51.742775114265 5.431512262082009 0 -1 0 0
2569 1 53.310760156017004 6.336741136385008 0.7492797536250002 -1 0 0
2573 3 54.878702182266004 5.431512262082009 0 -1 0 0
2577 1 56.44668722401801 6.336741136385008 0.7492797536250002 -1 0 0
2581 3 58.01462925026701 5.431512262082009 0 -1 0 0
2585 1 59.582614292019 6.336741136385008 0.7492797536250002 -1 0 0
2589 3 61.150556318268 5.431512262082009 0 -1 0 0
2597 3 64.286483386269 5.431512262082009 0 -1 0 0
2593 1 62.718541360020005 6.336741136385008 0.7492797536250002 -1 0 0
2601 1 65.85446842802101 6.336741136385008 0.7492797536250002 -1 0 0
2605 3 67.42241045427001 5.431512262082009 0 -1 0 0
2609 1 68.990395496022 6.336741136385008 0.7492797536250002 -1 0 0
2613 3 70.558337522271 5.431512262082009 0 -1 0 0
2617 1 72.12632256402301 6.336741136385008 0.7492797536250002 -1 0 0
2621 3 73.69426459027201 5.431512262082009 0 -1 0 0
2629 3 76.83019165827301 5.431512262082009 0 -1 0 0
2625 1 75.26224963202401 6.336741136385008 0.7492797536250002 -1 0 0
2633 1 78.398176700025 6.336741136385008 0.7492797536250002 -1 0 0
2637 3 79.966118726274 5.431512262082009 0 -1 0 0
2641 1 81.534103768026 6.336741136385008 0.7492797536250002 -1 0 0
2645 3 83.102045794275 5.431512262082009 0 -1 0 0
2649 1 84.670030836027 6.336741136385008 0.7492797536250002 -1 0 0
2653 3 86.237972862276 5.431512262082009 0 -1 0 0
2661 3 89.373899930277 5.431512262082009 0 -1 0 0
2657 1 87.805957904028 6.336741136385008 0.7492797536250002 -1 0 0
2665 1 90.941884972029 6.336741136385008 0.7492797536250002 -1 0 0
2669 3 92.509826998278 5.431512262082009 0 -1 0 0
2673 1 94.07781204003001 6.336741136385008 0.7492797536250002 -1 0 0
2677 3 95.64575406627901 5.431512262082009 0 -1 0 0
2681 1 97.213739108031 6.336741136385008 0.7492797536250002 -1 0 0
2685 3 98.78168113428 5.431512262082009 0 -1 0 0
2690 1 1.5679036570830007 9.052497267426006 0.7492797536250002 0 0 0
2694 3 3.1358456833320005 8.147268393123007 0 0 0 0
2698 1 4.7038307250840035 9.052497267426006 0.7492797536250002 0 0 0
2702 3 6.271772751333003 8.147268393123007 0 0 0 0
2706 1 7.839757793084999 9.052497267426006 0.7492797536250002 0 0 0
2710 3 9.407699819333999 8.147268393123007 0 0 0 0
2718 3 12.543626887335002 8.147268393123007 0 0 0 0
2714 1 10.975684861086002 9.052497267426006 0.7492797536250002 0 0 0
2722 1 14.111611929087005 9.052497267426006 0.7492797536250002 0 0 0
2726 3 15.679553955336004 8.147268393123007 0 0 0 0
2730 1 17.247538997088 9.052497267426006 0.7492797536250002 0 0 0
2734 3 18.815481023337 8.147268393123007 0 0 0 0
2738 1 20.383466065088996 9.052497267426006 0.7492797536250002 0 0 0
2742 3 21.951408091337996 8.147268393123007 0 0 0 0
2750 3 25.087335159339005 8.147268393123007 0 0 0 0
2746 1 23.519393133090006 9.052497267426006 0.7492797536250002 0 0 0
2754 1 26.655320201091 9.052497267426006 0.7492797536250002 0 0 0
2758 3 28.22326222734 8.147268393123007 0 0 0 0
2762 1 29.791247269091997 9.052497267426006 0.7492797536250002 0 0 0
2766 3 31.359189295340997 8.147268393123007 0 0 0 0
2770 1 32.92717433709301 9.052497267426006 0.7492797536250002 0 0 0
2774 3 34.49511636334201 8.147268393123007 0 0 0 0
2782 3 37.631043431343 8.147268393123007 0 0 0 0
2778 1 36.063101405094 9.052497267426006 0.7492797536250002 0 0 0
2786 1 39.199028473095 9.052497267426006 0.7492797536250002 0 0 0
2790 3 40.766970499344 8.147268393123007 0 0 0 0
2794 1 42.33495554109601 9.052497267426006 0.7492797536250002 0 0 0
2798 3 43.90289756734501 8.147268393123007 0 0 0 0
2802 1 45.470882609097 9.052497267426006 0.7492797536250002 0 0 0
2806 3 47.038824635346 8.147268393123007 0 0 0 0
2814 3 50.174751703347 8.147268393123007 0 0 0 0
2810 1 48.606809677098 9.052497267426006 0.7492797536250002 0 0 0
2562 1 51.742736745099 9.052497267426006 0.7492797536250002 -1 0 0
2566 3 53.310678771348 8.147268393123007 0 -1 0 0
2570 1 54.878663813100005 9.052497267426006 0.7492797536250002 -1 0 0
2574 3 56.446605839349004 8.147268393123007 0 -1 0 0
2578 1 58.01459088110101 9.052497267426006 0.7492797536250002 -1 0 0
2582 3 59.58253290735 8.147268393123007 0 -1 0 0
2590 3 62.718459975351 8.147268393123007 0 -1 0 0
2586 1 61.150517949102 9.052497267426006 0.7492797536250002 -1 0 0
2594 1 64.286445017103 9.052497267426006 0.7492797536250002 -1 0 0
2598 3 65.854387043352 8.147268393123007 0 -1 0 0
2602 1 67.422372085104 9.052497267426006 0.7492797536250002 -1 0 0
2606 3 68.990314111353 8.147268393123007 0 -1 0 0
2610 1 70.558299153105 9.052497267426006 0.7492797536250002 -1 0 0
2614 3 72.126241179354 8.147268393123007 0 -1 0 0
2622 3 75.262168247355 8.147268393123007 0 -1 0 0
2618 1 73.694226221106 9.052497267426006 0.7492797536250002 -1 0 0
2626 1 76.830153289107 9.052497267426006 0.7492797536250002 -1 0 0
2630 3 78.398095315356 8.147268393123007 0 -1 0 0
2634 1 79.96608035710801 9.052497267426006 0.7492797536250002 -1 0 0
2638 3 81.53402238335701 8.147268393123007 0 -1 0 0
2642 1 83.10200742510901 9.052497267426006 0.7492797536250002 -1 0 0
2646 3 84.66994945135801 8.147268393123007 0 -1 0 0
2654 3 87.805876519359 8.147268393123007 0 -1 0 0
2650 1 86.23793449311 9.052497267426006 0.7492797536250002 -1 0 0
2658 1 89.373861561111 9.052497267426006 0.7492797536250002 -1 0 0
2662 3 90.94180358736 8.147268393123007 0 -1 0 0
2666 1 92.509788629112 9.052497267426006 0.7492797536250002 -1 0 0
2670 3 94.077730655361 8.147268393123007 0 -1 0 0
2674 1 95.645715697113 9.052497267426006 0.7492797536250002 -1 0 0
2678 3 97.213657723362 8.147268393123007 0 -1 0 0
2686 3 100.34958479136301 8.147268393123007 0 -1 0 0
2682 1 98.78164276511401 9.052497267426006 0.7492797536250002 -1 0 0
2949 3 1.5679420262489998 10.863024524164004 0 0 0 0
2945 1 0 11.76825339846701 0.7492797536250002 0 0 0
2953 1 3.1359270680010027 11.76825339846701 0.7492797536250002 0 0 0
2957 3 4.7038690942500025 10.863024524164004 0 0 0 0
2961 1 6.2718541360020055 11.76825339846701 0.7492797536250002 0 0 0
2965 3 7.839796162251005 10.863024524164004 0 0 0 0
2969 1 9.407781204003001 11.76825339846701 0.7492797536250002 0 0 0
2973 3 10.975723230252001 10.863024524164004 0 0 0 0
2981 3 14.111650298252997 10.863024524164004 0 0 0 0
2977 1 12.543708272004004 11.76825339846701 0.7492797536250002 0 0 0
2985 1 15.679635340005007 11.76825339846701 0.7492797536250002 0 0 0
2989 3 17.247577366254006 10.863024524164004 0 0 0 0
2993 1 18.815562408006002 11.76825339846701 0.7492797536250002 0 0 0
2997 3 20.383504434255002 10.863024524164004 0 0 0 0
3001 1 21.951489476006998 11.76825339846701 0.7492797536250002 0 0 0
3005 3 23.519431502255998 10.863024524164004 0 0 0 0
3013 3 26.655358570257008 10.863024524164004 0 0 0 0
3009 1 25.087416544008008 11.76825339846701 0.7492797536250002 0 0 0
3017 1 28.223343612009003 11.76825339846701 0.7492797536250002 0 0 0
3021 3 29.791285638258003 10.863024524164004 0 0 0 0
3025 1 31.35927068001 11.76825339846701 0.7492797536250002 0 0 0
3029 3 32.927212706259 10.863024524164004 0 0 0 0
3033 1 34.49519774801101 11.76825339846701 0.7492797536250002 0 0 0
3037 3 36.06313977426001 10.863024524164004 0 0 0 0
3045 3 39.199066842261004 10.863024524164004 0 0 0 0
3041 1 37.631124816012004 11.76825339846701 0.7492797536250002 0 0 0
3049 1 40.767051884013 11.76825339846701 0.7492797536250002 0 0 0
3053 3 42.334993910262 10.863024524164004 0 0 0 0
3057 1 43.902978952013996 11.76825339846701 0.7492797536250002 0 0 0
3061 3 45.470920978262996 10.863024524164004 0 0 0 0
3065 1 47.038906020015006 11.76825339846701 0.7492797536250002 0 0 0
3069 3 48.606848046264005 10.863024524164004 0 0 0 0
2817 1 50.174833088016 11.76825339846701 0.7492797536250002 -1 0 0
2821 3 51.742775114265 10.863024524164004 0 -1 0 0
2825 1 53.310760156017004 11.76825339846701 0.7492797536250002 -1 0 0
2829 3 54.878702182266004 10.863024524164004 0 -1 0 0
2833 1 56.44668722401801 11.76825339846701 0.7492797536250002 -1 0 0
2837 3 58.01462925026701 10.863024524164004 0 -1 0 0
2841 1 59.582614292019 11.76825339846701 0.7492797536250002 -1 0 0
2845 3 61.150556318268 10.863024524164004 0 -1 0 0
2853 3 64.286483386269 10.863024524164004 0 -1 0 0
2849 1 62.718541360020005 11.76825339846701 0.7492797536250002 -1 0 0
2857 1 65.85446842802101 11.76825339846701 0.7492797536250002 -1 0 0
2861 3 67.42241045427001 10.863024524164004 0 -1 0 0
2865 1 68.990395496022 11.76825339846701 0.7492797536250002 -1 0 0
2869 3 70.558337522271 10.863024524164004 0 -1 0 0
2873 1 72.12632256402301 11.76825339846701 0.7492797536250002 -1 0 0
2877 3 73.69426459027201 10.863024524164004 0 -1 0 0
2885 3 76.83019165827301 10.863024524164004 0 -1 0 0
2881 1 75.26224963202401 11.76825339846701 0.7492797536250002 -1 0 0
2889 1 78.398176700025 11.76825339846701 0.7492797536250002 -1 0 0
2893 3 79.966118726274 10.863024524164004 0 -1 0 0
2897 1 81.534103768026 11.76825339846701 0.7492797536250002 -1 0 0
2901 3 83.102045794275 10.863024524164004 0 -1 0 0
2905 1 84.670030836027 11.76825339846701 0.7492797536250002 -1 0 0
2909 3 86.237972862276 10.863024524164004 0 -1 0 0
2917 3 89.373899930277 10.863024524164004 0 -1 0 0
2913 1 87.805957904028 11.76825339846701 0.7492797536250002 -1 0 0
2921 1 90.941884972029 11.76825339846701 0.7492797536250002 -1 0 0
2925 3 92.509826998278 10.863024524164004 0 -1 0 0
2929 1 94.07781204003001 11.76825339846701 0.7492797536250002 -1 0 0
2933 3 95.64575406627901 10.863024524164004 0 -1 0 0
2937 1 97.213739108031 11.76825339846701 0.7492797536250002 -1 0 0
2941 3 98.78168113428 10.863024524164004 0 -1 0 0
2946 1 1.5679036570830007 14.484009529508 0.7492797536250002 0 0 0
2950 3 3.1358456833320005 13.578780655205009 0 0 0 0
2954 1 4.7038307250840035 14.484009529508 0.7492797536250002 0 0 0
2958 3 6.271772751333003 13.578780655205009 0 0 0 0
2962 1 7.839757793084999 14.484009529508 0.7492797536250002 0 0 0
2966 3 9.407699819333999 13.578780655205009 0 0 0 0
2974 3 12.543626887335002 13.578780655205009 0 0 0 0
2970 1 10.975684861086002 14.484009529508 0.7492797536250002 0 0 0
2978 1 14.111611929087005 14.484009529508 0.7492797536250002 0 0 0
2982 3 15.679553955336004 13.578780655205009 0 0 0 0
2986 1 17.247538997088 14.484009529508 0.7492797536250002 0 0 0
2990 3 18.815481023337 13.578780655205009 0 0 0 0
2994 1 20.383466065088996 14.484009529508 0.7492797536250002 0 0 0
2998 3 21.951408091337996 13.578780655205009 0 0 0 0
3006 3 25.087335159339005 13.578780655205009 0 0 0 0
3002 1 23.519393133090006 14.484009529508 0.7492797536250002 0 0 0
3010 1 26.655320201091 14.484009529508 0.7492797536250002 0 0 0
3014 3 28.22326222734 13.578780655205009 0 0 0 0
3018 1 29.791247269091997 14.484009529508 0.7492797536250002 0 0 0
3022 3 31.359189295340997 13.578780655205009 0 0 0 0
3026 1 32.92717433709301 14.484009529508 0.7492797536250002 0 0 0
3030 3 34.49511636334201 13.578780655205009 0 0 0 0
3038 3 37.631043431343 13.578780655205009 0 0 0 0
3034 1 36.063101405094 14.484009529508 0.7492797536250002 0 0 0
3042 1 39.199028473095 14.484009529508 0.7492797536250002 0 0 0
3046 3 40.766970499344 13.578780655205009 0 0 0 0
3050 1 42.33495554109601 14.484009529508 0.7492797536250002 0 0 0
3054 3 43.90289756734501 13.578780655205009 0 0 0 0
3058 1 45.470882609097 14.484009529508 0.7492797536250002 0 0 0
3062 3 47.038824635346 13.578780655205009 0 0 0 0
3070 3 50.174751703347 13.578780655205009 0 0 0 0
3066 1 48.606809677098 14.484009529508 0.7492797536250002 0 0 0
2818 1 51.742736745099 14.484009529508 0.7492797536250002 -1 0 0
2822 3 53.310678771348 13.578780655205009 0 -1 0 0
2826 1 54.878663813100005 14.484009529508 0.7492797536250002 -1 0 0
2830 3 56.446605839349004 13.578780655205009 0 -1 0 0
2834 1 58.01459088110101 14.484009529508 0.7492797536250002 -1 0 0
2838 3 59.58253290735 13.578780655205009 0 -1 0 0
2846 3 62.718459975351 13.578780655205009 0 -1 0 0
2842 1 61.150517949102 14.484009529508 0.7492797536250002 -1 0 0
2850 1 64.286445017103 14.484009529508 0.7492797536250002 -1 0 0
2854 3 65.854387043352 13.578780655205009 0 -1 0 0
2858 1 67.422372085104 14.484009529508 0.7492797536250002 -1 0 0
2862 3 68.990314111353 13.578780655205009 0 -1 0 0
2866 1 70.558299153105 14.484009529508 0.7492797536250002 -1 0 0
2870 3 72.126241179354 13.578780655205009 0 -1 0 0
2878 3 75.262168247355 13.578780655205009 0 -1 0 0
2874 1 73.694226221106 14.484009529508 0.7492797536250002 -1 0 0
2882 1 76.830153289107 14.484009529508 0.7492797536250002 -1 0 0
2886 3 78.398095315356 13.578780655205009 0 -1 0 0
2890 1 79.96608035710801 14.484009529508 0.7492797536250002 -1 0 0
2894 3 81.53402238335701 13.578780655205009 0 -1 0 0
2898 1 83.10200742510901 14.484009529508 0.7492797536250002 -1 0 0
2902 3 84.66994945135801 13.578780655205009 0 -1 0 0
2910 3 87.805876519359 13.578780655205009 0 -1 0 0
2906 1 86.23793449311 14.484009529508 0.7492797536250002 -1 0 0
2914 1 89.373861561111 14.484009529508 0.7492797536250002 -1 0 0
2918 3 90.94180358736 13.578780655205009 0 -1 0 0
2922 1 92.509788629112 14.484009529508 0.7492797536250002 -1 0 0
2926 3 94.077730655361 13.578780655205009 0 -1 0 0
2930 1 95.645715697113 14.484009529508 0.7492797536250002 -1 0 0
2934 3 97.213657723362 13.578780655205009 0 -1 0 0
2942 3 100.34958479136301 13.578780655205009 0 -1 0 0
2938 1 98.78164276511401 14.484009529508 0.7492797536250002 -1 0 0
3205 3 1.5679420262489998 16.294536786246013 0 0 0 0
3201 1 0 17.199765660549005 0.7492797536250002 0 0 0
3209 1 3.1359270680010027 17.199765660549005 0.7492797536250002 0 0 0
3213 3 4.7038690942500025 16.294536786246013 0 0 0 0
3217 1 6.2718541360020055 17.199765660549005 0.7492797536250002 0 0 0
3221 3 7.839796162251005 16.294536786246013 0 0 0 0
3225 1 9.407781204003001 17.199765660549005 0.7492797536250002 0 0 0
3229 3 10.975723230252001 16.294536786246013 0 0 0 0
3237 3 14.111650298252997 16.294536786246013 0 0 0 0
3233 1 12.543708272004004 17.199765660549005 0.7492797536250002 0 0 0
3241 1 15.679635340005007 17.199765660549005 0.7492797536250002 0 0 0
3245 3 17.247577366254006 16.294536786246013 0 0 0 0
3249 1 18.815562408006002 17.199765660549005 0.7492797536250002 0 0 0
3253 3 20.383504434255002 16.294536786246013 0 0 0 0
3257 1 21.951489476006998 17.199765660549005 0.7492797536250002 0 0 0
3261 3 23.519431502255998 16.294536786246013 0 0 0 0
3269 3 26.655358570257008 16.294536786246013 0 0 0 0
3265 1 25.087416544008008 17.199765660549005 0.7492797536250002 0 0 0
3273 1 28.223343612009003 17.199765660549005 0.7492797536250002 0 0 0
3277 3 29.791285638258003 16.294536786246013 0 0 0 0
3281 1 31.35927068001 17.199765660549005 0.7492797536250002 0 0 0
3285 3 32.927212706259 16.294536786246013 0 0 0 0
3289 1 34.49519774801101 17.199765660549005 0.7492797536250002 0 0 0
3293 3 36.06313977426001 16.294536786246013 0 0 0 0
3301 3 39.199066842261004 16.294536786246013 0 0 0 0
3297 1 37.631124816012004 17.199765660549005 0.7492797536250002 0 0 0
3305 1 40.767051884013 17.199765660549005 0.7492797536250002 0 0 0
3309 3 42.334993910262 16.294536786246013 0 0 0 0
3313 1 43.902978952013996 17.199765660549005 0.7492797536250002 0 0 0
3317 3 45.470920978262996 16.294536786246013 0 0 0 0
3321 1 47.038906020015006 17.199765660549005 0.7492797536250002 0 0 0
3325 3 48.606848046264005 16.294536786246013 0 0 0 0
3073 1 50.174833088016 17.199765660549005 0.7492797536250002 -1 0 0
3077 3 51.742775114265 16.294536786246013 0 -1 0 0
3081 1 53.310760156017004 17.199765660549005 0.7492797536250002 -1 0 0
3085 3 54.878702182266004 16.294536786246013 0 -1 0 0
3089 1 56.44668722401801 17.199765660549005 0.7492797536250002 -1 0 0
3093 3 58.01462925026701 16.294536786246013 0 -1 0 0
3097 1 59.582614292019 17.199765660549005 0.7492797536250002 -1 0 0
3101 3 61.150556318268 16.294536786246013 0 -1 0 0
3109 3 64.286483386269 16.294536786246013 0 -1 0 0
3105 1 62.718541360020005 17.199765660549005 0.7492797536250002 -1 0 0
3113 1 65.85446842802101 17.199765660549005 0.7492797536250002 -1 0 0
3117 3 67.42241045427001 16.294536786246013 0 -1 0 0
3121 1 68.990395496022 17.199765660549005 0.7492797536250002 -1 0 0
3125 3 70.558337522271 16.294536786246013 0 -1 0 0
3129 1 72.12632256402301 17.199765660549005 0.7492797536250002 -1 0 0
3133 3 73.69426459027201 16.294536786246013 0 -1 0 0
3141 3 76.83019165827301 16.294536786246013 0 -1 0 0
3137 1 75.26224963202401 17.199765660549005 0.7492797536250002 -1 0 0
3145 1 78.398176700025 17.199765660549005 0.7492797536250002 -1 0 0
3149 3 79.966118726274 16.294536786246013 0 -1 0 0
3153 1 81.534103768026 17.199765660549005 0.7492797536250002 -1 0 0
3157 3 83.102045794275 16.294536786246013 0 -1 0 0
3161 1 84.670030836027 17.199765660549005 0.7492797536250002 -1 0 0
3165 3 86.237972862276 16.294536786246013 0 -1 0 0
3173 3 89.373899930277 16.294536786246013 0 -1 0 0
3169 1 87.805957904028 17.199765660549005 0.7492797536250002 -1 0 0
3177 1 90.941884972029 17.199765660549005 0.7492797536250002 -1 0 0
3181 3 92.509826998278 16.294536786246013 0 -1 0 0
3185 1 94.07781204003001 17.199765660549005 0.7492797536250002 -1 0 0
3189 3 95.64575406627901 16.294536786246013 0 -1 0 0
3193 1 97.213739108031 17.199765660549005 0.7492797536250002 -1 0 0
3197 3 98.78168113428 16.294536786246013 0 -1 0 0
3202 1 1.5679036570830007 19.91552179159001 0.7492797536250002 0 0 0
3206 3 3.1358456833320005 19.010292917287003 0 0 0 0
3210 1 4.7038307250840035 19.91552179159001 0.7492797536250002 0 0 0
3214 3 6.271772751333003 19.010292917287003 0 0 0 0
3218 1 7.839757793084999 19.91552179159001 0.7492797536250002 0 0 0
3222 3 9.407699819333999 19.010292917287003 0 0 0 0
3230 3 12.543626887335002 19.010292917287003 0 0 0 0
3226 1 10.975684861086002 19.91552179159001 0.7492797536250002 0 0 0
3234 1 14.111611929087005 19.91552179159001 0.7492797536250002 0 0 0
3238 3 15.679553955336004 19.010292917287003 0 0 0 0
3242 1 17.247538997088 19.91552179159001 0.7492797536250002 0 0 0
3246 3 18.815481023337 19.010292917287003 0 0 0 0
3250 1 20.383466065088996 19.91552179159001 0.7492797536250002 0 0 0
3254 3 21.951408091337996 19.010292917287003 0 0 0 0
3262 3 25.087335159339005 19.010292917287003 0 0 0 0
3258 1 23.519393133090006 19.91552179159001 0.7492797536250002 0 0 0
3266 1 26.655320201091 19.91552179159001 0.7492797536250002 0 0 0
3270 3 28.22326222734 19.010292917287003 0 0 0 0
3274 1 29.791247269091997 19.91552179159001 0.7492797536250002 0 0 0
3278 3 31.359189295340997 19.010292917287003 0 0 0 0
3282 1 32.92717433709301 19.91552179159001 0.7492797536250002 0 0 0
3286 3 34.49511636334201 19.010292917287003 0 0 0 0
3294 3 37.631043431343 19.010292917287003 0 0 0 0
3290 1 36.063101405094 19.91552179159001 0.7492797536250002 0 0 0
3298 1 39.199028473095 19.91552179159001 0.7492797536250002 0 0 0
3302 3 40.766970499344 19.010292917287003 0 0 0 0
3306 1 42.33495554109601 19.91552179159001 0.7492797536250002 0 0 0
3310 3 43.90289756734501 19.010292917287003 0 0 0 0
3314 1 45.470882609097 19.91552179159001 0.7492797536250002 0 0 0
3318 3 47.038824635346 19.010292917287003 0 0 0 0
3326 3 50.174751703347 19.010292917287003 0 0 0 0
3322 1 48.606809677098 19.91552179159001 0.7492797536250002 0 0 0
3074 1 51.742736745099 19.91552179159001 0.7492797536250002 -1 0 0
3078 3 53.310678771348 19.010292917287003 0 -1 0 0
3082 1 54.878663813100005 19.91552179159001 0.7492797536250002 -1 0 0
3086 3 56.446605839349004 19.010292917287003 0 -1 0 0
3090 1 58.01459088110101 19.91552179159001 0.7492797536250002 -1 0 0
3094 3 59.58253290735 19.010292917287003 0 -1 0 0
3102 3 62.718459975351 19.010292917287003 0 -1 0 0
3098 1 61.150517949102 19.91552179159001 0.7492797536250002 -1 0 0
3106 1 64.286445017103 19.91552179159001 0.7492797536250002 -1 0 0
3110 3 65.854387043352 19.010292917287003 0 -1 0 0
3114 1 67.422372085104 19.91552179159001 0.7492797536250002 -1 0 0
3118 3 68.990314111353 19.010292917287003 0 -1 0 0
3122 1 70.558299153105 19.91552179159001 0.7492797536250002 -1 0 0
3126 3 72.126241179354 19.010292917287003 0 -1 0 0
3134 3 75.262168247355 19.010292917287003 0 -1 0 0
3130 1 73.694226221106 19.91552179159001 0.7492797536250002 -1 0 0