LAMMPS data file via write_data, version 29 Aug 2024, timestep = 2, units = metal

5916 atoms
6 atom types

0 101.331570195503 xlo xhi
0 102.886009510976 ylo yhi
-50 50 zlo zhi

Masses

1 54.938044
2 54.938044
3 78.971
4 78.971
5 78.971
6 78.971

Atoms # atomic

1659 1 1.7475148888841512 3.025625379550273 1.4292304229165154 0 0 0
1488 4 3.4941814981476433 2.017372400191289 0.02935987449130941 0 0 0
1665 1 5.2417069645911525 3.0256253795502728 1.4292304229165147 0 0 0
1661 4 1.747085460294067 5.043431503455291 0.029359874491308224 0 0 0
1667 4 5.2412775360010695 5.043431503455291 0.029359874491308932 0 0 0
1484 3 1.7491592472505584 1.0065607098994762 2.8282009126851686 0 0 0
1490 3 5.243351322957561 1.006560709899476 2.8282009126851677 0 0 0
1657 3 3.4962552851037203 4.032619813163472 2.8282009126851686 0 0 0
1651 3 0.002063209396723664 4.032619813163473 2.828200912685171 0 0 0
1494 4 6.988373573854647 2.017372400191288 0.02935987449130867 0 0 0
1671 1 8.735899040298152 3.025625379550273 1.4292304229165154 0 0 0
1500 4 10.482565649561645 2.0173724001912885 0.029359874491309078 0 0 0
1673 4 8.73546961170807 5.04343150345529 0.029359874491308127 0 0 0
1496 3 8.737543398664561 1.0065607098994762 2.8282009126851686 0 0 0
1663 3 6.99044736081072 4.032619813163473 2.82820091268517 0 0 0
1669 3 10.484639436517718 4.032619813163474 2.82820091268517 0 0 0
1677 1 12.23009111600515 3.0256253795502737 1.429230422916516 0 0 0
1506 4 13.976757725268643 2.017372400191288 0.029359874491308707 0 0 0
1683 1 15.72428319171215 3.0256253795502723 1.4292304229165138 0 0 0
1512 4 17.470949800975646 2.0173724001912885 0.029359874491309668 0 0 0
1679 4 12.229661687415067 5.04343150345529 0.029359874491308433 0 0 0
1685 4 15.723853763122067 5.043431503455291 0.029359874491308766 0 0 0
1502 3 12.23173547437156 1.006560709899476 2.8282009126851686 0 0 0
1508 3 15.72592755007856 1.0065607098994762 2.8282009126851677 0 0 0
1675 3 13.978831512224719 4.032619813163473 2.82820091268517 0 0 0
1681 3 17.473023587931717 4.032619813163473 2.828200912685169 0 0 0
1689 1 19.21847526741915 3.0256253795502737 1.4292304229165167 0 0 0
1518 4 20.965141876682644 2.017372400191289 0.029359874491309973 0 0 0
1695 1 22.712667343126153 3.0256253795502728 1.4292304229165154 0 0 0
1691 4 19.218045838829067 5.04343150345529 0.029359874491307933 0 0 0
1697 4 22.71223791453607 5.043431503455291 0.02935987449130886 0 0 0
1514 3 19.22011962578556 1.0065607098994762 2.8282009126851695 0 0 0
1520 3 22.714311701492562 1.0065607098994758 2.828200912685168 0 0 0
1687 3 20.967215663638722 4.032619813163473 2.8282009126851695 0 0 0
1524 4 24.459333952389645 2.0173724001912876 0.029359874491307454 0 0 0
1701 1 26.20685941883315 3.0256253795502723 1.4292304229165138 0 0 0
1530 4 27.953526028096647 2.017372400191289 0.029359874491309865 0 0 0
1707 1 29.701051494540152 3.0256253795502737 1.4292304229165167 0 0 0
1703 4 26.206429990243066 5.043431503455291 0.02935987449130871 0 0 0
1709 4 29.700622065950068 5.04343150345529 0.029359874491307725 0 0 0
1526 3 26.208503777199557 1.006560709899476 2.8282009126851677 0 0 0
1532 3 29.70269585290656 1.0065607098994764 2.82820091268517 0 0 0
1693 3 24.461407739345724 4.032619813163473 2.8282009126851704 0 0 0
1699 3 27.955599815052718 4.032619813163473 2.828200912685169 0 0 0
1536 4 31.44771810380364 2.0173724001912876 0.029359874491308682 0 0 0
1713 1 33.19524357024715 3.0256253795502728 1.4292304229165154 0 0 0
1542 4 34.94191017951064 2.0173724001912885 0.029359874491308967 0 0 0
1715 4 33.19481414165706 5.043431503455291 0.02935987449130893 0 0 0
1538 3 33.196887928613556 1.0065607098994755 2.828200912685168 0 0 0
1705 3 31.44979189075972 4.032619813163474 2.828200912685171 0 0 0
1711 3 34.94398396646672 4.032619813163472 2.8282009126851686 0 0 0
1719 1 36.68943564595415 3.0256253795502723 1.4292304229165138 0 0 0
1548 4 38.43610225521765 2.0173724001912885 0.029359874491309605 0 0 0
1725 1 40.18362772166115 3.0256253795502737 1.4292304229165167 0 0 0
1721 4 36.68900621736407 5.043431503455291 0.029359874491308998 0 0 0
1727 4 40.18319829307107 5.04343150345529 0.029359874491307694 0 0 0
1544 3 36.69108000432056 1.006560709899476 2.8282009126851673 0 0 0
1550 3 40.185272080027566 1.0065607098994764 2.82820091268517 0 0 0
1717 3 38.438176042173716 4.032619813163473 2.828200912685169 0 0 0
1554 4 41.93029433092464 2.0173724001912876 0.029359874491308082 0 0 0
1731 1 43.677819797368144 3.0256253795502723 1.4292304229165138 0 0 0
1560 4 45.424486406631644 2.0173724001912885 0.029359874491309487 0 0 0
1737 1 47.17201187307515 3.0256253795502728 1.4292304229165154 0 0 0
1733 4 43.67739036877806 5.043431503455291 0.029359874491308714 0 0 0
1739 4 47.17158244448507 5.043431503455291 0.02935987449130924 0 0 0
1556 3 43.67946415573456 1.006560709899476 2.8282009126851677 0 0 0
1562 3 47.17365623144156 1.0065607098994758 2.8282009126851677 0 0 0
1723 3 41.93236811788071 4.032619813163474 2.828200912685171 0 0 0
1729 3 45.42656019358771 4.032619813163472 2.828200912685168 0 0 0
1566 4 48.91867848233865 2.017372400191289 0.029359874491310056 0 0 0
1569 1 50.666203948782154 3.025625379550273 1.4292304229165163 -1 0 0
1398 4 52.41287055804565 2.0173724001912885 0.029359874491309015 -1 0 0
1571 4 50.66577452019207 5.04343150345529 0.029359874491308665 -1 0 0
1394 3 50.66784830714857 1.006560709899476 2.8282009126851686 -1 0 0
1735 3 48.92075226929472 4.032619813163473 2.828200912685169 0 0 0
1567 3 52.41494434500172 4.032619813163474 2.8282009126851704 -1 0 0
1575 1 54.16039602448915 3.0256253795502728 1.4292304229165154 -1 0 0
1404 4 55.907062633752645 2.017372400191289 0.02935987449130967 -1 0 0
1581 1 57.65458810019616 3.025625379550273 1.4292304229165158 -1 0 0
1410 4 59.40125470945965 2.017372400191288 0.029359874491309005 -1 0 0
1577 4 54.15996659589907 5.04343150345529 0.02935987449130806 -1 0 0
1583 4 57.65415867160607 5.04343150345529 0.029359874491308155 -1 0 0
1400 3 54.162040382855565 1.0065607098994762 2.828200912685169 -1 0 0
1406 3 57.65623245856257 1.006560709899476 2.828200912685169 -1 0 0
1573 3 55.90913642070872 4.032619813163473 2.8282009126851695 -1 0 0
1579 3 59.403328496415725 4.032619813163473 2.8282009126851695 -1 0 0
1587 1 61.148780175903156 3.0256253795502728 1.429230422916515 -1 0 0
1416 4 62.89544678516665 2.017372400191288 0.02935987449130874 -1 0 0
1593 1 64.64297225161016 3.0256253795502723 1.4292304229165143 -1 0 0
1589 4 61.148350747313074 5.043431503455291 0.029359874491309196 -1 0 0
1595 4 64.64254282302008 5.04343150345529 0.029359874491308273 -1 0 0
1412 3 61.15042453426957 1.0065607098994758 2.8282009126851673 -1 0 0
1418 3 64.64461660997657 1.0065607098994762 2.8282009126851686 -1 0 0
1585 3 62.89752057212272 4.032619813163473 2.8282009126851695 -1 0 0
1422 4 66.38963886087365 2.0173724001912885 0.029359874491309314 -1 0 0
1599 1 68.13716432731715 3.0256253795502737 1.4292304229165171 -1 0 0
1428 4 69.88383093658065 2.0173724001912876 0.029359874491308488 -1 0 0
1601 4 68.13673489872707 5.04343150345529 0.029359874491308238 -1 0 0
1424 3 68.13880868568356 1.0065607098994762 2.828200912685169 -1 0 0
1591 3 66.39171264782972 4.032619813163473 2.82820091268517 -1 0 0
1597 3 69.88590472353673 4.032619813163473 2.8282009126851704 -1 0 0
1605 1 71.63135640302416 3.025625379550272 1.4292304229165134 -1 0 0
1434 4 73.37802301228766 2.0173724001912885 0.029359874491308453 -1 0 0
1611 1 75.12554847873115 3.0256253795502728 1.4292304229165154 -1 0 0
1440 4 76.87221508799465 2.017372400191289 0.029359874491310518 -1 0 0
1607 4 71.63092697443408 5.043431503455291 0.029359874491309182 -1 0 0
1613 4 75.12511905014108 5.04343150345529 0.0293598744913083 -1 0 0
1430 3 71.63300076139056 1.006560709899476 2.8282009126851673 -1 0 0
1436 3 75.12719283709757 1.006560709899476 2.8282009126851686 -1 0 0
1603 3 73.38009679924372 4.032619813163473 2.8282009126851695 -1 0 0
1609 3 76.87428887495072 4.032619813163473 2.8282009126851695 -1 0 0
1617 1 78.61974055443815 3.0256253795502737 1.4292304229165171 -1 0 0
1446 4 80.36640716370165 2.0173724001912876 0.029359874491308488 -1 0 0
1623 1 82.11393263014516 3.025625379550272 1.4292304229165134 -1 0 0
1619 4 78.61931112584807 5.04343150345529 0.029359874491308238 -1 0 0
1625 4 82.11350320155508 5.043431503455291 0.029359874491309182 -1 0 0
1442 3 78.62138491280456 1.0065607098994762 2.828200912685169 -1 0 0
1448 3 82.11557698851156 1.006560709899476 2.828200912685167 -1 0 0
1615 3 80.36848095065773 4.032619813163473 2.8282009126851704 -1 0 0
1452 4 83.86059923940864 2.0173724001912885 0.029359874491308453 -1 0 0
1629 1 85.60812470585215 3.0256253795502728 1.4292304229165154 -1 0 0
1458 4 87.35479131511565 2.017372400191289 0.029359874491310507 -1 0 0
1635 1 89.10231678155915 3.0256253795502737 1.4292304229165171 -1 0 0
1631 4 85.60769527726208 5.04343150345529 0.0293598744913083 -1 0 0
1637 4 89.10188735296907 5.04343150345529 0.029359874491308332 -1 0 0
1454 3 85.60976906421857 1.006560709899476 2.8282009126851686 -1 0 0
1460 3 89.10396113992556 1.0065607098994762 2.828200912685169 -1 0 0
1621 3 83.86267302636472 4.032619813163473 2.8282009126851695 -1 0 0
1627 3 87.35686510207172 4.032619813163473 2.8282009126851695 -1 0 0
1464 4 90.84898339082264 2.0173724001912876 0.029359874491308134 -1 0 0
1641 1 92.59650885726614 3.0256253795502728 1.4292304229165154 -1 0 0
1470 4 94.34317546652964 2.0173724001912885 0.029359874491309487 -1 0 0
1643 4 92.59607942867606 5.043431503455289 0.02935987449130695 -1 0 0
1466 3 92.59815321563255 1.0065607098994769 2.82820091268517 -1 0 0
1633 3 90.85105717777873 4.032619813163474 2.8282009126851717 -1 0 0
1639 3 94.34524925348572 4.032619813163472 2.828200912685168 -1 0 0
1482 4 101.33155961794365 2.0173724001912876 0.029359874491308426 -1 0 0
1647 1 96.09070093297315 3.025625379550272 1.4292304229165134 -1 0 0
1476 4 97.83736754223665 2.017372400191289 0.029359874491309917 -1 0 0
1653 1 99.58489300868015 3.0256253795502737 1.4292304229165171 -1 0 0
1649 4 96.09027150438307 5.043431503455292 0.029359874491310372 -1 0 0
1655 4 99.58446358009007 5.04343150345529 0.029359874491308172 -1 0 0
1472 3 96.09234529133956 1.006560709899475 2.828200912685166 -1 0 0
1478 3 99.58653736704656 1.0065607098994762 2.8282009126851695 -1 0 0
1645 3 97.83944132919272 4.032619813163472 2.828200912685169 -1 0 0
1654 1 0.0004188510307106597 6.051684482814273 1.4292304229165165 0 0 0
1660 1 3.4946109267377095 6.051684482814273 1.429230422916516 0 0 0
1662 4 3.4941814981476433 8.06949060671929 0.029359874491309397 0 0 0
1833 1 1.7475148888841512 9.077743586078274 1.4292304229165154 0 0 0
1839 1 5.2417069645911525 9.077743586078272 1.4292304229165145 0 0 0
1835 4 1.747085460294067 11.09554970998329 0.02935987449130758 0 0 0
1841 4 5.24127753600107 11.095549709983292 0.02935987449130845 0 0 0
1658 3 1.7491592472505584 7.058678916427477 2.8282009126851686 0 0 0
1664 3 5.243351322957561 7.058678916427476 2.8282009126851677 0 0 0
1831 3 3.4962552851037203 10.084738019691471 2.8282009126851686 0 0 0
1825 3 0.002063209396723664 10.084738019691473 2.8282009126851704 0 0 0
1666 1 6.988803002444711 6.051684482814273 1.4292304229165165 0 0 0
1672 1 10.48299507815171 6.051684482814272 1.4292304229165165 0 0 0
1668 4 6.988373573854647 8.069490606719288 0.029359874491308655 0 0 0
1674 4 10.482565649561645 8.069490606719288 0.029359874491309154 0 0 0
1845 1 8.735899040298152 9.077743586078274 1.4292304229165151 0 0 0
1847 4 8.73546961170807 11.09554970998329 0.029359874491307593 0 0 0
1670 3 8.737543398664561 7.058678916427477 2.8282009126851686 0 0 0
1837 3 6.99044736081072 10.084738019691473 2.8282009126851695 0 0 0
1843 3 10.484639436517718 10.084738019691473 2.82820091268517 0 0 0
1678 1 13.977187153858708 6.051684482814272 1.4292304229165163 0 0 0
1684 1 17.47137922956571 6.051684482814273 1.4292304229165165 0 0 0
1680 4 13.976757725268643 8.069490606719288 0.029359874491308703 0 0 0
1686 4 17.470949800975646 8.06949060671929 0.029359874491309588 0 0 0
1851 1 12.23009111600515 9.077743586078274 1.429230422916516 0 0 0
1857 1 15.72428319171215 9.077743586078272 1.4292304229165138 0 0 0
1853 4 12.229661687415067 11.09554970998329 0.02935987449130771 0 0 0
1859 4 15.723853763122067 11.095549709983292 0.029359874491308394 0 0 0
1676 3 12.23173547437156 7.058678916427476 2.828200912685169 0 0 0
1682 3 15.72592755007856 7.058678916427476 2.8282009126851677 0 0 0
1849 3 13.978831512224719 10.084738019691473 2.8282009126851695 0 0 0
1855 3 17.473023587931717 10.084738019691471 2.828200912685169 0 0 0
1690 1 20.96557130527271 6.051684482814272 1.4292304229165163 0 0 0
1692 4 20.965141876682644 8.06949060671929 0.029359874491310042 0 0 0
1863 1 19.21847526741915 9.077743586078274 1.4292304229165167 0 0 0
1869 1 22.712667343126153 9.077743586078274 1.4292304229165151 0 0 0
1865 4 19.21804583882907 11.09554970998329 0.029359874491307468 0 0 0
1871 4 22.712237914536068 11.095549709983292 0.029359874491308315 0 0 0
1688 3 19.22011962578556 7.058678916427477 2.8282009126851695 0 0 0
1694 3 22.714311701492562 7.058678916427476 2.828200912685168 0 0 0
1861 3 20.967215663638722 10.084738019691471 2.828200912685169 0 0 0
1696 1 24.459763380979712 6.051684482814272 1.429230422916516 0 0 0
1702 1 27.95395545668671 6.051684482814273 1.4292304229165165 0 0 0
1698 4 24.459333952389645 8.069490606719288 0.02935987449130747 0 0 0
1704 4 27.953526028096647 8.06949060671929 0.029359874491309775 0 0 0
1875 1 26.20685941883315 9.077743586078272 1.4292304229165138 0 0 0
1881 1 29.701051494540152 9.077743586078274 1.4292304229165167 0 0 0
1877 4 26.206429990243066 11.095549709983292 0.02935987449130815 0 0 0
1883 4 29.700622065950068 11.09554970998329 0.029359874491307145 0 0 0
1700 3 26.208503777199557 7.058678916427477 2.8282009126851677 0 0 0
1706 3 29.70269585290656 7.058678916427477 2.82820091268517 0 0 0
1867 3 24.461407739345724 10.084738019691473 2.8282009126851704 0 0 0
1873 3 27.955599815052718 10.084738019691471 2.8282009126851686 0 0 0
1708 1 31.44814753239371 6.051684482814272 1.429230422916516 0 0 0
1714 1 34.9423396081007 6.051684482814272 1.4292304229165165 0 0 0
1710 4 31.44771810380364 8.069490606719288 0.029359874491308682 0 0 0
1716 4 34.94191017951064 8.06949060671929 0.029359874491308995 0 0 0
1887 1 33.19524357024715 9.077743586078274 1.4292304229165151 0 0 0
1889 4 33.19481414165706 11.095549709983292 0.029359874491308325 0 0 0
1712 3 33.196887928613556 7.058678916427476 2.828200912685168 0 0 0
1879 3 31.44979189075972 10.084738019691473 2.8282009126851704 0 0 0
1885 3 34.94398396646672 10.084738019691471 2.8282009126851686 0 0 0
1720 1 38.436531683807715 6.051684482814273 1.4292304229165163 0 0 0
1722 4 38.43610225521765 8.06949060671929 0.029359874491309453 0 0 0
1893 1 36.68943564595415 9.077743586078272 1.4292304229165138 0 0 0
1899 1 40.18362772166115 9.077743586078274 1.4292304229165167 0 0 0
1895 4 36.68900621736407 11.095549709983292 0.029359874491308436 0 0 0
1901 4 40.18319829307107 11.09554970998329 0.029359874491307104 0 0 0
1718 3 36.69108000432056 7.058678916427476 2.8282009126851673 0 0 0
1724 3 40.185272080027566 7.058678916427477 2.82820091268517 0 0 0
1891 3 38.438176042173716 10.084738019691471 2.828200912685169 0 0 0
1726 1 41.930723759514706 6.051684482814272 1.4292304229165163 0 0 0
1732 1 45.424915835221704 6.051684482814272 1.4292304229165163 0 0 0
1728 4 41.93029433092464 8.069490606719288 0.029359874491308044 0 0 0
1734 4 45.424486406631644 8.06949060671929 0.02935987449130939 0 0 0
1905 1 43.677819797368144 9.077743586078272 1.4292304229165138 0 0 0
1911 1 47.17201187307515 9.077743586078274 1.4292304229165151 0 0 0
1907 4 43.67739036877806 11.095549709983292 0.029359874491308148 0 0 0
1913 4 47.17158244448507 11.095549709983292 0.029359874491308585 0 0 0
1730 3 43.67946415573456 7.058678916427476 2.8282009126851677 0 0 0
1736 3 47.17365623144156 7.058678916427476 2.8282009126851677 0 0 0
1897 3 41.93236811788071 10.084738019691473 2.8282009126851704 0 0 0
1903 3 45.42656019358771 10.084738019691471 2.828200912685168 0 0 0
1738 1 48.91910791092871 6.051684482814272 1.4292304229165163 0 0 0
1570 1 52.413299986635714 6.051684482814272 1.4292304229165165 -1 0 0
1740 4 48.91867848233865 8.06949060671929 0.029359874491310018 0 0 0
1572 4 52.41287055804565 8.069490606719288 0.029359874491308977 -1 0 0
1743 1 50.666203948782154 9.077743586078274 1.4292304229165163 -1 0 0
1745 4 50.66577452019207 11.09554970998329 0.029359874491308127 -1 0 0
1568 3 50.66784830714857 7.058678916427476 2.8282009126851686 -1 0 0
1909 3 48.92075226929472 10.084738019691471 2.828200912685169 0 0 0
1741 3 52.41494434500172 10.084738019691473 2.82820091268517 -1 0 0
1576 1 55.90749206234271 6.051684482814272 1.429230422916517 -1 0 0
1582 1 59.40168413804972 6.051684482814272 1.4292304229165158 -1 0 0
1578 4 55.907062633752645 8.06949060671929 0.029359874491309855 -1 0 0
1584 4 59.40125470945965 8.069490606719288 0.02935987449130909 -1 0 0
1749 1 54.16039602448915 9.077743586078274 1.4292304229165151 -1 0 0
1755 1 57.65458810019616 9.077743586078274 1.4292304229165158 -1 0 0
1751 4 54.15996659589907 11.09554970998329 0.029359874491307583 -1 0 0
1757 4 57.65415867160607 11.09554970998329 0.02935987449130767 -1 0 0
1574 3 54.162040382855565 7.058678916427477 2.8282009126851686 -1 0 0
1580 3 57.65623245856257 7.058678916427477 2.828200912685169 -1 0 0
1747 3 55.90913642070872 10.084738019691473 2.828200912685169 -1 0 0
1753 3 59.403328496415725 10.084738019691473 2.8282009126851695 -1 0 0
1588 1 62.895876213756715 6.051684482814272 1.4292304229165165 -1 0 0
1590 4 62.89544678516665 8.069490606719288 0.029359874491308682 -1 0 0
1761 1 61.148780175903156 9.077743586078272 1.4292304229165147 -1 0 0
1767 1 64.64297225161016 9.077743586078272 1.4292304229165143 -1 0 0
1763 4 61.148350747313074 11.095549709983292 0.029359874491308748 -1 0 0
1769 4 64.64254282302008 11.09554970998329 0.02935987449130775 -1 0 0
1586 3 61.15042453426957 7.058678916427476 2.8282009126851673 -1 0 0
1592 3 64.64461660997657 7.058678916427477 2.8282009126851686 -1 0 0
1759 3 62.89752057212272 10.084738019691473 2.8282009126851686 -1 0 0
1594 1 66.39006828946371 6.051684482814273 1.4292304229165163 -1 0 0
1600 1 69.88426036517072 6.051684482814272 1.4292304229165165 -1 0 0
1596 4 66.38963886087365 8.069490606719288 0.029359874491309182 -1 0 0
1602 4 69.88383093658065 8.069490606719288 0.02935987449130846 -1 0 0
1773 1 68.13716432731715 9.077743586078274 1.4292304229165171 -1 0 0
1775 4 68.13673489872707 11.09554970998329 0.02935987449130765 -1 0 0
1598 3 68.13880868568356 7.058678916427477 2.828200912685169 -1 0 0
1765 3 66.39171264782972 10.084738019691473 2.8282009126851695 -1 0 0
1771 3 69.88590472353673 10.084738019691473 2.82820091268517 -1 0 0
1606 1 73.37845244087772 6.051684482814272 1.4292304229165163 -1 0 0
1612 1 76.87264451658471 6.051684482814273 1.4292304229165163 -1 0 0
1608 4 73.37802301228764 8.069490606719288 0.02935987449130842 -1 0 0
1614 4 76.87221508799465 8.06949060671929 0.029359874491310417 -1 0 0
1779 1 71.63135640302416 9.077743586078272 1.4292304229165131 -1 0 0
1785 1 75.12554847873115 9.077743586078274 1.4292304229165151 -1 0 0
1781 4 71.63092697443408 11.095549709983292 0.029359874491308564 -1 0 0
1787 4 75.12511905014108 11.09554970998329 0.029359874491307697 -1 0 0
1604 3 71.63300076139056 7.058678916427476 2.828200912685167 -1 0 0
1610 3 75.12719283709757 7.058678916427477 2.8282009126851686 -1 0 0
1777 3 73.38009679924372 10.084738019691471 2.8282009126851695 -1 0 0
1783 3 76.87428887495072 10.084738019691471 2.828200912685169 -1 0 0
1618 1 80.36683659229172 6.051684482814272 1.4292304229165165 -1 0 0
1620 4 80.36640716370165 8.069490606719288 0.02935987449130846 -1 0 0
1791 1 78.61974055443815 9.077743586078274 1.4292304229165171 -1 0 0
1797 1 82.11393263014516 9.077743586078272 1.4292304229165131 -1 0 0
1793 4 78.61931112584807 11.09554970998329 0.02935987449130765 -1 0 0
1799 4 82.11350320155508 11.095549709983292 0.029359874491308564 -1 0 0
1616 3 78.62138491280456 7.058678916427477 2.828200912685169 -1 0 0
1622 3 82.11557698851156 7.058678916427476 2.828200912685167 -1 0 0
1789 3 80.36848095065773 10.084738019691473 2.82820091268517 -1 0 0
1624 1 83.86102866799872 6.051684482814272 1.4292304229165163 -1 0 0
1630 1 87.35522074370571 6.051684482814273 1.4292304229165163 -1 0 0
1626 4 83.86059923940864 8.069490606719288 0.029359874491308426 -1 0 0
1632 4 87.35479131511565 8.06949060671929 0.02935987449131041 -1 0 0
1803 1 85.60812470585215 9.077743586078274 1.4292304229165151 -1 0 0
1809 1 89.10231678155915 9.077743586078274 1.4292304229165171 -1 0 0
1805 4 85.60769527726208 11.09554970998329 0.029359874491307694 -1 0 0
1811 4 89.10188735296907 11.09554970998329 0.02935987449130775 -1 0 0
1628 3 85.60976906421857 7.058678916427477 2.8282009126851686 -1 0 0
1634 3 89.10396113992556 7.058678916427477 2.828200912685169 -1 0 0
1795 3 83.86267302636472 10.084738019691471 2.8282009126851695 -1 0 0
1801 3 87.35686510207172 10.084738019691473 2.828200912685169 -1 0 0
1636 1 90.84941281941272 6.051684482814272 1.4292304229165165 -1 0 0
1642 1 94.34360489511971 6.051684482814272 1.4292304229165165 -1 0 0
1638 4 90.84898339082264 8.069490606719288 0.029359874491308148 -1 0 0
1644 4 94.34317546652964 8.06949060671929 0.029359874491309463 -1 0 0
1815 1 92.59650885726614 9.077743586078274 1.4292304229165151 -1 0 0
1817 4 92.59607942867606 11.09554970998329 0.029359874491306424 -1 0 0
1640 3 92.59815321563255 7.058678916427477 2.82820091268517 -1 0 0
1807 3 90.85105717777873 10.084738019691475 2.8282009126851713 -1 0 0
1813 3 94.34524925348572 10.084738019691471 2.828200912685168 -1 0 0
1656 4 101.33155961794365 8.069490606719288 0.029359874491308387 -1 0 0
1648 1 97.83779697082672 6.051684482814273 1.4292304229165165 -1 0 0
1650 4 97.83736754223665 8.06949060671929 0.029359874491309675 -1 0 0
1821 1 96.09070093297315 9.077743586078272 1.4292304229165134 -1 0 0
1827 1 99.58489300868015 9.077743586078274 1.4292304229165171 -1 0 0
1823 4 96.09027150438307 11.095549709983292 0.029359874491309914 -1 0 0
1829 4 99.58446358009007 11.09554970998329 0.02935987449130761 -1 0 0
1646 3 96.09234529133956 7.058678916427475 2.828200912685166 -1 0 0
1652 3 99.58653736704656 7.058678916427477 2.828200912685169 -1 0 0
1819 3 97.83944132919272 10.084738019691473 2.8282009126851686 -1 0 0
1828 1 0.00041885103071059626 12.10380268934227 1.4292304229165158 0 0 0
1834 1 3.4946109267377095 12.10380268934227 1.4292304229165158 0 0 0
1836 4 3.4941814981476433 14.121608813247288 0.02935987449130875 0 0 0
2007 1 1.747514888884151 15.12986179260627 1.429230422916516 0 0 0
2013 1 5.2417069645911525 15.12986179260627 1.4292304229165151 0 0 0
1832 3 1.7491592472505584 13.110797122955471 2.8282009126851695 0 0 0
1838 3 5.243351322957561 13.110797122955471 2.828200912685169 0 0 0
2005 3 3.4962552851037203 16.13685622621947 2.828200912685168 0 0 0
1999 3 0.002063209396723664 16.136856226219475 2.82820091268517 0 0 0
2009 4 1.747085460294067 17.14766791651129 0.02935987449130909 0 0 0
2015 4 5.2412775360010695 17.14766791651129 0.029359874491309976 0 0 0
1840 1 6.988803002444711 12.10380268934227 1.4292304229165158 0 0 0
1846 1 10.48299507815171 12.10380268934227 1.4292304229165158 0 0 0
1842 4 6.988373573854647 14.121608813247287 0.02935987449130784 0 0 0
1848 4 10.482565649561645 14.121608813247287 0.02935987449130847 0 0 0
2019 1 8.735899040298152 15.12986179260627 1.4292304229165158 0 0 0
1844 3 8.737543398664561 13.110797122955471 2.8282009126851695 0 0 0
2011 3 6.99044736081072 16.13685622621947 2.828200912685169 0 0 0
2017 3 10.484639436517718 16.13685622621947 2.8282009126851695 0 0 0
2021 4 8.73546961170807 17.14766791651129 0.029359874491309085 0 0 0
1852 1 13.977187153858708 12.10380268934227 1.4292304229165158 0 0 0
1858 1 17.47137922956571 12.10380268934227 1.4292304229165158 0 0 0
1854 4 13.976757725268643 14.121608813247287 0.029359874491307888 0 0 0
1860 4 17.470949800975646 14.121608813247288 0.029359874491308977 0 0 0
2025 1 12.23009111600515 15.12986179260627 1.4292304229165165 0 0 0
2031 1 15.72428319171215 15.12986179260627 1.4292304229165145 0 0 0
1850 3 12.23173547437156 13.110797122955471 2.82820091268517 0 0 0
1856 3 15.72592755007856 13.110797122955471 2.828200912685168 0 0 0
2023 3 13.978831512224719 16.13685622621947 2.828200912685169 0 0 0
2029 3 17.473023587931717 16.13685622621947 2.828200912685168 0 0 0
2027 4 12.229661687415067 17.14766791651129 0.02935987449130933 0 0 0
2033 4 15.723853763122067 17.14766791651129 0.02935987449130979 0 0 0
1864 1 20.96557130527271 12.10380268934227 1.4292304229165158 0 0 0
1866 4 20.965141876682644 14.121608813247288 0.02935987449130946 0 0 0
2037 1 19.21847526741915 15.12986179260627 1.4292304229165174 0 0 0
2043 1 22.712667343126153 15.12986179260627 1.429230422916516 0 0 0
1862 3 19.22011962578556 13.110797122955473 2.828200912685171 0 0 0
1868 3 22.714311701492562 13.110797122955471 2.828200912685169 0 0 0
2035 3 20.967215663638722 16.13685622621947 2.8282009126851686 0 0 0
2039 4 19.218045838829067 17.14766791651129 0.029359874491308932 0 0 0
2045 4 22.71223791453607 17.14766791651129 0.029359874491309897 0 0 0
1870 1 24.459763380979712 12.10380268934227 1.4292304229165156 0 0 0
1876 1 27.95395545668671 12.103802689342272 1.429230422916516 0 0 0
1872 4 24.459333952389645 14.121608813247287 0.029359874491307114 0 0 0
1878 4 27.953526028096647 14.121608813247288 0.02935987449130894 0 0 0
2049 1 26.20685941883315 15.12986179260627 1.4292304229165145 0 0 0
2055 1 29.701051494540152 15.12986179260627 1.4292304229165174 0 0 0
1874 3 26.20850377719956 13.110797122955471 2.8282009126851686 0 0 0
1880 3 29.70269585290656 13.110797122955473 2.828200912685171 0 0 0
2041 3 24.461407739345724 16.136856226219475 2.828200912685169 0 0 0
2047 3 27.955599815052718 16.13685622621947 2.828200912685168 0 0 0
2051 4 26.20642999024307 17.14766791651129 0.029359874491309768 0 0 0
2057 4 29.700622065950068 17.14766791651129 0.02935987449130868 0 0 0
1882 1 31.44814753239371 12.10380268934227 1.4292304229165154 0 0 0
1888 1 34.9423396081007 12.10380268934227 1.4292304229165158 0 0 0
1884 4 31.44771810380364 14.121608813247287 0.029359874491307964 0 0 0
1890 4 34.94191017951064 14.121608813247288 0.02935987449130832 0 0 0
2061 1 33.19524357024715 15.12986179260627 1.429230422916516 0 0 0
1886 3 33.196887928613556 13.110797122955471 2.8282009126851686 0 0 0
2053 3 31.44979189075972 16.136856226219475 2.8282009126851704 0 0 0
2059 3 34.94398396646672 16.13685622621947 2.828200912685168 0 0 0
2063 4 33.19481414165706 17.14766791651129 0.029359874491309924 0 0 0
1894 1 38.436531683807715 12.10380268934227 1.4292304229165158 0 0 0
1896 4 38.43610225521765 14.121608813247288 0.029359874491308852 0 0 0
2067 1 36.68943564595415 15.12986179260627 1.4292304229165145 0 0 0
2073 1 40.18362772166115 15.12986179260627 1.4292304229165176 0 0 0
1892 3 36.69108000432056 13.110797122955471 2.828200912685168 0 0 0
1898 3 40.185272080027566 13.110797122955473 2.828200912685171 0 0 0
2065 3 38.438176042173716 16.13685622621947 2.828200912685168 0 0 0
2069 4 36.68900621736407 17.14766791651129 0.029359874491310032 0 0 0
2075 4 40.18319829307107 17.14766791651129 0.02935987449130864 0 0 0
1900 1 41.930723759514706 12.10380268934227 1.4292304229165158 0 0 0
1906 1 45.424915835221704 12.10380268934227 1.4292304229165158 0 0 0
1902 4 41.93029433092464 14.121608813247287 0.02935987449130739 0 0 0
1908 4 45.424486406631644 14.121608813247288 0.02935987449130879 0 0 0
2079 1 43.677819797368144 15.12986179260627 1.4292304229165145 0 0 0
2085 1 47.17201187307515 15.12986179260627 1.429230422916516 0 0 0
1904 3 43.67946415573456 13.110797122955471 2.8282009126851686 0 0 0
1910 3 47.17365623144156 13.110797122955471 2.8282009126851686 0 0 0
2071 3 41.93236811788071 16.136856226219475 2.82820091268517 0 0 0
2077 3 45.42656019358771 16.13685622621947 2.8282009126851673 0 0 0
2081 4 43.67739036877806 17.14766791651129 0.029359874491309765 0 0 0
2087 4 47.17158244448507 17.14766791651129 0.029359874491310153 0 0 0
1912 1 48.91910791092871 12.10380268934227 1.4292304229165156 0 0 0
1744 1 52.413299986635714 12.10380268934227 1.4292304229165156 -1 0 0
1914 4 48.91867848233865 14.121608813247288 0.029359874491309418 0 0 0
1746 4 52.41287055804565 14.121608813247287 0.029359874491308256 -1 0 0
1917 1 50.666203948782154 15.12986179260627 1.4292304229165167 -1 0 0
1742 3 50.66784830714857 13.110797122955471 2.828200912685169 -1 0 0
2083 3 48.92075226929472 16.13685622621947 2.828200912685168 0 0 0
1915 3 52.41494434500172 16.13685622621947 2.8282009126851695 -1 0 0
1919 4 50.66577452019207 17.14766791651129 0.02935987449130962 -1 0 0
1750 1 55.90749206234271 12.10380268934227 1.4292304229165163 -1 0 0
1756 1 59.40168413804972 12.10380268934227 1.4292304229165151 -1 0 0
1752 4 55.907062633752645 14.121608813247288 0.02935987449130914 -1 0 0
1758 4 59.40125470945965 14.121608813247287 0.029359874491308495 -1 0 0
1923 1 54.16039602448915 15.12986179260627 1.4292304229165158 -1 0 0
1929 1 57.65458810019616 15.12986179260627 1.4292304229165163 -1 0 0
1748 3 54.162040382855565 13.110797122955471 2.8282009126851695 -1 0 0
1754 3 57.65623245856257 13.110797122955471 2.82820091268517 -1 0 0
1921 3 55.90913642070872 16.13685622621947 2.8282009126851686 -1 0 0
1927 3 59.403328496415725 16.13685622621947 2.8282009126851686 -1 0 0
1925 4 54.15996659589907 17.14766791651129 0.029359874491309043 -1 0 0
1931 4 57.65415867160607 17.14766791651129 0.029359874491309154 -1 0 0
1762 1 62.895876213756715 12.10380268934227 1.4292304229165158 -1 0 0
1764 4 62.89544678516665 14.121608813247287 0.02935987449130805 -1 0 0
1935 1 61.148780175903156 15.12986179260627 1.4292304229165151 -1 0 0
1941 1 64.64297225161016 15.12986179260627 1.429230422916515 -1 0 0
1760 3 61.15042453426957 13.110797122955471 2.828200912685168 -1 0 0