LAMMPS data file via write_data, version 29 Aug 2024, timestep = 2, units = metal

8874 atoms
9 atom types

0 101.331570195503 xlo xhi
0 102.886009510976 ylo yhi
-50 50 zlo zhi

Masses

1 54.938044
2 54.938044
3 54.938044
4 78.971
5 78.971
6 78.971
7 78.971
8 78.971
9 78.971

Atoms # atomic

1659 1 1.7475213433291077 3.025618142607892 1.4291925906893759 0 0 0
1488 5 3.49418153414886 2.017372394907349 0.029182178967210697 0 0 0
1665 1 5.241713419036109 3.025618142607891 1.429192590689375 0 0 0
1661 5 1.7470854962952815 5.04343149817135 0.029182178967209402 0 0 0
1667 5 5.241277572002284 5.04343149817135 0.029182178967210173 0 0 0
1484 4 1.7491447386526768 1.006574271043146 2.8285107106872456 0 0 0
1490 4 5.2433368143596795 1.0065742710431458 2.8285107106872447 0 0 0
1657 4 3.4962407765058394 4.032633374307142 2.828510710687245 0 0 0
1651 4 0.002048700798837899 4.032633374307143 2.8285107106872482 0 0 0
1494 5 6.988373609855864 2.0173723949073485 0.02918217896720991 0 0 0
1671 1 8.735905494743108 3.0256181426078914 1.4291925906893757 0 0 0
1500 5 10.48256568556286 2.0173723949073485 0.029182178967210433 0 0 0
1673 5 8.735469647709284 5.04343149817135 0.02918217896720942 0 0 0
1496 4 8.73752889006668 1.006574271043146 2.8285107106872456 0 0 0
1663 4 6.990432852212839 4.032633374307143 2.8285107106872465 0 0 0
1669 4 10.484624927919837 4.032633374307143 2.8285107106872465 0 0 0
1677 1 12.230097570450107 3.025618142607892 1.4291925906893763 0 0 0
1506 5 13.976757761269859 2.0173723949073485 0.02918217896720994 0 0 0
1683 1 15.724289646157107 3.025618142607891 1.4291925906893743 0 0 0
1512 5 17.47094983697686 2.017372394907349 0.029182178967210665 0 0 0
1679 5 12.229661723416282 5.04343149817135 0.02918217896720944 0 0 0
1685 5 15.723853799123281 5.043431498171351 0.029182178967209923 0 0 0
1502 4 12.231720965773677 1.006574271043146 2.8285107106872456 0 0 0
1508 4 15.725913041480677 1.006574271043146 2.8285107106872442 0 0 0
1675 4 13.978817003626839 4.032633374307143 2.828510710687246 0 0 0
1681 4 17.473009079333835 4.032633374307142 2.828510710687246 0 0 0
1689 1 19.218481721864105 3.0256181426078923 1.4291925906893768 0 0 0
1518 5 20.965141912683862 2.0173723949073494 0.029182178967211498 0 0 0
1695 1 22.71267379757111 3.0256181426078914 1.4291925906893759 0 0 0
1691 5 19.218045874830285 5.04343149817135 0.02918217896720924 0 0 0
1697 5 22.712237950537286 5.04343149817135 0.0291821789672101 0 0 0
1514 4 19.22010511718768 1.0065742710431462 2.828510710687246 0 0 0
1520 4 22.71429719289468 1.0065742710431456 2.8285107106872447 0 0 0
1687 4 20.967201155040836 4.032633374307142 2.8285107106872456 0 0 0
1524 5 24.45933398839086 2.0173723949073477 0.029182178967208837 0 0 0
1701 1 26.206865873278108 3.025618142607891 1.429192590689374 0 0 0
1530 5 27.95352606409786 2.017372394907349 0.029182178967210735 0 0 0
1707 1 29.701057948985106 3.0256181426078923 1.429192590689377 0 0 0
1703 5 26.206430026244284 5.04343149817135 0.0291821789672099 0 0 0
1709 5 29.700622101951282 5.0434314981713495 0.02918217896720899 0 0 0
1526 4 26.208489268601678 1.0065742710431458 2.8285107106872442 0 0 0
1532 4 29.70268134430868 1.0065742710431462 2.8285107106872465 0 0 0
1693 4 24.46139323074784 4.032633374307143 2.828510710687247 0 0 0
1699 4 27.955585306454836 4.032633374307142 2.828510710687246 0 0 0
1536 5 31.447718139804856 2.017372394907348 0.02918217896720973 0 0 0
1713 1 33.19525002469211 3.0256181426078914 1.4291925906893754 0 0 0
1542 5 34.94191021551186 2.017372394907349 0.029182178967210797 0 0 0
1715 5 33.19481417765827 5.04343149817135 0.029182178967210416 0 0 0
1538 4 33.19687342001568 1.0065742710431453 2.8285107106872442 0 0 0
1705 4 31.449777382161837 4.032633374307143 2.828510710687248 0 0 0
1711 4 34.94396945786884 4.032633374307142 2.828510710687245 0 0 0
1719 1 36.689442100399106 3.025618142607891 1.4291925906893743 0 0 0
1548 5 38.436102291218866 2.017372394907349 0.029182178967210655 0 0 0
1725 1 40.18363417610611 3.0256181426078923 1.429192590689377 0 0 0
1721 5 36.68900625336528 5.043431498171351 0.029182178967210207 0 0 0
1727 5 40.18319832907228 5.0434314981713495 0.029182178967208948 0 0 0
1544 4 36.69106549572268 1.0065742710431458 2.828510710687244 0 0 0
1550 4 40.18525757142968 1.0065742710431462 2.828510710687246 0 0 0
1717 4 38.43816153357584 4.032633374307142 2.828510710687246 0 0 0
1554 5 41.930294366925864 2.0173723949073477 0.029182178967209378 0 0 0
1731 1 43.67782625181311 3.025618142607891 1.429192590689374 0 0 0
1560 5 45.42448644263286 2.017372394907349 0.02918217896721082 0 0 0
1737 1 47.17201832752011 3.0256181426078914 1.4291925906893754 0 0 0
1733 5 43.67739040477928 5.04343149817135 0.029182178967209947 0 0 0
1739 5 47.17158248048628 5.043431498171351 0.029182178967210454 0 0 0
1556 4 43.67944964713668 1.0065742710431458 2.828510710687244 0 0 0
1562 4 47.17364172284368 1.0065742710431453 2.8285107106872442 0 0 0
1723 4 41.93235360928284 4.032633374307143 2.8285107106872474 0 0 0
1729 4 45.42654568498983 4.032633374307142 2.8285107106872447 0 0 0
1566 5 48.91867851833987 2.017372394907349 0.029182178967210922 0 0 0
1569 1 50.66621040322711 3.0256181426078923 1.4291925906893763 -1 0 0
1398 5 52.412870594046865 2.017372394907349 0.029182178967210797 -1 0 0
1571 5 50.665774556193284 5.04343149817135 0.02918217896720946 -1 0 0
1394 4 50.66783379855068 1.0065742710431458 2.8285107106872456 -1 0 0
1735 4 48.92073776069684 4.032633374307142 2.828510710687246 0 0 0
1567 4 52.41492983640384 4.032633374307143 2.828510710687246 -1 0 0
1575 1 54.16040247893411 3.0256181426078914 1.429192590689375 -1 0 0
1404 5 55.90706266975387 2.017372394907349 0.029182178967210905 -1 0 0
1581 1 57.654594554641115 3.025618142607892 1.4291925906893765 -1 0 0
1410 5 59.40125474546087 2.0173723949073485 0.029182178967209968 -1 0 0
1577 5 54.15996663190028 5.043431498171351 0.029182178967209794 -1 0 0
1583 5 57.65415870760729 5.04343149817135 0.029182178967209364 -1 0 0
1400 4 54.16202587425768 1.0065742710431458 2.828510710687245 -1 0 0
1406 4 57.656217949964685 1.0065742710431458 2.8285107106872456 -1 0 0
1573 4 55.90912191211084 4.032633374307142 2.828510710687246 -1 0 0
1579 4 59.403313987817846 4.032633374307143 2.8285107106872465 -1 0 0
1587 1 61.14878663034811 3.0256181426078914 1.429192590689375 -1 0 0
1416 5 62.895446821167866 2.0173723949073485 0.02918217896721018 -1 0 0
1593 1 64.64297870605512 3.0256181426078914 1.4291925906893752 -1 0 0
1589 5 61.148350783314285 5.04343149817135 0.029182178967210048 -1 0 0
1595 5 64.64254285902129 5.04343149817135 0.0291821789672099 -1 0 0
1412 4 61.15041002567168 1.0065742710431456 2.8285107106872442 -1 0 0
1418 4 64.64460210137868 1.0065742710431456 2.8285107106872447 -1 0 0
1585 4 62.897506063524844 4.032633374307143 2.8285107106872456 -1 0 0
1422 5 66.38963889687487 2.0173723949073494 0.029182178967211495 -1 0 0
1599 1 68.13717078176212 3.025618142607892 1.4291925906893763 -1 0 0
1428 5 69.88383097258186 2.0173723949073477 0.029182178967208882 -1 0 0
1601 5 68.1367349347283 5.04343149817135 0.029182178967209548 -1 0 0
1424 4 68.13879417708569 1.006574271043146 2.828510710687246 -1 0 0
1591 4 66.39169813923185 4.032633374307142 2.8285107106872456 -1 0 0
1597 4 69.88589021493884 4.032633374307143 2.828510710687248 -1 0 0
1605 1 71.63136285746911 3.025618142607891 1.4291925906893748 -1 0 0
1434 5 73.37802304828887 2.017372394907349 0.02918217896721078 -1 0 0
1611 1 75.12555493317612 3.025618142607892 1.4291925906893757 -1 0 0
1440 5 76.87221512399587 2.0173723949073494 0.029182178967211606 -1 0 0
1607 5 71.63092701043529 5.04343149817135 0.0291821789672094 -1 0 0
1613 5 75.12511908614229 5.043431498171351 0.029182178967210457 -1 0 0
1430 4 71.63298625279268 1.0065742710431458 2.8285107106872447 -1 0 0
1436 4 75.12717832849968 1.0065742710431453 2.8285107106872442 -1 0 0
1603 4 73.38008229064584 4.032633374307142 2.828510710687245 -1 0 0
1609 4 76.87427436635285 4.032633374307142 2.8285107106872456 -1 0 0
1617 1 78.61974700888312 3.025618142607892 1.4291925906893763 -1 0 0
1446 5 80.36640719970286 2.0173723949073477 0.029182178967208885 -1 0 0
1623 1 82.11393908459011 3.025618142607891 1.4291925906893745 -1 0 0
1619 5 78.6193111618493 5.04343149817135 0.02918217896720955 -1 0 0
1625 5 82.11350323755629 5.04343149817135 0.0291821789672094 -1 0 0
1442 4 78.62137040420669 1.006574271043146 2.828510710687246 -1 0 0
1448 4 82.11556247991368 1.0065742710431458 2.8285107106872447 -1 0 0
1615 4 80.36846644205984 4.032633374307143 2.828510710687248 -1 0 0
1452 5 83.86059927540987 2.017372394907349 0.02918217896721078 -1 0 0
1629 1 85.60813116029712 3.0256181426078914 1.4291925906893757 -1 0 0
1458 5 87.35479135111687 2.0173723949073494 0.02918217896721159 -1 0 0
1635 1 89.10232323600412 3.025618142607892 1.4291925906893763 -1 0 0
1631 5 85.60769531326329 5.043431498171351 0.029182178967210457 -1 0 0
1637 5 89.1018873889703 5.04343149817135 0.029182178967209572 -1 0 0
1454 4 85.60975455562068 1.0065742710431453 2.8285107106872447 -1 0 0
1460 4 89.10394663132769 1.006574271043146 2.828510710687246 -1 0 0
1621 4 83.86265851776685 4.032633374307142 2.8285107106872447 -1 0 0
1627 4 87.35685059347385 4.032633374307142 2.8285107106872456 -1 0 0
1464 5 90.84898342682386 2.017372394907348 0.02918217896720938 -1 0 0
1641 1 92.59651531171112 3.025618142607892 1.4291925906893765 -1 0 0
1470 5 94.34317550253085 2.017372394907349 0.029182178967210735 -1 0 0
1643 5 92.59607946467729 5.0434314981713495 0.029182178967208233 -1 0 0
1466 4 92.59813870703468 1.0065742710431467 2.8285107106872465 -1 0 0
1633 4 90.85104266918084 4.032633374307144 2.8285107106872482 -1 0 0
1639 4 94.34523474488785 4.032633374307142 2.8285107106872447 -1 0 0
1482 5 101.33155965394486 2.017372394907348 0.029182178967209083 -1 0 0
1647 1 96.09070738741812 3.0256181426078905 1.4291925906893737 -1 0 0
1476 5 97.83736757823787 2.017372394907349 0.029182178967211116 -1 0 0
1653 1 99.58489946312513 3.0256181426078923 1.4291925906893763 -1 0 0
1649 5 96.0902715403843 5.043431498171352 0.02918217896721164 -1 0 0
1655 5 99.5844636160913 5.04343149817135 0.029182178967209486 -1 0 0
1472 4 96.09233078274168 1.006574271043145 2.828510710687243 -1 0 0
1478 4 99.58652285844869 1.006574271043146 2.828510710687246 -1 0 0
1645 4 97.83942682059485 4.032633374307142 2.8285107106872456 -1 0 0
1654 1 0.00042530547567128676 6.051677245871891 1.4291925906893768 0 0 0
1660 1 3.49461738118267 6.051677245871891 1.4291925906893763 0 0 0
1662 5 3.49418153414886 8.06949060143535 0.02918217896721067 0 0 0
1833 1 1.7475213433291077 9.077736349135892 1.4291925906893759 0 0 0
1839 1 5.241713419036109 9.077736349135892 1.4291925906893748 0 0 0
1835 5 1.7470854962952815 11.09554970469935 0.029182178967208896 0 0 0
1841 5 5.241277572002284 11.095549704699351 0.02918217896720958 0 0 0
1658 4 1.7491447386526768 7.058692477571146 2.8285107106872456 0 0 0
1664 4 5.2433368143596795 7.058692477571146 2.8285107106872447 0 0 0
1831 4 3.4962407765058394 10.084751580835142 2.828510710687245 0 0 0
1825 4 0.002048700798837899 10.084751580835144 2.828510710687248 0 0 0
1666 1 6.988809456889672 6.051677245871891 1.4291925906893768 0 0 0
1672 1 10.48300153259667 6.051677245871891 1.4291925906893765 0 0 0
1668 5 6.988373609855863 8.069490601435348 0.0291821789672098 0 0 0
1674 5 10.48256568556286 8.069490601435348 0.02918217896721045 0 0 0
1845 1 8.735905494743108 9.077736349135892 1.4291925906893757 0 0 0
1847 5 8.735469647709284 11.09554970469935 0.02918217896720891 0 0 0
1670 4 8.73752889006668 7.058692477571147 2.8285107106872456 0 0 0
1837 4 6.990432852212839 10.084751580835142 2.828510710687246 0 0 0
1843 4 10.484624927919837 10.084751580835142 2.8285107106872465 0 0 0
1678 1 13.977193608303669 6.051677245871891 1.4291925906893765 0 0 0
1684 1 17.47138568401067 6.051677245871891 1.4291925906893768 0 0 0
1680 5 13.976757761269859 8.069490601435348 0.029182178967209916 0 0 0
1686 5 17.47094983697686 8.06949060143535 0.02918217896721067 0 0 0
1851 1 12.230097570450107 9.077736349135892 1.4291925906893763 0 0 0
1857 1 15.724289646157107 9.077736349135892 1.429192590689374 0 0 0
1853 5 12.229661723416282 11.09554970469935 0.029182178967208802 0 0 0
1859 5 15.723853799123281 11.095549704699351 0.02918217896720933 0 0 0
1676 4 12.231720965773677 7.058692477571146 2.8285107106872456 0 0 0
1682 4 15.725913041480677 7.058692477571146 2.8285107106872442 0 0 0
1849 4 13.978817003626839 10.084751580835142 2.828510710687246 0 0 0
1855 4 17.473009079333835 10.084751580835142 2.8285107106872456 0 0 0
1690 1 20.96557775971767 6.051677245871891 1.4291925906893763 0 0 0
1692 5 20.965141912683862 8.06949060143535 0.0291821789672115 0 0 0
1863 1 19.218481721864105 9.077736349135893 1.4291925906893768 0 0 0
1869 1 22.71267379757111 9.077736349135892 1.4291925906893757 0 0 0
1865 5 19.218045874830285 11.09554970469935 0.029182178967208598 0 0 0
1871 5 22.712237950537286 11.095549704699351 0.029182178967209593 0 0 0
1688 4 19.22010511718768 7.058692477571146 2.828510710687246 0 0 0
1694 4 22.71429719289468 7.058692477571146 2.8285107106872447 0 0 0
1861 4 20.967201155040836 10.084751580835142 2.8285107106872456 0 0 0
1696 1 24.459769835424673 6.051677245871891 1.4291925906893763 0 0 0
1702 1 27.95396191113167 6.051677245871891 1.429192590689377 0 0 0
1698 5 24.45933398839086 8.069490601435348 0.02918217896720878 0 0 0
1704 5 27.95352606409786 8.06949060143535 0.029182178967210724 0 0 0
1875 1 26.206865873278108 9.077736349135892 1.429192590689374 0 0 0
1881 1 29.701057948985106 9.077736349135893 1.4291925906893768 0 0 0
1877 5 26.206430026244284 11.095549704699351 0.0291821789672093 0 0 0
1883 5 29.700622101951282 11.09554970469935 0.02918217896720827 0 0 0
1700 4 26.208489268601678 7.058692477571146 2.8285107106872442 0 0 0
1706 4 29.70268134430868 7.058692477571147 2.8285107106872465 0 0 0
1867 4 24.46139323074784 10.084751580835142 2.8285107106872465 0 0 0
1873 4 27.955585306454836 10.084751580835142 2.8285107106872456 0 0 0
1708 1 31.44815398683867 6.051677245871891 1.4291925906893768 0 0 0
1714 1 34.94234606254567 6.051677245871891 1.4291925906893765 0 0 0
1710 5 31.447718139804856 8.069490601435348 0.02918217896720967 0 0 0
1716 5 34.94191021551186 8.06949060143535 0.029182178967210686 0 0 0
1887 1 33.19525002469211 9.077736349135892 1.429192590689375 0 0 0
1889 5 33.19481417765827 11.095549704699351 0.029182178967209847 0 0 0
1712 4 33.19687342001568 7.058692477571146 2.8285107106872442 0 0 0
1879 4 31.449777382161837 10.084751580835144 2.8285107106872474 0 0 0
1885 4 34.94396945786884 10.08475158083514 2.8285107106872447 0 0 0
1720 1 38.43653813825267 6.051677245871891 1.429192590689376 0 0 0
1722 5 38.436102291218866 8.06949060143535 0.02918217896721064 0 0 0
1893 1 36.689442100399106 9.077736349135892 1.429192590689374 0 0 0
1899 1 40.18363417610611 9.077736349135893 1.429192590689377 0 0 0
1895 5 36.68900625336528 11.095549704699351 0.029182178967209618 0 0 0
1901 5 40.18319832907228 11.09554970469935 0.02918217896720829 0 0 0
1718 4 36.69106549572268 7.058692477571146 2.828510710687244 0 0 0
1724 4 40.18525757142968 7.058692477571147 2.828510710687246 0 0 0
1891 4 38.43816153357584 10.084751580835142 2.8285107106872456 0 0 0
1726 1 41.93073021395967 6.051677245871891 1.429192590689377 0 0 0
1732 1 45.42492228966667 6.051677245871891 1.4291925906893765 0 0 0
1728 5 41.930294366925864 8.069490601435348 0.029182178967209302 0 0 0
1734 5 45.42448644263286 8.06949060143535 0.029182178967210756 0 0 0
1905 1 43.67782625181311 9.077736349135892 1.4291925906893739 0 0 0
1911 1 47.17201832752011 9.077736349135892 1.4291925906893754 0 0 0
1907 5 43.67739040477928 11.095549704699351 0.029182178967209347 0 0 0
1913 5 47.17158248048628 11.095549704699351 0.029182178967209902 0 0 0
1730 4 43.67944964713668 7.058692477571146 2.828510710687244 0 0 0
1736 4 47.17364172284368 7.058692477571145 2.8285107106872442 0 0 0
1897 4 41.93235360928284 10.084751580835142 2.828510710687247 0 0 0
1903 4 45.42654568498983 10.08475158083514 2.8285107106872447 0 0 0
1738 1 48.91911436537367 6.051677245871891 1.429192590689376 0 0 0
1570 1 52.41330644108067 6.051677245871891 1.4291925906893765 -1 0 0
1740 5 48.91867851833987 8.06949060143535 0.029182178967210783 0 0 0
1572 5 52.412870594046865 8.069490601435348 0.02918217896721064 -1 0 0
1743 1 50.66621040322711 9.077736349135892 1.4291925906893763 -1 0 0
1745 5 50.665774556193284 11.09554970469935 0.029182178967208903 -1 0 0
1568 4 50.66783379855068 7.058692477571146 2.8285107106872456 -1 0 0
1909 4 48.92073776069684 10.084751580835142 2.8285107106872456 0 0 0
1741 4 52.41492983640384 10.084751580835142 2.828510710687246 -1 0 0
1576 1 55.907498516787676 6.051677245871891 1.4291925906893765 -1 0 0
1582 1 59.401690592494674 6.051677245871891 1.4291925906893765 -1 0 0
1578 5 55.90706266975387 8.06949060143535 0.02918217896721086 -1 0 0
1584 5 59.40125474546087 8.069490601435348 0.029182178967209964 -1 0 0
1749 1 54.16040247893411 9.077736349135892 1.429192590689375 -1 0 0
1755 1 57.654594554641115 9.077736349135893 1.4291925906893765 -1 0 0
1751 5 54.15996663190028 11.09554970469935 0.0291821789672092 -1 0 0
1757 5 57.65415870760729 11.09554970469935 0.02918217896720881 -1 0 0
1574 4 54.16202587425768 7.058692477571146 2.8285107106872447 -1 0 0
1580 4 57.656217949964685 7.058692477571147 2.8285107106872456 -1 0 0
1747 4 55.90912191211084 10.084751580835142 2.8285107106872456 -1 0 0
1753 4 59.403313987817846 10.084751580835142 2.8285107106872465 -1 0 0
1588 1 62.89588266820167 6.051677245871891 1.4291925906893765 -1 0 0
1590 5 62.895446821167866 8.069490601435348 0.02918217896721006 -1 0 0
1761 1 61.14878663034811 9.077736349135892 1.429192590689375 -1 0 0
1767 1 64.64297870605512 9.077736349135892 1.429192590689375 -1 0 0
1763 5 61.148350783314285 11.095549704699351 0.02918217896720949 -1 0 0
1769 5 64.64254285902129 11.095549704699351 0.029182178967209333 -1 0 0
1586 4 61.15041002567168 7.058692477571146 2.8285107106872442 -1 0 0
1592 4 64.64460210137868 7.058692477571146 2.8285107106872447 -1 0 0
1759 4 62.897506063524844 10.084751580835142 2.828510710687245 -1 0 0
1594 1 66.39007474390867 6.051677245871891 1.4291925906893765 -1 0 0
1600 1 69.88426681961568 6.051677245871891 1.4291925906893765 -1 0 0
1596 5 66.38963889687487 8.06949060143535 0.029182178967211453 -1 0 0
1602 5 69.88383097258186 8.069490601435348 0.029182178967208813 -1 0 0
1773 1 68.13717078176212 9.077736349135892 1.4291925906893763 -1 0 0
1775 5 68.1367349347283 11.09554970469935 0.02918217896720884 -1 0 0
1598 4 68.13879417708569 7.058692477571146 2.828510710687246 -1 0 0
1765 4 66.39169813923185 10.084751580835142 2.828510710687245 -1 0 0
1771 4 69.88589021493884 10.084751580835144 2.828510710687248 -1 0 0
1606 1 73.37845889532267 6.051677245871891 1.4291925906893765 -1 0 0
1612 1 76.87265097102967 6.051677245871891 1.4291925906893765 -1 0 0
1608 5 73.37802304828887 8.06949060143535 0.029182178967210717 -1 0 0
1614 5 76.87221512399587 8.06949060143535 0.029182178967211547 -1 0 0
1779 1 71.63136285746911 9.077736349135892 1.4291925906893745 -1 0 0
1785 1 75.12555493317612 9.077736349135892 1.4291925906893752 -1 0 0
1781 5 71.63092701043529 11.095549704699351 0.029182178967208802 -1 0 0
1787 5 75.12511908614229 11.095549704699351 0.029182178967209906 -1 0 0
1604 4 71.63298625279268 7.058692477571146 2.8285107106872447 -1 0 0
1610 4 75.12717832849968 7.058692477571145 2.8285107106872442 -1 0 0
1777 4 73.38008229064584 10.08475158083514 2.8285107106872447 -1 0 0
1783 4 76.87427436635285 10.084751580835142 2.8285107106872456 -1 0 0
1618 1 80.36684304673668 6.051677245871891 1.4291925906893765 -1 0 0
1620 5 80.36640719970286 8.069490601435348 0.029182178967208813 -1 0 0
1791 1 78.61974700888312 9.077736349135892 1.4291925906893763 -1 0 0
1797 1 82.11393908459011 9.077736349135892 1.4291925906893745 -1 0 0
1793 5 78.6193111618493 11.09554970469935 0.029182178967208844 -1 0 0
1799 5 82.11350323755629 11.095549704699351 0.029182178967208802 -1 0 0
1616 4 78.62137040420669 7.058692477571146 2.828510710687246 -1 0 0
1622 4 82.11556247991368 7.058692477571146 2.8285107106872447 -1 0 0
1789 4 80.36846644205984 10.084751580835144 2.828510710687248 -1 0 0
1624 1 83.86103512244367 6.051677245871891 1.4291925906893765 -1 0 0
1630 1 87.35522719815067 6.051677245871891 1.4291925906893765 -1 0 0
1626 5 83.86059927540987 8.06949060143535 0.029182178967210724 -1 0 0
1632 5 87.35479135111687 8.06949060143535 0.02918217896721154 -1 0 0
1803 1 85.60813116029712 9.077736349135892 1.4291925906893754 -1 0 0
1809 1 89.10232323600412 9.077736349135892 1.4291925906893763 -1 0 0
1805 5 85.60769531326329 11.095549704699351 0.029182178967209906 -1 0 0
1811 5 89.1018873889703 11.09554970469935 0.02918217896720887 -1 0 0
1628 4 85.60975455562068 7.058692477571146 2.8285107106872447 -1 0 0
1634 4 89.10394663132769 7.058692477571146 2.8285107106872456 -1 0 0
1795 4 83.86265851776685 10.08475158083514 2.8285107106872447 -1 0 0
1801 4 87.35685059347385 10.084751580835142 2.828510710687245 -1 0 0
1636 1 90.84941927385768 6.051677245871891 1.4291925906893765 -1 0 0
1642 1 94.34361134956467 6.051677245871891 1.4291925906893765 -1 0 0
1638 5 90.84898342682386 8.069490601435348 0.029182178967209302 -1 0 0
1644 5 94.34317550253085 8.06949060143535 0.02918217896721065 -1 0 0
1815 1 92.59651531171112 9.077736349135892 1.4291925906893765 -1 0 0
1817 5 92.59607946467729 11.09554970469935 0.029182178967207706 -1 0 0
1640 4 92.59813870703468 7.058692477571147 2.8285107106872465 -1 0 0
1807 4 90.85104266918084 10.084751580835144 2.828510710687248 -1 0 0
1813 4 94.34523474488785 10.08475158083514 2.8285107106872447 -1 0 0
1656 5 101.33155965394486 8.069490601435348 0.029182178967209038 -1 0 0
1648 1 97.83780342527167 6.051677245871891 1.4291925906893765 -1 0 0
1650 5 97.83736757823787 8.06949060143535 0.02918217896721107 -1 0 0
1821 1 96.09070738741812 9.077736349135892 1.4291925906893737 -1 0 0
1827 1 99.58489946312513 9.077736349135893 1.4291925906893763 -1 0 0
1823 5 96.0902715403843 11.095549704699351 0.02918217896721101 -1 0 0
1829 5 99.5844636160913 11.09554970469935 0.029182178967208802 -1 0 0
1646 4 96.09233078274168 7.058692477571145 2.8285107106872425 -1 0 0
1652 4 99.58652285844869 7.058692477571146 2.828510710687246 -1 0 0
1819 4 97.83942682059485 10.084751580835142 2.8285107106872456 -1 0 0
1828 1 0.00042530547567125353 12.10379545239989 1.429192590689376 0 0 0
1834 1 3.49461738118267 12.103795452399888 1.4291925906893759 0 0 0
1836 5 3.4941815341488605 14.121608807963348 0.029182178967210173 0 0 0
2007 1 1.7475213433291077 15.129854555663888 1.4291925906893768 0 0 0
2013 1 5.241713419036109 15.129854555663888 1.4291925906893757 0 0 0
1832 4 1.7491447386526768 13.11081068409914 2.828510710687246 0 0 0
1838 4 5.2433368143596795 13.11081068409914 2.828510710687245 0 0 0
2005 4 3.4962407765058394 16.136869787363143 2.8285107106872447 0 0 0
1999 4 0.002048700798837899 16.136869787363143 2.8285107106872474 0 0 0
2009 5 1.7470854962952815 17.147667911227348 0.029182178967210523 0 0 0
2015 5 5.241277572002285 17.147667911227348 0.029182178967211207 0 0 0
1840 1 6.988809456889672 12.103795452399888 1.429192590689376 0 0 0
1846 1 10.48300153259667 12.103795452399888 1.4291925906893759 0 0 0
1842 5 6.988373609855863 14.121608807963346 0.02918217896720923 0 0 0
1848 5 10.48256568556286 14.121608807963346 0.029182178967209836 0 0 0
2019 1 8.735905494743108 15.129854555663888 1.4291925906893763 0 0 0
1844 4 8.73752889006668 13.11081068409914 2.828510710687246 0 0 0
2011 4 6.990432852212839 16.136869787363143 2.8285107106872456 0 0 0
2017 4 10.484624927919837 16.136869787363143 2.8285107106872456 0 0 0
2021 5 8.735469647709284 17.147667911227348 0.029182178967210485 0 0 0
1852 1 13.977193608303669 12.103795452399888 1.429192590689376 0 0 0
1858 1 17.47138568401067 12.10379545239989 1.4291925906893763 0 0 0
1854 5 13.976757761269859 14.121608807963346 0.029182178967209357 0 0 0
1860 5 17.47094983697686 14.121608807963348 0.029182178967210138 0 0 0
2025 1 12.230097570450107 15.12985455566389 1.429192590689377 0 0 0
2031 1 15.724289646157107 15.129854555663888 1.4291925906893752 0 0 0
1850 4 12.231720965773677 13.11081068409914 2.828510710687246 0 0 0
1856 4 15.725913041480677 13.11081068409914 2.828510710687245 0 0 0
2023 4 13.978817003626839 16.136869787363143 2.828510710687245 0 0 0
2029 4 17.473009079333835 16.136869787363143 2.828510710687245 0 0 0
2027 5 12.229661723416282 17.147667911227348 0.029182178967210426 0 0 0
2033 5 15.723853799123281 17.147667911227348 0.029182178967210967 0 0 0
1864 1 20.96557775971767 12.10379545239989 1.429192590689376 0 0 0
1866 5 20.965141912683862 14.121608807963348 0.029182178967211005 0 0 0
2037 1 19.218481721864105 15.12985455566389 1.4291925906893774 0 0 0
2043 1 22.71267379757111 15.129854555663888 1.4291925906893765 0 0 0
1862 4 19.22010511718768 13.110810684099143 2.828510710687247 0 0 0
1868 4 22.71429719289468 13.11081068409914 2.8285107106872456 0 0 0
2035 4 20.967201155040836 16.136869787363143 2.8285107106872447 0 0 0
2039 5 19.218045874830285 17.147667911227348 0.029182178967210273 0 0 0
2045 5 22.712237950537286 17.147667911227348 0.02918217896721119 0 0 0
1870 1 24.459769835424673 12.103795452399888 1.4291925906893759 0 0 0
1876 1 27.95396191113167 12.10379545239989 1.4291925906893765 0 0 0
1872 5 24.45933398839086 14.121608807963346 0.02918217896720828 0 0 0
1878 5 27.95352606409786 14.121608807963348 0.029182178967210193 0 0 0
2049 1 26.206865873278108 15.129854555663888 1.429192590689375 0 0 0
2055 1 29.701057948985106 15.12985455566389 1.4291925906893777 0 0 0
1874 4 26.208489268601678 13.11081068409914 2.828510710687245 0 0 0
1880 4 29.70268134430868 13.110810684099143 2.828510710687247 0 0 0
2041 4 24.46139323074784 16.136869787363143 2.8285107106872456 0 0 0
2047 4 27.955585306454836 16.136869787363143 2.8285107106872447 0 0 0
2051 5 26.206430026244284 17.147667911227348 0.029182178967210943 0 0 0
2057 5 29.700622101951282 17.147667911227348 0.029182178967209916 0 0 0
1882 1 31.44815398683867 12.10379545239989 1.4291925906893763 0 0 0
1888 1 34.94234606254567 12.10379545239989 1.429192590689376 0 0 0
1884 5 31.447718139804856 14.121608807963346 0.02918217896720913 0 0 0
1890 5 34.94191021551186 14.121608807963348 0.02918217896721016 0 0 0
2061 1 33.19525002469211 15.129854555663888 1.429192590689376 0 0 0
1886 4 33.19687342001568 13.11081068409914 2.828510710687245 0 0 0
2053 4 31.449777382161837 16.136869787363143 2.828510710687247 0 0 0
2059 4 34.94396945786884 16.136869787363143 2.8285107106872442 0 0 0
2063 5 33.19481417765827 17.147667911227348 0.02918217896721155 0 0 0
1894 1 38.43653813825267 12.103795452399888 1.4291925906893757 0 0 0
1896 5 38.436102291218866 14.121608807963348 0.029182178967210107 0 0 0
2067 1 36.689442100399106 15.129854555663888 1.4291925906893752 0 0 0
2073 1 40.18363417610611 15.12985455566389 1.4291925906893777 0 0 0
1892 4 36.69106549572268 13.11081068409914 2.8285107106872447 0 0 0
1898 4 40.18525757142968 13.110810684099143 2.828510710687247 0 0 0
2065 4 38.43816153357584 16.136869787363143 2.828510710687245 0 0 0
2069 5 36.68900625336528 17.147667911227348 0.029182178967211262 0 0 0
2075 5 40.18319832907228 17.147667911227348 0.029182178967209944 0 0 0
1900 1 41.93073021395967 12.10379545239989 1.4291925906893765 0 0 0
1906 1 45.42492228966667 12.10379545239989 1.429192590689376 0 0 0
1902 5 41.930294366925864 14.121608807963346 0.029182178967208795 0 0 0
1908 5 45.42448644263286 14.121608807963348 0.02918217896721029 0 0 0
2079 1 43.67782625181311 15.129854555663888 1.4291925906893748 0 0 0
2085 1 47.17201832752011 15.129854555663888 1.4291925906893763 0 0 0
1904 4 43.67944964713668 13.11081068409914 2.8285107106872447 0 0 0
1910 4 47.17364172284368 13.11081068409914 2.828510710687245 0 0 0
2071 4 41.93235360928284 16.136869787363143 2.828510710687246 0 0 0
2077 4 45.42654568498983 16.136869787363143 2.828510710687244 0 0 0
2081 5 43.67739040477928 17.147667911227348 0.029182178967211043 0 0 0
2087 5 47.17158248048628 17.147667911227348 0.029182178967211564 0 0 0
1912 1 48.91911436537367 12.103795452399888 1.4291925906893754 0 0 0
1744 1 52.41330644108067 12.103795452399888 1.4291925906893759 -1 0 0
1914 5 48.91867851833987 14.121608807963348 0.02918217896721028 0 0 0
1746 5 52.412870594046865 14.121608807963346 0.029182178967210124 -1 0 0
1917 1 50.66621040322711 15.12985455566389 1.4291925906893772 -1 0 0
1742 4 50.66783379855068 13.11081068409914 2.8285107106872465 -1 0 0
2083 4 48.92073776069684 16.136869787363143 2.828510710687245 0 0 0
1915 4 52.41492983640384 16.136869787363143 2.828510710687245 -1 0 0
1919 5 50.665774556193284 17.147667911227348 0.029182178967210398 -1 0 0
1750 1 55.907498516787676 12.103795452399888 1.4291925906893759 -1 0 0
1756 1 59.401690592494674 12.103795452399888 1.429192590689376 -1 0 0
1752 5 55.90706266975387 14.121608807963348 0.029182178967210294 -1 0 0
1758 5 59.40125474546087 14.121608807963346 0.029182178967209534 -1 0 0
1923 1 54.16040247893411 15.129854555663888 1.4291925906893757 -1 0 0
1929 1 57.654594554641115 15.12985455566389 1.4291925906893772 -1 0 0
1748 4 54.16202587425768 13.11081068409914 2.8285107106872456 -1 0 0
1754 4 57.656217949964685 13.11081068409914 2.8285107106872465 -1 0 0
1921 4 55.90912191211084 16.136869787363143 2.828510710687245 -1 0 0
1927 4 59.403313987817846 16.136869787363143 2.8285107106872456 -1 0 0
1925 5 54.15996663190028 17.147667911227348 0.029182178967210856 -1 0 0
1931 5 57.65415870760729 17.147667911227348 0.029182178967210422 -1 0 0
1762 1 62.89588266820167 12.10379545239989 1.429192590689376 -1 0 0
1764 5 62.895446821167866 14.121608807963346 0.02918217896720946 -1 0 0
1935 1 61.14878663034811 15.129854555663888 1.4291925906893759 -1 0 0
1941 1 64.64297870605512 15.129854555663888 1.4291925906893759 -1 0 0
1760 4 61.15041002567168 13.11081068409914 2.828510710687245 -1 0 0