LAMMPS data file via write_data, version 29 Aug 2024, timestep = 0, units = metal

2958 atoms
3 atom types

0 101.331570195503 xlo xhi
0 102.886009510976 ylo yhi
0 17.960415431689 zlo zhi

Masses

1 54.938044
2 78.95999999999999
3 78.971

Atoms # atomic

1480 1 4.973799150320701e-13 0 1.4319446991009999 0 0 0
1486 1 3.4941920757074953 0 1.4319446991009999 0 0 0
1492 1 6.9883841514145 0 1.4319446991009999 0 0 0
1498 1 10.482576227121498 0 1.4319446991009999 0 0 0
1504 1 13.976768302828496 0 1.4319446991009999 0 0 0
1510 1 17.4709603785355 0 1.4319446991009999 0 0 0
1516 1 20.965152454242492 0 1.4319446991009999 0 0 0
1522 1 24.459344529949497 0 1.4319446991009999 0 0 0
1528 1 27.953536605656502 0 1.4319446991009999 0 0 0
1534 1 31.447728681363493 0 1.4319446991009999 0 0 0
1540 1 34.9419207570705 0 1.4319446991009999 0 0 0
1546 1 38.4361128327775 0 1.4319446991009999 0 0 0
1552 1 41.930304908484494 0 1.4319446991009999 0 0 0
1558 1 45.4244969841915 0 1.4319446991009999 0 0 0
1564 1 48.918689059898504 0 1.4319446991009999 0 0 0
1396 1 52.4128811356055 0 1.4319446991009999 -1 0 0
1402 1 55.9070732113125 0 1.4319446991009999 -1 0 0
1408 1 59.4012652870195 0 1.4319446991009999 -1 0 0
1414 1 62.8954573627265 0 1.4319446991009999 -1 0 0
1420 1 66.38964943843351 0 1.4319446991009999 -1 0 0
1426 1 69.8838415141405 0 1.4319446991009999 -1 0 0
1432 1 73.3780335898475 0 1.4319446991009999 -1 0 0
1438 1 76.87222566555451 0 1.4319446991009999 -1 0 0
1444 1 80.3664177412615 0 1.4319446991009999 -1 0 0
1450 1 83.8606098169685 0 1.4319446991009999 -1 0 0
1456 1 87.35480189267551 0 1.4319446991009999 -1 0 0
1462 1 90.8489939683825 0 1.4319446991009999 -1 0 0
1468 1 94.34318604408949 0 1.4319446991009999 -1 0 0
1474 1 97.83737811979651 0 1.4319446991009999 -1 0 0
1482 3 4.973799150320701e-13 2.0173727355100013 0 0 0 0
1659 1 1.7470960378534954 3.0260591032640036 1.4319446991009999 0 0 0
1488 3 3.4941920757074953 2.0173727355100013 0 0 0 0
1665 1 5.2412881135605005 3.0260591032640036 1.4319446991009999 0 0 0
1494 3 6.9883841514145 2.0173727355100013 0 0 0 0
1671 1 8.735480189267498 3.0260591032640036 1.4319446991009999 0 0 0
1500 3 10.482576227121498 2.0173727355100013 0 0 0 0
1677 1 12.229672264974496 3.0260591032640036 1.4319446991009999 0 0 0
1506 3 13.976768302828496 2.0173727355100013 0 0 0 0
1683 1 15.723864340681494 3.0260591032640036 1.4319446991009999 0 0 0
1512 3 17.4709603785355 2.0173727355100013 0 0 0 0
1689 1 19.2180564163885 3.0260591032640036 1.4319446991009999 0 0 0
1518 3 20.965152454242492 2.0173727355100013 0 0 0 0
1695 1 22.712248492095505 3.0260591032640036 1.4319446991009999 0 0 0
1524 3 24.459344529949497 2.0173727355100013 0 0 0 0
1701 1 26.206440567802495 3.0260591032640036 1.4319446991009999 0 0 0
1530 3 27.953536605656502 2.0173727355100013 0 0 0 0
1707 1 29.7006326435095 3.0260591032640036 1.4319446991009999 0 0 0
1536 3 31.447728681363493 2.0173727355100013 0 0 0 0
1713 1 33.19482471921649 3.0260591032640036 1.4319446991009999 0 0 0
1542 3 34.9419207570705 2.0173727355100013 0 0 0 0
1719 1 36.689016794923496 3.0260591032640036 1.4319446991009999 0 0 0
1548 3 38.4361128327775 2.0173727355100013 0 0 0 0
1725 1 40.1832088706305 3.0260591032640036 1.4319446991009999 0 0 0
1554 3 41.930304908484494 2.0173727355100013 0 0 0 0
1731 1 43.67740094633749 3.0260591032640036 1.4319446991009999 0 0 0
1560 3 45.4244969841915 2.0173727355100013 0 0 0 0
1737 1 47.1715930220445 3.0260591032640036 1.4319446991009999 0 0 0
1566 3 48.918689059898504 2.0173727355100013 0 0 0 0
1569 1 50.6657850977515 3.0260591032640036 1.4319446991009999 -1 0 0
1398 3 52.4128811356055 2.0173727355100013 0 -1 0 0
1575 1 54.1599771734585 3.0260591032640036 1.4319446991009999 -1 0 0
1404 3 55.9070732113125 2.0173727355100013 0 -1 0 0
1581 1 57.654169249165506 3.0260591032640036 1.4319446991009999 -1 0 0
1410 3 59.4012652870195 2.0173727355100013 0 -1 0 0
1587 1 61.1483613248725 3.0260591032640036 1.4319446991009999 -1 0 0
1416 3 62.8954573627265 2.0173727355100013 0 -1 0 0
1593 1 64.6425534005795 3.0260591032640036 1.4319446991009999 -1 0 0
1422 3 66.38964943843351 2.0173727355100013 0 -1 0 0
1599 1 68.1367454762865 3.0260591032640036 1.4319446991009999 -1 0 0
1428 3 69.8838415141405 2.0173727355100013 0 -1 0 0
1605 1 71.6309375519935 3.0260591032640036 1.4319446991009999 -1 0 0
1434 3 73.3780335898475 2.0173727355100013 0 -1 0 0
1611 1 75.1251296277005 3.0260591032640036 1.4319446991009999 -1 0 0
1440 3 76.87222566555451 2.0173727355100013 0 -1 0 0
1617 1 78.61932170340751 3.0260591032640036 1.4319446991009999 -1 0 0
1446 3 80.3664177412615 2.0173727355100013 0 -1 0 0
1623 1 82.1135137791145 3.0260591032640036 1.4319446991009999 -1 0 0
1452 3 83.8606098169685 2.0173727355100013 0 -1 0 0
1629 1 85.6077058548215 3.0260591032640036 1.4319446991009999 -1 0 0
1458 3 87.35480189267551 2.0173727355100013 0 -1 0 0
1635 1 89.10189793052851 3.0260591032640036 1.4319446991009999 -1 0 0
1464 3 90.8489939683825 2.0173727355100013 0 -1 0 0
1641 1 92.5960900062355 3.0260591032640036 1.4319446991009999 -1 0 0
1470 3 94.34318604408949 2.0173727355100013 0 -1 0 0
1647 1 96.0902820819425 3.0260591032640036 1.4319446991009999 -1 0 0
1476 3 97.83737811979651 2.0173727355100013 0 -1 0 0
1653 1 99.58447415764951 3.0260591032640036 1.4319446991009999 -1 0 0
1661 3 1.7470960378534954 5.043431838774005 0 0 0 0
1667 3 5.2412881135605005 5.043431838774005 0 0 0 0
1673 3 8.735480189267498 5.043431838774005 0 0 0 0
1679 3 12.229672264974496 5.043431838774005 0 0 0 0
1685 3 15.723864340681494 5.043431838774005 0 0 0 0
1691 3 19.2180564163885 5.043431838774005 0 0 0 0
1697 3 22.712248492095505 5.043431838774005 0 0 0 0
1703 3 26.206440567802495 5.043431838774005 0 0 0 0
1709 3 29.7006326435095 5.043431838774005 0 0 0 0
1715 3 33.19482471921649 5.043431838774005 0 0 0 0
1721 3 36.689016794923496 5.043431838774005 0 0 0 0
1727 3 40.1832088706305 5.043431838774005 0 0 0 0
1733 3 43.67740094633749 5.043431838774005 0 0 0 0
1739 3 47.1715930220445 5.043431838774005 0 0 0 0
1571 3 50.6657850977515 5.043431838774005 0 -1 0 0
1577 3 54.1599771734585 5.043431838774005 0 -1 0 0
1583 3 57.654169249165506 5.043431838774005 0 -1 0 0
1589 3 61.1483613248725 5.043431838774005 0 -1 0 0
1595 3 64.6425534005795 5.043431838774005 0 -1 0 0
1601 3 68.1367454762865 5.043431838774005 0 -1 0 0
1607 3 71.6309375519935 5.043431838774005 0 -1 0 0
1613 3 75.1251296277005 5.043431838774005 0 -1 0 0
1619 3 78.61932170340751 5.043431838774005 0 -1 0 0
1625 3 82.1135137791145 5.043431838774005 0 -1 0 0
1631 3 85.6077058548215 5.043431838774005 0 -1 0 0
1637 3 89.10189793052851 5.043431838774005 0 -1 0 0
1643 3 92.5960900062355 5.043431838774005 0 -1 0 0
1649 3 96.0902820819425 5.043431838774005 0 -1 0 0
1655 3 99.58447415764951 5.043431838774005 0 -1 0 0
1654 1 4.973799150320701e-13 6.052118206528 1.4319446991009999 0 0 0
1660 1 3.4941920757074953 6.052118206528 1.4319446991009999 0 0 0
1666 1 6.9883841514145 6.052118206528 1.4319446991009999 0 0 0
1672 1 10.482576227121498 6.052118206528 1.4319446991009999 0 0 0
1678 1 13.976768302828496 6.052118206528 1.4319446991009999 0 0 0
1684 1 17.4709603785355 6.052118206528 1.4319446991009999 0 0 0
1690 1 20.965152454242492 6.052118206528 1.4319446991009999 0 0 0
1696 1 24.459344529949497 6.052118206528 1.4319446991009999 0 0 0
1702 1 27.953536605656502 6.052118206528 1.4319446991009999 0 0 0
1708 1 31.447728681363493 6.052118206528 1.4319446991009999 0 0 0
1714 1 34.9419207570705 6.052118206528 1.4319446991009999 0 0 0
1720 1 38.4361128327775 6.052118206528 1.4319446991009999 0 0 0
1726 1 41.930304908484494 6.052118206528 1.4319446991009999 0 0 0
1732 1 45.4244969841915 6.052118206528 1.4319446991009999 0 0 0
1738 1 48.918689059898504 6.052118206528 1.4319446991009999 0 0 0
1570 1 52.4128811356055 6.052118206528 1.4319446991009999 -1 0 0
1576 1 55.9070732113125 6.052118206528 1.4319446991009999 -1 0 0
1582 1 59.4012652870195 6.052118206528 1.4319446991009999 -1 0 0
1588 1 62.8954573627265 6.052118206528 1.4319446991009999 -1 0 0
1594 1 66.38964943843351 6.052118206528 1.4319446991009999 -1 0 0
1600 1 69.8838415141405 6.052118206528 1.4319446991009999 -1 0 0
1606 1 73.3780335898475 6.052118206528 1.4319446991009999 -1 0 0
1612 1 76.87222566555451 6.052118206528 1.4319446991009999 -1 0 0
1618 1 80.3664177412615 6.052118206528 1.4319446991009999 -1 0 0
1624 1 83.8606098169685 6.052118206528 1.4319446991009999 -1 0 0
1630 1 87.35480189267551 6.052118206528 1.4319446991009999 -1 0 0
1636 1 90.8489939683825 6.052118206528 1.4319446991009999 -1 0 0
1642 1 94.34318604408949 6.052118206528 1.4319446991009999 -1 0 0
1648 1 97.83737811979651 6.052118206528 1.4319446991009999 -1 0 0
1656 3 4.973799150320701e-13 8.069490942038001 0 0 0 0
1662 3 3.4941920757074953 8.069490942038001 0 0 0 0
1668 3 6.9883841514145 8.069490942038001 0 0 0 0
1674 3 10.482576227121498 8.069490942038001 0 0 0 0
1680 3 13.976768302828496 8.069490942038001 0 0 0 0
1686 3 17.4709603785355 8.069490942038001 0 0 0 0
1692 3 20.965152454242492 8.069490942038001 0 0 0 0
1698 3 24.459344529949497 8.069490942038001 0 0 0 0
1704 3 27.953536605656502 8.069490942038001 0 0 0 0
1710 3 31.447728681363493 8.069490942038001 0 0 0 0
1716 3 34.9419207570705 8.069490942038001 0 0 0 0
1722 3 38.4361128327775 8.069490942038001 0 0 0 0
1728 3 41.930304908484494 8.069490942038001 0 0 0 0
1734 3 45.4244969841915 8.069490942038001 0 0 0 0
1740 3 48.918689059898504 8.069490942038001 0 0 0 0
1572 3 52.4128811356055 8.069490942038001 0 -1 0 0
1578 3 55.9070732113125 8.069490942038001 0 -1 0 0
1584 3 59.4012652870195 8.069490942038001 0 -1 0 0
1590 3 62.8954573627265 8.069490942038001 0 -1 0 0
1596 3 66.38964943843351 8.069490942038001 0 -1 0 0
1602 3 69.8838415141405 8.069490942038001 0 -1 0 0
1608 3 73.3780335898475 8.069490942038001 0 -1 0 0
1614 3 76.87222566555451 8.069490942038001 0 -1 0 0
1620 3 80.3664177412615 8.069490942038001 0 -1 0 0
1626 3 83.8606098169685 8.069490942038001 0 -1 0 0
1632 3 87.35480189267551 8.069490942038001 0 -1 0 0
1638 3 90.8489939683825 8.069490942038001 0 -1 0 0
1644 3 94.34318604408949 8.069490942038001 0 -1 0 0
1650 3 97.83737811979651 8.069490942038001 0 -1 0 0
1833 1 1.7470960378534954 9.078177309792004 1.4319446991009999 0 0 0
1839 1 5.2412881135605005 9.078177309792004 1.4319446991009999 0 0 0
1845 1 8.735480189267498 9.078177309792004 1.4319446991009999 0 0 0
1851 1 12.229672264974496 9.078177309792004 1.4319446991009999 0 0 0
1857 1 15.723864340681494 9.078177309792004 1.4319446991009999 0 0 0
1863 1 19.2180564163885 9.078177309792004 1.4319446991009999 0 0 0
1869 1 22.712248492095505 9.078177309792004 1.4319446991009999 0 0 0
1875 1 26.206440567802495 9.078177309792004 1.4319446991009999 0 0 0
1881 1 29.7006326435095 9.078177309792004 1.4319446991009999 0 0 0
1887 1 33.19482471921649 9.078177309792004 1.4319446991009999 0 0 0
1893 1 36.689016794923496 9.078177309792004 1.4319446991009999 0 0 0
1899 1 40.1832088706305 9.078177309792004 1.4319446991009999 0 0 0
1905 1 43.67740094633749 9.078177309792004 1.4319446991009999 0 0 0
1911 1 47.1715930220445 9.078177309792004 1.4319446991009999 0 0 0
1743 1 50.6657850977515 9.078177309792004 1.4319446991009999 -1 0 0
1749 1 54.1599771734585 9.078177309792004 1.4319446991009999 -1 0 0
1755 1 57.654169249165506 9.078177309792004 1.4319446991009999 -1 0 0
1761 1 61.1483613248725 9.078177309792004 1.4319446991009999 -1 0 0
1767 1 64.6425534005795 9.078177309792004 1.4319446991009999 -1 0 0
1773 1 68.1367454762865 9.078177309792004 1.4319446991009999 -1 0 0
1779 1 71.6309375519935 9.078177309792004 1.4319446991009999 -1 0 0
1785 1 75.1251296277005 9.078177309792004 1.4319446991009999 -1 0 0
1791 1 78.61932170340751 9.078177309792004 1.4319446991009999 -1 0 0
1797 1 82.1135137791145 9.078177309792004 1.4319446991009999 -1 0 0
1803 1 85.6077058548215 9.078177309792004 1.4319446991009999 -1 0 0
1809 1 89.10189793052851 9.078177309792004 1.4319446991009999 -1 0 0
1815 1 92.5960900062355 9.078177309792004 1.4319446991009999 -1 0 0
1821 1 96.0902820819425 9.078177309792004 1.4319446991009999 -1 0 0
1827 1 99.58447415764951 9.078177309792004 1.4319446991009999 -1 0 0
1835 3 1.7470960378534954 11.095550045302005 0 0 0 0
1828 1 4.973799150320701e-13 12.104236413056 1.4319446991009999 0 0 0
1834 1 3.4941920757074953 12.104236413056 1.4319446991009999 0 0 0
1841 3 5.2412881135605005 11.095550045302005 0 0 0 0
1840 1 6.9883841514145 12.104236413056 1.4319446991009999 0 0 0
1847 3 8.735480189267498 11.095550045302005 0 0 0 0
1846 1 10.482576227121498 12.104236413056 1.4319446991009999 0 0 0
1853 3 12.229672264974496 11.095550045302005 0 0 0 0
1852 1 13.976768302828496 12.104236413056 1.4319446991009999 0 0 0
1859 3 15.723864340681494 11.095550045302005 0 0 0 0
1858 1 17.4709603785355 12.104236413056 1.4319446991009999 0 0 0
1865 3 19.2180564163885 11.095550045302005 0 0 0 0
1864 1 20.965152454242492 12.104236413056 1.4319446991009999 0 0 0
1871 3 22.712248492095505 11.095550045302005 0 0 0 0
1870 1 24.459344529949497 12.104236413056 1.4319446991009999 0 0 0
1877 3 26.206440567802495 11.095550045302005 0 0 0 0
1876 1 27.953536605656502 12.104236413056 1.4319446991009999 0 0 0
1883 3 29.7006326435095 11.095550045302005 0 0 0 0
1882 1 31.447728681363493 12.104236413056 1.4319446991009999 0 0 0
1889 3 33.19482471921649 11.095550045302005 0 0 0 0
1888 1 34.9419207570705 12.104236413056 1.4319446991009999 0 0 0
1895 3 36.689016794923496 11.095550045302005 0 0 0 0
1894 1 38.4361128327775 12.104236413056 1.4319446991009999 0 0 0
1901 3 40.1832088706305 11.095550045302005 0 0 0 0
1900 1 41.930304908484494 12.104236413056 1.4319446991009999 0 0 0
1907 3 43.67740094633749 11.095550045302005 0 0 0 0
1906 1 45.4244969841915 12.104236413056 1.4319446991009999 0 0 0
1913 3 47.1715930220445 11.095550045302005 0 0 0 0
1912 1 48.918689059898504 12.104236413056 1.4319446991009999 0 0 0
1745 3 50.6657850977515 11.095550045302005 0 -1 0 0
1744 1 52.4128811356055 12.104236413056 1.4319446991009999 -1 0 0
1751 3 54.1599771734585 11.095550045302005 0 -1 0 0
1750 1 55.9070732113125 12.104236413056 1.4319446991009999 -1 0 0
1757 3 57.654169249165506 11.095550045302005 0 -1 0 0
1756 1 59.4012652870195 12.104236413056 1.4319446991009999 -1 0 0
1763 3 61.1483613248725 11.095550045302005 0 -1 0 0
1762 1 62.8954573627265 12.104236413056 1.4319446991009999 -1 0 0
1769 3 64.6425534005795 11.095550045302005 0 -1 0 0
1768 1 66.38964943843351 12.104236413056 1.4319446991009999 -1 0 0
1775 3 68.1367454762865 11.095550045302005 0 -1 0 0
1774 1 69.8838415141405 12.104236413056 1.4319446991009999 -1 0 0
1781 3 71.6309375519935 11.095550045302005 0 -1 0 0
1780 1 73.3780335898475 12.104236413056 1.4319446991009999 -1 0 0
1787 3 75.1251296277005 11.095550045302005 0 -1 0 0
1786 1 76.87222566555451 12.104236413056 1.4319446991009999 -1 0 0
1793 3 78.61932170340751 11.095550045302005 0 -1 0 0
1792 1 80.3664177412615 12.104236413056 1.4319446991009999 -1 0 0
1799 3 82.1135137791145 11.095550045302005 0 -1 0 0
1798 1 83.8606098169685 12.104236413056 1.4319446991009999 -1 0 0
1805 3 85.6077058548215 11.095550045302005 0 -1 0 0
1804 1 87.35480189267551 12.104236413056 1.4319446991009999 -1 0 0
1811 3 89.10189793052851 11.095550045302005 0 -1 0 0
1810 1 90.8489939683825 12.104236413056 1.4319446991009999 -1 0 0
1817 3 92.5960900062355 11.095550045302005 0 -1 0 0
1816 1 94.34318604408949 12.104236413056 1.4319446991009999 -1 0 0
1823 3 96.0902820819425 11.095550045302005 0 -1 0 0
1822 1 97.83737811979651 12.104236413056 1.4319446991009999 -1 0 0
1829 3 99.58447415764951 11.095550045302005 0 -1 0 0
1830 3 4.973799150320701e-13 14.121609148566002 0 0 0 0
1836 3 3.4941920757074953 14.121609148566002 0 0 0 0
1842 3 6.9883841514145 14.121609148566002 0 0 0 0
1848 3 10.482576227121498 14.121609148566002 0 0 0 0
1854 3 13.976768302828496 14.121609148566002 0 0 0 0
1860 3 17.4709603785355 14.121609148566002 0 0 0 0
1866 3 20.965152454242492 14.121609148566002 0 0 0 0
1872 3 24.459344529949497 14.121609148566002 0 0 0 0
1878 3 27.953536605656502 14.121609148566002 0 0 0 0
1884 3 31.447728681363493 14.121609148566002 0 0 0 0
1890 3 34.9419207570705 14.121609148566002 0 0 0 0
1896 3 38.4361128327775 14.121609148566002 0 0 0 0
1902 3 41.930304908484494 14.121609148566002 0 0 0 0
1908 3 45.4244969841915 14.121609148566002 0 0 0 0
1914 3 48.918689059898504 14.121609148566002 0 0 0 0
1746 3 52.4128811356055 14.121609148566002 0 -1 0 0
1752 3 55.9070732113125 14.121609148566002 0 -1 0 0
1758 3 59.4012652870195 14.121609148566002 0 -1 0 0
1764 3 62.8954573627265 14.121609148566002 0 -1 0 0
1770 3 66.38964943843351 14.121609148566002 0 -1 0 0
1776 3 69.8838415141405 14.121609148566002 0 -1 0 0
1782 3 73.3780335898475 14.121609148566002 0 -1 0 0
1788 3 76.87222566555451 14.121609148566002 0 -1 0 0
1794 3 80.3664177412615 14.121609148566002 0 -1 0 0
1800 3 83.8606098169685 14.121609148566002 0 -1 0 0
1806 3 87.35480189267551 14.121609148566002 0 -1 0 0
1812 3 90.8489939683825 14.121609148566002 0 -1 0 0
1818 3 94.34318604408949 14.121609148566002 0 -1 0 0
1824 3 97.83737811979651 14.121609148566002 0 -1 0 0
2007 1 1.7470960378534954 15.130295516319997 1.4319446991009999 0 0 0
2013 1 5.2412881135605005 15.130295516319997 1.4319446991009999 0 0 0
2019 1 8.735480189267498 15.130295516319997 1.4319446991009999 0 0 0
2025 1 12.229672264974496 15.130295516319997 1.4319446991009999 0 0 0
2031 1 15.723864340681494 15.130295516319997 1.4319446991009999 0 0 0
2037 1 19.2180564163885 15.130295516319997 1.4319446991009999 0 0 0
2043 1 22.712248492095505 15.130295516319997 1.4319446991009999 0 0 0
2049 1 26.206440567802495 15.130295516319997 1.4319446991009999 0 0 0
2055 1 29.7006326435095 15.130295516319997 1.4319446991009999 0 0 0
2061 1 33.19482471921649 15.130295516319997 1.4319446991009999 0 0 0
2067 1 36.689016794923496 15.130295516319997 1.4319446991009999 0 0 0
2073 1 40.1832088706305 15.130295516319997 1.4319446991009999 0 0 0
2079 1 43.67740094633749 15.130295516319997 1.4319446991009999 0 0 0
2085 1 47.1715930220445 15.130295516319997 1.4319446991009999 0 0 0
1917 1 50.6657850977515 15.130295516319997 1.4319446991009999 -1 0 0
1923 1 54.1599771734585 15.130295516319997 1.4319446991009999 -1 0 0
1929 1 57.654169249165506 15.130295516319997 1.4319446991009999 -1 0 0
1935 1 61.1483613248725 15.130295516319997 1.4319446991009999 -1 0 0
1941 1 64.6425534005795 15.130295516319997 1.4319446991009999 -1 0 0
1947 1 68.1367454762865 15.130295516319997 1.4319446991009999 -1 0 0
1953 1 71.6309375519935 15.130295516319997 1.4319446991009999 -1 0 0
1959 1 75.1251296277005 15.130295516319997 1.4319446991009999 -1 0 0
1965 1 78.61932170340751 15.130295516319997 1.4319446991009999 -1 0 0
1971 1 82.1135137791145 15.130295516319997 1.4319446991009999 -1 0 0
1977 1 85.6077058548215 15.130295516319997 1.4319446991009999 -1 0 0
1983 1 89.10189793052851 15.130295516319997 1.4319446991009999 -1 0 0
1989 1 92.5960900062355 15.130295516319997 1.4319446991009999 -1 0 0
1995 1 96.0902820819425 15.130295516319997 1.4319446991009999 -1 0 0
2001 1 99.58447415764951 15.130295516319997 1.4319446991009999 -1 0 0
2009 3 1.7470960378534954 17.147668251830005 0 0 0 0
2015 3 5.2412881135605005 17.147668251830005 0 0 0 0
2021 3 8.735480189267498 17.147668251830005 0 0 0 0
2027 3 12.229672264974496 17.147668251830005 0 0 0 0
2033 3 15.723864340681494 17.147668251830005 0 0 0 0
2039 3 19.2180564163885 17.147668251830005 0 0 0 0
2045 3 22.712248492095505 17.147668251830005 0 0 0 0
2051 3 26.206440567802495 17.147668251830005 0 0 0 0
2057 3 29.7006326435095 17.147668251830005 0 0 0 0
2063 3 33.19482471921649 17.147668251830005 0 0 0 0
2069 3 36.689016794923496 17.147668251830005 0 0 0 0
2075 3 40.1832088706305 17.147668251830005 0 0 0 0
2081 3 43.67740094633749 17.147668251830005 0 0 0 0
2087 3 47.1715930220445 17.147668251830005 0 0 0 0
1919 3 50.6657850977515 17.147668251830005 0 -1 0 0
1925 3 54.1599771734585 17.147668251830005 0 -1 0 0
1931 3 57.654169249165506 17.147668251830005 0 -1 0 0
1937 3 61.1483613248725 17.147668251830005 0 -1 0 0
1943 3 64.6425534005795 17.147668251830005 0 -1 0 0
1949 3 68.1367454762865 17.147668251830005 0 -1 0 0
1955 3 71.6309375519935 17.147668251830005 0 -1 0 0
1961 3 75.1251296277005 17.147668251830005 0 -1 0 0
1967 3 78.61932170340751 17.147668251830005 0 -1 0 0
1973 3 82.1135137791145 17.147668251830005 0 -1 0 0
1979 3 85.6077058548215 17.147668251830005 0 -1 0 0
1985 3 89.10189793052851 17.147668251830005 0 -1 0 0
1991 3 92.5960900062355 17.147668251830005 0 -1 0 0
1997 3 96.0902820819425 17.147668251830005 0 -1 0 0
2003 3 99.58447415764951 17.147668251830005 0 -1 0 0
2002 1 4.973799150320701e-13 18.156354619584 1.4319446991009999 0 0 0
2008 1 3.4941920757074953 18.156354619584 1.4319446991009999 0 0 0
2014 1 6.9883841514145 18.156354619584 1.4319446991009999 0 0 0
2020 1 10.482576227121498 18.156354619584 1.4319446991009999 0 0 0
2026 1 13.976768302828496 18.156354619584 1.4319446991009999 0 0 0
2032 1 17.4709603785355 18.156354619584 1.4319446991009999 0 0 0
2038 1 20.965152454242492 18.156354619584 1.4319446991009999 0 0 0
2044 1 24.459344529949497 18.156354619584 1.4319446991009999 0 0 0
2050 1 27.953536605656502 18.156354619584 1.4319446991009999 0 0 0
2056 1 31.447728681363493 18.156354619584 1.4319446991009999 0 0 0
2062 1 34.9419207570705 18.156354619584 1.4319446991009999 0 0 0
2068 1 38.4361128327775 18.156354619584 1.4319446991009999 0 0 0
2074 1 41.930304908484494 18.156354619584 1.4319446991009999 0 0 0
2080 1 45.4244969841915 18.156354619584 1.4319446991009999 0 0 0
2086 1 48.918689059898504 18.156354619584 1.4319446991009999 0 0 0
1918 1 52.4128811356055 18.156354619584 1.4319446991009999 -1 0 0
1924 1 55.9070732113125 18.156354619584 1.4319446991009999 -1 0 0
1930 1 59.4012652870195 18.156354619584 1.4319446991009999 -1 0 0
1936 1 62.8954573627265 18.156354619584 1.4319446991009999 -1 0 0
1942 1 66.38964943843351 18.156354619584 1.4319446991009999 -1 0 0
1948 1 69.8838415141405 18.156354619584 1.4319446991009999 -1 0 0
1954 1 73.3780335898475 18.156354619584 1.4319446991009999 -1 0 0
1960 1 76.87222566555451 18.156354619584 1.4319446991009999 -1 0 0
1966 1 80.3664177412615 18.156354619584 1.4319446991009999 -1 0 0
1972 1 83.8606098169685 18.156354619584 1.4319446991009999 -1 0 0
1978 1 87.35480189267551 18.156354619584 1.4319446991009999 -1 0 0
1984 1 90.8489939683825 18.156354619584 1.4319446991009999 -1 0 0
1990 1 94.34318604408949 18.156354619584 1.4319446991009999 -1 0 0
1996 1 97.83737811979651 18.156354619584 1.4319446991009999 -1 0 0
2004 3 4.973799150320701e-13 20.17372735509401 0 0 0 0
2181 1 1.7470960378534954 21.182413722848004 1.4319446991009999 0 0 0
2010 3 3.4941920757074953 20.17372735509401 0 0 0 0
2187 1 5.2412881135605005 21.182413722848004 1.4319446991009999 0 0 0
2016 3 6.9883841514145 20.17372735509401 0 0 0 0
2193 1 8.735480189267498 21.182413722848004 1.4319446991009999 0 0 0
2022 3 10.482576227121498 20.17372735509401 0 0 0 0
2199 1 12.229672264974496 21.182413722848004 1.4319446991009999 0 0 0
2028 3 13.976768302828496 20.17372735509401 0 0 0 0
2205 1 15.723864340681494 21.182413722848004 1.4319446991009999 0 0 0
2034 3 17.4709603785355 20.17372735509401 0 0 0 0
2211 1 19.2180564163885 21.182413722848004 1.4319446991009999 0 0 0
2040 3 20.965152454242492 20.17372735509401 0 0 0 0
2217 1 22.712248492095505 21.182413722848004 1.4319446991009999 0 0 0
2046 3 24.459344529949497 20.17372735509401 0 0 0 0
2223 1 26.206440567802495 21.182413722848004 1.4319446991009999 0 0 0
2052 3 27.953536605656502 20.17372735509401 0 0 0 0
2229 1 29.7006326435095 21.182413722848004 1.4319446991009999 0 0 0
2058 3 31.447728681363493 20.17372735509401 0 0 0 0
2235 1 33.19482471921649 21.182413722848004 1.4319446991009999 0 0 0
2064 3 34.9419207570705 20.17372735509401 0 0 0 0
2241 1 36.689016794923496 21.182413722848004 1.4319446991009999 0 0 0
2070 3 38.4361128327775 20.17372735509401 0 0 0 0
2247 1 40.1832088706305 21.182413722848004 1.4319446991009999 0 0 0
2076 3 41.930304908484494 20.17372735509401 0 0 0 0
2253 1 43.67740094633749 21.182413722848004 1.4319446991009999 0 0 0
2082 3 45.4244969841915 20.17372735509401 0 0 0 0
2259 1 47.1715930220445 21.182413722848004 1.4319446991009999 0 0 0
2088 3 48.918689059898504 20.17372735509401 0 0 0 0
2091 1 50.6657850977515 21.182413722848004 1.4319446991009999 -1 0 0
1920 3 52.4128811356055 20.17372735509401 0 -1 0 0
2097 1 54.1599771734585 21.182413722848004 1.4319446991009999 -1 0 0
1926 3 55.9070732113125 20.17372735509401 0 -1 0 0
2103 1 57.654169249165506 21.182413722848004 1.4319446991009999 -1 0 0
1932 3 59.4012652870195 20.17372735509401 0 -1 0 0
2109 1 61.1483613248725 21.182413722848004 1.4319446991009999 -1 0 0
1938 3 62.8954573627265 20.17372735509401 0 -1 0 0
2115 1 64.6425534005795 21.182413722848004 1.4319446991009999 -1 0 0
1944 3 66.38964943843351 20.17372735509401 0 -1 0 0
2121 1 68.1367454762865 21.182413722848004 1.4319446991009999 -1 0 0
1950 3 69.8838415141405 20.17372735509401 0 -1 0 0
2127 1 71.6309375519935 21.182413722848004 1.4319446991009999 -1 0 0
1956 3 73.3780335898475 20.17372735509401 0 -1 0 0
2133 1 75.1251296277005 21.182413722848004 1.4319446991009999 -1 0 0
1962 3 76.87222566555451 20.17372735509401 0 -1 0 0
2139 1 78.61932170340751 21.182413722848004 1.4319446991009999 -1 0 0
1968 3 80.3664177412615 20.17372735509401 0 -1 0 0
2145 1 82.1135137791145 21.182413722848004 1.4319446991009999 -1 0 0
1974 3 83.8606098169685 20.17372735509401 0 -1 0 0
2151 1 85.6077058548215 21.182413722848004 1.4319446991009999 -1 0 0
1980 3 87.35480189267551 20.17372735509401 0 -1 0 0
2157 1 89.10189793052851 21.182413722848004 1.4319446991009999 -1 0 0
1986 3 90.8489939683825 20.17372735509401 0 -1 0 0
2163 1 92.5960900062355 21.182413722848004 1.4319446991009999 -1 0 0
1992 3 94.34318604408949 20.17372735509401 0 -1 0 0
2169 1 96.0902820819425 21.182413722848004 1.4319446991009999 -1 0 0
1998 3 97.83737811979651 20.17372735509401 0 -1 0 0
2175 1 99.58447415764951 21.182413722848004 1.4319446991009999 -1 0 0
2183 3 1.7470960378534954 23.199786458358 0 0 0 0
2176 1 4.973799150320701e-13 24.208472826112008 1.4319446991009999 0 0 0
2182 1 3.4941920757074953 24.208472826112008 1.4319446991009999 0 0 0
2189 3 5.2412881135605005 23.199786458358 0 0 0 0
2188 1 6.9883841514145 24.208472826112008 1.4319446991009999 0 0 0
2195 3 8.735480189267498 23.199786458358 0 0 0 0
2194 1 10.482576227121498 24.208472826112008 1.4319446991009999 0 0 0
2201 3 12.229672264974496 23.199786458358 0 0 0 0
2200 1 13.976768302828496 24.208472826112008 1.4319446991009999 0 0 0
2207 3 15.723864340681494 23.199786458358 0 0 0 0
2206 1 17.4709603785355 24.208472826112008 1.4319446991009999 0 0 0
2213 3 19.2180564163885 23.199786458358 0 0 0 0
2212 1 20.965152454242492 24.208472826112008 1.4319446991009999 0 0 0
2219 3 22.712248492095505 23.199786458358 0 0 0 0
2218 1 24.459344529949497 24.208472826112008 1.4319446991009999 0 0 0
2225 3 26.206440567802495 23.199786458358 0 0 0 0
2224 1 27.953536605656502 24.208472826112008 1.4319446991009999 0 0 0
2231 3 29.7006326435095 23.199786458358 0 0 0 0
2230 1 31.447728681363493 24.208472826112008 1.4319446991009999 0 0 0
2237 3 33.19482471921649 23.199786458358 0 0 0 0
2236 1 34.9419207570705 24.208472826112008 1.4319446991009999 0 0 0
2243 3 36.689016794923496 23.199786458358 0 0 0 0
2242 1 38.4361128327775 24.208472826112008 1.4319446991009999 0 0 0
2249 3 40.1832088706305 23.199786458358 0 0 0 0
2248 1 41.930304908484494 24.208472826112008 1.4319446991009999 0 0 0
2255 3 43.67740094633749 23.199786458358 0 0 0 0
2254 1 45.4244969841915 24.208472826112008 1.4319446991009999 0 0 0
2261 3 47.1715930220445 23.199786458358 0 0 0 0
2260 1 48.918689059898504 24.208472826112008 1.4319446991009999 0 0 0
2093 3 50.6657850977515 23.199786458358 0 -1 0 0
2092 1 52.4128811356055 24.208472826112008 1.4319446991009999 -1 0 0
2099 3 54.1599771734585 23.199786458358 0 -1 0 0
2098 1 55.9070732113125 24.208472826112008 1.4319446991009999 -1 0 0
2105 3 57.654169249165506 23.199786458358 0 -1 0 0
2104 1 59.4012652870195 24.208472826112008 1.4319446991009999 -1 0 0
2111 3 61.1483613248725 23.199786458358 0 -1 0 0
2110 1 62.8954573627265 24.208472826112008 1.4319446991009999 -1 0 0
2117 3 64.6425534005795 23.199786458358 0 -1 0 0
2116 1 66.38964943843351 24.208472826112008 1.4319446991009999 -1 0 0
2123 3 68.1367454762865 23.199786458358 0 -1 0 0
2122 1 69.8838415141405 24.208472826112008 1.4319446991009999 -1 0 0
2129 3 71.6309375519935 23.199786458358 0 -1 0 0
2128 1 73.3780335898475 24.208472826112008 1.4319446991009999 -1 0 0
2135 3 75.1251296277005 23.199786458358 0 -1 0 0
2134 1 76.87222566555451 24.208472826112008 1.4319446991009999 -1 0 0
2141 3 78.61932170340751 23.199786458358 0 -1 0 0
2140 1 80.3664177412615 24.208472826112008 1.4319446991009999 -1 0 0
2147 3 82.1135137791145 23.199786458358 0 -1 0 0
2146 1 83.8606098169685 24.208472826112008 1.4319446991009999 -1 0 0
2153 3 85.6077058548215 23.199786458358 0 -1 0 0
2152 1 87.35480189267551 24.208472826112008 1.4319446991009999 -1 0 0
2159 3 89.10189793052851 23.199786458358 0 -1 0 0
2158 1 90.8489939683825 24.208472826112008 1.4319446991009999 -1 0 0
2165 3 92.5960900062355 23.199786458358 0 -1 0 0
2164 1 94.34318604408949 24.208472826112008 1.4319446991009999 -1 0 0
2171 3 96.0902820819425 23.199786458358 0 -1 0 0
2170 1 97.83737811979651 24.208472826112008 1.4319446991009999 -1 0 0
2177 3 99.58447415764951 23.199786458358 0 -1 0 0
2178 3 4.973799150320701e-13 26.225845561622002 0 0 0 0
2184 3 3.4941920757074953 26.225845561622002 0 0 0 0
2190 3 6.9883841514145 26.225845561622002 0 0 0 0
2196 3 10.482576227121498 26.225845561622002 0 0 0 0
2202 3 13.976768302828496 26.225845561622002 0 0 0 0
2208 3 17.4709603785355 26.225845561622002 0 0 0 0
2214 3 20.965152454242492 26.225845561622002 0 0 0 0
2220 3 24.459344529949497 26.225845561622002 0 0 0 0
2226 3 27.953536605656502 26.225845561622002 0 0 0 0