LAMMPS data file via write_data, version 29 Aug 2024, timestep = 4, units = metal

6480 atoms
6 atom types

0 98.73507150558 xlo xhi
0 102.60849620196 ylo yhi
-50 50 zlo zhi

Masses

1 183.84
2 183.84
3 78.971
4 78.971
5 78.971
6 78.971

Atoms # atomic

1715 4 2.908369310554669e-17 1.90012684538391 0.03173410707541055 0 0 0
1712 1 1.645584525093 2.849724680737992 1.719893918905938 0 0 0
1721 4 3.2911690501860003 1.9001268453839097 0.03173410707541028 0 0 0
1718 1 4.936753575279001 2.849724680737992 1.7198939189059381 0 0 0
1716 4 1.6455845250929997 4.750362850993909 0.03173410707540959 0 0 0
1722 4 4.936753575279001 4.750362850993908 0.031734107075408774 0 0 0
1891 1 1.4344695473644593e-16 5.699960686347992 1.7198939189059372 0 0 0
1897 1 3.2911690501860003 5.699960686347992 1.7198939189059375 0 0 0
1727 4 6.582338100372004 1.9001268453839097 0.0317341070754098 0 0 0
1724 1 8.227922625465006 2.849724680737992 1.719893918905938 0 0 0
1733 4 9.873507150558005 1.90012684538391 0.031734107075410606 0 0 0
1730 1 11.519091675651005 2.849724680737992 1.7198939189059377 0 0 0
1728 4 8.227922625465006 4.750362850993908 0.031734107075409204 0 0 0
1734 4 11.519091675651005 4.750362850993909 0.031734107075409634 0 0 0
1903 1 6.582338100372004 5.699960686347992 1.7198939189059377 0 0 0
1909 1 9.873507150558005 5.699960686347992 1.7198939189059375 0 0 0
1739 4 13.164676200744005 1.90012684538391 0.03173410707541058 0 0 0
1736 1 14.810260725837004 2.849724680737992 1.7198939189059377 0 0 0
1745 4 16.455845250930004 1.90012684538391 0.03173410707541058 0 0 0
1740 4 14.810260725837004 4.750362850993909 0.03173410707540963 0 0 0
1915 1 13.164676200744005 5.699960686347992 1.7198939189059372 0 0 0
1921 1 16.455845250930004 5.699960686347992 1.7198939189059372 0 0 0
1742 1 18.101429776023004 2.849724680737992 1.7198939189059377 0 0 0
1751 4 19.747014301116003 1.90012684538391 0.03173410707541058 0 0 0
1748 1 21.392598826209003 2.849724680737992 1.7198939189059377 0 0 0
1757 4 23.038183351302003 1.90012684538391 0.03173410707541058 0 0 0
1746 4 18.101429776023004 4.750362850993909 0.03173410707540963 0 0 0
1752 4 21.392598826209003 4.750362850993909 0.03173410707540963 0 0 0
1927 1 19.747014301116003 5.699960686347992 1.7198939189059372 0 0 0
1933 1 23.038183351302003 5.699960686347992 1.7198939189059372 0 0 0
1754 1 24.683767876395002 2.849724680737992 1.7198939189059377 0 0 0
1763 4 26.329352401488002 1.90012684538391 0.03173410707541058 0 0 0
1760 1 27.974936926581 2.849724680737992 1.7198939189059377 0 0 0
1758 4 24.683767876395002 4.750362850993909 0.03173410707540962 0 0 0
1764 4 27.974936926581 4.750362850993909 0.03173410707540963 0 0 0
1939 1 26.329352401488002 5.699960686347992 1.7198939189059372 0 0 0
1769 4 29.620521451674 1.90012684538391 0.03173410707541057 0 0 0
1766 1 31.266105976767 2.849724680737992 1.7198939189059377 0 0 0
1775 4 32.91169050186 1.90012684538391 0.03173410707541058 0 0 0
1772 1 34.557275026953 2.849724680737992 1.7198939189059377 0 0 0
1770 4 31.266105976767 4.750362850993909 0.03173410707540962 0 0 0
1776 4 34.557275026953 4.750362850993909 0.03173410707540963 0 0 0
1945 1 29.620521451674 5.699960686347992 1.7198939189059372 0 0 0
1951 1 32.91169050186 5.699960686347992 1.7198939189059372 0 0 0
1781 4 36.202859552046 1.90012684538391 0.03173410707541058 0 0 0
1778 1 37.848444077139 2.849724680737992 1.7198939189059377 0 0 0
1787 4 39.494028602232 1.90012684538391 0.03173410707541058 0 0 0
1782 4 37.848444077139 4.750362850993909 0.03173410707540963 0 0 0
1957 1 36.202859552046 5.699960686347992 1.7198939189059372 0 0 0
1963 1 39.494028602232 5.699960686347992 1.7198939189059372 0 0 0
1784 1 41.139613127325 2.849724680737992 1.7198939189059377 0 0 0
1793 4 42.785197652418 1.90012684538391 0.03173410707541058 0 0 0
1790 1 44.430782177511 2.849724680737992 1.7198939189059377 0 0 0
1799 4 46.076366702604 1.90012684538391 0.03173410707541058 0 0 0
1788 4 41.139613127325 4.750362850993909 0.03173410707540963 0 0 0
1794 4 44.430782177511 4.750362850993909 0.03173410707540963 0 0 0
1969 1 42.785197652418 5.699960686347992 1.7198939189059372 0 0 0
1975 1 46.076366702604 5.699960686347992 1.7198939189059372 0 0 0
1796 1 47.721951227697 2.849724680737992 1.7198939189059377 0 0 0
1625 4 49.36753575279 1.90012684538391 0.03173410707541058 -1 0 0
1622 1 51.013120277883 2.849724680737992 1.7198939189059377 -1 0 0
1800 4 47.721951227697 4.750362850993909 0.03173410707540963 0 0 0
1626 4 51.013120277883 4.750362850993909 0.03173410707540963 -1 0 0
1801 1 49.36753575279 5.699960686347992 1.7198939189059372 -1 0 0
1631 4 52.658704802976 1.90012684538391 0.03173410707541058 -1 0 0
1628 1 54.304289328069 2.849724680737992 1.7198939189059377 -1 0 0
1637 4 55.949873853161996 1.90012684538391 0.03173410707541058 -1 0 0
1634 1 57.595458378254996 2.849724680737992 1.7198939189059377 -1 0 0
1632 4 54.304289328069 4.750362850993909 0.03173410707540963 -1 0 0
1638 4 57.595458378254996 4.750362850993909 0.031734107075409634 -1 0 0
1807 1 52.658704802976 5.699960686347992 1.7198939189059372 -1 0 0
1813 1 55.949873853161996 5.699960686347992 1.7198939189059372 -1 0 0
1643 4 59.241042903347996 1.90012684538391 0.031734107075410654 -1 0 0
1640 1 60.886627428440995 2.849724680737992 1.719893918905938 -1 0 0
1649 4 62.532211953533995 1.9001268453839095 0.03173410707540972 -1 0 0
1644 4 60.886627428440995 4.750362850993908 0.031734107075409225 -1 0 0
1819 1 59.241042903347996 5.699960686347992 1.7198939189059375 -1 0 0
1825 1 62.532211953533995 5.699960686347992 1.7198939189059375 -1 0 0
1646 1 64.177796478627 2.849724680737992 1.7198939189059381 -1 0 0
1655 4 65.82338100372 1.9001268453839097 0.03173410707541034 -1 0 0
1652 1 67.468965528813 2.849724680737992 1.719893918905938 -1 0 0
1661 4 69.114550053906 1.90012684538391 0.031734107075410564 -1 0 0
1650 4 64.177796478627 4.750362850993908 0.03173410707540873 -1 0 0
1656 4 67.468965528813 4.750362850993909 0.03173410707540957 -1 0 0
1831 1 65.82338100372 5.699960686347992 1.7198939189059375 -1 0 0
1837 1 69.114550053906 5.699960686347992 1.7198939189059372 -1 0 0
1658 1 70.760134578999 2.849724680737992 1.7198939189059377 -1 0 0
1667 4 72.405719104092 1.90012684538391 0.03173410707541057 -1 0 0
1664 1 74.051303629185 2.849724680737992 1.7198939189059377 -1 0 0
1662 4 70.760134578999 4.750362850993909 0.031734107075409614 -1 0 0
1668 4 74.051303629185 4.750362850993909 0.03173410707540962 -1 0 0
1843 1 72.405719104092 5.699960686347992 1.7198939189059372 -1 0 0
1673 4 75.696888154278 1.90012684538391 0.03173410707541057 -1 0 0
1670 1 77.342472679371 2.849724680737992 1.7198939189059377 -1 0 0
1679 4 78.988057204464 1.90012684538391 0.03173410707541057 -1 0 0
1676 1 80.633641729557 2.849724680737992 1.7198939189059377 -1 0 0
1674 4 77.342472679371 4.750362850993909 0.03173410707540962 -1 0 0
1680 4 80.633641729557 4.750362850993909 0.03173410707540962 -1 0 0
1849 1 75.696888154278 5.699960686347992 1.7198939189059372 -1 0 0
1855 1 78.988057204464 5.699960686347992 1.7198939189059372 -1 0 0
1685 4 82.27922625465 1.90012684538391 0.03173410707541057 -1 0 0
1682 1 83.924810779743 2.849724680737992 1.7198939189059377 -1 0 0
1691 4 85.570395304836 1.90012684538391 0.03173410707541057 -1 0 0
1686 4 83.924810779743 4.750362850993909 0.03173410707540962 -1 0 0
1861 1 82.27922625465 5.699960686347992 1.7198939189059372 -1 0 0
1867 1 85.570395304836 5.699960686347992 1.7198939189059372 -1 0 0
1688 1 87.215979829929 2.849724680737992 1.7198939189059377 -1 0 0
1697 4 88.861564355022 1.90012684538391 0.03173410707541057 -1 0 0
1694 1 90.507148880115 2.849724680737992 1.7198939189059377 -1 0 0
1703 4 92.152733405208 1.90012684538391 0.03173410707541057 -1 0 0
1692 4 87.215979829929 4.750362850993909 0.03173410707540962 -1 0 0
1698 4 90.507148880115 4.750362850993909 0.03173410707540962 -1 0 0
1873 1 88.861564355022 5.699960686347992 1.7198939189059372 -1 0 0
1879 1 92.152733405208 5.699960686347992 1.7198939189059372 -1 0 0
1700 1 93.798317930301 2.849724680737992 1.7198939189059377 -1 0 0
1709 4 95.443902455394 1.90012684538391 0.03173410707541057 -1 0 0
1706 1 97.089486980487 2.849724680737992 1.7198939189059377 -1 0 0
1704 4 93.798317930301 4.750362850993909 0.03173410707540962 -1 0 0
1710 4 97.089486980487 4.750362850993909 0.03173410707540963 -1 0 0
1885 1 95.443902455394 5.699960686347992 1.7198939189059372 -1 0 0
1895 4 3.4751152996672687e-17 7.600598856603909 0.0317341070754096 0 0 0
1892 1 1.645584525093 8.550196691957993 1.7198939189059375 0 0 0
1901 4 3.2911690501860003 7.600598856603908 0.03173410707540917 0 0 0
1898 1 4.936753575279001 8.550196691957991 1.7198939189059375 0 0 0
1896 4 1.6455845250929997 10.45083486221391 0.0317341070754094 0 0 0
1902 4 4.936753575279001 10.45083486221391 0.03173410707540871 0 0 0
2071 1 1.5055304842296082e-16 11.400432697567993 1.7198939189059372 0 0 0
2077 1 3.2911690501860003 11.400432697567993 1.7198939189059372 0 0 0
1907 4 6.582338100372004 7.600598856603908 0.03173410707540879 0 0 0
1904 1 8.227922625465006 8.550196691957993 1.7198939189059375 0 0 0
1913 4 9.873507150558005 7.600598856603909 0.03173410707540957 0 0 0
1910 1 11.519091675651005 8.550196691957993 1.7198939189059372 0 0 0
1908 4 8.227922625465006 10.45083486221391 0.031734107075408996 0 0 0
1914 4 11.519091675651005 10.45083486221391 0.03173410707540951 0 0 0
2083 1 6.582338100372004 11.400432697567993 1.7198939189059375 0 0 0
2089 1 9.873507150558005 11.400432697567993 1.7198939189059372 0 0 0
1919 4 13.164676200744005 7.600598856603909 0.03173410707540962 0 0 0
1916 1 14.810260725837004 8.550196691957993 1.7198939189059372 0 0 0
1925 4 16.455845250930004 7.600598856603909 0.03173410707540962 0 0 0
1920 4 14.810260725837004 10.45083486221391 0.03173410707540951 0 0 0
2095 1 13.164676200744005 11.400432697567993 1.7198939189059372 0 0 0
2101 1 16.455845250930004 11.400432697567993 1.7198939189059372 0 0 0
1922 1 18.101429776023004 8.550196691957993 1.7198939189059372 0 0 0
1931 4 19.747014301116003 7.600598856603909 0.03173410707540962 0 0 0
1928 1 21.392598826209003 8.550196691957993 1.7198939189059372 0 0 0
1937 4 23.038183351302003 7.600598856603909 0.03173410707540962 0 0 0
1926 4 18.101429776023004 10.45083486221391 0.03173410707540951 0 0 0
1932 4 21.392598826209003 10.45083486221391 0.03173410707540951 0 0 0
2107 1 19.747014301116003 11.400432697567993 1.7198939189059372 0 0 0
2113 1 23.038183351302003 11.400432697567993 1.7198939189059372 0 0 0
1934 1 24.683767876395002 8.550196691957993 1.7198939189059372 0 0 0
1943 4 26.329352401488002 7.600598856603909 0.03173410707540962 0 0 0
1940 1 27.974936926581 8.550196691957993 1.7198939189059372 0 0 0
1938 4 24.683767876395002 10.45083486221391 0.03173410707540951 0 0 0
1944 4 27.974936926581 10.45083486221391 0.03173410707540951 0 0 0
2119 1 26.329352401488002 11.400432697567993 1.7198939189059372 0 0 0
1949 4 29.620521451674 7.600598856603909 0.03173410707540962 0 0 0
1946 1 31.266105976767 8.550196691957993 1.7198939189059372 0 0 0
1955 4 32.91169050186 7.600598856603909 0.03173410707540962 0 0 0
1952 1 34.557275026953 8.550196691957993 1.7198939189059372 0 0 0
1950 4 31.266105976767 10.45083486221391 0.03173410707540951 0 0 0
1956 4 34.557275026953 10.45083486221391 0.03173410707540951 0 0 0
2125 1 29.620521451674 11.400432697567993 1.7198939189059372 0 0 0
2131 1 32.91169050186 11.400432697567993 1.7198939189059372 0 0 0
1961 4 36.202859552046 7.600598856603909 0.03173410707540962 0 0 0
1958 1 37.848444077139 8.550196691957993 1.7198939189059372 0 0 0
1967 4 39.494028602232 7.600598856603909 0.03173410707540962 0 0 0
1962 4 37.848444077139 10.45083486221391 0.03173410707540951 0 0 0
2137 1 36.202859552046 11.400432697567993 1.7198939189059372 0 0 0
2143 1 39.494028602232 11.400432697567993 1.7198939189059372 0 0 0
1964 1 41.139613127325 8.550196691957993 1.7198939189059372 0 0 0
1973 4 42.785197652418 7.600598856603909 0.03173410707540962 0 0 0
1970 1 44.430782177511 8.550196691957993 1.7198939189059372 0 0 0
1979 4 46.076366702604 7.600598856603909 0.03173410707540962 0 0 0
1968 4 41.139613127325 10.45083486221391 0.03173410707540951 0 0 0
1974 4 44.430782177511 10.45083486221391 0.03173410707540951 0 0 0
2149 1 42.785197652418 11.400432697567993 1.7198939189059372 0 0 0
2155 1 46.076366702604 11.400432697567993 1.7198939189059372 0 0 0
1976 1 47.721951227697 8.550196691957993 1.7198939189059372 0 0 0
1805 4 49.36753575279 7.600598856603909 0.03173410707540963 -1 0 0
1802 1 51.013120277883 8.550196691957993 1.7198939189059372 -1 0 0
1980 4 47.721951227697 10.45083486221391 0.03173410707540951 0 0 0
1806 4 51.013120277883 10.45083486221391 0.03173410707540951 -1 0 0
1981 1 49.36753575279 11.400432697567993 1.7198939189059372 -1 0 0
1811 4 52.658704802976 7.600598856603909 0.03173410707540962 -1 0 0
1808 1 54.304289328069 8.550196691957993 1.7198939189059372 -1 0 0
1817 4 55.949873853161996 7.600598856603909 0.03173410707540962 -1 0 0
1814 1 57.595458378254996 8.550196691957993 1.7198939189059372 -1 0 0
1812 4 54.304289328069 10.45083486221391 0.03173410707540951 -1 0 0
1818 4 57.595458378254996 10.45083486221391 0.03173410707540951 -1 0 0
1987 1 52.658704802976 11.400432697567993 1.7198939189059372 -1 0 0
1993 1 55.949873853161996 11.400432697567993 1.7198939189059372 -1 0 0
1823 4 59.241042903347996 7.600598856603909 0.03173410707540962 -1 0 0
1820 1 60.886627428440995 8.550196691957993 1.7198939189059375 -1 0 0
1829 4 62.532211953533995 7.600598856603908 0.031734107075408635 -1 0 0
1824 4 60.886627428440995 10.45083486221391 0.031734107075409045 -1 0 0
1999 1 59.241042903347996 11.400432697567993 1.7198939189059372 -1 0 0
2005 1 62.532211953533995 11.400432697567993 1.7198939189059375 -1 0 0
1826 1 64.177796478627 8.550196691957991 1.7198939189059375 -1 0 0
1835 4 65.82338100372 7.600598856603908 0.031734107075409204 -1 0 0
1832 1 67.468965528813 8.550196691957993 1.7198939189059375 -1 0 0
1841 4 69.114550053906 7.600598856603909 0.03173410707540962 -1 0 0
1830 4 64.177796478627 10.45083486221391 0.03173410707540854 -1 0 0
1836 4 67.468965528813 10.45083486221391 0.0317341070754095 -1 0 0
2011 1 65.82338100372 11.400432697567993 1.7198939189059375 -1 0 0
2017 1 69.114550053906 11.400432697567993 1.7198939189059372 -1 0 0
1838 1 70.760134578999 8.550196691957993 1.7198939189059372 -1 0 0
1847 4 72.405719104092 7.600598856603909 0.03173410707540962 -1 0 0
1844 1 74.051303629185 8.550196691957993 1.7198939189059372 -1 0 0
1842 4 70.760134578999 10.45083486221391 0.03173410707540951 -1 0 0
1848 4 74.051303629185 10.45083486221391 0.03173410707540951 -1 0 0
2023 1 72.405719104092 11.400432697567993 1.7198939189059372 -1 0 0
1853 4 75.696888154278 7.600598856603909 0.03173410707540962 -1 0 0
1850 1 77.342472679371 8.550196691957993 1.7198939189059372 -1 0 0
1859 4 78.988057204464 7.600598856603909 0.03173410707540962 -1 0 0
1856 1 80.633641729557 8.550196691957993 1.7198939189059372 -1 0 0
1854 4 77.342472679371 10.45083486221391 0.03173410707540951 -1 0 0
1860 4 80.633641729557 10.45083486221391 0.03173410707540951 -1 0 0
2029 1 75.696888154278 11.400432697567993 1.7198939189059372 -1 0 0
2035 1 78.988057204464 11.400432697567993 1.7198939189059372 -1 0 0
1865 4 82.27922625465 7.600598856603909 0.03173410707540962 -1 0 0
1862 1 83.924810779743 8.550196691957993 1.7198939189059372 -1 0 0
1871 4 85.570395304836 7.600598856603909 0.03173410707540962 -1 0 0
1866 4 83.924810779743 10.45083486221391 0.03173410707540951 -1 0 0
2041 1 82.27922625465 11.400432697567993 1.7198939189059372 -1 0 0
2047 1 85.570395304836 11.400432697567993 1.7198939189059372 -1 0 0
1868 1 87.215979829929 8.550196691957993 1.7198939189059372 -1 0 0
1877 4 88.861564355022 7.600598856603909 0.03173410707540962 -1 0 0
1874 1 90.507148880115 8.550196691957993 1.7198939189059372 -1 0 0
1883 4 92.152733405208 7.600598856603909 0.03173410707540962 -1 0 0
1872 4 87.215979829929 10.45083486221391 0.03173410707540951 -1 0 0
1878 4 90.507148880115 10.45083486221391 0.03173410707540951 -1 0 0
2053 1 88.861564355022 11.400432697567993 1.7198939189059372 -1 0 0
2059 1 92.152733405208 11.400432697567993 1.7198939189059372 -1 0 0
1880 1 93.798317930301 8.550196691957993 1.7198939189059372 -1 0 0
1889 4 95.443902455394 7.600598856603909 0.03173410707540962 -1 0 0
1886 1 97.089486980487 8.550196691957993 1.7198939189059372 -1 0 0
1884 4 93.798317930301 10.45083486221391 0.03173410707540951 -1 0 0
1890 4 97.089486980487 10.45083486221391 0.03173410707540951 -1 0 0
2065 1 95.443902455394 11.400432697567993 1.7198939189059372 -1 0 0
2075 4 3.738707799412092e-17 13.30107086782391 0.03173410707540927 0 0 0
2072 1 1.645584525093 14.250668703177992 1.7198939189059375 0 0 0
2081 4 3.2911690501860003 13.30107086782391 0.03173410707540878 0 0 0
2078 1 4.936753575279001 14.250668703177993 1.7198939189059375 0 0 0
2076 4 1.6455845250929997 16.15130687343391 0.03173410707540952 0 0 0
2082 4 4.936753575279001 16.15130687343391 0.031734107075408816 0 0 0
2251 1 1.1836031421992783e-16 17.100904708787994 1.7198939189059377 0 0 0
2257 1 3.2911690501860003 17.100904708787994 1.7198939189059375 0 0 0
2087 4 6.582338100372004 13.30107086782391 0.03173410707540843 0 0 0
2084 1 8.227922625465006 14.250668703177992 1.7198939189059375 0 0 0
2093 4 9.873507150558005 13.30107086782391 0.03173410707540927 0 0 0
2090 1 11.519091675651005 14.250668703177993 1.7198939189059372 0 0 0
2088 4 8.227922625465006 16.15130687343391 0.03173410707540916 0 0 0
2094 4 11.519091675651005 16.15130687343391 0.031734107075409614 0 0 0
2263 1 6.582338100372004 17.100904708787994 1.7198939189059377 0 0 0
2269 1 9.873507150558005 17.100904708787994 1.7198939189059377 0 0 0
2099 4 13.164676200744005 13.30107086782391 0.03173410707540935 0 0 0
2096 1 14.810260725837004 14.250668703177993 1.7198939189059372 0 0 0
2105 4 16.455845250930004 13.30107086782391 0.03173410707540935 0 0 0
2100 4 14.810260725837004 16.15130687343391 0.0317341070754096 0 0 0
2275 1 13.164676200744005 17.100904708787994 1.7198939189059377 0 0 0
2281 1 16.455845250930004 17.100904708787994 1.7198939189059377 0 0 0
2102 1 18.101429776023004 14.250668703177993 1.7198939189059372 0 0 0
2111 4 19.747014301116003 13.30107086782391 0.031734107075409274 0 0 0
2108 1 21.392598826209003 14.250668703177993 1.7198939189059372 0 0 0
2117 4 23.038183351302003 13.30107086782391 0.03173410707540919 0 0 0
2106 4 18.101429776023004 16.15130687343391 0.0317341070754096 0 0 0
2112 4 21.392598826209003 16.15130687343391 0.03173410707540953 0 0 0
2287 1 19.747014301116003 17.100904708787994 1.7198939189059377 0 0 0
2293 1 23.038183351302003 17.100904708787994 1.7198939189059375 0 0 0
2114 1 24.683767876395002 14.250668703177993 1.7198939189059372 0 0 0
2123 4 26.329352401488002 13.30107086782391 0.03173410707540919 0 0 0
2120 1 27.974936926581 14.250668703177993 1.7198939189059372 0 0 0
2118 4 24.683767876395002 16.15130687343391 0.03173410707540953 0 0 0
2124 4 27.974936926581 16.15130687343391 0.03173410707540953 0 0 0
2299 1 26.329352401488002 17.100904708787994 1.7198939189059375 0 0 0
2129 4 29.620521451674 13.30107086782391 0.03173410707540919 0 0 0
2126 1 31.266105976767 14.250668703177993 1.7198939189059372 0 0 0
2135 4 32.91169050186 13.30107086782391 0.03173410707540919 0 0 0
2132 1 34.557275026953 14.250668703177993 1.7198939189059372 0 0 0
2130 4 31.266105976767 16.15130687343391 0.03173410707540953 0 0 0
2136 4 34.557275026953 16.15130687343391 0.03173410707540953 0 0 0
2305 1 29.620521451674 17.100904708787994 1.7198939189059375 0 0 0
2311 1 32.91169050186 17.100904708787994 1.7198939189059375 0 0 0
2141 4 36.202859552046 13.30107086782391 0.031734107075409274 0 0 0
2138 1 37.848444077139 14.250668703177993 1.7198939189059372 0 0 0
2147 4 39.494028602232 13.30107086782391 0.03173410707540935 0 0 0
2142 4 37.848444077139 16.15130687343391 0.0317341070754096 0 0 0
2317 1 36.202859552046 17.100904708787994 1.7198939189059377 0 0 0
2323 1 39.494028602232 17.100904708787994 1.7198939189059377 0 0 0
2144 1 41.139613127325 14.250668703177993 1.7198939189059372 0 0 0
2153 4 42.785197652418 13.30107086782391 0.03173410707540935 0 0 0
2150 1 44.430782177511 14.250668703177993 1.7198939189059372 0 0 0
2159 4 46.076366702604 13.30107086782391 0.03173410707540935 0 0 0
2148 4 41.139613127325 16.15130687343391 0.0317341070754096 0 0 0
2154 4 44.430782177511 16.15130687343391 0.0317341070754096 0 0 0
2329 1 42.785197652418 17.100904708787994 1.7198939189059377 0 0 0
2335 1 46.076366702604 17.100904708787994 1.7198939189059377 0 0 0
2156 1 47.721951227697 14.250668703177993 1.7198939189059372 0 0 0
1985 4 49.36753575279 13.30107086782391 0.03173410707540935 -1 0 0
1982 1 51.013120277883 14.250668703177993 1.7198939189059372 -1 0 0
2160 4 47.721951227697 16.15130687343391 0.0317341070754096 0 0 0
1986 4 51.013120277883 16.15130687343391 0.0317341070754096 -1 0 0
2161 1 49.36753575279 17.100904708787994 1.7198939189059377 -1 0 0
1991 4 52.658704802976 13.30107086782391 0.03173410707540935 -1 0 0
1988 1 54.304289328069 14.250668703177993 1.7198939189059372 -1 0 0
1997 4 55.949873853161996 13.30107086782391 0.03173410707540935 -1 0 0
1994 1 57.595458378254996 14.250668703177993 1.7198939189059372 -1 0 0
1992 4 54.304289328069 16.15130687343391 0.0317341070754096 -1 0 0
1998 4 57.595458378254996 16.15130687343391 0.031734107075409614 -1 0 0
2167 1 52.658704802976 17.100904708787994 1.7198939189059377 -1 0 0
2173 1 55.949873853161996 17.100904708787994 1.7198939189059377 -1 0 0
2003 4 59.241042903347996 13.30107086782391 0.031734107075409315 -1 0 0
2000 1 60.886627428440995 14.250668703177992 1.7198939189059375 -1 0 0
2009 4 62.532211953533995 13.30107086782391 0.03173410707540831 -1 0 0
2004 4 60.886627428440995 16.15130687343391 0.0317341070754092 -1 0 0
2179 1 59.241042903347996 17.100904708787994 1.7198939189059377 -1 0 0
2185 1 62.532211953533995 17.100904708787994 1.7198939189059377 -1 0 0
2006 1 64.177796478627 14.250668703177993 1.7198939189059375 -1 0 0
2015 4 65.82338100372 13.30107086782391 0.03173410707540882 -1 0 0
2012 1 67.468965528813 14.250668703177993 1.7198939189059372 -1 0 0
2021 4 69.114550053906 13.30107086782391 0.031734107075409204 -1 0 0
2010 4 64.177796478627 16.15130687343391 0.03173410707540868 -1 0 0
2016 4 67.468965528813 16.15130687343391 0.03173410707540959 -1 0 0
2191 1 65.82338100372 17.100904708787994 1.7198939189059377 -1 0 0
2197 1 69.114550053906 17.100904708787994 1.7198939189059375 -1 0 0
2018 1 70.760134578999 14.250668703177993 1.7198939189059372 -1 0 0
2027 4 72.405719104092 13.30107086782391 0.03173410707540919 -1 0 0
2024 1 74.051303629185 14.250668703177993 1.7198939189059372 -1 0 0
2022 4 70.760134578999 16.15130687343391 0.03173410707540953 -1 0 0
2028 4 74.051303629185 16.15130687343391 0.03173410707540953 -1 0 0
2203 1 72.405719104092 17.100904708787994 1.7198939189059375 -1 0 0
2033 4 75.696888154278 13.30107086782391 0.03173410707540919 -1 0 0
2030 1 77.342472679371 14.250668703177993 1.7198939189059372 -1 0 0
2039 4 78.988057204464 13.30107086782391 0.03173410707540919 -1 0 0
2036 1 80.633641729557 14.250668703177993 1.7198939189059372 -1 0 0
2034 4 77.342472679371 16.15130687343391 0.03173410707540953 -1 0 0
2040 4 80.633641729557 16.15130687343391 0.03173410707540953 -1 0 0
2209 1 75.696888154278 17.100904708787994 1.7198939189059375 -1 0 0
2215 1 78.988057204464 17.100904708787994 1.7198939189059375 -1 0 0
2045 4 82.27922625465 13.30107086782391 0.03173410707540919 -1 0 0
2042 1 83.924810779743 14.250668703177993 1.7198939189059372 -1 0 0
2051 4 85.570395304836 13.30107086782391 0.03173410707540919 -1 0 0
2046 4 83.924810779743 16.15130687343391 0.03173410707540953 -1 0 0
2221 1 82.27922625465 17.100904708787994 1.7198939189059375 -1 0 0
2227 1 85.570395304836 17.100904708787994 1.7198939189059375 -1 0 0
2048 1 87.215979829929 14.250668703177993 1.7198939189059372 -1 0 0
2057 4 88.861564355022 13.30107086782391 0.03173410707540919 -1 0 0
2054 1 90.507148880115 14.250668703177993 1.7198939189059372 -1 0 0
2063 4 92.152733405208 13.30107086782391 0.03173410707540919 -1 0 0
2052 4 87.215979829929 16.15130687343391 0.03173410707540953 -1 0 0
2058 4 90.507148880115 16.15130687343391 0.03173410707540953 -1 0 0
2233 1 88.861564355022 17.100904708787994 1.7198939189059375 -1 0 0
2239 1 92.152733405208 17.100904708787994 1.7198939189059375 -1 0 0
2060 1 93.798317930301 14.250668703177993 1.7198939189059372 -1 0 0
2069 4 95.443902455394 13.30107086782391 0.031734107075409274 -1 0 0
2066 1 97.089486980487 14.250668703177993 1.7198939189059372 -1 0 0
2064 4 93.798317930301 16.15130687343391 0.03173410707540953 -1 0 0
2070 4 97.089486980487 16.15130687343391 0.03173410707540959 -1 0 0
2245 1 95.443902455394 17.100904708787994 1.7198939189059377 -1 0 0
2255 4 8.511088356697606e-18 19.00154287904391 0.0317341070754093 0 0 0
2252 1 1.645584525093 19.95114071439799 1.7198939189059375 0 0 0
2261 4 3.2911690501860003 19.00154287904391 0.03173410707540909 0 0 0
2258 1 4.936753575279001 19.95114071439799 1.7198939189059377 0 0 0
2256 4 1.6455845250929997 21.85177888465391 0.031734107075409294 0 0 0
2262 4 4.936753575279001 21.85177888465391 0.031734107075408614 0 0 0
2431 1 1.2669216170219208e-16 22.80137672000799 1.7198939189059375 0 0 0
2437 1 3.2911690501860003 22.80137672000799 1.7198939189059377 0 0 0
2267 4 6.582338100372004 19.00154287904391 0.03173410707540855 0 0 0
2264 1 8.227922625465006 19.95114071439799 1.7198939189059377 0 0 0
2273 4 9.873507150558005 19.00154287904391 0.03173410707540932 0 0 0
2270 1 11.519091675651005 19.95114071439799 1.7198939189059375 0 0 0
2268 4 8.227922625465006 21.85177888465391 0.03173410707540907 0 0 0
2274 4 11.519091675651005 21.85177888465391 0.03173410707540933 0 0 0
2443 1 6.582338100372004 22.80137672000799 1.7198939189059377 0 0 0
2449 1 9.873507150558005 22.80137672000799 1.7198939189059375 0 0 0
2279 4 13.164676200744005 19.00154287904391 0.0317341070754093 0 0 0
2276 1 14.810260725837004 19.95114071439799 1.7198939189059375 0 0 0
2285 4 16.455845250930004 19.00154287904391 0.0317341070754093 0 0 0
2280 4 14.810260725837004 21.85177888465391 0.0317341070754093 0 0 0
2455 1 13.164676200744005 22.80137672000799 1.7198939189059375 0 0 0
2461 1 16.455845250930004 22.80137672000799 1.7198939189059375 0 0 0
2282 1 18.101429776023004 19.95114071439799 1.7198939189059375 0 0 0
2291 4 19.747014301116003 19.00154287904391 0.0317341070754093 0 0 0
2288 1 21.392598826209003 19.95114071439799 1.7198939189059375 0 0 0
2297 4 23.038183351302003 19.00154287904391 0.0317341070754093 0 0 0
2286 4 18.101429776023004 21.85177888465391 0.0317341070754093 0 0 0
2292 4 21.392598826209003 21.85177888465391 0.0317341070754093 0 0 0
2467 1 19.747014301116003 22.80137672000799 1.7198939189059375 0 0 0
2473 1 23.038183351302003 22.80137672000799 1.7198939189059375 0 0 0
2294 1 24.683767876395002 19.95114071439799 1.7198939189059375 0 0 0
2303 4 26.329352401488002 19.00154287904391 0.0317341070754093 0 0 0
2300 1 27.974936926581 19.95114071439799 1.7198939189059375 0 0 0
2298 4 24.683767876395002 21.85177888465391 0.0317341070754093 0 0 0
2304 4 27.974936926581 21.85177888465391 0.0317341070754093 0 0 0
2479 1 26.329352401488002 22.80137672000799 1.7198939189059375 0 0 0
2309 4 29.620521451674 19.00154287904391 0.0317341070754093 0 0 0
2306 1 31.266105976767 19.95114071439799 1.7198939189059375 0 0 0
2315 4 32.91169050186 19.00154287904391 0.0317341070754093 0 0 0
2312 1 34.557275026953 19.95114071439799 1.7198939189059375 0 0 0
2310 4 31.266105976767 21.85177888465391 0.0317341070754093 0 0 0
2316 4 34.557275026953 21.85177888465391 0.0317341070754093 0 0 0
2485 1 29.620521451674 22.80137672000799 1.7198939189059375 0 0 0
2491 1 32.91169050186 22.80137672000799 1.7198939189059375 0 0 0
2321 4 36.202859552046 19.00154287904391 0.0317341070754093 0 0 0
2318 1 37.848444077139 19.95114071439799 1.7198939189059375 0 0 0
2327 4 39.494028602232 19.00154287904391 0.0317341070754093 0 0 0
2322 4 37.848444077139 21.85177888465391 0.0317341070754093 0 0 0
2497 1 36.202859552046 22.80137672000799 1.7198939189059375 0 0 0
2503 1 39.494028602232 22.80137672000799 1.7198939189059375 0 0 0
2324 1 41.139613127325 19.95114071439799 1.7198939189059375 0 0 0
2333 4 42.785197652418 19.00154287904391 0.0317341070754093 0 0 0
2330 1 44.430782177511 19.95114071439799 1.7198939189059375 0 0 0
2339 4 46.076366702604 19.00154287904391 0.0317341070754093 0 0 0
2328 4 41.139613127325 21.85177888465391 0.0317341070754093 0 0 0
2334 4 44.430782177511 21.85177888465391 0.0317341070754093 0 0 0
2509 1 42.785197652418 22.80137672000799 1.7198939189059375 0 0 0
2515 1 46.076366702604 22.80137672000799 1.7198939189059375 0 0 0
2336 1 47.721951227697 19.95114071439799 1.7198939189059375 0 0 0
2165 4 49.36753575279 19.00154287904391 0.0317341070754093 -1 0 0
2162 1 51.013120277883 19.95114071439799 1.7198939189059375 -1 0 0
2340 4 47.721951227697 21.85177888465391 0.0317341070754093 0 0 0
2166 4 51.013120277883 21.85177888465391 0.0317341070754093 -1 0 0
2341 1 49.36753575279 22.80137672000799 1.7198939189059375 -1 0 0
2171 4 52.658704802976 19.00154287904391 0.0317341070754093 -1 0 0
2168 1 54.304289328069 19.95114071439799 1.7198939189059375 -1 0 0
2177 4 55.949873853161996 19.00154287904391 0.0317341070754093 -1 0 0
2174 1 57.595458378254996 19.95114071439799 1.7198939189059375 -1 0 0
2172 4 54.304289328069 21.85177888465391 0.0317341070754093 -1 0 0
2178 4 57.595458378254996 21.85177888465391 0.03173410707540932 -1 0 0
2347 1 52.658704802976 22.80137672000799 1.7198939189059375 -1 0 0
2353 1 55.949873853161996 22.80137672000799 1.7198939189059375 -1 0 0
2183 4 59.241042903347996 19.00154287904391 0.03173410707540938 -1 0 0
2180 1 60.886627428440995 19.95114071439799 1.7198939189059375 -1 0 0
2189 4 62.532211953533995 19.00154287904391 0.031734107075408635 -1 0 0
2184 4 60.886627428440995 21.85177888465391 0.031734107075409114 -1 0 0