LAMMPS data file via write_data, version 29 Aug 2024, timestep = 4, units = metal

9720 atoms
9 atom types

0 98.73507150558 xlo xhi
0 102.60849620196 ylo yhi
-50 50 zlo zhi

Masses

1 183.84
2 183.84
3 183.84
4 78.971
5 78.971
6 78.971
7 78.971
8 78.971
9 78.971

Atoms # atomic

1715 5 4.08737033291519e-17 1.9000605133056563 0.03150530326042701 0 0 0
1712 1 1.645584525093 2.849462072639087 1.718102953070165 0 0 0
1721 5 3.2911690501860003 1.9000605133056558 0.03150530326042667 0 0 0
1718 1 4.936753575279002 2.849462072639087 1.718102953070165 0 0 0
1716 5 1.645584525093 4.750296518915656 0.03150530326042714 0 0 0
1722 5 4.936753575279001 4.750296518915656 0.0315053032604264 0 0 0
1891 1 9.307025824730607e-17 5.699698078249088 1.7181029530701657 0 0 0
1897 1 3.2911690501860007 5.699698078249088 1.7181029530701653 0 0 0
1727 5 6.582338100372004 1.9000605133056558 0.03150530326042615 0 0 0
1724 1 8.227922625465006 2.849462072639087 1.7181029530701653 0 0 0
1733 5 9.873507150558005 1.9000605133056563 0.03150530326042699 0 0 0
1730 1 11.519091675651005 2.8494620726390867 1.7181029530701653 0 0 0
1728 5 8.227922625465006 4.750296518915656 0.03150530326042665 0 0 0
1734 5 11.519091675651005 4.750296518915656 0.031505303260427116 0 0 0
1903 1 6.582338100372004 5.699698078249088 1.7181029530701655 0 0 0
1909 1 9.873507150558005 5.699698078249088 1.7181029530701657 0 0 0
1739 5 13.164676200744005 1.9000605133056563 0.03150530326042695 0 0 0
1736 1 14.810260725837004 2.8494620726390867 1.7181029530701655 0 0 0
1745 5 16.455845250930004 1.9000605133056563 0.03150530326042694 0 0 0
1740 5 14.810260725837004 4.750296518915656 0.03150530326042711 0 0 0
1915 1 13.164676200744005 5.699698078249088 1.7181029530701657 0 0 0
1921 1 16.455845250930004 5.699698078249088 1.7181029530701657 0 0 0
1742 1 18.101429776023004 2.8494620726390867 1.7181029530701655 0 0 0
1751 5 19.747014301116003 1.9000605133056563 0.03150530326042694 0 0 0
1748 1 21.392598826209003 2.8494620726390867 1.7181029530701655 0 0 0
1757 5 23.038183351302003 1.9000605133056563 0.03150530326042694 0 0 0
1746 5 18.101429776023004 4.750296518915656 0.03150530326042711 0 0 0
1752 5 21.392598826209003 4.750296518915656 0.03150530326042711 0 0 0
1927 1 19.747014301116003 5.699698078249088 1.7181029530701657 0 0 0
1933 1 23.038183351302003 5.699698078249088 1.7181029530701657 0 0 0
1754 1 24.683767876395002 2.8494620726390867 1.7181029530701655 0 0 0
1763 5 26.329352401488002 1.9000605133056563 0.03150530326042694 0 0 0
1760 1 27.974936926581 2.8494620726390867 1.7181029530701655 0 0 0
1758 5 24.683767876395002 4.750296518915656 0.03150530326042711 0 0 0
1764 5 27.974936926581 4.750296518915656 0.03150530326042711 0 0 0
1939 1 26.329352401488002 5.699698078249088 1.7181029530701657 0 0 0
1769 5 29.620521451674 1.9000605133056563 0.03150530326042694 0 0 0
1766 1 31.266105976767 2.8494620726390867 1.7181029530701655 0 0 0
1775 5 32.91169050186 1.9000605133056563 0.03150530326042694 0 0 0
1772 1 34.557275026953 2.8494620726390867 1.7181029530701655 0 0 0
1770 5 31.266105976767 4.750296518915656 0.03150530326042711 0 0 0
1776 5 34.557275026953 4.750296518915656 0.03150530326042711 0 0 0
1945 1 29.620521451674 5.699698078249088 1.7181029530701657 0 0 0
1951 1 32.91169050186 5.699698078249088 1.7181029530701657 0 0 0
1781 5 36.202859552046 1.9000605133056563 0.03150530326042694 0 0 0
1778 1 37.848444077139 2.8494620726390867 1.7181029530701655 0 0 0
1787 5 39.494028602232 1.9000605133056563 0.03150530326042694 0 0 0
1782 5 37.848444077139 4.750296518915656 0.03150530326042711 0 0 0
1957 1 36.202859552046 5.699698078249088 1.7181029530701657 0 0 0
1963 1 39.494028602232 5.699698078249088 1.7181029530701657 0 0 0
1784 1 41.139613127325 2.8494620726390867 1.7181029530701655 0 0 0
1793 5 42.785197652418 1.9000605133056563 0.03150530326042694 0 0 0
1790 1 44.430782177511 2.8494620726390867 1.7181029530701655 0 0 0
1799 5 46.076366702604 1.9000605133056563 0.03150530326042694 0 0 0
1788 5 41.139613127325 4.750296518915656 0.03150530326042711 0 0 0
1794 5 44.430782177511 4.750296518915656 0.03150530326042711 0 0 0
1969 1 42.785197652418 5.699698078249088 1.7181029530701657 0 0 0
1975 1 46.076366702604 5.699698078249088 1.7181029530701657 0 0 0
1796 1 47.721951227697 2.8494620726390867 1.7181029530701655 0 0 0
1625 5 49.36753575279 1.9000605133056563 0.03150530326042694 -1 0 0
1622 1 51.013120277883 2.8494620726390867 1.7181029530701655 -1 0 0
1800 5 47.721951227697 4.750296518915656 0.03150530326042711 0 0 0
1626 5 51.013120277883 4.750296518915656 0.03150530326042711 -1 0 0
1801 1 49.36753575279 5.699698078249088 1.7181029530701657 -1 0 0
1631 5 52.658704802976 1.9000605133056563 0.03150530326042694 -1 0 0
1628 1 54.304289328069 2.8494620726390867 1.7181029530701655 -1 0 0
1637 5 55.949873853161996 1.9000605133056563 0.03150530326042694 -1 0 0
1634 1 57.595458378254996 2.8494620726390867 1.7181029530701655 -1 0 0
1632 5 54.304289328069 4.750296518915656 0.03150530326042711 -1 0 0
1638 5 57.595458378254996 4.750296518915656 0.031505303260427116 -1 0 0
1807 1 52.658704802976 5.699698078249088 1.7181029530701657 -1 0 0
1813 1 55.949873853161996 5.699698078249088 1.7181029530701657 -1 0 0
1643 5 59.241042903347996 1.9000605133056563 0.031505303260427046 -1 0 0
1640 1 60.886627428440995 2.8494620726390867 1.7181029530701653 -1 0 0
1649 5 62.532211953533995 1.9000605133056558 0.0315053032604261 -1 0 0
1644 5 60.886627428440995 4.750296518915656 0.03150530326042676 -1 0 0
1819 1 59.241042903347996 5.699698078249088 1.7181029530701657 -1 0 0
1825 1 62.532211953533995 5.699698078249088 1.7181029530701655 -1 0 0
1646 1 64.177796478627 2.849462072639087 1.7181029530701653 -1 0 0
1655 5 65.82338100372 1.9000605133056558 0.03150530326042662 -1 0 0
1652 1 67.468965528813 2.849462072639087 1.7181029530701653 -1 0 0
1661 5 69.114550053906 1.9000605133056563 0.03150530326042705 -1 0 0
1650 5 64.177796478627 4.750296518915655 0.0315053032604263 -1 0 0
1656 5 67.468965528813 4.750296518915656 0.03150530326042713 -1 0 0
1831 1 65.82338100372 5.699698078249088 1.7181029530701655 -1 0 0
1837 1 69.114550053906 5.699698078249088 1.7181029530701655 -1 0 0
1658 1 70.760134578999 2.8494620726390867 1.7181029530701653 -1 0 0
1667 5 72.405719104092 1.9000605133056563 0.03150530326042695 -1 0 0
1664 1 74.051303629185 2.8494620726390867 1.7181029530701655 -1 0 0
1662 5 70.760134578999 4.750296518915656 0.03150530326042711 -1 0 0
1668 5 74.051303629185 4.750296518915656 0.03150530326042711 -1 0 0
1843 1 72.405719104092 5.699698078249088 1.7181029530701657 -1 0 0
1673 5 75.696888154278 1.9000605133056563 0.03150530326042694 -1 0 0
1670 1 77.342472679371 2.8494620726390867 1.7181029530701655 -1 0 0
1679 5 78.988057204464 1.9000605133056563 0.03150530326042694 -1 0 0
1676 1 80.633641729557 2.8494620726390867 1.7181029530701655 -1 0 0
1674 5 77.342472679371 4.750296518915656 0.03150530326042711 -1 0 0
1680 5 80.633641729557 4.750296518915656 0.03150530326042711 -1 0 0
1849 1 75.696888154278 5.699698078249088 1.7181029530701657 -1 0 0
1855 1 78.988057204464 5.699698078249088 1.7181029530701657 -1 0 0
1685 5 82.27922625465 1.9000605133056563 0.03150530326042694 -1 0 0
1682 1 83.924810779743 2.8494620726390867 1.7181029530701655 -1 0 0
1691 5 85.570395304836 1.9000605133056563 0.03150530326042694 -1 0 0
1686 5 83.924810779743 4.750296518915656 0.03150530326042711 -1 0 0
1861 1 82.27922625465 5.699698078249088 1.7181029530701657 -1 0 0
1867 1 85.570395304836 5.699698078249088 1.7181029530701657 -1 0 0
1688 1 87.215979829929 2.8494620726390867 1.7181029530701655 -1 0 0
1697 5 88.861564355022 1.9000605133056563 0.03150530326042694 -1 0 0
1694 1 90.507148880115 2.8494620726390867 1.7181029530701655 -1 0 0
1703 5 92.152733405208 1.9000605133056563 0.03150530326042694 -1 0 0
1692 5 87.215979829929 4.750296518915656 0.03150530326042711 -1 0 0
1698 5 90.507148880115 4.750296518915656 0.03150530326042711 -1 0 0
1873 1 88.861564355022 5.699698078249088 1.7181029530701657 -1 0 0
1879 1 92.152733405208 5.699698078249088 1.7181029530701657 -1 0 0
1700 1 93.798317930301 2.8494620726390867 1.7181029530701655 -1 0 0
1709 5 95.443902455394 1.9000605133056563 0.03150530326042695 -1 0 0
1706 1 97.089486980487 2.8494620726390867 1.7181029530701653 -1 0 0
1704 5 93.798317930301 4.750296518915656 0.03150530326042711 -1 0 0
1710 5 97.089486980487 4.750296518915656 0.031505303260427116 -1 0 0
1885 1 95.443902455394 5.699698078249088 1.7181029530701657 -1 0 0
1895 5 7.300123820335911e-17 7.600532524525657 0.03150530326042682 0 0 0
1892 1 1.645584525093 8.549934083859087 1.7181029530701653 0 0 0
1901 5 3.2911690501860003 7.600532524525656 0.03150530326042659 0 0 0
1898 1 4.936753575279002 8.549934083859089 1.7181029530701653 0 0 0
1896 5 1.6455845250929997 10.450768530135658 0.031505303260426866 0 0 0
1902 5 4.936753575279001 10.450768530135658 0.03150530326042617 0 0 0
2071 1 1.4775205353563648e-16 11.40017008946909 1.7181029530701653 0 0 0
2077 1 3.2911690501860007 11.40017008946909 1.718102953070165 0 0 0
1907 5 6.582338100372005 7.600532524525656 0.03150530326042624 0 0 0
1904 1 8.227922625465006 8.549934083859087 1.7181029530701655 0 0 0
1913 5 9.873507150558005 7.600532524525657 0.031505303260426845 0 0 0
1910 1 11.519091675651005 8.549934083859087 1.7181029530701655 0 0 0
1908 5 8.227922625465006 10.450768530135658 0.031505303260426505 0 0 0
1914 5 11.519091675651005 10.450768530135658 0.0315053032604268 0 0 0
2083 1 6.582338100372004 11.40017008946909 1.718102953070165 0 0 0
2089 1 9.873507150558005 11.40017008946909 1.7181029530701653 0 0 0
1919 5 13.164676200744005 7.600532524525657 0.03150530326042681 0 0 0
1916 1 14.810260725837004 8.549934083859089 1.7181029530701655 0 0 0
1925 5 16.455845250930004 7.600532524525657 0.03150530326042681 0 0 0
1920 5 14.810260725837004 10.450768530135658 0.03150530326042679 0 0 0
2095 1 13.164676200744005 11.40017008946909 1.7181029530701653 0 0 0
2101 1 16.455845250930004 11.40017008946909 1.7181029530701653 0 0 0
1922 1 18.101429776023004 8.549934083859089 1.7181029530701655 0 0 0
1931 5 19.747014301116003 7.600532524525657 0.03150530326042681 0 0 0
1928 1 21.392598826209003 8.549934083859089 1.7181029530701655 0 0 0
1937 5 23.038183351302003 7.600532524525657 0.03150530326042681 0 0 0
1926 5 18.101429776023004 10.450768530135658 0.03150530326042679 0 0 0
1932 5 21.392598826209003 10.450768530135658 0.03150530326042679 0 0 0
2107 1 19.747014301116003 11.40017008946909 1.7181029530701653 0 0 0
2113 1 23.038183351302003 11.40017008946909 1.7181029530701653 0 0 0
1934 1 24.683767876395002 8.549934083859089 1.7181029530701655 0 0 0
1943 5 26.329352401488002 7.600532524525657 0.03150530326042681 0 0 0
1940 1 27.974936926581 8.549934083859089 1.7181029530701655 0 0 0
1938 5 24.683767876395002 10.450768530135658 0.03150530326042679 0 0 0
1944 5 27.974936926581 10.450768530135658 0.03150530326042679 0 0 0
2119 1 26.329352401488002 11.40017008946909 1.7181029530701653 0 0 0
1949 5 29.620521451674 7.600532524525657 0.03150530326042681 0 0 0
1946 1 31.266105976767 8.549934083859089 1.7181029530701655 0 0 0
1955 5 32.91169050186 7.600532524525657 0.03150530326042681 0 0 0
1952 1 34.557275026953 8.549934083859089 1.7181029530701655 0 0 0
1950 5 31.266105976767 10.450768530135658 0.03150530326042679 0 0 0
1956 5 34.557275026953 10.450768530135658 0.03150530326042679 0 0 0
2125 1 29.620521451674 11.40017008946909 1.7181029530701653 0 0 0
2131 1 32.91169050186 11.40017008946909 1.7181029530701653 0 0 0
1961 5 36.202859552046 7.600532524525657 0.03150530326042681 0 0 0
1958 1 37.848444077139 8.549934083859089 1.7181029530701655 0 0 0
1967 5 39.494028602232 7.600532524525657 0.03150530326042681 0 0 0
1962 5 37.848444077139 10.450768530135658 0.03150530326042679 0 0 0
2137 1 36.202859552046 11.40017008946909 1.7181029530701655 0 0 0
2143 1 39.494028602232 11.40017008946909 1.7181029530701653 0 0 0
1964 1 41.139613127325 8.549934083859089 1.7181029530701655 0 0 0
1973 5 42.785197652418 7.600532524525657 0.03150530326042681 0 0 0
1970 1 44.430782177511 8.549934083859089 1.7181029530701655 0 0 0
1979 5 46.076366702604 7.600532524525657 0.03150530326042681 0 0 0
1968 5 41.139613127325 10.450768530135658 0.03150530326042679 0 0 0
1974 5 44.430782177511 10.450768530135658 0.03150530326042679 0 0 0
2149 1 42.785197652418 11.40017008946909 1.7181029530701653 0 0 0
2155 1 46.076366702604 11.40017008946909 1.7181029530701653 0 0 0
1976 1 47.721951227697 8.549934083859089 1.7181029530701655 0 0 0
1805 5 49.36753575279 7.600532524525657 0.03150530326042682 -1 0 0
1802 1 51.013120277883 8.549934083859089 1.7181029530701655 -1 0 0
1980 5 47.721951227697 10.450768530135658 0.03150530326042679 0 0 0
1806 5 51.013120277883 10.450768530135658 0.03150530326042679 -1 0 0
1981 1 49.36753575279 11.40017008946909 1.7181029530701653 -1 0 0
1811 5 52.658704802976 7.600532524525657 0.03150530326042681 -1 0 0
1808 1 54.304289328069 8.549934083859089 1.7181029530701655 -1 0 0
1817 5 55.949873853161996 7.600532524525657 0.03150530326042681 -1 0 0
1814 1 57.595458378254996 8.549934083859087 1.7181029530701655 -1 0 0
1812 5 54.304289328069 10.450768530135658 0.03150530326042679 -1 0 0
1818 5 57.595458378254996 10.450768530135658 0.0315053032604268 -1 0 0
1987 1 52.658704802976 11.40017008946909 1.7181029530701653 -1 0 0
1993 1 55.949873853161996 11.40017008946909 1.7181029530701653 -1 0 0
1823 5 59.241042903347996 7.600532524525657 0.031505303260426915 -1 0 0
1820 1 60.886627428440995 8.549934083859089 1.7181029530701655 -1 0 0
1829 5 62.532211953533995 7.600532524525656 0.03150530326042608 -1 0 0
1824 5 60.886627428440995 10.450768530135658 0.03150530326042654 -1 0 0
1999 1 59.241042903347996 11.40017008946909 1.7181029530701653 -1 0 0
2005 1 62.532211953533995 11.40017008946909 1.718102953070165 -1 0 0
1826 1 64.177796478627 8.549934083859087 1.7181029530701653 -1 0 0
1835 5 65.82338100372 7.600532524525656 0.03150530326042651 -1 0 0
1832 1 67.468965528813 8.549934083859089 1.7181029530701655 -1 0 0
1841 5 69.114550053906 7.600532524525657 0.031505303260426866 -1 0 0
1830 5 64.177796478627 10.450768530135658 0.03150530326042594 -1 0 0
1836 5 67.468965528813 10.450768530135658 0.031505303260426845 -1 0 0
2011 1 65.82338100372 11.40017008946909 1.718102953070165 -1 0 0
2017 1 69.114550053906 11.40017008946909 1.7181029530701653 -1 0 0
1838 1 70.760134578999 8.549934083859087 1.7181029530701655 -1 0 0
1847 5 72.405719104092 7.600532524525657 0.03150530326042681 -1 0 0
1844 1 74.051303629185 8.549934083859089 1.7181029530701655 -1 0 0
1842 5 70.760134578999 10.450768530135658 0.03150530326042679 -1 0 0
1848 5 74.051303629185 10.450768530135658 0.03150530326042679 -1 0 0
2023 1 72.405719104092 11.40017008946909 1.7181029530701655 -1 0 0
1853 5 75.696888154278 7.600532524525657 0.03150530326042681 -1 0 0
1850 1 77.342472679371 8.549934083859089 1.7181029530701655 -1 0 0
1859 5 78.988057204464 7.600532524525657 0.03150530326042681 -1 0 0
1856 1 80.633641729557 8.549934083859089 1.7181029530701655 -1 0 0
1854 5 77.342472679371 10.450768530135658 0.03150530326042679 -1 0 0
1860 5 80.633641729557 10.450768530135658 0.03150530326042679 -1 0 0
2029 1 75.696888154278 11.40017008946909 1.7181029530701653 -1 0 0
2035 1 78.988057204464 11.40017008946909 1.7181029530701653 -1 0 0
1865 5 82.27922625465 7.600532524525657 0.03150530326042681 -1 0 0
1862 1 83.924810779743 8.549934083859089 1.7181029530701655 -1 0 0
1871 5 85.570395304836 7.600532524525657 0.03150530326042681 -1 0 0
1866 5 83.924810779743 10.450768530135658 0.03150530326042679 -1 0 0
2041 1 82.27922625465 11.40017008946909 1.7181029530701653 -1 0 0
2047 1 85.570395304836 11.40017008946909 1.7181029530701653 -1 0 0
1868 1 87.215979829929 8.549934083859089 1.7181029530701655 -1 0 0
1877 5 88.861564355022 7.600532524525657 0.03150530326042681 -1 0 0
1874 1 90.507148880115 8.549934083859089 1.7181029530701655 -1 0 0
1883 5 92.152733405208 7.600532524525657 0.03150530326042681 -1 0 0
1872 5 87.215979829929 10.450768530135658 0.03150530326042679 -1 0 0
1878 5 90.507148880115 10.450768530135658 0.03150530326042679 -1 0 0
2053 1 88.861564355022 11.40017008946909 1.7181029530701653 -1 0 0
2059 1 92.152733405208 11.40017008946909 1.7181029530701653 -1 0 0
1880 1 93.798317930301 8.549934083859089 1.7181029530701655 -1 0 0
1889 5 95.443902455394 7.600532524525657 0.03150530326042681 -1 0 0
1886 1 97.089486980487 8.549934083859087 1.7181029530701655 -1 0 0
1884 5 93.798317930301 10.450768530135658 0.03150530326042679 -1 0 0
1890 5 97.089486980487 10.450768530135658 0.03150530326042679 -1 0 0
2065 1 95.443902455394 11.40017008946909 1.7181029530701653 -1 0 0
2075 5 7.188268847123198e-17 13.301004535745658 0.031505303260426935 0 0 0
2072 1 1.645584525093 14.250406095079088 1.718102953070165 0 0 0
2081 5 3.2911690501860003 13.301004535745658 0.03150530326042663 0 0 0
2078 1 4.936753575279002 14.250406095079088 1.718102953070165 0 0 0
2076 5 1.6455845250929997 16.151240541355655 0.03150530326042718 0 0 0
2082 5 4.936753575279001 16.151240541355655 0.03150530326042656 0 0 0
2251 1 1.099468984884479e-16 17.100642100689086 1.7181029530701653 0 0 0
2257 1 3.2911690501860007 17.100642100689086 1.7181029530701653 0 0 0
2087 5 6.582338100372005 13.301004535745658 0.03150530326042623 0 0 0
2084 1 8.227922625465006 14.250406095079088 1.718102953070165 0 0 0
2093 5 9.873507150558005 13.301004535745658 0.03150530326042687 0 0 0
2090 1 11.519091675651005 14.250406095079088 1.7181029530701653 0 0 0
2088 5 8.227922625465006 16.151240541355655 0.03150530326042681 0 0 0
2094 5 11.519091675651005 16.151240541355655 0.03150530326042715 0 0 0
2263 1 6.582338100372003 17.100642100689086 1.7181029530701655 0 0 0
2269 1 9.873507150558005 17.100642100689086 1.7181029530701655 0 0 0
2099 5 13.164676200744005 13.301004535745658 0.03150530326042691 0 0 0
2096 1 14.810260725837004 14.250406095079088 1.7181029530701653 0 0 0
2105 5 16.455845250930004 13.301004535745658 0.03150530326042696 0 0 0
2100 5 14.810260725837004 16.151240541355655 0.03150530326042718 0 0 0
2275 1 13.164676200744005 17.100642100689086 1.7181029530701655 0 0 0
2281 1 16.455845250930004 17.100642100689086 1.7181029530701655 0 0 0
2102 1 18.101429776023004 14.250406095079088 1.7181029530701653 0 0 0
2111 5 19.747014301116003 13.301004535745658 0.03150530326042696 0 0 0
2108 1 21.392598826209003 14.250406095079088 1.7181029530701653 0 0 0
2117 5 23.038183351302003 13.301004535745658 0.03150530326042696 0 0 0
2106 5 18.101429776023004 16.151240541355655 0.03150530326042718 0 0 0
2112 5 21.392598826209003 16.151240541355655 0.03150530326042718 0 0 0
2287 1 19.747014301116003 17.100642100689086 1.7181029530701655 0 0 0
2293 1 23.038183351302003 17.100642100689086 1.7181029530701655 0 0 0
2114 1 24.683767876395002 14.250406095079088 1.7181029530701653 0 0 0
2123 5 26.329352401488002 13.301004535745658 0.03150530326042691 0 0 0
2120 1 27.974936926581 14.250406095079088 1.7181029530701653 0 0 0
2118 5 24.683767876395002 16.151240541355655 0.03150530326042718 0 0 0
2124 5 27.974936926581 16.151240541355655 0.03150530326042713 0 0 0
2299 1 26.329352401488002 17.100642100689086 1.7181029530701655 0 0 0
2129 5 29.620521451674 13.301004535745658 0.031505303260426845 0 0 0
2126 1 31.266105976767 14.250406095079088 1.718102953070165 0 0 0
2135 5 32.91169050186 13.301004535745658 0.031505303260426845 0 0 0
2132 1 34.557275026953 14.250406095079088 1.7181029530701653 0 0 0
2130 5 31.266105976767 16.151240541355655 0.03150530326042706 0 0 0
2136 5 34.557275026953 16.151240541355655 0.03150530326042713 0 0 0
2305 1 29.620521451674 17.100642100689086 1.7181029530701655 0 0 0
2311 1 32.91169050186 17.100642100689086 1.7181029530701655 0 0 0
2141 5 36.202859552046 13.301004535745658 0.03150530326042691 0 0 0
2138 1 37.848444077139 14.250406095079088 1.7181029530701653 0 0 0
2147 5 39.494028602232 13.301004535745658 0.03150530326042696 0 0 0
2142 5 37.848444077139 16.151240541355655 0.03150530326042718 0 0 0
2317 1 36.202859552046 17.100642100689086 1.7181029530701655 0 0 0
2323 1 39.494028602232 17.100642100689086 1.7181029530701655 0 0 0
2144 1 41.139613127325 14.250406095079088 1.7181029530701653 0 0 0
2153 5 42.785197652418 13.301004535745658 0.03150530326042696 0 0 0
2150 1 44.430782177511 14.250406095079088 1.7181029530701653 0 0 0
2159 5 46.076366702604 13.301004535745658 0.03150530326042696 0 0 0
2148 5 41.139613127325 16.151240541355655 0.03150530326042718 0 0 0
2154 5 44.430782177511 16.151240541355655 0.03150530326042718 0 0 0
2329 1 42.785197652418 17.100642100689086 1.7181029530701655 0 0 0
2335 1 46.076366702604 17.100642100689086 1.7181029530701655 0 0 0
2156 1 47.721951227697 14.250406095079088 1.7181029530701653 0 0 0
1985 5 49.36753575279 13.301004535745658 0.03150530326042696 -1 0 0
1982 1 51.013120277883 14.250406095079088 1.7181029530701653 -1 0 0
2160 5 47.721951227697 16.151240541355655 0.03150530326042718 0 0 0
1986 5 51.013120277883 16.151240541355655 0.03150530326042718 -1 0 0
2161 1 49.36753575279 17.100642100689086 1.7181029530701655 -1 0 0
1991 5 52.658704802976 13.301004535745658 0.03150530326042696 -1 0 0
1988 1 54.304289328069 14.250406095079088 1.7181029530701653 -1 0 0
1997 5 55.949873853161996 13.301004535745658 0.03150530326042691 -1 0 0
1994 1 57.595458378254996 14.250406095079088 1.7181029530701653 -1 0 0
1992 5 54.304289328069 16.151240541355655 0.03150530326042718 -1 0 0
1998 5 57.595458378254996 16.151240541355655 0.03150530326042715 -1 0 0
2167 1 52.658704802976 17.100642100689086 1.7181029530701655 -1 0 0
2173 1 55.949873853161996 17.100642100689086 1.7181029530701655 -1 0 0
2003 5 59.241042903347996 13.301004535745658 0.03150530326042694 -1 0 0
2000 1 60.886627428440995 14.250406095079088 1.718102953070165 -1 0 0
2009 5 62.532211953533995 13.301004535745658 0.03150530326042607 -1 0 0
2004 5 60.886627428440995 16.151240541355655 0.03150530326042687 -1 0 0
2179 1 59.241042903347996 17.100642100689086 1.7181029530701655 -1 0 0
2185 1 62.532211953533995 17.100642100689086 1.7181029530701655 -1 0 0
2006 1 64.177796478627 14.250406095079088 1.7181029530701653 -1 0 0
2015 5 65.82338100372 13.301004535745658 0.03150530326042663 -1 0 0
2012 1 67.468965528813 14.250406095079088 1.718102953070165 -1 0 0
2021 5 69.114550053906 13.301004535745658 0.03150530326042687 -1 0 0
2010 5 64.177796478627 16.151240541355655 0.031505303260426366 -1 0 0
2016 5 67.468965528813 16.151240541355655 0.03150530326042721 -1 0 0
2191 1 65.82338100372 17.100642100689086 1.7181029530701655 -1 0 0
2197 1 69.114550053906 17.100642100689086 1.7181029530701653 -1 0 0
2018 1 70.760134578999 14.250406095079088 1.7181029530701653 -1 0 0
2027 5 72.405719104092 13.301004535745658 0.03150530326042691 -1 0 0
2024 1 74.051303629185 14.250406095079088 1.7181029530701653 -1 0 0
2022 5 70.760134578999 16.151240541355655 0.03150530326042713 -1 0 0
2028 5 74.051303629185 16.151240541355655 0.03150530326042718 -1 0 0
2203 1 72.405719104092 17.100642100689086 1.7181029530701655 -1 0 0
2033 5 75.696888154278 13.301004535745658 0.03150530326042696 -1 0 0
2030 1 77.342472679371 14.250406095079088 1.7181029530701653 -1 0 0
2039 5 78.988057204464 13.301004535745658 0.03150530326042696 -1 0 0
2036 1 80.633641729557 14.250406095079088 1.7181029530701653 -1 0 0
2034 5 77.342472679371 16.151240541355655 0.03150530326042718 -1 0 0
2040 5 80.633641729557 16.151240541355655 0.03150530326042718 -1 0 0
2209 1 75.696888154278 17.100642100689086 1.7181029530701655 -1 0 0
2215 1 78.988057204464 17.100642100689086 1.7181029530701655 -1 0 0
2045 5 82.27922625465 13.301004535745658 0.03150530326042696 -1 0 0
2042 1 83.924810779743 14.250406095079088 1.7181029530701653 -1 0 0
2051 5 85.570395304836 13.301004535745658 0.03150530326042696 -1 0 0
2046 5 83.924810779743 16.151240541355655 0.03150530326042718 -1 0 0
2221 1 82.27922625465 17.100642100689086 1.7181029530701655 -1 0 0
2227 1 85.570395304836 17.100642100689086 1.7181029530701655 -1 0 0
2048 1 87.215979829929 14.250406095079088 1.7181029530701653 -1 0 0
2057 5 88.861564355022 13.301004535745658 0.03150530326042696 -1 0 0
2054 1 90.507148880115 14.250406095079088 1.7181029530701653 -1 0 0
2063 5 92.152733405208 13.301004535745658 0.03150530326042696 -1 0 0
2052 5 87.215979829929 16.151240541355655 0.03150530326042718 -1 0 0
2058 5 90.507148880115 16.151240541355655 0.03150530326042718 -1 0 0
2233 1 88.861564355022 17.100642100689086 1.7181029530701655 -1 0 0
2239 1 92.152733405208 17.100642100689086 1.7181029530701655 -1 0 0
2060 1 93.798317930301 14.250406095079088 1.7181029530701653 -1 0 0
2069 5 95.443902455394 13.301004535745658 0.03150530326042696 -1 0 0
2066 1 97.089486980487 14.250406095079088 1.7181029530701653 -1 0 0
2064 5 93.798317930301 16.151240541355655 0.03150530326042718 -1 0 0
2070 5 97.089486980487 16.151240541355655 0.031505303260427144 -1 0 0
2245 1 95.443902455394 17.100642100689086 1.7181029530701655 -1 0 0
2255 5 3.5093302139585135e-17 19.001476546965655 0.03150530326042701 0 0 0
2252 1 1.645584525093 19.950878106299086 1.7181029530701653 0 0 0
2261 5 3.2911690501860003 19.001476546965655 0.031505303260426776 0 0 0
2258 1 4.936753575279002 19.950878106299086 1.7181029530701655 0 0 0
2256 5 1.6455845250929997 21.851712552575655 0.03150530326042709 0 0 0
2262 5 4.936753575279001 21.851712552575655 0.0315053032604264 0 0 0
2431 1 1.3431728412834252e-16 22.801114111909087 1.7181029530701655 0 0 0
2437 1 3.2911690501860007 22.801114111909087 1.7181029530701655 0 0 0
2267 5 6.582338100372004 19.001476546965655 0.03150530326042635 0 0 0
2264 1 8.227922625465006 19.950878106299086 1.7181029530701657 0 0 0
2273 5 9.873507150558005 19.001476546965655 0.03150530326042694 0 0 0
2270 1 11.519091675651005 19.950878106299086 1.7181029530701655 0 0 0
2268 5 8.227922625465006 21.851712552575655 0.031505303260426755 0 0 0
2274 5 11.519091675651005 21.851712552575655 0.031505303260426984 0 0 0
2443 1 6.582338100372004 22.801114111909087 1.7181029530701655 0 0 0
2449 1 9.873507150558005 22.801114111909087 1.7181029530701655 0 0 0
2279 5 13.164676200744005 19.001476546965655 0.03150530326042695 0 0 0
2276 1 14.810260725837004 19.950878106299086 1.7181029530701655 0 0 0
2285 5 16.455845250930004 19.001476546965655 0.03150530326042695 0 0 0
2280 5 14.810260725837004 21.851712552575655 0.03150530326042695 0 0 0
2455 1 13.164676200744005 22.801114111909087 1.7181029530701655 0 0 0
2461 1 16.455845250930004 22.801114111909087 1.7181029530701655 0 0 0
2282 1 18.101429776023004 19.950878106299086 1.7181029530701655 0 0 0
2291 5 19.747014301116003 19.001476546965655 0.03150530326042695 0 0 0
2288 1 21.392598826209003 19.950878106299086 1.7181029530701655 0 0 0
2297 5 23.038183351302003 19.001476546965655 0.03150530326042695 0 0 0
2286 5 18.101429776023004 21.851712552575655 0.03150530326042695 0 0 0
2292 5 21.392598826209003 21.851712552575655 0.03150530326042695 0 0 0
2467 1 19.747014301116003 22.801114111909087 1.7181029530701655 0 0 0
2473 1 23.038183351302003 22.801114111909087 1.7181029530701655 0 0 0
2294 1 24.683767876395002 19.950878106299086 1.7181029530701655 0 0 0
2303 5 26.329352401488002 19.001476546965655 0.03150530326042695 0 0 0
2300 1 27.974936926581 19.950878106299086 1.7181029530701655 0 0 0
2298 5 24.683767876395002 21.851712552575655 0.03150530326042695 0 0 0
2304 5 27.974936926581 21.851712552575655 0.03150530326042695 0 0 0
2479 1 26.329352401488002 22.801114111909087 1.7181029530701655 0 0 0
2309 5 29.620521451674 19.001476546965655 0.03150530326042695 0 0 0
2306 1 31.266105976767 19.950878106299086 1.7181029530701655 0 0 0
2315 5 32.91169050186 19.001476546965655 0.03150530326042695 0 0 0
2312 1 34.557275026953 19.950878106299086 1.7181029530701655 0 0 0
2310 5 31.266105976767 21.851712552575655 0.03150530326042695 0 0 0
2316 5 34.557275026953 21.851712552575655 0.03150530326042695 0 0 0
2485 1 29.620521451674 22.801114111909087 1.7181029530701655 0 0 0
2491 1 32.91169050186 22.801114111909087 1.7181029530701655 0 0 0
2321 5 36.202859552046 19.001476546965655 0.03150530326042695 0 0 0
2318 1 37.848444077139 19.950878106299086 1.7181029530701655 0 0 0
2327 5 39.494028602232 19.001476546965655 0.03150530326042695 0 0 0
2322 5 37.848444077139 21.851712552575655 0.03150530326042695 0 0 0
2497 1 36.202859552046 22.801114111909087 1.7181029530701655 0 0 0
2503 1 39.494028602232 22.801114111909087 1.7181029530701655 0 0 0
2324 1 41.139613127325 19.950878106299086 1.7181029530701655 0 0 0
2333 5 42.785197652418 19.001476546965655 0.03150530326042695 0 0 0
2330 1 44.430782177511 19.950878106299086 1.7181029530701655 0 0 0
2339 5 46.076366702604 19.001476546965655 0.03150530326042695 0 0 0
2328 5 41.139613127325 21.851712552575655 0.03150530326042695 0 0 0
2334 5 44.430782177511 21.851712552575655 0.03150530326042695 0 0 0
2509 1 42.785197652418 22.801114111909087 1.7181029530701655 0 0 0
2515 1 46.076366702604 22.801114111909087 1.7181029530701655 0 0 0
2336 1 47.721951227697 19.950878106299086 1.7181029530701655 0 0 0
2165 5 49.36753575279 19.001476546965655 0.03150530326042695 -1 0 0
2162 1 51.013120277883 19.950878106299086 1.7181029530701655 -1 0 0
2340 5 47.721951227697 21.851712552575655 0.03150530326042695 0 0 0
2166 5 51.013120277883 21.851712552575655 0.03150530326042695 -1 0 0
2341 1 49.36753575279 22.801114111909087 1.7181029530701655 -1 0 0
2171 5 52.658704802976 19.001476546965655 0.03150530326042695 -1 0 0
2168 1 54.304289328069 19.950878106299086 1.7181029530701655 -1 0 0
2177 5 55.949873853161996 19.001476546965655 0.03150530326042695 -1 0 0
2174 1 57.595458378254996 19.950878106299086 1.7181029530701655 -1 0 0
2172 5 54.304289328069 21.851712552575655 0.03150530326042695 -1 0 0
2178 5 57.595458378254996 21.851712552575655 0.03150530326042698 -1 0 0
2347 1 52.658704802976 22.801114111909087 1.7181029530701655 -1 0 0
2353 1 55.949873853161996 22.801114111909087 1.7181029530701655 -1 0 0