LAMMPS data file via write_data, version 29 Aug 2024, timestep = 0, units = metal

3240 atoms
3 atom types

0 98.73507150558 xlo xhi
0 102.60849620196 ylo yhi
0 18.449422151843 zlo zhi

Masses

1 183.84
2 78.95999999999999
3 78.971

Atoms # atomic

1711 1 0 0 1.723007491002 0 0 0
1717 1 3.2911690501859994 0 1.723007491002 0 0 0
1723 1 6.582338100372006 0 1.723007491002 0 0 0
1729 1 9.873507150558005 0 1.723007491002 0 0 0
1735 1 13.164676200744005 0 1.723007491002 0 0 0
1741 1 16.455845250930004 0 1.723007491002 0 0 0
1747 1 19.747014301116003 0 1.723007491002 0 0 0
1753 1 23.038183351302003 0 1.723007491002 0 0 0
1759 1 26.329352401488002 0 1.723007491002 0 0 0
1765 1 29.620521451674 0 1.723007491002 0 0 0
1771 1 32.91169050186 0 1.723007491002 0 0 0
1777 1 36.202859552046 0 1.723007491002 0 0 0
1783 1 39.494028602232 0 1.723007491002 0 0 0
1789 1 42.785197652418 0 1.723007491002 0 0 0
1795 1 46.076366702604 0 1.723007491002 0 0 0
1621 1 49.36753575279 0 1.723007491002 -1 0 0
1627 1 52.658704802976 0 1.723007491002 -1 0 0
1633 1 55.949873853161996 0 1.723007491002 -1 0 0
1639 1 59.241042903347996 0 1.723007491002 -1 0 0
1645 1 62.532211953533995 0 1.723007491002 -1 0 0
1651 1 65.82338100372 0 1.723007491002 -1 0 0
1657 1 69.114550053906 0 1.723007491002 -1 0 0
1663 1 72.405719104092 0 1.723007491002 -1 0 0
1669 1 75.696888154278 0 1.723007491002 -1 0 0
1675 1 78.988057204464 0 1.723007491002 -1 0 0
1681 1 82.27922625465 0 1.723007491002 -1 0 0
1687 1 85.570395304836 0 1.723007491002 -1 0 0
1693 1 88.861564355022 0 1.723007491002 -1 0 0
1699 1 92.152733405208 0 1.723007491002 -1 0 0
1705 1 95.443902455394 0 1.723007491002 -1 0 0
1715 3 0 1.9001573370730043 0 0 0 0
1712 1 1.6455845250929997 2.8502360056100002 1.723007491002 0 0 0
1721 3 3.2911690501859994 1.9001573370730043 0 0 0 0
1718 1 4.936753575278999 2.8502360056100002 1.723007491002 0 0 0
1727 3 6.582338100372006 1.9001573370730043 0 0 0 0
1724 1 8.227922625465006 2.8502360056100002 1.723007491002 0 0 0
1733 3 9.873507150558005 1.9001573370730043 0 0 0 0
1730 1 11.519091675651005 2.8502360056100002 1.723007491002 0 0 0
1739 3 13.164676200744005 1.9001573370730043 0 0 0 0
1736 1 14.810260725837004 2.8502360056100002 1.723007491002 0 0 0
1745 3 16.455845250930004 1.9001573370730043 0 0 0 0
1742 1 18.101429776023004 2.8502360056100002 1.723007491002 0 0 0
1751 3 19.747014301116003 1.9001573370730043 0 0 0 0
1748 1 21.392598826209003 2.8502360056100002 1.723007491002 0 0 0
1757 3 23.038183351302003 1.9001573370730043 0 0 0 0
1754 1 24.683767876395002 2.8502360056100002 1.723007491002 0 0 0
1763 3 26.329352401488002 1.9001573370730043 0 0 0 0
1760 1 27.974936926581 2.8502360056100002 1.723007491002 0 0 0
1769 3 29.620521451674 1.9001573370730043 0 0 0 0
1766 1 31.266105976767 2.8502360056100002 1.723007491002 0 0 0
1775 3 32.91169050186 1.9001573370730043 0 0 0 0
1772 1 34.557275026953 2.8502360056100002 1.723007491002 0 0 0
1781 3 36.202859552046 1.9001573370730043 0 0 0 0
1778 1 37.848444077139 2.8502360056100002 1.723007491002 0 0 0
1787 3 39.494028602232 1.9001573370730043 0 0 0 0
1784 1 41.139613127325 2.8502360056100002 1.723007491002 0 0 0
1793 3 42.785197652418 1.9001573370730043 0 0 0 0
1790 1 44.430782177511 2.8502360056100002 1.723007491002 0 0 0
1799 3 46.076366702604 1.9001573370730043 0 0 0 0
1796 1 47.721951227697 2.8502360056100002 1.723007491002 0 0 0
1625 3 49.36753575279 1.9001573370730043 0 -1 0 0
1622 1 51.013120277883 2.8502360056100002 1.723007491002 -1 0 0
1631 3 52.658704802976 1.9001573370730043 0 -1 0 0
1628 1 54.304289328069 2.8502360056100002 1.723007491002 -1 0 0
1637 3 55.949873853161996 1.9001573370730043 0 -1 0 0
1634 1 57.595458378254996 2.8502360056100002 1.723007491002 -1 0 0
1643 3 59.241042903347996 1.9001573370730043 0 -1 0 0
1640 1 60.886627428440995 2.8502360056100002 1.723007491002 -1 0 0
1649 3 62.532211953533995 1.9001573370730043 0 -1 0 0
1646 1 64.177796478627 2.8502360056100002 1.723007491002 -1 0 0
1655 3 65.82338100372 1.9001573370730043 0 -1 0 0
1652 1 67.468965528813 2.8502360056100002 1.723007491002 -1 0 0
1661 3 69.114550053906 1.9001573370730043 0 -1 0 0
1658 1 70.760134578999 2.8502360056100002 1.723007491002 -1 0 0
1667 3 72.405719104092 1.9001573370730043 0 -1 0 0
1664 1 74.051303629185 2.8502360056100002 1.723007491002 -1 0 0
1673 3 75.696888154278 1.9001573370730043 0 -1 0 0
1670 1 77.342472679371 2.8502360056100002 1.723007491002 -1 0 0
1679 3 78.988057204464 1.9001573370730043 0 -1 0 0
1676 1 80.633641729557 2.8502360056100002 1.723007491002 -1 0 0
1685 3 82.27922625465 1.9001573370730043 0 -1 0 0
1682 1 83.924810779743 2.8502360056100002 1.723007491002 -1 0 0
1691 3 85.570395304836 1.9001573370730043 0 -1 0 0
1688 1 87.215979829929 2.8502360056100002 1.723007491002 -1 0 0
1697 3 88.861564355022 1.9001573370730043 0 -1 0 0
1694 1 90.507148880115 2.8502360056100002 1.723007491002 -1 0 0
1703 3 92.152733405208 1.9001573370730043 0 -1 0 0
1700 1 93.798317930301 2.8502360056100002 1.723007491002 -1 0 0
1709 3 95.443902455394 1.9001573370730043 0 -1 0 0
1706 1 97.089486980487 2.8502360056100002 1.723007491002 -1 0 0
1716 3 1.6455845250929997 4.7503933426830045 0 0 0 0
1722 3 4.936753575278999 4.7503933426830045 0 0 0 0
1728 3 8.227922625465006 4.7503933426830045 0 0 0 0
1734 3 11.519091675651005 4.7503933426830045 0 0 0 0
1740 3 14.810260725837004 4.7503933426830045 0 0 0 0
1746 3 18.101429776023004 4.7503933426830045 0 0 0 0
1752 3 21.392598826209003 4.7503933426830045 0 0 0 0
1758 3 24.683767876395002 4.7503933426830045 0 0 0 0
1764 3 27.974936926581 4.7503933426830045 0 0 0 0
1770 3 31.266105976767 4.7503933426830045 0 0 0 0
1776 3 34.557275026953 4.7503933426830045 0 0 0 0
1782 3 37.848444077139 4.7503933426830045 0 0 0 0
1788 3 41.139613127325 4.7503933426830045 0 0 0 0
1794 3 44.430782177511 4.7503933426830045 0 0 0 0
1800 3 47.721951227697 4.7503933426830045 0 0 0 0
1626 3 51.013120277883 4.7503933426830045 0 -1 0 0
1632 3 54.304289328069 4.7503933426830045 0 -1 0 0
1638 3 57.595458378254996 4.7503933426830045 0 -1 0 0
1644 3 60.886627428440995 4.7503933426830045 0 -1 0 0
1650 3 64.177796478627 4.7503933426830045 0 -1 0 0
1656 3 67.468965528813 4.7503933426830045 0 -1 0 0
1662 3 70.760134578999 4.7503933426830045 0 -1 0 0
1668 3 74.051303629185 4.7503933426830045 0 -1 0 0
1674 3 77.342472679371 4.7503933426830045 0 -1 0 0
1680 3 80.633641729557 4.7503933426830045 0 -1 0 0
1686 3 83.924810779743 4.7503933426830045 0 -1 0 0
1692 3 87.215979829929 4.7503933426830045 0 -1 0 0
1698 3 90.507148880115 4.7503933426830045 0 -1 0 0
1704 3 93.798317930301 4.7503933426830045 0 -1 0 0
1710 3 97.089486980487 4.7503933426830045 0 -1 0 0
1891 1 0 5.7004720112200005 1.723007491002 0 0 0
1897 1 3.2911690501859994 5.7004720112200005 1.723007491002 0 0 0
1903 1 6.582338100372006 5.7004720112200005 1.723007491002 0 0 0
1909 1 9.873507150558005 5.7004720112200005 1.723007491002 0 0 0
1915 1 13.164676200744005 5.7004720112200005 1.723007491002 0 0 0
1921 1 16.455845250930004 5.7004720112200005 1.723007491002 0 0 0
1927 1 19.747014301116003 5.7004720112200005 1.723007491002 0 0 0
1933 1 23.038183351302003 5.7004720112200005 1.723007491002 0 0 0
1939 1 26.329352401488002 5.7004720112200005 1.723007491002 0 0 0
1945 1 29.620521451674 5.7004720112200005 1.723007491002 0 0 0
1951 1 32.91169050186 5.7004720112200005 1.723007491002 0 0 0
1957 1 36.202859552046 5.7004720112200005 1.723007491002 0 0 0
1963 1 39.494028602232 5.7004720112200005 1.723007491002 0 0 0
1969 1 42.785197652418 5.7004720112200005 1.723007491002 0 0 0
1975 1 46.076366702604 5.7004720112200005 1.723007491002 0 0 0
1801 1 49.36753575279 5.7004720112200005 1.723007491002 -1 0 0
1807 1 52.658704802976 5.7004720112200005 1.723007491002 -1 0 0
1813 1 55.949873853161996 5.7004720112200005 1.723007491002 -1 0 0
1819 1 59.241042903347996 5.7004720112200005 1.723007491002 -1 0 0
1825 1 62.532211953533995 5.7004720112200005 1.723007491002 -1 0 0
1831 1 65.82338100372 5.7004720112200005 1.723007491002 -1 0 0
1837 1 69.114550053906 5.7004720112200005 1.723007491002 -1 0 0
1843 1 72.405719104092 5.7004720112200005 1.723007491002 -1 0 0
1849 1 75.696888154278 5.7004720112200005 1.723007491002 -1 0 0
1855 1 78.988057204464 5.7004720112200005 1.723007491002 -1 0 0
1861 1 82.27922625465 5.7004720112200005 1.723007491002 -1 0 0
1867 1 85.570395304836 5.7004720112200005 1.723007491002 -1 0 0
1873 1 88.861564355022 5.7004720112200005 1.723007491002 -1 0 0
1879 1 92.152733405208 5.7004720112200005 1.723007491002 -1 0 0
1885 1 95.443902455394 5.7004720112200005 1.723007491002 -1 0 0
1895 3 0 7.600629348293005 0 0 0 0
1892 1 1.6455845250929997 8.55070801683 1.723007491002 0 0 0
1901 3 3.2911690501859994 7.600629348293005 0 0 0 0
1898 1 4.936753575278999 8.55070801683 1.723007491002 0 0 0
1907 3 6.582338100372006 7.600629348293005 0 0 0 0
1904 1 8.227922625465006 8.55070801683 1.723007491002 0 0 0
1913 3 9.873507150558005 7.600629348293005 0 0 0 0
1910 1 11.519091675651005 8.55070801683 1.723007491002 0 0 0
1919 3 13.164676200744005 7.600629348293005 0 0 0 0
1916 1 14.810260725837004 8.55070801683 1.723007491002 0 0 0
1925 3 16.455845250930004 7.600629348293005 0 0 0 0
1922 1 18.101429776023004 8.55070801683 1.723007491002 0 0 0
1931 3 19.747014301116003 7.600629348293005 0 0 0 0
1928 1 21.392598826209003 8.55070801683 1.723007491002 0 0 0
1937 3 23.038183351302003 7.600629348293005 0 0 0 0
1934 1 24.683767876395002 8.55070801683 1.723007491002 0 0 0
1943 3 26.329352401488002 7.600629348293005 0 0 0 0
1940 1 27.974936926581 8.55070801683 1.723007491002 0 0 0
1949 3 29.620521451674 7.600629348293005 0 0 0 0
1946 1 31.266105976767 8.55070801683 1.723007491002 0 0 0
1955 3 32.91169050186 7.600629348293005 0 0 0 0
1952 1 34.557275026953 8.55070801683 1.723007491002 0 0 0
1961 3 36.202859552046 7.600629348293005 0 0 0 0
1958 1 37.848444077139 8.55070801683 1.723007491002 0 0 0
1967 3 39.494028602232 7.600629348293005 0 0 0 0
1964 1 41.139613127325 8.55070801683 1.723007491002 0 0 0
1973 3 42.785197652418 7.600629348293005 0 0 0 0
1970 1 44.430782177511 8.55070801683 1.723007491002 0 0 0
1979 3 46.076366702604 7.600629348293005 0 0 0 0
1976 1 47.721951227697 8.55070801683 1.723007491002 0 0 0
1805 3 49.36753575279 7.600629348293005 0 -1 0 0
1802 1 51.013120277883 8.55070801683 1.723007491002 -1 0 0
1811 3 52.658704802976 7.600629348293005 0 -1 0 0
1808 1 54.304289328069 8.55070801683 1.723007491002 -1 0 0
1817 3 55.949873853161996 7.600629348293005 0 -1 0 0
1814 1 57.595458378254996 8.55070801683 1.723007491002 -1 0 0
1823 3 59.241042903347996 7.600629348293005 0 -1 0 0
1820 1 60.886627428440995 8.55070801683 1.723007491002 -1 0 0
1829 3 62.532211953533995 7.600629348293005 0 -1 0 0
1826 1 64.177796478627 8.55070801683 1.723007491002 -1 0 0
1835 3 65.82338100372 7.600629348293005 0 -1 0 0
1832 1 67.468965528813 8.55070801683 1.723007491002 -1 0 0
1841 3 69.114550053906 7.600629348293005 0 -1 0 0
1838 1 70.760134578999 8.55070801683 1.723007491002 -1 0 0
1847 3 72.405719104092 7.600629348293005 0 -1 0 0
1844 1 74.051303629185 8.55070801683 1.723007491002 -1 0 0
1853 3 75.696888154278 7.600629348293005 0 -1 0 0
1850 1 77.342472679371 8.55070801683 1.723007491002 -1 0 0
1859 3 78.988057204464 7.600629348293005 0 -1 0 0
1856 1 80.633641729557 8.55070801683 1.723007491002 -1 0 0
1865 3 82.27922625465 7.600629348293005 0 -1 0 0
1862 1 83.924810779743 8.55070801683 1.723007491002 -1 0 0
1871 3 85.570395304836 7.600629348293005 0 -1 0 0
1868 1 87.215979829929 8.55070801683 1.723007491002 -1 0 0
1877 3 88.861564355022 7.600629348293005 0 -1 0 0
1874 1 90.507148880115 8.55070801683 1.723007491002 -1 0 0
1883 3 92.152733405208 7.600629348293005 0 -1 0 0
1880 1 93.798317930301 8.55070801683 1.723007491002 -1 0 0
1889 3 95.443902455394 7.600629348293005 0 -1 0 0
1886 1 97.089486980487 8.55070801683 1.723007491002 -1 0 0
1896 3 1.6455845250929997 10.450865353903005 0 0 0 0
1902 3 4.936753575278999 10.450865353903005 0 0 0 0
1908 3 8.227922625465006 10.450865353903005 0 0 0 0
1914 3 11.519091675651005 10.450865353903005 0 0 0 0
1920 3 14.810260725837004 10.450865353903005 0 0 0 0
1926 3 18.101429776023004 10.450865353903005 0 0 0 0
1932 3 21.392598826209003 10.450865353903005 0 0 0 0
1938 3 24.683767876395002 10.450865353903005 0 0 0 0
1944 3 27.974936926581 10.450865353903005 0 0 0 0
1950 3 31.266105976767 10.450865353903005 0 0 0 0
1956 3 34.557275026953 10.450865353903005 0 0 0 0
1962 3 37.848444077139 10.450865353903005 0 0 0 0
1968 3 41.139613127325 10.450865353903005 0 0 0 0
1974 3 44.430782177511 10.450865353903005 0 0 0 0
1980 3 47.721951227697 10.450865353903005 0 0 0 0
1806 3 51.013120277883 10.450865353903005 0 -1 0 0
1812 3 54.304289328069 10.450865353903005 0 -1 0 0
1818 3 57.595458378254996 10.450865353903005 0 -1 0 0
1824 3 60.886627428440995 10.450865353903005 0 -1 0 0
1830 3 64.177796478627 10.450865353903005 0 -1 0 0
1836 3 67.468965528813 10.450865353903005 0 -1 0 0
1842 3 70.760134578999 10.450865353903005 0 -1 0 0
1848 3 74.051303629185 10.450865353903005 0 -1 0 0
1854 3 77.342472679371 10.450865353903005 0 -1 0 0
1860 3 80.633641729557 10.450865353903005 0 -1 0 0
1866 3 83.924810779743 10.450865353903005 0 -1 0 0
1872 3 87.215979829929 10.450865353903005 0 -1 0 0
1878 3 90.507148880115 10.450865353903005 0 -1 0 0
1884 3 93.798317930301 10.450865353903005 0 -1 0 0
1890 3 97.089486980487 10.450865353903005 0 -1 0 0
2071 1 0 11.400944022440001 1.723007491002 0 0 0
2077 1 3.2911690501859994 11.400944022440001 1.723007491002 0 0 0
2083 1 6.582338100372006 11.400944022440001 1.723007491002 0 0 0
2089 1 9.873507150558005 11.400944022440001 1.723007491002 0 0 0
2095 1 13.164676200744005 11.400944022440001 1.723007491002 0 0 0
2101 1 16.455845250930004 11.400944022440001 1.723007491002 0 0 0
2107 1 19.747014301116003 11.400944022440001 1.723007491002 0 0 0
2113 1 23.038183351302003 11.400944022440001 1.723007491002 0 0 0
2119 1 26.329352401488002 11.400944022440001 1.723007491002 0 0 0
2125 1 29.620521451674 11.400944022440001 1.723007491002 0 0 0
2131 1 32.91169050186 11.400944022440001 1.723007491002 0 0 0
2137 1 36.202859552046 11.400944022440001 1.723007491002 0 0 0
2143 1 39.494028602232 11.400944022440001 1.723007491002 0 0 0
2149 1 42.785197652418 11.400944022440001 1.723007491002 0 0 0
2155 1 46.076366702604 11.400944022440001 1.723007491002 0 0 0
1981 1 49.36753575279 11.400944022440001 1.723007491002 -1 0 0
1987 1 52.658704802976 11.400944022440001 1.723007491002 -1 0 0
1993 1 55.949873853161996 11.400944022440001 1.723007491002 -1 0 0
1999 1 59.241042903347996 11.400944022440001 1.723007491002 -1 0 0
2005 1 62.532211953533995 11.400944022440001 1.723007491002 -1 0 0
2011 1 65.82338100372 11.400944022440001 1.723007491002 -1 0 0
2017 1 69.114550053906 11.400944022440001 1.723007491002 -1 0 0
2023 1 72.405719104092 11.400944022440001 1.723007491002 -1 0 0
2029 1 75.696888154278 11.400944022440001 1.723007491002 -1 0 0
2035 1 78.988057204464 11.400944022440001 1.723007491002 -1 0 0
2041 1 82.27922625465 11.400944022440001 1.723007491002 -1 0 0
2047 1 85.570395304836 11.400944022440001 1.723007491002 -1 0 0
2053 1 88.861564355022 11.400944022440001 1.723007491002 -1 0 0
2059 1 92.152733405208 11.400944022440001 1.723007491002 -1 0 0
2065 1 95.443902455394 11.400944022440001 1.723007491002 -1 0 0
2075 3 0 13.301101359513005 0 0 0 0
2072 1 1.6455845250929997 14.251180028050008 1.723007491002 0 0 0
2081 3 3.2911690501859994 13.301101359513005 0 0 0 0
2078 1 4.936753575278999 14.251180028050008 1.723007491002 0 0 0
2087 3 6.582338100372006 13.301101359513005 0 0 0 0
2084 1 8.227922625465006 14.251180028050008 1.723007491002 0 0 0
2093 3 9.873507150558005 13.301101359513005 0 0 0 0
2090 1 11.519091675651005 14.251180028050008 1.723007491002 0 0 0
2099 3 13.164676200744005 13.301101359513005 0 0 0 0
2096 1 14.810260725837004 14.251180028050008 1.723007491002 0 0 0
2105 3 16.455845250930004 13.301101359513005 0 0 0 0
2102 1 18.101429776023004 14.251180028050008 1.723007491002 0 0 0
2111 3 19.747014301116003 13.301101359513005 0 0 0 0
2108 1 21.392598826209003 14.251180028050008 1.723007491002 0 0 0
2117 3 23.038183351302003 13.301101359513005 0 0 0 0
2114 1 24.683767876395002 14.251180028050008 1.723007491002 0 0 0
2123 3 26.329352401488002 13.301101359513005 0 0 0 0
2120 1 27.974936926581 14.251180028050008 1.723007491002 0 0 0
2129 3 29.620521451674 13.301101359513005 0 0 0 0
2126 1 31.266105976767 14.251180028050008 1.723007491002 0 0 0
2135 3 32.91169050186 13.301101359513005 0 0 0 0
2132 1 34.557275026953 14.251180028050008 1.723007491002 0 0 0
2141 3 36.202859552046 13.301101359513005 0 0 0 0
2138 1 37.848444077139 14.251180028050008 1.723007491002 0 0 0
2147 3 39.494028602232 13.301101359513005 0 0 0 0
2144 1 41.139613127325 14.251180028050008 1.723007491002 0 0 0
2153 3 42.785197652418 13.301101359513005 0 0 0 0
2150 1 44.430782177511 14.251180028050008 1.723007491002 0 0 0
2159 3 46.076366702604 13.301101359513005 0 0 0 0
2156 1 47.721951227697 14.251180028050008 1.723007491002 0 0 0
1985 3 49.36753575279 13.301101359513005 0 -1 0 0
1982 1 51.013120277883 14.251180028050008 1.723007491002 -1 0 0
1991 3 52.658704802976 13.301101359513005 0 -1 0 0
1988 1 54.304289328069 14.251180028050008 1.723007491002 -1 0 0
1997 3 55.949873853161996 13.301101359513005 0 -1 0 0
1994 1 57.595458378254996 14.251180028050008 1.723007491002 -1 0 0
2003 3 59.241042903347996 13.301101359513005 0 -1 0 0
2000 1 60.886627428440995 14.251180028050008 1.723007491002 -1 0 0
2009 3 62.532211953533995 13.301101359513005 0 -1 0 0
2006 1 64.177796478627 14.251180028050008 1.723007491002 -1 0 0
2015 3 65.82338100372 13.301101359513005 0 -1 0 0
2012 1 67.468965528813 14.251180028050008 1.723007491002 -1 0 0
2021 3 69.114550053906 13.301101359513005 0 -1 0 0
2018 1 70.760134578999 14.251180028050008 1.723007491002 -1 0 0
2027 3 72.405719104092 13.301101359513005 0 -1 0 0
2024 1 74.051303629185 14.251180028050008 1.723007491002 -1 0 0
2033 3 75.696888154278 13.301101359513005 0 -1 0 0
2030 1 77.342472679371 14.251180028050008 1.723007491002 -1 0 0
2039 3 78.988057204464 13.301101359513005 0 -1 0 0
2036 1 80.633641729557 14.251180028050008 1.723007491002 -1 0 0
2045 3 82.27922625465 13.301101359513005 0 -1 0 0
2042 1 83.924810779743 14.251180028050008 1.723007491002 -1 0 0
2051 3 85.570395304836 13.301101359513005 0 -1 0 0
2048 1 87.215979829929 14.251180028050008 1.723007491002 -1 0 0
2057 3 88.861564355022 13.301101359513005 0 -1 0 0
2054 1 90.507148880115 14.251180028050008 1.723007491002 -1 0 0
2063 3 92.152733405208 13.301101359513005 0 -1 0 0
2060 1 93.798317930301 14.251180028050008 1.723007491002 -1 0 0
2069 3 95.443902455394 13.301101359513005 0 -1 0 0
2066 1 97.089486980487 14.251180028050008 1.723007491002 -1 0 0
2076 3 1.6455845250929997 16.151337365123005 0 0 0 0
2082 3 4.936753575278999 16.151337365123005 0 0 0 0
2088 3 8.227922625465006 16.151337365123005 0 0 0 0
2094 3 11.519091675651005 16.151337365123005 0 0 0 0
2100 3 14.810260725837004 16.151337365123005 0 0 0 0
2106 3 18.101429776023004 16.151337365123005 0 0 0 0
2112 3 21.392598826209003 16.151337365123005 0 0 0 0
2118 3 24.683767876395002 16.151337365123005 0 0 0 0
2124 3 27.974936926581 16.151337365123005 0 0 0 0
2130 3 31.266105976767 16.151337365123005 0 0 0 0
2136 3 34.557275026953 16.151337365123005 0 0 0 0
2142 3 37.848444077139 16.151337365123005 0 0 0 0
2148 3 41.139613127325 16.151337365123005 0 0 0 0
2154 3 44.430782177511 16.151337365123005 0 0 0 0
2160 3 47.721951227697 16.151337365123005 0 0 0 0
1986 3 51.013120277883 16.151337365123005 0 -1 0 0
1992 3 54.304289328069 16.151337365123005 0 -1 0 0
1998 3 57.595458378254996 16.151337365123005 0 -1 0 0
2004 3 60.886627428440995 16.151337365123005 0 -1 0 0
2010 3 64.177796478627 16.151337365123005 0 -1 0 0
2016 3 67.468965528813 16.151337365123005 0 -1 0 0
2022 3 70.760134578999 16.151337365123005 0 -1 0 0
2028 3 74.051303629185 16.151337365123005 0 -1 0 0
2034 3 77.342472679371 16.151337365123005 0 -1 0 0
2040 3 80.633641729557 16.151337365123005 0 -1 0 0
2046 3 83.924810779743 16.151337365123005 0 -1 0 0
2052 3 87.215979829929 16.151337365123005 0 -1 0 0
2058 3 90.507148880115 16.151337365123005 0 -1 0 0
2064 3 93.798317930301 16.151337365123005 0 -1 0 0
2070 3 97.089486980487 16.151337365123005 0 -1 0 0
2251 1 0 17.10141603366001 1.723007491002 0 0 0
2257 1 3.2911690501859994 17.10141603366001 1.723007491002 0 0 0
2263 1 6.582338100372006 17.10141603366001 1.723007491002 0 0 0
2269 1 9.873507150558005 17.10141603366001 1.723007491002 0 0 0
2275 1 13.164676200744005 17.10141603366001 1.723007491002 0 0 0
2281 1 16.455845250930004 17.10141603366001 1.723007491002 0 0 0
2287 1 19.747014301116003 17.10141603366001 1.723007491002 0 0 0
2293 1 23.038183351302003 17.10141603366001 1.723007491002 0 0 0
2299 1 26.329352401488002 17.10141603366001 1.723007491002 0 0 0
2305 1 29.620521451674 17.10141603366001 1.723007491002 0 0 0
2311 1 32.91169050186 17.10141603366001 1.723007491002 0 0 0
2317 1 36.202859552046 17.10141603366001 1.723007491002 0 0 0
2323 1 39.494028602232 17.10141603366001 1.723007491002 0 0 0
2329 1 42.785197652418 17.10141603366001 1.723007491002 0 0 0
2335 1 46.076366702604 17.10141603366001 1.723007491002 0 0 0
2161 1 49.36753575279 17.10141603366001 1.723007491002 -1 0 0
2167 1 52.658704802976 17.10141603366001 1.723007491002 -1 0 0
2173 1 55.949873853161996 17.10141603366001 1.723007491002 -1 0 0
2179 1 59.241042903347996 17.10141603366001 1.723007491002 -1 0 0
2185 1 62.532211953533995 17.10141603366001 1.723007491002 -1 0 0
2191 1 65.82338100372 17.10141603366001 1.723007491002 -1 0 0
2197 1 69.114550053906 17.10141603366001 1.723007491002 -1 0 0
2203 1 72.405719104092 17.10141603366001 1.723007491002 -1 0 0
2209 1 75.696888154278 17.10141603366001 1.723007491002 -1 0 0
2215 1 78.988057204464 17.10141603366001 1.723007491002 -1 0 0
2221 1 82.27922625465 17.10141603366001 1.723007491002 -1 0 0
2227 1 85.570395304836 17.10141603366001 1.723007491002 -1 0 0
2233 1 88.861564355022 17.10141603366001 1.723007491002 -1 0 0
2239 1 92.152733405208 17.10141603366001 1.723007491002 -1 0 0
2245 1 95.443902455394 17.10141603366001 1.723007491002 -1 0 0
2255 3 0 19.001573370733006 0 0 0 0
2252 1 1.6455845250929997 19.95165203927001 1.723007491002 0 0 0
2261 3 3.2911690501859994 19.001573370733006 0 0 0 0
2258 1 4.936753575278999 19.95165203927001 1.723007491002 0 0 0
2267 3 6.582338100372006 19.001573370733006 0 0 0 0
2264 1 8.227922625465006 19.95165203927001 1.723007491002 0 0 0
2273 3 9.873507150558005 19.001573370733006 0 0 0 0
2270 1 11.519091675651005 19.95165203927001 1.723007491002 0 0 0
2279 3 13.164676200744005 19.001573370733006 0 0 0 0
2276 1 14.810260725837004 19.95165203927001 1.723007491002 0 0 0
2285 3 16.455845250930004 19.001573370733006 0 0 0 0
2282 1 18.101429776023004 19.95165203927001 1.723007491002 0 0 0
2291 3 19.747014301116003 19.001573370733006 0 0 0 0
2288 1 21.392598826209003 19.95165203927001 1.723007491002 0 0 0
2297 3 23.038183351302003 19.001573370733006 0 0 0 0
2294 1 24.683767876395002 19.95165203927001 1.723007491002 0 0 0
2303 3 26.329352401488002 19.001573370733006 0 0 0 0
2300 1 27.974936926581 19.95165203927001 1.723007491002 0 0 0
2309 3 29.620521451674 19.001573370733006 0 0 0 0
2306 1 31.266105976767 19.95165203927001 1.723007491002 0 0 0
2315 3 32.91169050186 19.001573370733006 0 0 0 0
2312 1 34.557275026953 19.95165203927001 1.723007491002 0 0 0
2321 3 36.202859552046 19.001573370733006 0 0 0 0
2318 1 37.848444077139 19.95165203927001 1.723007491002 0 0 0
2327 3 39.494028602232 19.001573370733006 0 0 0 0
2324 1 41.139613127325 19.95165203927001 1.723007491002 0 0 0
2333 3 42.785197652418 19.001573370733006 0 0 0 0
2330 1 44.430782177511 19.95165203927001 1.723007491002 0 0 0
2339 3 46.076366702604 19.001573370733006 0 0 0 0
2336 1 47.721951227697 19.95165203927001 1.723007491002 0 0 0
2165 3 49.36753575279 19.001573370733006 0 -1 0 0
2162 1 51.013120277883 19.95165203927001 1.723007491002 -1 0 0
2171 3 52.658704802976 19.001573370733006 0 -1 0 0
2168 1 54.304289328069 19.95165203927001 1.723007491002 -1 0 0
2177 3 55.949873853161996 19.001573370733006 0 -1 0 0
2174 1 57.595458378254996 19.95165203927001 1.723007491002 -1 0 0
2183 3 59.241042903347996 19.001573370733006 0 -1 0 0
2180 1 60.886627428440995 19.95165203927001 1.723007491002 -1 0 0
2189 3 62.532211953533995 19.001573370733006 0 -1 0 0
2186 1 64.177796478627 19.95165203927001 1.723007491002 -1 0 0
2195 3 65.82338100372 19.001573370733006 0 -1 0 0
2192 1 67.468965528813 19.95165203927001 1.723007491002 -1 0 0
2201 3 69.114550053906 19.001573370733006 0 -1 0 0
2198 1 70.760134578999 19.95165203927001 1.723007491002 -1 0 0
2207 3 72.405719104092 19.001573370733006 0 -1 0 0
2204 1 74.051303629185 19.95165203927001 1.723007491002 -1 0 0
2213 3 75.696888154278 19.001573370733006 0 -1 0 0
2210 1 77.342472679371 19.95165203927001 1.723007491002 -1 0 0
2219 3 78.988057204464 19.001573370733006 0 -1 0 0
2216 1 80.633641729557 19.95165203927001 1.723007491002 -1 0 0
2225 3 82.27922625465 19.001573370733006 0 -1 0 0
2222 1 83.924810779743 19.95165203927001 1.723007491002 -1 0 0
2231 3 85.570395304836 19.001573370733006 0 -1 0 0
2228 1 87.215979829929 19.95165203927001 1.723007491002 -1 0 0
2237 3 88.861564355022 19.001573370733006 0 -1 0 0
2234 1 90.507148880115 19.95165203927001 1.723007491002 -1 0 0
2243 3 92.152733405208 19.001573370733006 0 -1 0 0
2240 1 93.798317930301 19.95165203927001 1.723007491002 -1 0 0
2249 3 95.443902455394 19.001573370733006 0 -1 0 0
2246 1 97.089486980487 19.95165203927001 1.723007491002 -1 0 0
2256 3 1.6455845250929997 21.851809376343006 0 0 0 0
2262 3 4.936753575278999 21.851809376343006 0 0 0 0
2268 3 8.227922625465006 21.851809376343006 0 0 0 0
2274 3 11.519091675651005 21.851809376343006 0 0 0 0
2280 3 14.810260725837004 21.851809376343006 0 0 0 0
2286 3 18.101429776023004 21.851809376343006 0 0 0 0
2292 3 21.392598826209003 21.851809376343006 0 0 0 0
2298 3 24.683767876395002 21.851809376343006 0 0 0 0
2304 3 27.974936926581 21.851809376343006 0 0 0 0
2310 3 31.266105976767 21.851809376343006 0 0 0 0
2316 3 34.557275026953 21.851809376343006 0 0 0 0
2322 3 37.848444077139 21.851809376343006 0 0 0 0
2328 3 41.139613127325 21.851809376343006 0 0 0 0
2334 3 44.430782177511 21.851809376343006 0 0 0 0
2340 3 47.721951227697 21.851809376343006 0 0 0 0
2166 3 51.013120277883 21.851809376343006 0 -1 0 0
2172 3 54.304289328069 21.851809376343006 0 -1 0 0
2178 3 57.595458378254996 21.851809376343006 0 -1 0 0
2184 3 60.886627428440995 21.851809376343006 0 -1 0 0
2190 3 64.177796478627 21.851809376343006 0 -1 0 0
2196 3 67.468965528813 21.851809376343006 0 -1 0 0
2202 3 70.760134578999 21.851809376343006 0 -1 0 0
2208 3 74.051303629185 21.851809376343006 0 -1 0 0
2214 3 77.342472679371 21.851809376343006 0 -1 0 0
2220 3 80.633641729557 21.851809376343006 0 -1 0 0
2226 3 83.924810779743 21.851809376343006 0 -1 0 0
2232 3 87.215979829929 21.851809376343006 0 -1 0 0
2238 3 90.507148880115 21.851809376343006 0 -1 0 0
2244 3 93.798317930301 21.851809376343006 0 -1 0 0
2250 3 97.089486980487 21.851809376343006 0 -1 0 0
2431 1 0 22.80188804488001 1.723007491002 0 0 0
2437 1 3.2911690501859994 22.80188804488001 1.723007491002 0 0 0
2443 1 6.582338100372006 22.80188804488001 1.723007491002 0 0 0
2449 1 9.873507150558005 22.80188804488001 1.723007491002 0 0 0
2455 1 13.164676200744005 22.80188804488001 1.723007491002 0 0 0
2461 1 16.455845250930004 22.80188804488001 1.723007491002 0 0 0
2467 1 19.747014301116003 22.80188804488001 1.723007491002 0 0 0
2473 1 23.038183351302003 22.80188804488001 1.723007491002 0 0 0
2479 1 26.329352401488002 22.80188804488001 1.723007491002 0 0 0
2485 1 29.620521451674 22.80188804488001 1.723007491002 0 0 0
2491 1 32.91169050186 22.80188804488001 1.723007491002 0 0 0
2497 1 36.202859552046 22.80188804488001 1.723007491002 0 0 0
2503 1 39.494028602232 22.80188804488001 1.723007491002 0 0 0
2509 1 42.785197652418 22.80188804488001 1.723007491002 0 0 0
2515 1 46.076366702604 22.80188804488001 1.723007491002 0 0 0
2341 1 49.36753575279 22.80188804488001 1.723007491002 -1 0 0
2347 1 52.658704802976 22.80188804488001 1.723007491002 -1 0 0
2353 1 55.949873853161996 22.80188804488001 1.723007491002 -1 0 0
2359 1 59.241042903347996 22.80188804488001 1.723007491002 -1 0 0
2365 1 62.532211953533995 22.80188804488001 1.723007491002 -1 0 0
2371 1 65.82338100372 22.80188804488001 1.723007491002 -1 0 0
2377 1 69.114550053906 22.80188804488001 1.723007491002 -1 0 0
2383 1 72.405719104092 22.80188804488001 1.723007491002 -1 0 0
2389 1 75.696888154278 22.80188804488001 1.723007491002 -1 0 0
2395 1 78.988057204464 22.80188804488001 1.723007491002 -1 0 0
2401 1 82.27922625465 22.80188804488001 1.723007491002 -1 0 0
2407 1 85.570395304836 22.80188804488001 1.723007491002 -1 0 0
2413 1 88.861564355022 22.80188804488001 1.723007491002 -1 0 0
2419 1 92.152733405208 22.80188804488001 1.723007491002 -1 0 0
2425 1 95.443902455394 22.80188804488001 1.723007491002 -1 0 0
2435 3 0 24.702045381953006 0 0 0 0
2441 3 3.2911690501859994 24.702045381953006 0 0 0 0
2447 3 6.582338100372006 24.702045381953006 0 0 0 0
2453 3 9.873507150558005 24.702045381953006 0 0 0 0
2459 3 13.164676200744005 24.702045381953006 0 0 0 0
2465 3 16.455845250930004 24.702045381953006 0 0 0 0
2471 3 19.747014301116003 24.702045381953006 0 0 0 0
2477 3 23.038183351302003 24.702045381953006 0 0 0 0
2483 3 26.329352401488002 24.702045381953006 0 0 0 0
2489 3 29.620521451674 24.702045381953006 0 0 0 0
2495 3 32.91169050186 24.702045381953006 0 0 0 0
2501 3 36.202859552046 24.702045381953006 0 0 0 0
2507 3 39.494028602232 24.702045381953006 0 0 0 0
2513 3 42.785197652418 24.702045381953006 0 0 0 0
2519 3 46.076366702604 24.702045381953006 0 0 0 0
2345 3 49.36753575279 24.702045381953006 0 -1 0 0
2351 3 52.658704802976 24.702045381953006 0 -1 0 0
2357 3 55.949873853161996 24.702045381953006 0 -1 0 0