LAMMPS data file via write_data, version 29 Aug 2024, timestep = 2, units = metal

6300 atoms
9 atom types

0 100.395516255875 xlo xhi
0 97.378475604088 ylo yhi
-50 50 zlo zhi

Masses

1 195.084
2 195.084
3 195.084
4 127.6
5 127.6
6 127.6
7 127.6
8 127.6
9 127.6

Atoms # atomic

1124 1 0.0008135492643905133 3.476961005142908 1.3848338077804516 0 0 0
1133 5 2.0079154182155845 2.318530264854203 0.047938869877764134 0 0 0
1130 1 4.016634199499389 3.4769610051429076 1.384833807780451 0 0 0
1131 4 4.01768383365838 1.1573386142180977 2.720949583627893 0 0 0
1132 4 2.009773508541024 4.6351413143641 2.720949583627896 0 0 0
1125 4 0.0018631834233815425 1.1573386142180988 2.7209495836278945 0 0 0
1139 5 6.0237360684505825 2.318530264854203 0.04793886987776465 0 0 0
1136 1 8.032454849734389 3.4769610051429076 1.3848338077804507 0 0 0
1145 5 10.039556718685583 2.3185302648542034 0.04793886987776477 0 0 0
1137 4 8.03350448389338 1.1573386142180975 2.720949583627893 0 0 0
1138 4 6.025594158776022 4.635141314364099 2.7209495836278945 0 0 0
1144 4 10.041414809011021 4.635141314364099 2.7209495836278945 0 0 0
1142 1 12.048275499969389 3.4769610051429076 1.384833807780451 0 0 0
1151 5 14.055377368920583 2.3185302648542034 0.04793886987776505 0 0 0
1148 1 16.06409615020439 3.4769610051429076 1.3848338077804512 0 0 0
1143 4 12.04932513412838 1.1573386142180977 2.7209495836278936 0 0 0
1149 4 16.065145784363384 1.1573386142180975 2.720949583627893 0 0 0
1150 4 14.057235459246021 4.635141314364099 2.7209495836278945 0 0 0
1157 5 18.071198019155585 2.3185302648542034 0.04793886987776476 0 0 0
1154 1 20.07991680043939 3.4769610051429076 1.384833807780451 0 0 0
1163 5 22.087018669390584 2.3185302648542034 0.04793886987776476 0 0 0
1155 4 20.080966434598384 1.1573386142180977 2.7209495836278936 0 0 0
1156 4 18.073056109481023 4.635141314364099 2.7209495836278945 0 0 0
1162 4 22.088876759716022 4.635141314364099 2.7209495836278945 0 0 0
1160 1 24.095737450674388 3.4769610051429076 1.384833807780451 0 0 0
1169 5 26.102839319625584 2.3185302648542034 0.04793886987776476 0 0 0
1166 1 28.111558100909388 3.4769610051429076 1.384833807780451 0 0 0
1161 4 24.096787084833384 1.1573386142180975 2.720949583627893 0 0 0
1167 4 28.112607735068384 1.1573386142180977 2.720949583627893 0 0 0
1168 4 26.104697409951022 4.635141314364099 2.7209495836278945 0 0 0
1175 5 30.11865996986058 2.318530264854203 0.04793886987776439 0 0 0
1172 1 32.127378751144384 3.476961005142907 1.38483380778045 0 0 0
1181 5 34.13448062009558 2.3185302648542034 0.047938869877764745 0 0 0
1173 4 32.12842838530338 1.1573386142180977 2.720949583627893 0 0 0
1174 4 30.120518060186022 4.6351413143641 2.720949583627895 0 0 0
1180 4 34.136338710421015 4.635141314364099 2.7209495836278945 0 0 0
1178 1 36.143199401379384 3.4769610051429076 1.384833807780451 0 0 0
1187 5 38.15030127033058 2.3185302648542034 0.047938869877764766 0 0 0
1184 1 40.159020051614384 3.4769610051429076 1.384833807780451 0 0 0
1179 4 36.14424903553838 1.1573386142180977 2.720949583627893 0 0 0
1185 4 40.16006968577338 1.1573386142180977 2.720949583627893 0 0 0
1186 4 38.152159360656015 4.635141314364099 2.7209495836278945 0 0 0
1193 5 42.16612192056558 2.3185302648542034 0.047938869877764766 0 0 0
1190 1 44.174840701849384 3.4769610051429076 1.384833807780451 0 0 0
1199 5 46.18194257080058 2.3185302648542034 0.04793886987776482 0 0 0
1191 4 44.17589033600838 1.1573386142180977 2.720949583627893 0 0 0
1192 4 42.167980010891014 4.635141314364099 2.7209495836278945 0 0 0
1198 4 46.183800661126014 4.635141314364099 2.7209495836278945 0 0 0
1196 1 48.19066135208438 3.476961005142908 1.3848338077804516 0 0 0
1055 5 50.19776322103558 2.3185302648542025 0.04793886987776447 -1 0 0
1052 1 52.20648200231938 3.4769610051429076 1.384833807780451 -1 0 0
1197 4 48.19171098624338 1.157338614218098 2.720949583627894 0 0 0
1053 4 52.20753163647838 1.157338614218098 2.720949583627894 -1 0 0
1054 4 50.19962131136102 4.6351413143641 2.720949583627895 -1 0 0
1061 5 54.21358387127058 2.318530264854203 0.04793886987776474 -1 0 0
1058 1 56.22230265255438 3.476961005142907 1.384833807780451 -1 0 0
1067 5 58.22940452150558 2.318530264854203 0.04793886987776472 -1 0 0
1059 4 56.22335228671337 1.1573386142180977 2.7209495836278936 -1 0 0
1060 4 54.21544196159602 4.635141314364099 2.7209495836278945 -1 0 0
1066 4 58.23126261183102 4.635141314364099 2.7209495836278945 -1 0 0
1064 1 60.23812330278938 3.476961005142907 1.3848338077804507 -1 0 0
1073 5 62.24522517174058 2.318530264854203 0.047938869877764634 -1 0 0
1070 1 64.25394395302439 3.476961005142907 1.384833807780451 -1 0 0
1065 4 60.23917293694837 1.1573386142180977 2.7209495836278936 -1 0 0
1071 4 64.25499358718338 1.1573386142180968 2.7209495836278923 -1 0 0
1072 4 62.24708326206602 4.6351413143641 2.720949583627895 -1 0 0
1079 5 66.26104582197559 2.318530264854203 0.047938869877764655 -1 0 0
1076 1 68.26976460325939 3.476961005142907 1.384833807780451 -1 0 0
1085 5 70.27686647221057 2.3185302648542034 0.04793886987776467 -1 0 0
1077 4 68.27081423741838 1.1573386142180995 2.720949583627896 -1 0 0
1078 4 66.26290391230101 4.635141314364099 2.7209495836278945 -1 0 0
1084 4 70.27872456253601 4.635141314364099 2.720949583627895 -1 0 0
1082 1 72.28558525349439 3.4769610051429076 1.384833807780451 -1 0 0
1091 5 74.29268712244559 2.318530264854203 0.04793886987776452 -1 0 0
1088 1 76.30140590372939 3.476961005142907 1.384833807780451 -1 0 0
1083 4 72.28663488765338 1.157338614218096 2.720949583627891 -1 0 0
1089 4 76.30245553788838 1.1573386142180995 2.720949583627896 -1 0 0
1090 4 74.29454521277101 4.635141314364099 2.7209495836278945 -1 0 0
1097 5 78.30850777268057 2.3185302648542034 0.04793886987776467 -1 0 0
1094 1 80.31722655396439 3.4769610051429076 1.384833807780451 -1 0 0
1103 5 82.32432842291558 2.3185302648542025 0.04793886987776449 -1 0 0
1095 4 80.31827618812338 1.157338614218096 2.720949583627891 -1 0 0
1096 4 78.31036586300601 4.635141314364099 2.720949583627895 -1 0 0
1102 4 82.32618651324101 4.635141314364099 2.7209495836278945 -1 0 0
1100 1 84.33304720419939 3.476961005142907 1.3848338077804512 -1 0 0
1109 5 86.34014907315057 2.318530264854204 0.04793886987776535 -1 0 0
1106 1 88.34886785443439 3.4769610051429076 1.3848338077804507 -1 0 0
1101 4 84.33409683835838 1.157338614218098 2.7209495836278936 -1 0 0
1107 4 88.34991748859338 1.1573386142180968 2.7209495836278927 -1 0 0
1108 4 86.34200716347601 4.635141314364099 2.7209495836278936 -1 0 0
1115 5 90.35596972338557 2.318530264854202 0.04793886987776393 -1 0 0
1112 1 92.36468850466937 3.4769610051429076 1.384833807780451 -1 0 0
1121 5 94.37179037362057 2.318530264854204 0.047938869877765376 -1 0 0
1113 4 92.36573813882838 1.1573386142180984 2.720949583627894 -1 0 0
1114 4 90.35782781371101 4.6351413143641 2.720949583627896 -1 0 0
1120 4 94.37364846394601 4.635141314364099 2.7209495836278936 -1 0 0
1118 1 96.38050915490439 3.476961005142907 1.3848338077804505 -1 0 0
1127 5 98.38761102385557 2.3185302648542025 0.047938869877764204 -1 0 0
1119 4 96.38155878906338 1.1573386142180968 2.7209495836278927 -1 0 0
1126 4 98.38946911418101 4.635141314364099 2.7209495836278945 -1 0 0
1128 5 5.0930980094612334e-06 5.796332965000203 0.0479388698777634 0 0 0
1134 5 4.015825743333007 5.796332965000203 0.047938869877764106 0 0 0
1279 1 2.0087238743817966 6.954763705288909 1.384833807780452 0 0 0
1283 5 2.0079154182155845 9.274135665146204 0.04793886987776421 0 0 0
1274 1 0.0008135492643904346 10.432566405434908 1.3848338077804516 0 0 0
1280 1 4.016634199499389 10.432566405434908 1.384833807780451 0 0 0
1281 4 4.01768383365838 8.112944014510099 2.720949583627893 0 0 0
1275 4 0.0018631834233815425 8.112944014510099 2.720949583627894 0 0 0
1140 5 8.031646393568007 5.796332965000204 0.04793886987776464 0 0 0
1285 1 6.024544524616797 6.954763705288909 1.3848338077804516 0 0 0
1291 1 10.040365174851797 6.954763705288909 1.3848338077804514 0 0 0
1289 5 6.0237360684505825 9.274135665146204 0.047938869877764564 0 0 0
1295 5 10.039556718685583 9.274135665146204 0.047938869877764675 0 0 0
1286 1 8.032454849734389 10.432566405434908 1.3848338077804507 0 0 0
1287 4 8.03350448389338 8.112944014510099 2.7209495836278936 0 0 0
1146 5 12.047467043803007 5.796332965000204 0.04793886987776511 0 0 0
1152 5 16.063287694038006 5.796332965000204 0.047938869877765564 0 0 0
1297 1 14.056185825086798 6.954763705288909 1.3848338077804523 0 0 0
1301 5 14.055377368920583 9.274135665146204 0.04793886987776495 0 0 0
1292 1 12.048275499969389 10.432566405434908 1.384833807780451 0 0 0
1298 1 16.06409615020439 10.432566405434908 1.3848338077804512 0 0 0
1293 4 12.049325134128381 8.112944014510099 2.7209495836278936 0 0 0
1299 4 16.065145784363384 8.112944014510097 2.720949583627893 0 0 0
1158 5 20.07910834427301 5.796332965000204 0.04793886987776471 0 0 0
1303 1 18.0720064753218 6.954763705288909 1.3848338077804514 0 0 0
1309 1 22.0878271255568 6.954763705288909 1.3848338077804514 0 0 0
1307 5 18.071198019155585 9.274135665146204 0.047938869877764675 0 0 0
1313 5 22.087018669390584 9.274135665146204 0.04793886987776467 0 0 0
1304 1 20.07991680043939 10.432566405434908 1.384833807780451 0 0 0
1305 4 20.080966434598384 8.112944014510099 2.7209495836278936 0 0 0
1164 5 24.09492899450801 5.796332965000204 0.04793886987776471 0 0 0
1170 5 28.11074964474301 5.796332965000204 0.04793886987776474 0 0 0
1315 1 26.1036477757918 6.954763705288909 1.3848338077804514 0 0 0
1319 5 26.102839319625584 9.274135665146204 0.04793886987776467 0 0 0
1310 1 24.095737450674388 10.432566405434908 1.384833807780451 0 0 0
1316 1 28.111558100909388 10.432566405434908 1.384833807780451 0 0 0
1311 4 24.096787084833384 8.112944014510099 2.720949583627893 0 0 0
1317 4 28.112607735068384 8.112944014510099 2.7209495836278936 0 0 0
1176 5 32.126570294978 5.796332965000204 0.047938869877764634 0 0 0
1321 1 30.119468426026796 6.954763705288909 1.3848338077804514 0 0 0
1327 1 34.1352890762618 6.954763705288909 1.3848338077804516 0 0 0
1325 5 30.11865996986058 9.274135665146204 0.04793886987776431 0 0 0
1331 5 34.13448062009558 9.274135665146204 0.047938869877764655 0 0 0
1322 1 32.127378751144384 10.432566405434908 1.38483380778045 0 0 0
1323 4 32.12842838530338 8.112944014510099 2.720949583627893 0 0 0
1182 5 36.142390945213 5.796332965000204 0.047938869877764634 0 0 0
1188 5 40.158211595448 5.796332965000204 0.047938869877764634 0 0 0
1333 1 38.1511097264968 6.954763705288909 1.3848338077804516 0 0 0
1337 5 38.15030127033058 9.274135665146204 0.047938869877764675 0 0 0
1328 1 36.143199401379384 10.432566405434908 1.384833807780451 0 0 0
1334 1 40.159020051614384 10.432566405434908 1.384833807780451 0 0 0
1329 4 36.14424903553838 8.112944014510099 2.7209495836278936 0 0 0
1335 4 40.16006968577338 8.112944014510099 2.7209495836278936 0 0 0
1194 5 44.174032245683 5.796332965000204 0.047938869877764634 0 0 0
1339 1 42.1669303767318 6.954763705288909 1.3848338077804516 0 0 0
1345 1 46.1827510269668 6.954763705288909 1.3848338077804516 0 0 0
1343 5 42.16612192056558 9.274135665146204 0.04793886987776468 0 0 0
1349 5 46.18194257080058 9.274135665146204 0.04793886987776473 0 0 0
1340 1 44.174840701849384 10.432566405434908 1.384833807780451 0 0 0
1341 4 44.17589033600838 8.112944014510099 2.7209495836278936 0 0 0
1200 5 48.189852895918 5.796332965000203 0.04793886987776401 0 0 0
1056 5 52.205673546153 5.796332965000203 0.04793886987776394 -1 0 0
1201 1 50.19857167720179 6.954763705288909 1.3848338077804516 -1 0 0
1205 5 50.19776322103558 9.274135665146204 0.04793886987776438 -1 0 0
1346 1 48.19066135208438 10.432566405434908 1.3848338077804516 0 0 0
1202 1 52.20648200231938 10.432566405434908 1.384833807780451 -1 0 0
1347 4 48.19171098624338 8.112944014510099 2.720949583627894 0 0 0
1203 4 52.20753163647838 8.112944014510099 2.720949583627894 -1 0 0
1062 5 56.221494196388 5.796332965000204 0.047938869877764655 -1 0 0
1207 1 54.21439232743679 6.954763705288909 1.3848338077804514 -1 0 0
1213 1 58.23021297767179 6.954763705288909 1.3848338077804514 -1 0 0
1211 5 54.21358387127058 9.274135665146204 0.047938869877764585 -1 0 0
1217 5 58.22940452150558 9.274135665146204 0.04793886987776457 -1 0 0
1208 1 56.22230265255438 10.432566405434908 1.384833807780451 -1 0 0
1209 4 56.22335228671337 8.112944014510099 2.7209495836278936 -1 0 0
1068 5 60.237314846623 5.796332965000204 0.047938869877764606 -1 0 0
1074 5 64.25313549685801 5.796332965000204 0.047938869877765806 -1 0 0
1219 1 62.24603362790679 6.954763705288908 1.384833807780451 -1 0 0
1223 5 62.24522517174058 9.274135665146204 0.04793886987776448 -1 0 0
1214 1 60.23812330278938 10.432566405434908 1.384833807780451 -1 0 0
1220 1 64.25394395302439 10.432566405434908 1.3848338077804507 -1 0 0
1215 4 60.23917293694837 8.112944014510099 2.7209495836278936 -1 0 0
1221 4 64.25499358718338 8.112944014510099 2.7209495836278923 -1 0 0
1080 5 68.26895614709301 5.796332965000202 0.04793886987776226 -1 0 0
1225 1 66.2618542781418 6.954763705288909 1.3848338077804516 -1 0 0
1231 1 70.27767492837678 6.954763705288909 1.3848338077804516 -1 0 0
1229 5 66.26104582197559 9.274135665146204 0.047938869877764675 -1 0 0
1235 5 70.27686647221059 9.274135665146204 0.04793886987776469 -1 0 0
1226 1 68.26976460325939 10.432566405434908 1.384833807780451 -1 0 0
1227 4 68.27081423741838 8.1129440145101 2.720949583627896 -1 0 0
1086 5 72.284776797328 5.796332965000206 0.04793886987776705 -1 0 0
1092 5 76.300597447563 5.796332965000202 0.04793886987776224 -1 0 0
1237 1 74.2934955786118 6.954763705288909 1.3848338077804516 -1 0 0
1241 5 74.29268712244559 9.274135665146204 0.04793886987776456 -1 0 0
1232 1 72.28558525349439 10.432566405434908 1.384833807780451 -1 0 0
1238 1 76.30140590372939 10.432566405434908 1.384833807780451 -1 0 0
1233 4 72.28663488765338 8.112944014510097 2.720949583627891 -1 0 0
1239 4 76.30245553788838 8.1129440145101 2.720949583627896 -1 0 0
1098 5 80.316418097798 5.796332965000206 0.04793886987776705 -1 0 0
1243 1 78.30931622884678 6.954763705288909 1.3848338077804516 -1 0 0
1249 1 82.3251368790818 6.954763705288909 1.3848338077804516 -1 0 0
1247 5 78.30850777268058 9.274135665146204 0.047938869877764696 -1 0 0
1253 5 82.32432842291558 9.274135665146204 0.04793886987776452 -1 0 0
1244 1 80.31722655396439 10.432566405434908 1.384833807780451 -1 0 0
1245 4 80.31827618812338 8.112944014510097 2.720949583627891 -1 0 0
1104 5 84.332238748033 5.796332965000202 0.04793886987776297 -1 0 0
1110 5 88.348059398268 5.796332965000205 0.04793886987776562 -1 0 0
1255 1 86.3409575293168 6.954763705288908 1.3848338077804503 -1 0 0
1259 5 86.34014907315057 9.274135665146204 0.04793886987776536 -1 0 0
1250 1 84.33304720419939 10.432566405434908 1.384833807780451 -1 0 0
1256 1 88.34886785443439 10.432566405434908 1.3848338077804507 -1 0 0
1251 4 84.33409683835838 8.112944014510099 2.7209495836278936 -1 0 0
1257 4 88.34991748859338 8.112944014510099 2.7209495836278927 -1 0 0
1116 5 92.363880048503 5.796332965000203 0.04793886987776375 -1 0 0
1261 1 90.3567781795518 6.954763705288909 1.3848338077804532 -1 0 0
1267 1 94.3725988297868 6.954763705288908 1.3848338077804503 -1 0 0
1265 5 90.35596972338557 9.274135665146202 0.04793886987776384 -1 0 0
1271 5 94.37179037362057 9.274135665146204 0.04793886987776541 -1 0 0
1262 1 92.36468850466937 10.432566405434908 1.3848338077804507 -1 0 0
1263 4 92.36573813882838 8.112944014510099 2.720949583627894 -1 0 0
1122 5 96.379700698738 5.796332965000205 0.04793886987776561 -1 0 0
1273 1 98.3884194800218 6.954763705288909 1.384833807780453 -1 0 0
1277 5 98.38761102385557 9.274135665146202 0.04793886987776415 -1 0 0
1268 1 96.38050915490439 10.432566405434908 1.3848338077804505 -1 0 0
1269 4 96.38155878906338 8.112944014510099 2.7209495836278927 -1 0 0
1278 5 5.093098009586867e-06 12.751938365292203 0.04793886987776365 0 0 0
1429 1 2.0087238743817966 13.910369105580909 1.3848338077804525 0 0 0
1284 5 4.015825743333007 12.751938365292203 0.04793886987776425 0 0 0
1433 5 2.007915418215585 16.2297410654382 0.047938869877763995 0 0 0
1282 4 2.009773508541024 11.5907467146561 2.7209495836278967 0 0 0
1431 4 4.01768383365838 15.068549414802098 2.720949583627893 0 0 0
1425 4 0.0018631834233815425 15.0685494148021 2.720949583627895 0 0 0
1435 1 6.024544524616797 13.910369105580909 1.384833807780452 0 0 0
1290 5 8.031646393568007 12.751938365292204 0.047938869877764786 0 0 0
1441 1 10.040365174851797 13.910369105580909 1.384833807780452 0 0 0
1439 5 6.023736068450583 16.2297410654382 0.047938869877764446 0 0 0
1445 5 10.039556718685583 16.2297410654382 0.047938869877764516 0 0 0
1288 4 6.025594158776022 11.590746714656099 2.7209495836278954 0 0 0
1294 4 10.041414809011021 11.590746714656099 2.7209495836278954 0 0 0
1437 4 8.03350448389338 15.068549414802098 2.7209495836278936 0 0 0
1296 5 12.047467043803007 12.751938365292204 0.04793886987776538 0 0 0
1447 1 14.056185825086796 13.910369105580909 1.384833807780453 0 0 0
1302 5 16.063287694038006 12.751938365292204 0.04793886987776577 0 0 0
1451 5 14.055377368920583 16.2297410654382 0.04793886987776473 0 0 0
1300 4 14.057235459246021 11.590746714656099 2.7209495836278954 0 0 0
1443 4 12.04932513412838 15.068549414802098 2.720949583627894 0 0 0
1449 4 16.065145784363384 15.068549414802098 2.720949583627893 0 0 0
1453 1 18.0720064753218 13.910369105580909 1.384833807780452 0 0 0
1308 5 20.07910834427301 12.751938365292204 0.04793886987776493 0 0 0
1459 1 22.0878271255568 13.910369105580909 1.3848338077804523 0 0 0
1457 5 18.071198019155585 16.2297410654382 0.047938869877764516 0 0 0
1463 5 22.087018669390584 16.2297410654382 0.047938869877764516 0 0 0
1306 4 18.073056109481023 11.590746714656099 2.7209495836278954 0 0 0
1312 4 22.088876759716022 11.590746714656099 2.7209495836278954 0 0 0
1455 4 20.080966434598384 15.068549414802098 2.7209495836278936 0 0 0
1314 5 24.09492899450801 12.751938365292204 0.04793886987776493 0 0 0
1465 1 26.1036477757918 13.910369105580909 1.384833807780452 0 0 0
1320 5 28.11074964474301 12.751938365292204 0.04793886987776495 0 0 0
1469 5 26.102839319625584 16.2297410654382 0.047938869877764516 0 0 0
1318 4 26.104697409951022 11.590746714656099 2.7209495836278954 0 0 0
1461 4 24.096787084833384 15.068549414802098 2.7209495836278936 0 0 0
1467 4 28.112607735068384 15.068549414802098 2.7209495836278936 0 0 0
1471 1 30.119468426026796 13.910369105580909 1.384833807780452 0 0 0
1326 5 32.126570294978 12.751938365292204 0.047938869877764925 0 0 0
1477 1 34.1352890762618 13.910369105580909 1.384833807780452 0 0 0
1475 5 30.11865996986058 16.2297410654382 0.047938869877764134 0 0 0
1481 5 34.13448062009558 16.2297410654382 0.04793886987776449 0 0 0
1324 4 30.120518060186022 11.590746714656099 2.720949583627896 0 0 0
1330 4 34.136338710421015 11.590746714656099 2.7209495836278954 0 0 0
1473 4 32.12842838530338 15.068549414802098 2.7209495836278936 0 0 0
1332 5 36.142390945213 12.751938365292204 0.047938869877764925 0 0 0
1483 1 38.1511097264968 13.910369105580909 1.384833807780452 0 0 0
1338 5 40.158211595448 12.751938365292204 0.047938869877764925 0 0 0
1487 5 38.15030127033058 16.2297410654382 0.04793886987776451 0 0 0
1336 4 38.152159360656015 11.590746714656099 2.7209495836278954 0 0 0
1479 4 36.14424903553838 15.068549414802098 2.7209495836278936 0 0 0
1485 4 40.16006968577338 15.068549414802098 2.7209495836278936 0 0 0
1489 1 42.1669303767318 13.910369105580909 1.384833807780452 0 0 0
1344 5 44.174032245683 12.751938365292204 0.047938869877764925 0 0 0
1495 1 46.1827510269668 13.910369105580909 1.384833807780452 0 0 0
1493 5 42.16612192056558 16.2297410654382 0.04793886987776451 0 0 0
1499 5 46.18194257080058 16.2297410654382 0.047938869877764564 0 0 0
1342 4 42.167980010891014 11.590746714656099 2.7209495836278954 0 0 0
1348 4 46.183800661126014 11.590746714656099 2.7209495836278954 0 0 0
1491 4 44.17589033600838 15.068549414802098 2.7209495836278936 0 0 0
1350 5 48.189852895918 12.751938365292203 0.04793886987776424 0 0 0
1351 1 50.19857167720179 13.910369105580909 1.3848338077804518 -1 0 0
1206 5 52.205673546153 12.751938365292203 0.04793886987776398 -1 0 0
1355 5 50.19776322103558 16.2297410654382 0.0479388698777641 -1 0 0
1204 4 50.19962131136102 11.5907467146561 2.720949583627896 -1 0 0
1497 4 48.19171098624338 15.068549414802098 2.720949583627894 0 0 0
1353 4 52.20753163647838 15.068549414802098 2.720949583627894 -1 0 0
1357 1 54.21439232743679 13.910369105580909 1.384833807780452 -1 0 0
1212 5 56.221494196388 12.751938365292204 0.047938869877764724 -1 0 0
1363 1 58.23021297767179 13.910369105580909 1.384833807780452 -1 0 0
1361 5 54.21358387127058 16.2297410654382 0.04793886987776453 -1 0 0
1367 5 58.22940452150558 16.2297410654382 0.04793886987776452 -1 0 0
1210 4 54.21544196159602 11.590746714656099 2.7209495836278954 -1 0 0
1216 4 58.23126261183102 11.590746714656099 2.7209495836278954 -1 0 0
1359 4 56.22335228671337 15.068549414802098 2.7209495836278936 -1 0 0
1218 5 60.237314846623 12.751938365292204 0.04793886987776467 -1 0 0
1369 1 62.24603362790679 13.910369105580909 1.3848338077804514 -1 0 0
1224 5 64.25313549685801 12.751938365292204 0.047938869877765966 -1 0 0
1373 5 62.24522517174058 16.2297410654382 0.04793886987776445 -1 0 0
1222 4 62.24708326206602 11.590746714656099 2.720949583627896 -1 0 0
1365 4 60.23917293694837 15.068549414802098 2.7209495836278936 -1 0 0
1371 4 64.25499358718338 15.068549414802098 2.7209495836278923 -1 0 0
1375 1 66.2618542781418 13.910369105580909 1.3848338077804523 -1 0 0
1230 5 68.26895614709301 12.751938365292201 0.04793886987776252 -1 0 0
1381 1 70.27767492837678 13.910369105580909 1.3848338077804523 -1 0 0
1379 5 66.26104582197559 16.2297410654382 0.04793886987776461 -1 0 0
1385 5 70.27686647221059 16.2297410654382 0.047938869877764516 -1 0 0
1228 4 66.26290391230101 11.590746714656099 2.7209495836278954 -1 0 0
1234 4 70.27872456253601 11.590746714656099 2.7209495836278954 -1 0 0
1377 4 68.27081423741838 15.0685494148021 2.720949583627896 -1 0 0
1236 5 72.284776797328 12.751938365292204 0.0479388698777672 -1 0 0
1387 1 74.2934955786118 13.910369105580909 1.384833807780452 -1 0 0
1242 5 76.300597447563 12.751938365292201 0.04793886987776251 -1 0 0
1391 5 74.29268712244559 16.2297410654382 0.04793886987776449 -1 0 0
1240 4 74.29454521277101 11.590746714656099 2.7209495836278954 -1 0 0
1383 4 72.28663488765338 15.068549414802096 2.720949583627891 -1 0 0
1389 4 76.30245553788838 15.0685494148021 2.720949583627896 -1 0 0
1393 1 78.30931622884678 13.910369105580909 1.3848338077804523 -1 0 0
1248 5 80.316418097798 12.751938365292204 0.0479388698777672 -1 0 0
1399 1 82.3251368790818 13.910369105580909 1.3848338077804523 -1 0 0
1397 5 78.30850777268058 16.2297410654382 0.047938869877764516 -1 0 0
1403 5 82.32432842291558 16.2297410654382 0.04793886987776445 -1 0 0
1246 4 78.31036586300601 11.590746714656099 2.7209495836278954 -1 0 0
1252 4 82.32618651324101 11.590746714656099 2.7209495836278954 -1 0 0
1395 4 80.31827618812338 15.068549414802096 2.720949583627891 -1 0 0
1254 5 84.332238748033 12.751938365292203 0.0479388698777633 -1 0 0
1405 1 86.3409575293168 13.910369105580909 1.3848338077804505 -1 0 0
1260 5 88.348059398268 12.751938365292204 0.04793886987776575 -1 0 0
1409 5 86.34014907315057 16.229741065438205 0.047938869877765126 -1 0 0
1258 4 86.34200716347601 11.590746714656099 2.7209495836278945 -1 0 0
1401 4 84.33409683835838 15.0685494148021 2.7209495836278936 -1 0 0
1407 4 88.34991748859338 15.068549414802098 2.7209495836278927 -1 0 0
1411 1 90.3567781795518 13.910369105580909 1.3848338077804538 -1 0 0
1266 5 92.363880048503 12.751938365292203 0.047938869877764 -1 0 0
1417 1 94.3725988297868 13.910369105580909 1.3848338077804505 -1 0 0
1415 5 90.35596972338557 16.2297410654382 0.04793886987776384 -1 0 0
1421 5 94.37179037362057 16.229741065438205 0.04793886987776517 -1 0 0
1264 4 90.35782781371101 11.590746714656099 2.7209495836278967 -1 0 0
1270 4 94.37364846394601 11.590746714656099 2.7209495836278945 -1 0 0
1413 4 92.36573813882838 15.0685494148021 2.720949583627894 -1 0 0
1272 5 96.379700698738 12.751938365292204 0.04793886987776581 -1 0 0
1423 1 98.3884194800218 13.910369105580909 1.3848338077804536 -1 0 0
1427 5 98.38761102385557 16.2297410654382 0.04793886987776391 -1 0 0
1276 4 98.38946911418101 11.590746714656099 2.7209495836278954 -1 0 0
1419 4 96.38155878906338 15.068549414802098 2.7209495836278927 -1 0 0
1424 1 0.0008135492643899763 17.38817180572691 1.3848338077804512 0 0 0
1430 1 4.016634199499389 17.38817180572691 1.3848338077804505 0 0 0
1428 5 5.093098009542822e-06 19.7075437655842 0.04793886987776255 0 0 0
1434 5 4.015825743333007 19.7075437655842 0.04793886987776289 0 0 0
1579 1 2.0087238743817966 20.86597450587291 1.3848338077804525 0 0 0
1432 4 2.009773508541024 18.5463521149481 2.7209495836278954 0 0 0
1581 4 4.01768383365838 22.024154815094093 2.7209495836278945 0 0 0
1575 4 0.0018631834233815425 22.024154815094096 2.720949583627895 0 0 0
1436 1 8.032454849734389 17.38817180572691 1.3848338077804505 0 0 0
1440 5 8.031646393568007 19.7075437655842 0.04793886987776334 0 0 0
1585 1 6.024544524616797 20.86597450587291 1.384833807780452 0 0 0
1591 1 10.040365174851797 20.86597450587291 1.3848338077804518 0 0 0
1438 4 6.025594158776022 18.546352114948096 2.720949583627895 0 0 0
1444 4 10.041414809011021 18.546352114948096 2.720949583627895 0 0 0
1587 4 8.03350448389338 22.024154815094093 2.720949583627894 0 0 0
1442 1 12.048275499969389 17.38817180572691 1.3848338077804505 0 0 0
1448 1 16.06409615020439 17.38817180572691 1.3848338077804505 0 0 0
1446 5 12.047467043803007 19.7075437655842 0.04793886987776419 0 0 0
1452 5 16.063287694038006 19.7075437655842 0.0479388698777642 0 0 0
1597 1 14.056185825086798 20.86597450587291 1.384833807780453 0 0 0
1450 4 14.057235459246021 18.546352114948096 2.7209495836278945 0 0 0
1593 4 12.049325134128381 22.024154815094093 2.7209495836278945 0 0 0
1599 4 16.065145784363384 22.024154815094093 2.7209495836278945 0 0 0
1454 1 20.07991680043939 17.38817180572691 1.3848338077804505 0 0 0
1458 5 20.07910834427301 19.7075437655842 0.04793886987776333 0 0 0
1603 1 18.0720064753218 20.86597450587291 1.384833807780452 0 0 0
1609 1 22.0878271255568 20.86597450587291 1.384833807780452 0 0 0
1456 4 18.073056109481023 18.546352114948096 2.720949583627895 0 0 0
1462 4 22.088876759716022 18.546352114948096 2.7209495836278945 0 0 0
1605 4 20.080966434598384 22.024154815094093 2.720949583627894 0 0 0
1460 1 24.095737450674388 17.38817180572691 1.3848338077804505 0 0 0
1466 1 28.111558100909388 17.38817180572691 1.3848338077804505 0 0 0
1464 5 24.09492899450801 19.7075437655842 0.04793886987776333 0 0 0
1470 5 28.11074964474301 19.7075437655842 0.04793886987776336 0 0 0
1615 1 26.1036477757918 20.86597450587291 1.384833807780452 0 0 0
1468 4 26.104697409951022 18.546352114948096 2.720949583627895 0 0 0
1611 4 24.096787084833384 22.024154815094093 2.720949583627894 0 0 0
1617 4 28.112607735068384 22.024154815094093 2.720949583627894 0 0 0
1472 1 32.127378751144384 17.38817180572691 1.3848338077804496 0 0 0
1476 5 32.126570294978 19.7075437655842 0.04793886987776334 0 0 0
1621 1 30.119468426026796 20.86597450587291 1.384833807780452 0 0 0
1627 1 34.1352890762618 20.86597450587291 1.384833807780452 0 0 0
1474 4 30.120518060186022 18.546352114948096 2.7209495836278954 0 0 0
1480 4 34.136338710421015 18.546352114948096 2.720949583627895 0 0 0
1623 4 32.12842838530338 22.024154815094093 2.720949583627894 0 0 0
1478 1 36.143199401379384 17.38817180572691 1.3848338077804505 0 0 0
1484 1 40.159020051614384 17.38817180572691 1.3848338077804505 0 0 0
1482 5 36.142390945213 19.7075437655842 0.04793886987776334 0 0 0
1488 5 40.158211595448 19.7075437655842 0.04793886987776334 0 0 0
1633 1 38.1511097264968 20.86597450587291 1.384833807780452 0 0 0
1486 4 38.152159360656015 18.546352114948096 2.720949583627895 0 0 0
1629 4 36.14424903553838 22.024154815094093 2.720949583627894 0 0 0
1635 4 40.16006968577338 22.024154815094093 2.720949583627894 0 0 0
1490 1 44.174840701849384 17.38817180572691 1.3848338077804505 0 0 0
1494 5 44.174032245683 19.7075437655842 0.04793886987776334 0 0 0
1639 1 42.1669303767318 20.86597450587291 1.384833807780452 0 0 0
1645 1 46.1827510269668 20.86597450587291 1.384833807780452 0 0 0
1492 4 42.167980010891014 18.546352114948096 2.720949583627895 0 0 0
1498 4 46.183800661126014 18.546352114948096 2.720949583627895 0 0 0
1641 4 44.17589033600838 22.024154815094093 2.720949583627894 0 0 0
1496 1 48.19066135208438 17.38817180572691 1.3848338077804514 0 0 0
1352 1 52.20648200231938 17.38817180572691 1.3848338077804507 -1 0 0
1500 5 48.189852895918 19.7075437655842 0.04793886987776277 0 0 0
1356 5 52.205673546153 19.7075437655842 0.04793886987776267 -1 0 0
1501 1 50.19857167720179 20.86597450587291 1.3848338077804523 -1 0 0
1354 4 50.19962131136102 18.5463521149481 2.7209495836278954 -1 0 0
1647 4 48.19171098624338 22.024154815094093 2.720949583627895 0 0 0
1503 4 52.20753163647838 22.024154815094093 2.720949583627895 -1 0 0
1358 1 56.22230265255438 17.38817180572691 1.3848338077804503 -1 0 0
1362 5 56.221494196388 19.7075437655842 0.047938869877763295 -1 0 0
1507 1 54.21439232743679 20.86597450587291 1.3848338077804525 -1 0 0
1513 1 58.23021297767179 20.86597450587291 1.3848338077804525 -1 0 0
1360 4 54.21544196159602 18.546352114948096 2.720949583627895 -1 0 0
1366 4 58.23126261183102 18.546352114948096 2.720949583627895 -1 0 0
1509 4 56.22335228671337 22.024154815094093 2.7209495836278945 -1 0 0
1364 1 60.23812330278938 17.38817180572691 1.3848338077804503 -1 0 0
1370 1 64.25394395302439 17.38817180572691 1.3848338077804498 -1 0 0
1368 5 60.237314846623 19.7075437655842 0.04793886987776323 -1 0 0
1374 5 64.25313549685801 19.707543765584205 0.04793886987776458 -1 0 0
1519 1 62.24603362790679 20.865974505872906 1.3848338077804516 -1 0 0
1372 4 62.24708326206602 18.546352114948096 2.720949583627895 -1 0 0