LAMMPS data file via write_data, version 29 Aug 2024, timestep = 2, units = metal

4200 atoms
6 atom types

0 100.395516255875 xlo xhi
0 97.378475604088 ylo yhi
-50 50 zlo zhi

Masses

1 195.084
2 195.084
3 127.6
4 127.6
5 127.6
6 127.6

Atoms # atomic

1124 1 0.0008034996063034788 3.476970914229921 1.3848682421538578 0 0 0
1133 4 2.007915429477581 2.3185302930568232 0.04823214312773961 0 0 0
1130 1 4.0166241498413 3.476970914229921 1.3848682421538576 0 0 0
1131 3 4.0177039446533 1.157316897577454 2.720559168908666 0 0 0
1132 3 2.009793619535946 4.635119597723456 2.720559168908668 0 0 0
1125 3 0.0018832944182918254 1.157316897577455 2.7205591689086663 0 0 0
1139 4 6.023736079712579 2.3185302930568237 0.04823214312774018 0 0 0
1136 1 8.032444800076298 3.476970914229921 1.3848682421538576 0 0 0
1145 4 10.039556729947579 2.3185302930568232 0.04823214312774011 0 0 0
1137 3 8.0335245948883 1.157316897577454 2.720559168908666 0 0 0
1138 3 6.025614269770943 4.635119597723456 2.720559168908667 0 0 0
1144 3 10.041434920005942 4.635119597723456 2.720559168908667 0 0 0
1142 1 12.048265450311298 3.4769709142299217 1.3848682421538576 0 0 0
1151 4 14.055377380182579 2.3185302930568237 0.048232143127740136 0 0 0
1148 1 16.064086100546298 3.4769709142299217 1.3848682421538578 0 0 0
1143 3 12.0493452451233 1.157316897577454 2.720559168908666 0 0 0
1149 3 16.0651658953583 1.157316897577454 2.7205591689086654 0 0 0
1150 3 14.057255570240942 4.635119597723456 2.720559168908667 0 0 0
1157 4 18.07119803041758 2.3185302930568237 0.04823214312774006 0 0 0
1154 1 20.079906750781298 3.4769709142299217 1.3848682421538578 0 0 0
1163 4 22.08701868065258 2.3185302930568237 0.04823214312774006 0 0 0
1155 3 20.0809865455933 1.157316897577454 2.720559168908666 0 0 0
1156 3 18.073076220475944 4.635119597723456 2.720559168908667 0 0 0
1162 3 22.088896870710943 4.635119597723456 2.720559168908667 0 0 0
1160 1 24.095727401016298 3.4769709142299217 1.3848682421538578 0 0 0
1169 4 26.10283933088758 2.3185302930568237 0.04823214312774006 0 0 0
1166 1 28.111548051251297 3.4769709142299217 1.3848682421538578 0 0 0
1161 3 24.0968071958283 1.157316897577454 2.720559168908666 0 0 0
1167 3 28.1126278460633 1.157316897577454 2.720559168908666 0 0 0
1168 3 26.104717520945943 4.635119597723456 2.720559168908667 0 0 0
1175 4 30.11865998112258 2.3185302930568237 0.048232143127740476 0 0 0
1172 1 32.1273687014863 3.4769709142299217 1.3848682421538576 0 0 0
1181 4 34.13448063135758 2.3185302930568237 0.048232143127740115 0 0 0
1173 3 32.1284484962983 1.1573168975774542 2.7205591689086663 0 0 0
1174 3 30.120538171180943 4.635119597723455 2.7205591689086663 0 0 0
1180 3 34.136358821415946 4.635119597723456 2.720559168908667 0 0 0
1178 1 36.1431893517213 3.4769709142299217 1.3848682421538576 0 0 0
1187 4 38.15030128159258 2.3185302930568237 0.048232143127740115 0 0 0
1184 1 40.1590100019563 3.4769709142299217 1.3848682421538576 0 0 0
1179 3 36.1442691465333 1.157316897577454 2.720559168908666 0 0 0
1185 3 40.1600897967683 1.157316897577454 2.720559168908666 0 0 0
1186 3 38.152179471650946 4.635119597723456 2.720559168908667 0 0 0
1193 4 42.16612193182758 2.3185302930568237 0.048232143127740115 0 0 0
1190 1 44.1748306521913 3.4769709142299217 1.3848682421538576 0 0 0
1199 4 46.18194258206258 2.3185302930568237 0.04823214312774017 0 0 0
1191 3 44.1759104470033 1.157316897577454 2.720559168908666 0 0 0
1192 3 42.168000121885946 4.635119597723456 2.720559168908667 0 0 0
1198 3 46.183820772120946 4.635119597723456 2.720559168908667 0 0 0
1196 1 48.190651302426296 3.476970914229921 1.3848682421538578 0 0 0
1055 4 50.197763232297575 2.3185302930568223 0.048232143127738936 -1 0 0
1052 1 52.206471952661296 3.476970914229921 1.3848682421538578 -1 0 0
1197 3 48.191731097238296 1.1573168975774546 2.7205591689086663 0 0 0
1053 3 52.207551747473296 1.157316897577454 2.7205591689086654 -1 0 0
1054 3 50.19964142235594 4.635119597723457 2.720559168908668 -1 0 0
1061 4 54.213583882532575 2.3185302930568232 0.04823214312774002 -1 0 0
1058 1 56.222292602896296 3.4769709142299217 1.3848682421538576 -1 0 0
1067 4 58.229404532767575 2.3185302930568232 0.048232143127740004 -1 0 0
1059 3 56.223372397708296 1.157316897577454 2.720559168908666 -1 0 0
1060 3 54.21546207259094 4.635119597723456 2.720559168908667 -1 0 0
1066 3 58.23128272282594 4.635119597723456 2.720559168908667 -1 0 0
1064 1 60.238113253131296 3.4769709142299217 1.3848682421538576 -1 0 0
1073 4 62.245225183002574 2.3185302930568237 0.0482321431277406 -1 0 0
1070 1 64.25393390336629 3.476970914229921 1.3848682421538576 -1 0 0
1065 3 60.239193047943296 1.157316897577454 2.720559168908666 -1 0 0
1071 3 64.2550136981783 1.1573168975774535 2.720559168908665 -1 0 0
1072 3 62.24710337306094 4.635119597723455 2.7205591689086663 -1 0 0
1079 4 66.26104583323757 2.3185302930568232 0.04823214312774011 -1 0 0
1076 1 68.26975455360129 3.476970914229921 1.3848682421538576 -1 0 0
1085 4 70.27686648347257 2.3185302930568237 0.048232143127740136 -1 0 0
1077 3 68.27083434841329 1.1573168975774546 2.7205591689086663 -1 0 0
1078 3 66.26292402329594 4.635119597723456 2.720559168908667 -1 0 0
1084 3 70.27874467353094 4.635119597723456 2.720559168908667 -1 0 0
1082 1 72.28557520383629 3.476970914229921 1.3848682421538578 -1 0 0
1091 4 74.29268713370757 2.3185302930568232 0.04823214312773999 -1 0 0
1088 1 76.30139585407129 3.476970914229921 1.3848682421538576 -1 0 0
1083 3 72.28665499864829 1.157316897577453 2.7205591689086646 -1 0 0
1089 3 76.30247564888329 1.1573168975774546 2.720559168908667 -1 0 0
1090 3 74.29456532376594 4.635119597723456 2.720559168908667 -1 0 0
1097 4 78.30850778394257 2.3185302930568237 0.048232143127740136 -1 0 0
1094 1 80.31721650430629 3.476970914229921 1.3848682421538578 -1 0 0
1103 4 82.32432843417757 2.3185302930568232 0.048232143127739956 -1 0 0
1095 3 80.31829629911829 1.157316897577453 2.7205591689086646 -1 0 0
1096 3 78.31038597400094 4.635119597723456 2.720559168908667 -1 0 0
1102 3 82.32620662423594 4.635119597723456 2.720559168908667 -1 0 0
1100 1 84.33303715454129 3.4769709142299217 1.3848682421538578 -1 0 0
1109 4 86.34014908441257 2.318530293056824 0.04823214312774083 -1 0 0
1106 1 88.3488578047763 3.4769709142299203 1.3848682421538563 -1 0 0
1101 3 84.33411694935329 1.1573168975774542 2.720559168908666 -1 0 0
1107 3 88.3499375995883 1.157316897577453 2.720559168908665 -1 0 0
1108 3 86.34202727447094 4.635119597723455 2.720559168908666 -1 0 0
1115 4 90.35596973464759 2.3185302930568223 0.04823214312773927 -1 0 0
1112 1 92.36467845501129 3.4769709142299225 1.3848682421538592 -1 0 0
1121 4 94.37179038488257 2.318530293056824 0.04823214312774087 -1 0 0
1113 3 92.36575824982329 1.1573168975774546 2.7205591689086663 -1 0 0
1114 3 90.35784792470594 4.635119597723457 2.720559168908668 -1 0 0
1120 3 94.37366857494094 4.635119597723455 2.720559168908666 -1 0 0
1118 1 96.3804991052463 3.4769709142299208 1.3848682421538574 -1 0 0
1127 4 98.38761103511759 2.318530293056823 0.048232143127739435 -1 0 0
1119 3 96.3815789000583 1.157316897577453 2.720559168908665 -1 0 0
1126 3 98.38948922517595 4.635119597723456 2.7205591689086672 -1 0 0
1128 4 5.104359996100326e-06 5.796332993202824 0.048232143127739886 0 0 0
1134 4 4.015825754594996 5.796332993202824 0.04823214312773945 0 0 0
1279 1 2.0087138247237193 6.954773614375923 1.384868242153859 0 0 0
1283 4 2.007915429477581 9.274135693348823 0.04823214312773942 0 0 0
1274 1 0.0008034996063034226 10.432576314521922 1.3848682421538578 0 0 0
1280 1 4.0166241498413 10.432576314521922 1.3848682421538578 0 0 0
1281 3 4.0177039446533 8.112922297869455 2.720559168908666 0 0 0
1275 3 0.0018832944182918254 8.112922297869456 2.7205591689086663 0 0 0
1140 4 8.031646404829994 5.796332993202824 0.04823214312774003 0 0 0
1285 1 6.0245344749587195 6.954773614375923 1.3848682421538587 0 0 0
1291 1 10.04035512519372 6.954773614375922 1.3848682421538583 0 0 0
1289 4 6.023736079712579 9.274135693348823 0.04823214312774007 0 0 0
1295 4 10.039556729947579 9.274135693348823 0.04823214312773999 0 0 0
1286 1 8.032444800076298 10.432576314521922 1.3848682421538576 0 0 0
1287 3 8.0335245948883 8.112922297869455 2.720559168908666 0 0 0
1146 4 12.047467055064995 5.7963329932028245 0.04823214312774067 0 0 0
1152 4 16.063287705299995 5.7963329932028245 0.04823214312774075 0 0 0
1297 1 14.05617577542872 6.954773614375923 1.3848682421538592 0 0 0
1301 4 14.055377380182579 9.274135693348825 0.04823214312773996 0 0 0
1292 1 12.048265450311298 10.432576314521922 1.3848682421538576 0 0 0
1298 1 16.064086100546298 10.432576314521922 1.3848682421538578 0 0 0
1293 3 12.0493452451233 8.112922297869455 2.720559168908666 0 0 0
1299 3 16.0651658953583 8.112922297869455 2.7205591689086654 0 0 0
1158 4 20.079108355534995 5.796332993202824 0.048232143127740025 0 0 0
1303 1 18.07199642566372 6.954773614375922 1.3848682421538585 0 0 0
1309 1 22.08781707589872 6.954773614375922 1.3848682421538585 0 0 0
1307 4 18.07119803041758 9.274135693348823 0.048232143127740004 0 0 0
1313 4 22.08701868065258 9.274135693348823 0.04823214312774 0 0 0
1304 1 20.079906750781298 10.432576314521922 1.3848682421538578 0 0 0
1305 3 20.0809865455933 8.112922297869455 2.720559168908666 0 0 0
1164 4 24.094929005769995 5.796332993202824 0.048232143127740025 0 0 0
1170 4 28.110749656004995 5.796332993202824 0.048232143127740004 0 0 0
1315 1 26.10363772613372 6.954773614375922 1.3848682421538585 0 0 0
1319 4 26.10283933088758 9.274135693348823 0.04823214312774 0 0 0
1310 1 24.095727401016298 10.432576314521922 1.3848682421538578 0 0 0
1316 1 28.111548051251297 10.432576314521922 1.3848682421538578 0 0 0
1311 3 24.0968071958283 8.112922297869455 2.720559168908666 0 0 0
1317 3 28.1126278460633 8.112922297869455 2.720559168908666 0 0 0
1176 4 32.12657030624 5.796332993202824 0.04823214312773964 0 0 0
1321 1 30.119458376368723 6.954773614375922 1.384868242153858 0 0 0
1327 1 34.13527902660372 6.954773614375922 1.3848682421538585 0 0 0
1325 4 30.11865998112258 9.274135693348825 0.04823214312774042 0 0 0
1331 4 34.13448063135758 9.274135693348823 0.04823214312774005 0 0 0
1322 1 32.1273687014863 10.432576314521922 1.3848682421538578 0 0 0
1323 3 32.1284484962983 8.112922297869455 2.7205591689086663 0 0 0
1182 4 36.142390956475 5.796332993202824 0.04823214312774003 0 0 0
1188 4 40.15821160671 5.796332993202824 0.04823214312774003 0 0 0
1333 1 38.15109967683872 6.954773614375922 1.3848682421538585 0 0 0
1337 4 38.15030128159258 9.274135693348823 0.04823214312774005 0 0 0
1328 1 36.1431893517213 10.432576314521922 1.3848682421538578 0 0 0
1334 1 40.1590100019563 10.432576314521922 1.3848682421538578 0 0 0
1329 3 36.1442691465333 8.112922297869455 2.720559168908666 0 0 0
1335 3 40.1600897967683 8.112922297869455 2.720559168908666 0 0 0
1194 4 44.174032256945 5.796332993202824 0.04823214312774003 0 0 0
1339 1 42.16692032707372 6.954773614375922 1.3848682421538585 0 0 0
1345 1 46.18274097730872 6.954773614375922 1.3848682421538585 0 0 0
1343 4 42.16612193182758 9.274135693348823 0.04823214312774006 0 0 0
1349 4 46.18194258206258 9.274135693348823 0.048232143127740115 0 0 0
1340 1 44.1748306521913 10.432576314521922 1.3848682421538578 0 0 0
1341 3 44.1759104470033 8.112922297869455 2.720559168908666 0 0 0
1200 4 48.18985290718 5.796332993202823 0.0482321431277394 0 0 0
1056 4 52.20567355741499 5.796332993202824 0.04823214312774004 -1 0 0
1201 1 50.19856162754372 6.954773614375923 1.3848682421538592 -1 0 0
1205 4 50.197763232297575 9.274135693348823 0.04823214312773888 -1 0 0
1346 1 48.190651302426296 10.432576314521922 1.3848682421538576 0 0 0
1202 1 52.206471952661296 10.432576314521922 1.3848682421538576 -1 0 0
1347 3 48.191731097238296 8.112922297869455 2.7205591689086663 0 0 0
1203 3 52.207551747473296 8.112922297869455 2.720559168908666 -1 0 0
1062 4 56.22149420764999 5.796332993202824 0.04823214312773991 -1 0 0
1207 1 54.21438227777872 6.954773614375922 1.3848682421538585 -1 0 0
1213 1 58.23020292801372 6.954773614375922 1.3848682421538585 -1 0 0
1211 4 54.213583882532575 9.274135693348823 0.04823214312774003 -1 0 0
1217 4 58.229404532767575 9.274135693348823 0.04823214312774002 -1 0 0
1208 1 56.222292602896296 10.432576314521922 1.3848682421538576 -1 0 0
1209 3 56.223372397708296 8.112922297869455 2.720559168908666 -1 0 0
1068 4 60.23731485788499 5.796332993202824 0.048232143127739886 -1 0 0
1074 4 64.25313550811998 5.7963329932028245 0.04823214312774038 -1 0 0
1219 1 62.24602357824872 6.954773614375923 1.3848682421538592 -1 0 0
1223 4 62.245225183002574 9.274135693348825 0.04823214312774063 -1 0 0
1214 1 60.238113253131296 10.432576314521922 1.3848682421538576 -1 0 0
1220 1 64.25393390336629 10.432576314521922 1.3848682421538576 -1 0 0
1215 3 60.239193047943296 8.112922297869455 2.720559168908666 -1 0 0
1221 3 64.2550136981783 8.112922297869453 2.720559168908665 -1 0 0
1080 4 68.26895615835498 5.796332993202823 0.04823214312773904 -1 0 0
1225 1 66.26184422848371 6.954773614375922 1.3848682421538572 -1 0 0
1231 1 70.27766487871871 6.954773614375923 1.3848682421538585 -1 0 0
1229 4 66.26104583323757 9.274135693348823 0.04823214312774005 -1 0 0
1235 4 70.27686648347257 9.274135693348823 0.048232143127740074 -1 0 0
1226 1 68.26975455360129 10.432576314521922 1.3848682421538578 -1 0 0
1227 3 68.27083434841329 8.112922297869456 2.7205591689086663 -1 0 0
1086 4 72.28477680858998 5.7963329932028245 0.04823214312774094 -1 0 0
1092 4 76.30059745882498 5.796332993202823 0.048232143127739026 -1 0 0
1237 1 74.29348552895371 6.954773614375923 1.3848682421538585 -1 0 0
1241 4 74.29268713370757 9.274135693348823 0.04823214312774001 -1 0 0
1232 1 72.28557520383629 10.432576314521922 1.3848682421538576 -1 0 0
1238 1 76.30139585407129 10.432576314521922 1.3848682421538578 -1 0 0
1233 3 72.28665499864829 8.112922297869453 2.720559168908665 -1 0 0
1239 3 76.30247564888329 8.112922297869456 2.720559168908667 -1 0 0
1098 4 80.31641810905998 5.7963329932028245 0.04823214312774094 -1 0 0
1243 1 78.30930617918871 6.954773614375923 1.3848682421538585 -1 0 0
1249 1 82.32512682942371 6.954773614375923 1.3848682421538585 -1 0 0
1247 4 78.30850778394257 9.274135693348823 0.04823214312774008 -1 0 0
1253 4 82.32432843417757 9.274135693348823 0.048232143127739976 -1 0 0
1244 1 80.31721650430629 10.432576314521922 1.3848682421538576 -1 0 0
1245 3 80.31829629911829 8.112922297869453 2.720559168908665 -1 0 0
1104 4 84.33223875929498 5.796332993202823 0.04823214312773831 -1 0 0
1110 4 88.34805940952998 5.7963329932028245 0.048232143127741 -1 0 0
1255 1 86.34094747965871 6.954773614375923 1.3848682421538583 -1 0 0
1259 4 86.34014908441257 9.274135693348825 0.04823214312774082 -1 0 0
1250 1 84.33303715454129 10.432576314521922 1.3848682421538578 -1 0 0
1256 1 88.3488578047763 10.43257631452192 1.3848682421538563 -1 0 0
1251 3 84.33411694935329 8.112922297869455 2.720559168908666 -1 0 0
1257 3 88.3499375995883 8.112922297869453 2.7205591689086646 -1 0 0
1116 4 92.36388005976498 5.796332993202823 0.048232143127739144 -1 0 0
1261 1 90.35676812989371 6.954773614375922 1.3848682421538583 -1 0 0
1267 1 94.37258878012871 6.954773614375923 1.3848682421538583 -1 0 0
1265 4 90.35596973464759 9.274135693348823 0.048232143127739144 -1 0 0
1271 4 94.37179038488257 9.274135693348825 0.04823214312774094 -1 0 0
1262 1 92.36467845501129 10.432576314521922 1.3848682421538594 -1 0 0
1263 3 92.36575824982329 8.112922297869456 2.7205591689086663 -1 0 0
1122 4 96.37970070999998 5.7963329932028245 0.04823214312774093 -1 0 0
1273 1 98.38840943036372 6.954773614375921 1.384868242153857 -1 0 0
1277 4 98.38761103511759 9.274135693348823 0.04823214312773931 -1 0 0
1268 1 96.3804991052463 10.43257631452192 1.3848682421538572 -1 0 0
1269 3 96.3815789000583 8.112922297869453 2.720559168908665 -1 0 0
1278 4 5.1043599960459786e-06 12.751938393494823 0.04823214312773994 0 0 0
1429 1 2.0087138247237193 13.910379014667923 1.3848682421538594 0 0 0
1284 4 4.015825754594996 12.751938393494823 0.04823214312773951 0 0 0
1433 4 2.007915429477581 16.229741093640822 0.048232143127739366 0 0 0
1282 3 2.009793619535946 11.590724998015457 2.720559168908669 0 0 0
1431 3 4.0177039446533 15.068527698161454 2.720559168908666 0 0 0
1425 3 0.0018832944182918254 15.068527698161455 2.720559168908667 0 0 0
1435 1 6.0245344749587195 13.910379014667923 1.3848682421538592 0 0 0
1290 4 8.031646404829994 12.751938393494823 0.04823214312774015 0 0 0
1441 1 10.04035512519372 13.910379014667923 1.3848682421538587 0 0 0
1439 4 6.023736079712579 16.229741093640822 0.048232143127739845 0 0 0
1445 4 10.039556729947579 16.229741093640822 0.04823214312773986 0 0 0
1288 3 6.025614269770943 11.590724998015457 2.7205591689086677 0 0 0
1294 3 10.041434920005942 11.590724998015457 2.7205591689086677 0 0 0
1437 3 8.0335245948883 15.068527698161454 2.720559168908666 0 0 0
1296 4 12.047467055064995 12.751938393494825 0.048232143127740795 0 0 0
1447 1 14.05617577542872 13.910379014667923 1.3848682421538598 0 0 0
1302 4 16.063287705299995 12.751938393494825 0.04823214312774087 0 0 0
1451 4 14.055377380182579 16.229741093640822 0.048232143127739824 0 0 0
1300 3 14.057255570240942 11.590724998015455 2.7205591689086677 0 0 0
1443 3 12.0493452451233 15.068527698161454 2.720559168908666 0 0 0
1449 3 16.0651658953583 15.068527698161454 2.720559168908666 0 0 0
1453 1 18.07199642566372 13.910379014667923 1.3848682421538587 0 0 0
1308 4 20.079108355534995 12.751938393494823 0.04823214312774015 0 0 0
1459 1 22.08781707589872 13.910379014667923 1.3848682421538587 0 0 0
1457 4 18.07119803041758 16.229741093640822 0.048232143127739865 0 0 0
1463 4 22.08701868065258 16.229741093640822 0.048232143127739865 0 0 0
1306 3 18.073076220475944 11.590724998015455 2.7205591689086677 0 0 0
1312 3 22.088896870710943 11.590724998015455 2.7205591689086677 0 0 0
1455 3 20.0809865455933 15.068527698161454 2.720559168908666 0 0 0
1314 4 24.094929005769995 12.751938393494823 0.04823214312774015 0 0 0
1465 1 26.10363772613372 13.910379014667923 1.3848682421538587 0 0 0
1320 4 28.110749656004995 12.751938393494823 0.04823214312774013 0 0 0
1469 4 26.10283933088758 16.229741093640822 0.048232143127739865 0 0 0
1318 3 26.104717520945943 11.590724998015455 2.7205591689086677 0 0 0
1461 3 24.0968071958283 15.068527698161454 2.720559168908666 0 0 0
1467 3 28.1126278460633 15.068527698161454 2.720559168908666 0 0 0
1471 1 30.119458376368723 13.910379014667923 1.3848682421538583 0 0 0
1326 4 32.12657030624 12.751938393494823 0.048232143127739754 0 0 0
1477 1 34.13527902660372 13.910379014667923 1.3848682421538587 0 0 0
1475 4 30.11865998112258 16.229741093640822 0.04823214312774028 0 0 0
1481 4 34.13448063135758 16.229741093640822 0.048232143127739935 0 0 0
1324 3 30.120538171180943 11.590724998015455 2.7205591689086672 0 0 0
1330 3 34.136358821415946 11.590724998015457 2.7205591689086677 0 0 0
1473 3 32.1284484962983 15.068527698161454 2.7205591689086663 0 0 0
1332 4 36.142390956475 12.751938393494823 0.04823214312774015 0 0 0
1483 1 38.15109967683872 13.910379014667923 1.3848682421538587 0 0 0
1338 4 40.15821160671 12.751938393494823 0.04823214312774015 0 0 0
1487 4 38.15030128159258 16.229741093640822 0.048232143127739935 0 0 0
1336 3 38.152179471650946 11.590724998015457 2.7205591689086677 0 0 0
1479 3 36.1442691465333 15.068527698161454 2.720559168908666 0 0 0
1485 3 40.1600897967683 15.068527698161454 2.720559168908666 0 0 0
1489 1 42.16692032707372 13.910379014667923 1.3848682421538587 0 0 0
1344 4 44.174032256945 12.751938393494823 0.04823214312774015 0 0 0
1495 1 46.18274097730872 13.910379014667923 1.3848682421538587 0 0 0
1493 4 42.16612193182758 16.229741093640822 0.048232143127739935 0 0 0
1499 4 46.18194258206258 16.229741093640822 0.04823214312773996 0 0 0
1342 3 42.168000121885946 11.590724998015457 2.7205591689086677 0 0 0
1348 3 46.183820772120946 11.590724998015457 2.7205591689086677 0 0 0
1491 3 44.1759104470033 15.068527698161454 2.720559168908666 0 0 0
1350 4 48.18985290718 12.751938393494823 0.04823214312773955 0 0 0
1351 1 50.19856162754372 13.910379014667923 1.3848682421538598 -1 0 0
1206 4 52.20567355741499 12.751938393494823 0.04823214312774031 -1 0 0
1355 4 50.197763232297575 16.229741093640822 0.04823214312773868 -1 0 0
1204 3 50.19964142235594 11.590724998015457 2.7205591689086686 -1 0 0
1497 3 48.191731097238296 15.068527698161455 2.720559168908667 0 0 0
1353 3 52.207551747473296 15.068527698161454 2.720559168908666 -1 0 0
1357 1 54.21438227777872 13.910379014667923 1.384868242153859 -1 0 0
1212 4 56.22149420764999 12.751938393494823 0.0482321431277401 -1 0 0
1363 1 58.23020292801372 13.910379014667923 1.384868242153859 -1 0 0
1361 4 54.213583882532575 16.229741093640822 0.048232143127739845 -1 0 0
1367 4 58.229404532767575 16.229741093640822 0.04823214312773978 -1 0 0
1210 3 54.21546207259094 11.590724998015457 2.7205591689086677 -1 0 0
1216 3 58.23128272282594 11.590724998015457 2.7205591689086677 -1 0 0
1359 3 56.223372397708296 15.068527698161454 2.720559168908666 -1 0 0
1218 4 60.23731485788499 12.751938393494823 0.04823214312774008 -1 0 0
1369 1 62.24602357824872 13.910379014667923 1.3848682421538596 -1 0 0
1224 4 64.25313550811998 12.751938393494825 0.04823214312774051 -1 0 0
1373 4 62.245225183002574 16.229741093640822 0.04823214312774048 -1 0 0
1222 3 62.24710337306094 11.590724998015455 2.720559168908667 -1 0 0
1365 3 60.239193047943296 15.068527698161454 2.720559168908666 -1 0 0
1371 3 64.2550136981783 15.068527698161454 2.7205591689086654 -1 0 0
1375 1 66.26184422848371 13.910379014667923 1.3848682421538574 -1 0 0
1230 4 68.26895615835498 12.751938393494823 0.04823214312773915 -1 0 0
1381 1 70.27766487871871 13.910379014667923 1.384868242153859 -1 0 0
1379 4 66.26104583323757 16.229741093640822 0.04823214312773987 -1 0 0
1385 4 70.27686648347257 16.229741093640822 0.048232143127739754 -1 0 0
1228 3 66.26292402329594 11.590724998015457 2.7205591689086677 -1 0 0
1234 3 70.27874467353094 11.590724998015455 2.7205591689086677 -1 0 0
1377 3 68.27083434841329 15.068527698161455 2.720559168908667 -1 0 0
1236 4 72.28477680858998 12.751938393494825 0.04823214312774102 -1 0 0
1387 1 74.29348552895371 13.910379014667923 1.384868242153859 -1 0 0
1242 4 76.30059745882498 12.751938393494823 0.04823214312773914 -1 0 0
1391 4 74.29268713370757 16.229741093640822 0.04823214312773991 -1 0 0
1240 3 74.29456532376594 11.590724998015457 2.7205591689086677 -1 0 0
1383 3 72.28665499864829 15.068527698161454 2.720559168908665 -1 0 0
1389 3 76.30247564888329 15.068527698161455 2.720559168908667 -1 0 0
1393 1 78.30930617918871 13.910379014667923 1.384868242153859 -1 0 0
1248 4 80.31641810905998 12.751938393494825 0.048232143127741024 -1 0 0
1399 1 82.32512682942371 13.910379014667923 1.384868242153859 -1 0 0
1397 4 78.30850778394257 16.229741093640822 0.04823214312773976 -1 0 0
1403 4 82.32432843417757 16.229741093640822 0.04823214312773987 -1 0 0
1246 3 78.31038597400094 11.590724998015455 2.7205591689086677 -1 0 0
1252 3 82.32620662423594 11.590724998015457 2.7205591689086677 -1 0 0
1395 3 80.31829629911829 15.068527698161454 2.720559168908665 -1 0 0
1254 4 84.33223875929498 12.751938393494822 0.048232143127738436 -1 0 0
1405 1 86.34094747965871 13.910379014667923 1.3848682421538587 -1 0 0
1260 4 88.34805940952998 12.751938393494825 0.048232143127741156 -1 0 0
1409 4 86.34014908441257 16.229741093640826 0.04823214312774033 -1 0 0
1258 3 86.34202727447094 11.590724998015455 2.720559168908667 -1 0 0
1401 3 84.33411694935329 15.068527698161455 2.7205591689086663 -1 0 0
1407 3 88.3499375995883 15.068527698161454 2.720559168908665 -1 0 0
1411 1 90.35676812989371 13.910379014667923 1.3848682421538592 -1 0 0
1266 4 92.36388005976498 12.751938393494823 0.048232143127739345 -1 0 0
1417 1 94.37258878012871 13.910379014667923 1.3848682421538587 -1 0 0
1415 4 90.35596973464759 16.229741093640822 0.04823214312773883 -1 0 0
1421 4 94.37179038488257 16.229741093640826 0.04823214312774045 -1 0 0
1264 3 90.35784792470594 11.590724998015457 2.7205591689086686 -1 0 0
1270 3 94.37366857494094 11.590724998015455 2.720559168908667 -1 0 0
1413 3 92.36575824982329 15.068527698161455 2.720559168908667 -1 0 0
1272 4 96.37970070999998 12.751938393494825 0.04823214312774107 -1 0 0
1423 1 98.38840943036372 13.910379014667921 1.3848682421538576 -1 0 0
1427 4 98.38761103511759 16.229741093640822 0.04823214312773907 -1 0 0
1276 3 98.38948922517595 11.590724998015455 2.7205591689086677 -1 0 0
1419 3 96.3815789000583 15.068527698161454 2.720559168908665 -1 0 0
1424 1 0.0008034996063034943 17.388181714813925 1.3848682421538574 0 0 0
1430 1 4.0166241498413 17.388181714813925 1.3848682421538574 0 0 0
1428 4 5.104359996071844e-06 19.707543793786822 0.04823214312773896 0 0 0
1434 4 4.015825754594995 19.707543793786822 0.048232143127738776 0 0 0
1579 1 2.0087138247237193 20.86598441495992 1.3848682421538592 0 0 0
1432 3 2.0097936195359454 18.546330398307457 2.7205591689086672 0 0 0
1581 3 4.0177039446533 22.02413309845345 2.720559168908667 0 0 0
1575 3 0.0018832944182918254 22.02413309845345 2.7205591689086677 0 0 0
1436 1 8.032444800076298 17.388181714813925 1.3848682421538572 0 0 0
1440 4 8.031646404829994 19.707543793786822 0.04823214312773928 0 0 0
1585 1 6.0245344749587195 20.86598441495992 1.384868242153859 0 0 0
1591 1 10.04035512519372 20.86598441495992 1.3848682421538587 0 0 0
1438 3 6.0256142697709425 18.546330398307454 2.720559168908667 0 0 0
1444 3 10.041434920005942 18.546330398307454 2.720559168908667 0 0 0
1587 3 8.0335245948883 22.02413309845345 2.7205591689086663 0 0 0
1442 1 12.048265450311298 17.38818171481392 1.3848682421538572 0 0 0
1448 1 16.064086100546298 17.388181714813925 1.3848682421538574 0 0 0
1446 4 12.047467055064995 19.707543793786822 0.048232143127739796 0 0 0
1452 4 16.063287705299995 19.707543793786822 0.048232143127739886 0 0 0
1597 1 14.05617577542872 20.86598441495992 1.3848682421538598 0 0 0
1450 3 14.057255570240942 18.546330398307454 2.720559168908667 0 0 0
1593 3 12.0493452451233 22.02413309845345 2.720559168908667 0 0 0
1599 3 16.0651658953583 22.02413309845345 2.7205591689086663 0 0 0
1454 1 20.079906750781298 17.388181714813925 1.3848682421538574 0 0 0
1458 4 20.079108355534995 19.707543793786822 0.0482321431277393 0 0 0
1603 1 18.07199642566372 20.86598441495992 1.3848682421538587 0 0 0
1609 1 22.08781707589872 20.86598441495992 1.3848682421538587 0 0 0
1456 3 18.073076220475944 18.546330398307454 2.720559168908667 0 0 0
1462 3 22.088896870710943 18.546330398307454 2.7205591689086663 0 0 0
1605 3 20.0809865455933 22.02413309845345 2.720559168908667 0 0 0
1460 1 24.095727401016298 17.388181714813925 1.3848682421538572 0 0 0
1466 1 28.111548051251297 17.388181714813925 1.3848682421538572 0 0 0
1464 4 24.094929005769995 19.707543793786822 0.048232143127739296 0 0 0
1470 4 28.110749656004995 19.707543793786822 0.04823214312773928 0 0 0
1615 1 26.10363772613372 20.86598441495992 1.3848682421538587 0 0 0
1468 3 26.104717520945943 18.546330398307454 2.7205591689086663 0 0 0
1611 3 24.0968071958283 22.02413309845345 2.720559168908667 0 0 0
1617 3 28.1126278460633 22.02413309845345 2.720559168908667 0 0 0
1472 1 32.1273687014863 17.388181714813925 1.3848682421538572 0 0 0
1476 4 32.12657030624 19.707543793786822 0.0482321431277389 0 0 0
1621 1 30.11945837636872 20.86598441495992 1.3848682421538583 0 0 0
1627 1 34.13527902660372 20.86598441495992 1.384868242153859 0 0 0
1474 3 30.120538171180943 18.546330398307454 2.720559168908666 0 0 0
1480 3 34.136358821415946 18.546330398307454 2.720559168908667 0 0 0
1623 3 32.1284484962983 22.02413309845345 2.7205591689086672 0 0 0
1478 1 36.1431893517213 17.388181714813925 1.3848682421538574 0 0 0
1484 1 40.1590100019563 17.388181714813925 1.3848682421538574 0 0 0
1482 4 36.142390956475 19.707543793786822 0.04823214312773928 0 0 0
1488 4 40.15821160671 19.707543793786822 0.04823214312773929 0 0 0
1633 1 38.15109967683872 20.86598441495992 1.384868242153859 0 0 0
1486 3 38.152179471650946 18.546330398307454 2.720559168908667 0 0 0
1629 3 36.1442691465333 22.02413309845345 2.720559168908667 0 0 0
1635 3 40.1600897967683 22.02413309845345 2.720559168908667 0 0 0
1490 1 44.1748306521913 17.388181714813925 1.3848682421538574 0 0 0
1494 4 44.174032256945 19.707543793786822 0.04823214312773929 0 0 0
1639 1 42.16692032707372 20.86598441495992 1.384868242153859 0 0 0
1645 1 46.18274097730872 20.86598441495992 1.384868242153859 0 0 0
1492 3 42.168000121885946 18.546330398307454 2.720559168908667 0 0 0
1498 3 46.183820772120946 18.546330398307454 2.7205591689086663 0 0 0
1641 3 44.1759104470033 22.02413309845345 2.720559168908667 0 0 0
1496 1 48.190651302426296 17.38818171481392 1.3848682421538563 0 0 0
1352 1 52.206471952661296 17.388181714813925 1.384868242153858 -1 0 0
1500 4 48.18985290718 19.707543793786822 0.04823214312773934 0 0 0
1356 4 52.20567355741499 19.707543793786822 0.04823214312773845 -1 0 0
1501 1 50.19856162754372 20.86598441495992 1.3848682421538596 -1 0 0
1354 3 50.19964142235594 18.546330398307454 2.7205591689086677 -1 0 0
1647 3 48.191731097238296 22.02413309845345 2.720559168908667 0 0 0
1503 3 52.207551747473296 22.02413309845345 2.7205591689086672 -1 0 0
1358 1 56.222292602896296 17.388181714813925 1.3848682421538574 -1 0 0
1362 4 56.22149420764999 19.707543793786822 0.04823214312773928 -1 0 0
1507 1 54.21438227777872 20.86598441495992 1.384868242153859 -1 0 0
1513 1 58.23020292801371 20.86598441495992 1.384868242153859 -1 0 0
1360 3 54.21546207259094 18.546330398307454 2.7205591689086663 -1 0 0
1366 3 58.23128272282594 18.546330398307454 2.7205591689086663 -1 0 0
1509 3 56.223372397708296 22.02413309845345 2.720559168908667 -1 0 0
1364 1 60.238113253131296 17.388181714813925 1.3848682421538574 -1 0 0
1370 1 64.25393390336629 17.38818171481392 1.3848682421538578 -1 0 0
1368 4 60.23731485788499 19.707543793786822 0.04823214312773916 -1 0 0
1374 4 64.25313550811998 19.707543793786822 0.048232143127739706 -1 0 0