LAMMPS data file via write_data, version 29 Aug 2024, timestep = 1, units = metal

2392 atoms
2 atom types

0 99.747704734064 xlo xhi
0 97.651382384686 ylo yhi
-50 50 zlo zhi

Masses

1 208.9804
2 208.9804

Atoms # atomic

602 1 2.1684098363050097 3.2064074788474752e-06 0.0009634694315490087 0 0 0
604 1 4.33541283062919 1.2534563375449455 1.7343812467121642 0 0 0
693 1 4.336838195938882 3.7558256058184725 0.0009634694315953043 0 0 0
691 1 2.166984462695362 5.009278736950963 1.7343812467037216 0 0 0
606 1 6.505266563873008 3.2064074790322165e-06 0.000963469431548505 0 0 0
608 1 8.672269558197193 1.2534563375449432 1.7343812467121604 0 0 0
610 1 10.842123291441002 3.2064074790531116e-06 0.000963469431548918 0 0 0
697 1 8.673694923506877 3.755825605818473 0.0009634694315953475 0 0 0
695 1 6.50384119026336 5.009278736950958 1.7343812467037147 0 0 0
699 1 10.840697917831363 5.009278736950961 1.734381246703718 0 0 0
612 1 13.009126285765195 1.253456337544945 1.734381246712164 0 0 0
614 1 15.178980019009002 3.2064074790533402e-06 0.0009634694315489136 0 0 0
616 1 17.345983013333196 1.253456337544943 1.7343812467121609 0 0 0
701 1 13.010551651074879 3.755825605818475 0.0009634694315988304 0 0 0
705 1 17.347408378642886 3.755825605818475 0.0009634694315986128 0 0 0
703 1 15.177554645399358 5.009278736950961 1.7343812467037185 0 0 0
618 1 19.515836746577 3.2064074814147186e-06 0.0009634694315521822 0 0 0
620 1 21.682839740901194 1.253456337544948 1.7343812467121675 0 0 0
709 1 21.684265106210884 3.7558256058184702 0.0009634694315921847 0 0 0
707 1 19.51441137296736 5.009278736950958 1.7343812467037147 0 0 0
622 1 23.85269347414501 3.2064074810448015e-06 0.0009634694315524397 0 0 0
624 1 26.01969646846919 1.253456337544943 1.7343812467121607 0 0 0
626 1 28.189550201713008 3.2064074768666442e-06 0.0009634694315451274 0 0 0
713 1 26.021121833778885 3.755825605818475 0.0009634694315987496 0 0 0
711 1 23.85126810053536 5.009278736950963 1.7343812467037216 0 0 0
715 1 28.188124828103355 5.009278736950959 1.7343812467037145 0 0 0
628 1 30.356553196037197 1.2534563375449432 1.7343812467121604 0 0 0
630 1 32.526406929281 3.206407481415016e-06 0.0009634694315521719 0 0 0
632 1 34.693409923605195 1.2534563375449475 1.7343812467121678 0 0 0
717 1 30.35797856134688 3.7558256058184707 0.0009634694315916756 0 0 0
721 1 34.694835288914874 3.7558256058184747 0.0009634694315989893 0 0 0
719 1 32.52498155567137 5.009278736950958 1.734381246703715 0 0 0
634 1 36.863263656849014 3.2064074810449845e-06 0.0009634694315524424 0 0 0
636 1 39.030266651173186 1.253456337544943 1.7343812467121607 0 0 0
725 1 39.031692016482886 3.755825605818475 0.0009634694315987507 0 0 0
723 1 36.86183828323936 5.009278736950963 1.7343812467037218 0 0 0
638 1 41.200120384417005 3.2064074770515227e-06 0.0009634694315453812 0 0 0
640 1 43.36712337874119 1.2534563375449477 1.7343812467121673 0 0 0
642 1 45.53697711198501 3.206407481414547e-06 0.0009634694315521876 0 0 0
729 1 43.36854874405088 3.7558256058184702 0.0009634694315919315 0 0 0
727 1 41.198695010807356 5.009278736950959 1.7343812467037145 0 0 0
731 1 45.53555173837536 5.009278736950958 1.734381246703715 0 0 0
644 1 47.70398010630919 1.253456337544943 1.7343812467121607 0 0 0
554 1 49.87383383955301 3.2064074787521895e-06 0.0009634694315484963 -1 0 0
556 1 52.040836833877194 1.253456337544943 1.7343812467121609 -1 0 0
733 1 47.705405471618874 3.755825605818475 0.0009634694315986181 0 0 0
645 1 52.04226219918688 3.755825605818475 0.0009634694315986994 -1 0 0
735 1 49.872408465943366 5.009278736950961 1.7343812467037183 0 0 0
558 1 54.210690567121006 3.2064074811072355e-06 0.0009634694315521427 -1 0 0
560 1 56.37769356144519 1.2534563375449455 1.7343812467121642 -1 0 0
562 1 58.54754729468901 3.206407478942692e-06 0.0009634694315487615 -1 0 0
649 1 56.379118926754884 3.7558256058184725 0.0009634694315953112 -1 0 0
647 1 54.209265193511364 5.009278736950961 1.7343812467037185 -1 0 0
651 1 58.54612192107936 5.009278736950961 1.7343812467037183 -1 0 0
564 1 60.71455028901319 1.2534563375449455 1.734381246712164 -1 0 0
566 1 62.884404022257 3.2064074767826063e-06 0.0009634694315453849 -1 0 0
653 1 60.71597565432288 3.7558256058184725 0.0009634694315953158 -1 0 0
655 1 62.88297864864736 5.009278736950961 1.7343812467037183 -1 0 0
568 1 65.0514070165812 1.253456337544943 1.7343812467121607 -1 0 0
570 1 67.221260749825 3.2064074812299316e-06 0.0009634694315519307 -1 0 0
572 1 69.3882637441492 1.2534563375449435 1.7343812467121607 -1 0 0
657 1 65.05283238189088 3.755825605818475 0.0009634694315986168 -1 0 0
661 1 69.38968910945889 3.7558256058184707 0.0009634694315916757 -1 0 0
659 1 67.21983537621536 5.009278736950958 1.7343812467037147 -1 0 0
574 1 71.558117477393 3.2064074814149473e-06 0.0009634694315521714 -1 0 0
576 1 73.72512047171719 1.2534563375449475 1.7343812467121678 -1 0 0
578 1 75.89497420496102 3.2064074810448244e-06 0.0009634694315524381 -1 0 0
665 1 73.72654583702688 3.7558256058184747 0.0009634694315989858 -1 0 0
663 1 71.55669210378336 5.009278736950958 1.734381246703715 -1 0 0
667 1 75.89354883135137 5.009278736950963 1.7343812467037218 -1 0 0
580 1 78.0619771992852 1.253456337544943 1.7343812467121607 -1 0 0
582 1 80.23183093252901 3.2064074770517514e-06 0.0009634694315453842 -1 0 0
669 1 78.06340256459488 3.755825605818475 0.000963469431598748 -1 0 0
671 1 80.23040555891936 5.009278736950959 1.734381246703715 -1 0 0
584 1 82.39883392685319 1.2534563375449472 1.7343812467121675 -1 0 0
586 1 84.56868766009701 3.2064074810449616e-06 0.000963469431552436 -1 0 0
588 1 86.73569065442119 1.2534563375449435 1.7343812467121602 -1 0 0
673 1 82.40025929216289 3.7558256058184747 0.0009634694315989941 -1 0 0
677 1 86.73711601973089 3.755825605818471 0.0009634694315922199 -1 0 0
675 1 84.56726228648735 5.009278736950963 1.7343812467037214 -1 0 0
590 1 88.905544387665 3.206407476866964e-06 0.0009634694315451293 -1 0 0
592 1 91.0725473819892 1.2534563375449432 1.7343812467121604 -1 0 0
594 1 93.242401115233 3.2064074812301146e-06 0.0009634694315519163 -1 0 0
681 1 91.07397274729888 3.7558256058184707 0.0009634694315916757 -1 0 0
679 1 88.90411901405535 5.009278736950958 1.7343812467037143 -1 0 0
683 1 93.24097574162336 5.009278736950958 1.734381246703715 -1 0 0
596 1 95.4094041095572 1.2534563375449432 1.7343812467121609 -1 0 0
598 1 97.579257842801 3.206407481414856e-06 0.0009634694315521711 -1 0 0
600 1 99.74626083712519 1.2534563375449475 1.7343812467121675 -1 0 0
685 1 95.41082947486687 3.755825605818475 0.0009634694315984761 -1 0 0
689 1 99.74768620243488 3.7558256058184747 0.0009634694315989856 -1 0 0
687 1 97.57783246919136 5.009278736950958 1.7343812467037152 -1 0 0
694 1 2.16840983630501 7.511648005229474 0.0009634694315485184 0 0 0
696 1 4.335412830629189 8.765101136366946 1.734381246712168 0 0 0
785 1 4.336838195938882 11.26747040464047 0.0009634694315954526 0 0 0
698 1 6.505266563873008 7.511648005229474 0.0009634694315480147 0 0 0
702 1 10.842123291441002 7.511648005229474 0.0009634694315481403 0 0 0
700 1 8.672269558197193 8.765101136366944 1.7343812467121642 0 0 0
789 1 8.673694923506877 11.267470404640472 0.0009634694315954961 0 0 0
706 1 15.178980019009002 7.511648005229474 0.0009634694315481371 0 0 0
704 1 13.009126285765195 8.765101136366946 1.734381246712168 0 0 0
708 1 17.345983013333196 8.765101136366944 1.7343812467121649 0 0 0
793 1 13.010551651074879 11.267470404640473 0.0009634694315989786 0 0 0
797 1 17.347408378642886 11.267470404640473 0.0009634694315987624 0 0 0
710 1 19.515836746577 7.511648005229476 0.000963469431551376 0 0 0
712 1 21.682839740901194 8.76510113636695 1.7343812467121715 0 0 0
801 1 21.684265106210884 11.267470404640468 0.000963469431592333 0 0 0
714 1 23.85269347414501 7.511648005229476 0.0009634694315516039 0 0 0
718 1 28.189550201713008 7.511648005229471 0.0009634694315442905 0 0 0
716 1 26.01969646846919 8.765101136366944 1.7343812467121649 0 0 0
805 1 26.021121833778885 11.267470404640473 0.0009634694315988979 0 0 0
722 1 32.526406929281 7.511648005229476 0.0009634694315513669 0 0 0
720 1 30.356553196037197 8.765101136366944 1.7343812467121644 0 0 0
724 1 34.693409923605195 8.76510113636695 1.734381246712172 0 0 0
809 1 30.35797856134688 11.267470404640468 0.0009634694315918248 0 0 0
813 1 34.694835288914874 11.267470404640473 0.0009634694315991382 0 0 0
726 1 36.863263656849014 7.511648005229476 0.0009634694315516058 0 0 0
728 1 39.030266651173186 8.765101136366944 1.7343812467121649 0 0 0
817 1 39.031692016482886 11.267470404640473 0.0009634694315988985 0 0 0
730 1 41.200120384417005 7.511648005229471 0.0009634694315445451 0 0 0
734 1 45.53697711198501 7.511648005229476 0.0009634694315513515 0 0 0
732 1 43.36712337874119 8.76510113636695 1.7343812467121713 0 0 0
821 1 43.36854874405088 11.267470404640468 0.000963469431592079 0 0 0
646 1 49.87383383955301 7.511648005229473 0.0009634694315480053 -1 0 0
736 1 47.70398010630919 8.765101136366944 1.7343812467121649 0 0 0
648 1 52.040836833877194 8.765101136366944 1.7343812467121646 -1 0 0
825 1 47.705405471618874 11.267470404640473 0.0009634694315987648 0 0 0
737 1 52.04226219918688 11.267470404640473 0.0009634694315988479 -1 0 0
650 1 54.210690567121006 7.511648005229476 0.0009634694315517117 -1 0 0
654 1 58.54754729468901 7.511648005229474 0.0009634694315482705 -1 0 0
652 1 56.37769356144519 8.765101136366948 1.734381246712168 -1 0 0
741 1 56.379118926754884 11.26747040464047 0.0009634694315954591 -1 0 0
658 1 62.884404022257 7.511648005229471 0.0009634694315445486 -1 0 0
656 1 60.71455028901319 8.765101136366946 1.7343812467121678 -1 0 0
745 1 60.71597565432288 11.26747040464047 0.0009634694315954647 -1 0 0
662 1 67.221260749825 7.511648005229476 0.000963469431551124 -1 0 0
660 1 65.0514070165812 8.765101136366944 1.7343812467121649 -1 0 0
664 1 69.3882637441492 8.765101136366946 1.7343812467121649 -1 0 0
749 1 65.05283238189088 11.267470404640473 0.0009634694315987653 -1 0 0
753 1 69.38968910945889 11.267470404640468 0.0009634694315918253 -1 0 0
666 1 71.558117477393 7.511648005229476 0.0009634694315513647 -1 0 0
670 1 75.89497420496102 7.511648005229476 0.0009634694315516024 -1 0 0
668 1 73.72512047171719 8.76510113636695 1.734381246712172 -1 0 0
757 1 73.72654583702688 11.267470404640473 0.0009634694315991347 -1 0 0
674 1 80.23183093252901 7.511648005229471 0.0009634694315445483 -1 0 0
672 1 78.0619771992852 8.765101136366944 1.7343812467121649 -1 0 0
761 1 78.06340256459488 11.267470404640473 0.0009634694315988961 -1 0 0
678 1 84.56868766009701 7.511648005229476 0.0009634694315516004 -1 0 0
676 1 82.39883392685319 8.76510113636695 1.7343812467121715 -1 0 0
680 1 86.73569065442119 8.765101136366944 1.7343812467121644 -1 0 0
765 1 82.40025929216289 11.267470404640473 0.0009634694315991426 -1 0 0
769 1 86.73711601973089 11.267470404640468 0.000963469431592368 -1 0 0
682 1 88.905544387665 7.511648005229471 0.0009634694315442922 -1 0 0
686 1 93.242401115233 7.511648005229476 0.0009634694315511108 -1 0 0
684 1 91.0725473819892 8.765101136366944 1.7343812467121646 -1 0 0
773 1 91.07397274729888 11.267470404640468 0.0009634694315918255 -1 0 0
690 1 97.579257842801 7.511648005229476 0.0009634694315513654 -1 0 0
688 1 95.4094041095572 8.765101136366944 1.734381246712165 -1 0 0
692 1 99.74626083712519 8.76510113636695 1.7343812467121718 -1 0 0
777 1 95.41082947486687 11.267470404640473 0.0009634694315986261 -1 0 0
781 1 99.74768620243488 11.267470404640473 0.0009634694315991344 -1 0 0
783 1 2.166984462695362 12.520923535772965 1.734381246703718 0 0 0
786 1 2.16840983630501 15.023292804051472 0.0009634694315522344 0 0 0
788 1 4.335412830629189 16.276745935188945 1.734381246712172 0 0 0
787 1 6.50384119026336 12.520923535772962 1.7343812467037112 0 0 0
791 1 10.840697917831363 12.520923535772964 1.7343812467037145 0 0 0
790 1 6.505266563873008 15.023292804051472 0.0009634694315517309 0 0 0
792 1 8.672269558197193 16.27674593518894 1.7343812467121682 0 0 0
794 1 10.842123291441002 15.023292804051472 0.0009634694315518574 0 0 0
795 1 15.177554645399358 12.520923535772964 1.734381246703715 0 0 0
796 1 13.009126285765195 16.276745935188945 1.734381246712172 0 0 0
798 1 15.178980019009002 15.023292804051472 0.0009634694315518526 0 0 0
800 1 17.345983013333196 16.276745935188945 1.7343812467121689 0 0 0
799 1 19.51441137296736 12.520923535772962 1.7343812467037112 0 0 0
802 1 19.515836746577 15.023292804051474 0.0009634694315550918 0 0 0
804 1 21.682839740901194 16.27674593518895 1.7343812467121755 0 0 0
803 1 23.85126810053536 12.520923535772965 1.734381246703718 0 0 0
807 1 28.188124828103355 12.520923535772962 1.734381246703711 0 0 0
806 1 23.85269347414501 15.023292804051474 0.0009634694315553205 0 0 0
808 1 26.01969646846919 16.276745935188945 1.7343812467121686 0 0 0
810 1 28.189550201713008 15.02329280405147 0.0009634694315480085 0 0 0
811 1 32.52498155567137 12.520923535772962 1.7343812467037114 0 0 0
812 1 30.356553196037197 16.276745935188945 1.7343812467121684 0 0 0
814 1 32.526406929281 15.023292804051474 0.0009634694315550827 0 0 0
816 1 34.693409923605195 16.27674593518895 1.7343812467121758 0 0 0
815 1 36.86183828323936 12.520923535772965 1.7343812467037183 0 0 0
818 1 36.863263656849014 15.023292804051474 0.0009634694315553219 0 0 0
820 1 39.030266651173186 16.276745935188945 1.7343812467121686 0 0 0
819 1 41.198695010807356 12.520923535772962 1.734381246703711 0 0 0
823 1 45.53555173837536 12.520923535772962 1.7343812467037114 0 0 0
822 1 41.200120384417005 15.02329280405147 0.0009634694315482627 0 0 0
824 1 43.36712337874119 16.27674593518895 1.7343812467121753 0 0 0
826 1 45.53697711198501 15.023292804051474 0.0009634694315550678 0 0 0
827 1 49.872408465943366 12.520923535772964 1.7343812467037147 0 0 0
828 1 47.70398010630919 16.276745935188945 1.7343812467121689 0 0 0
738 1 49.87383383955301 15.023292804051472 0.000963469431551723 -1 0 0
740 1 52.040836833877194 16.27674593518894 1.7343812467121684 -1 0 0
739 1 54.209265193511364 12.520923535772964 1.734381246703715 -1 0 0
743 1 58.54612192107936 12.520923535772964 1.7343812467037147 -1 0 0
742 1 54.210690567121006 15.023292804051474 0.0009634694315554278 -1 0 0
744 1 56.37769356144519 16.276745935188945 1.734381246712172 -1 0 0
746 1 58.54754729468901 15.023292804051472 0.0009634694315519867 -1 0 0
747 1 62.88297864864736 12.520923535772964 1.7343812467037147 -1 0 0
748 1 60.71455028901319 16.276745935188945 1.7343812467121718 -1 0 0
750 1 62.884404022257 15.02329280405147 0.0009634694315482652 -1 0 0
751 1 67.21983537621536 12.520923535772962 1.7343812467037112 -1 0 0
752 1 65.0514070165812 16.276745935188945 1.7343812467121686 -1 0 0
754 1 67.221260749825 15.023292804051474 0.0009634694315548396 -1 0 0
756 1 69.3882637441492 16.276745935188945 1.7343812467121686 -1 0 0
755 1 71.55669210378336 12.520923535772962 1.7343812467037112 -1 0 0
759 1 75.89354883135137 12.520923535772965 1.7343812467037183 -1 0 0
758 1 71.558117477393 15.023292804051474 0.0009634694315550811 -1 0 0
760 1 73.72512047171719 16.27674593518895 1.7343812467121758 -1 0 0
762 1 75.89497420496102 15.023292804051474 0.0009634694315553184 -1 0 0
763 1 80.23040555891936 12.520923535772962 1.7343812467037112 -1 0 0
764 1 78.0619771992852 16.276745935188945 1.7343812467121686 -1 0 0
766 1 80.23183093252901 15.02329280405147 0.0009634694315482649 -1 0 0
767 1 84.56726228648735 12.520923535772965 1.7343812467037178 -1 0 0
768 1 82.39883392685319 16.27674593518895 1.7343812467121755 -1 0 0
770 1 84.56868766009701 15.023292804051474 0.0009634694315553149 -1 0 0
772 1 86.73569065442119 16.276745935188945 1.7343812467121684 -1 0 0
771 1 88.90411901405535 12.520923535772962 1.7343812467037107 -1 0 0
775 1 93.24097574162336 12.520923535772962 1.7343812467037112 -1 0 0
774 1 88.905544387665 15.02329280405147 0.0009634694315480088 -1 0 0
776 1 91.0725473819892 16.276745935188945 1.7343812467121684 -1 0 0
778 1 93.242401115233 15.023292804051474 0.0009634694315548264 -1 0 0
779 1 97.57783246919136 12.520923535772962 1.7343812467037116 -1 0 0
780 1 95.4094041095572 16.276745935188945 1.734381246712169 -1 0 0
782 1 97.579257842801 15.023292804051474 0.0009634694315550806 -1 0 0
784 1 99.74626083712519 16.27674593518895 1.7343812467121758 -1 0 0
875 1 2.166984462695362 20.032568334594956 1.7343812467037216 0 0 0
877 1 4.336838195938882 18.779115203462478 0.0009634694315962552 0 0 0
878 1 2.1684098363050097 22.53493760287348 0.0009634694315525849 0 0 0
879 1 6.50384119026336 20.032568334594952 1.7343812467037152 0 0 0
881 1 8.673694923506877 18.779115203462478 0.000963469431596042 0 0 0
883 1 10.840697917831363 20.032568334594952 1.7343812467037183 0 0 0
882 1 6.505266563873008 22.53493760287348 0.0009634694315520818 0 0 0
886 1 10.842123291441004 22.53493760287348 0.0009634694315522371 0 0 0
885 1 13.01055165107488 18.779115203462478 0.0009634694315995242 0 0 0
887 1 15.177554645399358 20.032568334594952 1.7343812467037185 0 0 0
889 1 17.347408378642886 18.77911520346248 0.0009634694315995484 0 0 0
890 1 15.178980019009002 22.53493760287348 0.0009634694315522334 0 0 0
891 1 19.51441137296736 20.032568334594952 1.7343812467037147 0 0 0
893 1 21.684265106210884 18.779115203462474 0.0009634694315931345 0 0 0
894 1 19.515836746577 22.534937602873484 0.0009634694315554726 0 0 0
895 1 23.85126810053536 20.032568334594956 1.7343812467037216 0 0 0
897 1 26.021121833778885 18.77911520346248 0.0009634694315996842 0 0 0
899 1 28.188124828103355 20.032568334594952 1.7343812467037145 0 0 0
898 1 23.85269347414501 22.534937602873484 0.0009634694315560002 0 0 0
902 1 28.189550201713008 22.53493760287348 0.0009634694315487027 0 0 0
901 1 30.35797856134688 18.779115203462474 0.0009634694315926262 0 0 0
903 1 32.52498155567137 20.032568334594952 1.7343812467037152 0 0 0
905 1 34.694835288914874 18.779115203462478 0.0009634694315996549 0 0 0
906 1 32.526406929281 22.534937602873484 0.0009634694315554629 0 0 0
907 1 36.86183828323936 20.032568334594956 1.7343812467037218 0 0 0
909 1 39.031692016482886 18.77911520346248 0.0009634694315996852 0 0 0
910 1 36.863263656849014 22.534937602873484 0.0009634694315560026 0 0 0
911 1 41.198695010807356 20.032568334594952 1.7343812467037145 0 0 0
913 1 43.36854874405088 18.779115203462474 0.0009634694315928797 0 0 0
915 1 45.53555173837536 20.032568334594952 1.7343812467037152 0 0 0
914 1 41.200120384417005 22.53493760287348 0.0009634694315489567 0 0 0
918 1 45.53697711198501 22.534937602873484 0.0009634694315557478 0 0 0
917 1 47.705405471618874 18.779115203462478 0.0009634694315992817 0 0 0
919 1 49.872408465943366 20.032568334594952 1.7343812467037185 0 0 0
829 1 52.04226219918688 18.779115203462478 0.0009634694315993953 -1 0 0
830 1 49.87383383955301 22.53493760287348 0.0009634694315520728 -1 0 0
831 1 54.209265193511364 20.032568334594952 1.7343812467037185 -1 0 0
833 1 56.379118926754884 18.779115203462478 0.0009634694315962608 -1 0 0
835 1 58.54612192107936 20.032568334594952 1.7343812467037183 -1 0 0
834 1 54.210690567121006 22.534937602873484 0.000963469431555463 -1 0 0
838 1 58.54754729468901 22.53493760287348 0.0009634694315523375 -1 0 0
837 1 60.71597565432288 18.779115203462478 0.0009634694315962666 -1 0 0
839 1 62.88297864864736 20.032568334594952 1.7343812467037183 -1 0 0
842 1 62.884404022257 22.53493760287348 0.0009634694315489604 -1 0 0
841 1 65.05283238189088 18.77911520346248 0.0009634694315995513 -1 0 0
843 1 67.21983537621536 20.032568334594952 1.7343812467037147 -1 0 0
845 1 69.38968910945889 18.779115203462474 0.000963469431592626 -1 0 0
846 1 67.221260749825 22.534937602873484 0.0009634694315552204 -1 0 0
847 1 71.55669210378336 20.032568334594952 1.7343812467037152 -1 0 0
849 1 73.72654583702688 18.779115203462478 0.000963469431599652 -1 0 0
851 1 75.89354883135137 20.032568334594956 1.7343812467037218 -1 0 0
850 1 71.558117477393 22.534937602873484 0.0009634694315554616 -1 0 0
854 1 75.89497420496102 22.534937602873484 0.0009634694315559984 -1 0 0
853 1 78.06340256459488 18.77911520346248 0.0009634694315996829 -1 0 0
855 1 80.23040555891936 20.032568334594952 1.734381246703715 -1 0 0
858 1 80.23183093252901 22.53493760287348 0.0009634694315489602 -1 0 0
857 1 82.40025929216289 18.779115203462478 0.000963469431599929 -1 0 0
859 1 84.56726228648735 20.032568334594956 1.7343812467037216 -1 0 0
861 1 86.73711601973089 18.779115203462474 0.0009634694315928688 -1 0 0
862 1 84.56868766009701 22.534937602873484 0.0009634694315559968 -1 0 0
863 1 88.90411901405535 20.032568334594952 1.7343812467037143 -1 0 0
865 1 91.07397274729888 18.779115203462474 0.0009634694315926264 -1 0 0
867 1 93.24097574162336 20.032568334594952 1.7343812467037152 -1 0 0
866 1 88.905544387665 22.53493760287348 0.000963469431548705 -1 0 0
870 1 93.242401115233 22.534937602873484 0.0009634694315552068 -1 0 0
869 1 95.41082947486687 18.779115203462478 0.0009634694315991424 -1 0 0
871 1 97.57783246919136 20.032568334594952 1.7343812467037154 -1 0 0
873 1 99.74768620243488 18.779115203462478 0.000963469431599652 -1 0 0
874 1 97.579257842801 22.534937602873484 0.0009634694315554614 -1 0 0
880 1 4.33541283062919 23.788390734010942 1.7343812467121633 0 0 0
969 1 4.336838195938882 26.290760002284475 0.0009634694315876185 0 0 0
967 1 2.166984462695362 27.544213133416964 1.734381246703722 0 0 0
884 1 8.672269558197193 23.78839073401094 1.73438124671216 0 0 0
973 1 8.673694923506877 26.290760002284475 0.0009634694315873764 0 0 0
971 1 6.50384119026336 27.54421313341696 1.7343812467037147 0 0 0
975 1 10.840697917831363 27.544213133416964 1.7343812467037183 0 0 0
888 1 13.009126285765195 23.788390734010942 1.7343812467121633 0 0 0
892 1 17.345983013333196 23.78839073401094 1.7343812467121602 0 0 0
977 1 13.01055165107488 26.290760002284475 0.0009634694315912032 0 0 0
981 1 17.347408378642886 26.290760002284475 0.0009634694315905797 0 0 0
979 1 15.177554645399358 27.544213133416964 1.7343812467037185 0 0 0
896 1 21.682839740901194 23.788390734010946 1.7343812467121666 0 0 0
985 1 21.684265106210884 26.290760002284472 0.0009634694315841519 0 0 0
983 1 19.51441137296736 27.54421313341696 1.7343812467037152 0 0 0
900 1 26.01969646846919 23.78839073401094 1.7343812467121598 0 0 0
989 1 26.021121833778885 26.290760002284475 0.0009634694315907174 0 0 0
987 1 23.851268100535357 27.544213133416964 1.734381246703722 0 0 0
991 1 28.188124828103355 27.54421313341696 1.734381246703715 0 0 0
904 1 30.356553196037197 23.78839073401094 1.73438124671216 0 0 0
908 1 34.693409923605195 23.788390734010942 1.7343812467121669 0 0 0
993 1 30.35797856134688 26.290760002284472 0.0009634694315836439 0 0 0
997 1 34.694835288914874 26.290760002284475 0.0009634694315909873 0 0 0
995 1 32.52498155567137 27.54421313341696 1.7343812467037152 0 0 0
912 1 39.030266651173186 23.78839073401094 1.7343812467121598 0 0 0
1001 1 39.031692016482886 26.290760002284475 0.0009634694315907187 0 0 0
999 1 36.86183828323936 27.544213133416964 1.7343812467037223 0 0 0
916 1 43.36712337874119 23.788390734010942 1.7343812467121664 0 0 0
1005 1 43.36854874405088 26.290760002284472 0.0009634694315838984 0 0 0
1003 1 41.198695010807356 27.54421313341696 1.734381246703715 0 0 0
1007 1 45.53555173837536 27.54421313341696 1.7343812467037152 0 0 0
920 1 47.70398010630919 23.78839073401094 1.73438124671216 0 0 0
832 1 52.040836833877194 23.78839073401094 1.7343812467121602 -1 0 0
1009 1 47.705405471618874 26.290760002284475 0.0009634694315906156 0 0 0
921 1 52.04226219918688 26.290760002284475 0.0009634694315910722 -1 0 0
1011 1 49.872408465943366 27.544213133416964 1.7343812467037185 0 0 0
836 1 56.37769356144519 23.788390734010942 1.7343812467121635 -1 0 0
925 1 56.379118926754884 26.290760002284475 0.0009634694315876241 -1 0 0
923 1 54.209265193511364 27.544213133416964 1.7343812467037185 -1 0 0
927 1 58.54612192107936 27.544213133416964 1.7343812467037183 -1 0 0
840 1 60.71455028901319 23.788390734010942 1.734381246712163 -1 0 0
929 1 60.71597565432288 26.290760002284475 0.0009634694315876291 -1 0 0
931 1 62.88297864864736 27.544213133416964 1.7343812467037183 -1 0 0
844 1 65.0514070165812 23.78839073401094 1.7343812467121602 -1 0 0
848 1 69.3882637441492 23.78839073401094 1.7343812467121602 -1 0 0
933 1 65.05283238189088 26.290760002284475 0.0009634694315905835 -1 0 0
937 1 69.38968910945889 26.290760002284472 0.0009634694315836433 -1 0 0
935 1 67.21983537621536 27.54421313341696 1.7343812467037152 -1 0 0
852 1 73.72512047171719 23.788390734010942 1.7343812467121669 -1 0 0
941 1 73.72654583702688 26.290760002284475 0.0009634694315909839 -1 0 0
939 1 71.55669210378336 27.54421313341696 1.7343812467037152 -1 0 0
943 1 75.89354883135137 27.544213133416964 1.7343812467037223 -1 0 0
856 1 78.0619771992852 23.78839073401094 1.73438124671216 -1 0 0
945 1 78.06340256459488 26.290760002284475 0.000963469431590716 -1 0 0
947 1 80.23040555891936 27.54421313341696 1.7343812467037152 -1 0 0
860 1 82.39883392685319 23.788390734010942 1.7343812467121666 -1 0 0
864 1 86.73569065442119 23.78839073401094 1.7343812467121595 -1 0 0
949 1 82.40025929216289 26.290760002284475 0.0009634694315909618 -1 0 0
953 1 86.73711601973089 26.290760002284472 0.0009634694315842475 -1 0 0
951 1 84.56726228648735 27.544213133416964 1.7343812467037216 -1 0 0
868 1 91.0725473819892 23.78839073401094 1.73438124671216 -1 0 0
957 1 91.07397274729888 26.290760002284472 0.0009634694315836434 -1 0 0
955 1 88.90411901405535 27.54421313341696 1.7343812467037145 -1 0 0
959 1 93.24097574162336 27.54421313341696 1.7343812467037152 -1 0 0
872 1 95.4094041095572 23.78839073401094 1.7343812467121604 -1 0 0
876 1 99.74626083712519 23.788390734010942 1.7343812467121669 -1 0 0
961 1 95.41082947486687 26.290760002284475 0.000963469431590474 -1 0 0
965 1 99.74768620243488 26.290760002284475 0.0009634694315909835 -1 0 0
963 1 97.57783246919136 27.54421313341696 1.7343812467037154 -1 0 0
970 1 2.16840983630501 30.046582401695467 0.000963469431552238 0 0 0
972 1 4.335412830629189 31.30003553283295 1.7343812467121642 0 0 0
1061 1 4.336838195938882 33.80240480110647 0.0009634694315953036 0 0 0
974 1 6.505266563873008 30.046582401695467 0.0009634694315517347 0 0 0
978 1 10.842123291441002 30.046582401695467 0.0009634694315518598 0 0 0
976 1 8.672269558197193 31.30003553283295 1.7343812467121604 0 0 0
1065 1 8.673694923506877 33.80240480110647 0.0009634694315950607 0 0 0
982 1 15.178980019009002 30.046582401695467 0.0009634694315518559 0 0 0
980 1 13.009126285765195 31.30003553283295 1.7343812467121642 0 0 0
984 1 17.345983013333196 31.30003553283295 1.734381246712161 0 0 0
1069 1 13.01055165107488 33.80240480110647 0.0009634694315988884 0 0 0
1073 1 17.347408378642886 33.80240480110647 0.0009634694315982655 0 0 0
986 1 19.515836746577 30.04658240169547 0.0009634694315550953 0 0 0
988 1 21.682839740901194 31.300035532832954 1.734381246712168 0 0 0
1077 1 21.684265106210884 33.80240480110646 0.0009634694315918372 0 0 0
990 1 23.85269347414501 30.04658240169547 0.000963469431555324 0 0 0
994 1 28.189550201713008 30.046582401695467 0.0009634694315480105 0 0 0
992 1 26.01969646846919 31.30003553283295 1.734381246712161 0 0 0
1081 1 26.021121833778885 33.80240480110647 0.0009634694315984021 0 0 0
998 1 32.526406929281 30.04658240169547 0.0009634694315550851 0 0 0
996 1 30.356553196037197 31.30003553283295 1.7343812467121609 0 0 0
1000 1 34.693409923605195 31.300035532832954 1.7343812467121682 0 0 0
1085 1 30.35797856134688 33.80240480110646 0.0009634694315913284 0 0 0
1089 1 34.694835288914874 33.80240480110647 0.0009634694315986731 0 0 0
1002 1 36.863263656849014 30.04658240169547 0.0009634694315553258 0 0 0
1004 1 39.030266651173186 31.30003553283295 1.734381246712161 0 0 0
1093 1 39.031692016482886 33.80240480110647 0.000963469431598403 0 0 0
1006 1 41.200120384417005 30.046582401695467 0.0009634694315482646 0 0 0
1010 1 45.53697711198501 30.04658240169547 0.0009634694315550721 0 0 0
1008 1 43.36712337874119 31.300035532832954 1.7343812467121678 0 0 0
1097 1 43.36854874405088 33.80240480110646 0.000963469431591584 0 0 0
922 1 49.87383383955301 30.046582401695467 0.000963469431551725 -1 0 0
1012 1 47.70398010630919 31.30003553283295 1.734381246712161 0 0 0
924 1 52.040836833877194 31.30003553283295 1.7343812467121609 -1 0 0
1101 1 47.705405471618874 33.80240480110647 0.0009634694315983002 0 0 0
1013 1 52.04226219918688 33.80240480110647 0.0009634694315987565 -1 0 0
926 1 54.210690567121006 30.04658240169547 0.000963469431555431 -1 0 0
930 1 58.54754729468901 30.046582401695467 0.0009634694315519909 -1 0 0
928 1 56.37769356144519 31.30003553283295 1.7343812467121642 -1 0 0
1017 1 56.379118926754884 33.80240480110647 0.0009634694315953096 -1 0 0
934 1 62.884404022257 30.046582401695463 0.0009634694315482686 -1 0 0
932 1 60.71455028901319 31.30003553283295 1.734381246712164 -1 0 0
1021 1 60.71597565432288 33.80240480110647 0.0009634694315953147 -1 0 0
938 1 67.221260749825 30.04658240169547 0.0009634694315548433 -1 0 0
936 1 65.0514070165812 31.30003553283295 1.734381246712161 -1 0 0
940 1 69.3882637441492 31.30003553283295 1.734381246712161 -1 0 0
1025 1 65.05283238189088 33.80240480110647 0.0009634694315982698 -1 0 0
1029 1 69.38968910945889 33.80240480110646 0.0009634694315913279 -1 0 0
942 1 71.558117477393 30.04658240169547 0.0009634694315550832 -1 0 0
946 1 75.89497420496102 30.04658240169547 0.0009634694315553228 -1 0 0
944 1 73.72512047171719 31.300035532832954 1.7343812467121682 -1 0 0
1033 1 73.72654583702688 33.80240480110647 0.0009634694315986692 -1 0 0
950 1 80.23183093252901 30.046582401695467 0.0009634694315482681 -1 0 0
948 1 78.0619771992852 31.30003553283295 1.734381246712161 -1 0 0
1037 1 78.06340256459488 33.80240480110647 0.0009634694315984004 -1 0 0
954 1 84.56868766009701 30.04658240169547 0.0009634694315553193 -1 0 0
952 1 82.39883392685319 31.300035532832954 1.734381246712168 -1 0 0
956 1 86.73569065442119 31.30003553283295 1.7343812467121609 -1 0 0