LAMMPS data file via write_data, version 29 Aug 2024, timestep = 1, units = metal

3588 atoms
3 atom types

0 99.747704734064 xlo xhi
0 97.651382384686 ylo yhi
-50 50 zlo zhi

Masses

1 208.9804
2 208.9804
3 208.9804

Atoms # atomic

602 1 2.1684139476373283 2.494890995686166e-06 0.0007496711585311375 0 0 0
604 1 4.335733202195991 1.2531254786553954 1.733431535455499 0 0 0
693 1 4.336842307072402 3.755824894301991 0.0007496711585671598 0 0 0
691 1 2.167304834063321 5.008947878062519 1.7334315354489298 0 0 0
606 1 6.505270675205327 2.494890995829912e-06 0.0007496711585307455 0 0 0
608 1 8.672589929763992 1.2531254786553936 1.733431535455496 0 0 0
610 1 10.842127402773324 2.4948909958461703e-06 0.0007496711585310669 0 0 0
697 1 8.6736990346404 3.7558248943019916 0.0007496711585671934 0 0 0
695 1 6.50416156163132 5.008947878062515 1.7334315354489247 0 0 0
699 1 10.841018289199322 5.008947878062517 1.7334315354489271 0 0 0
612 1 13.009446657331994 1.2531254786553951 1.7334315354554988 0 0 0
614 1 15.178984130341322 2.494890995846348e-06 0.0007496711585310634 0 0 0
616 1 17.346303384899997 1.2531254786553936 1.7334315354554963 0 0 0
701 1 13.010555762208401 3.755824894301993 0.0007496711585699034 0 0 0
705 1 17.347412489776406 3.7558248943019934 0.0007496711585697341 0 0 0
703 1 15.177875016767318 5.008947878062518 1.7334315354489274 0 0 0
618 1 19.515840857909325 2.494890997683726e-06 0.0007496711585336067 0 0 0
620 1 21.683160112467995 1.2531254786553974 1.7334315354555017 0 0 0
709 1 21.684269217344404 3.75582489430199 0.0007496711585647326 0 0 0
707 1 19.51473174433532 5.008947878062515 1.7334315354489245 0 0 0
622 1 23.85269758547733 2.4948909973958955e-06 0.0007496711585338071 0 0 0
624 1 26.02001684003599 1.2531254786553936 1.7334315354554963 0 0 0
626 1 28.189554313045328 2.49489099414489e-06 0.0007496711585281174 0 0 0
713 1 26.021125944912402 3.7558248943019934 0.0007496711585698406 0 0 0
711 1 23.85158847190332 5.008947878062519 1.7334315354489298 0 0 0
715 1 28.188445199471317 5.008947878062516 1.7334315354489245 0 0 0
628 1 30.356873567603998 1.2531254786553938 1.733431535455496 0 0 0
630 1 32.526411040613326 2.4948909976839574e-06 0.0007496711585335987 0 0 0
632 1 34.693730295171996 1.2531254786553971 1.7334315354555017 0 0 0
717 1 30.3579826724804 3.75582489430199 0.0007496711585643363 0 0 0
721 1 34.694839400048394 3.755824894301993 0.0007496711585700272 0 0 0
719 1 32.52530192703932 5.008947878062515 1.7334315354489247 0 0 0
634 1 36.86326776818133 2.4948909973960378e-06 0.0007496711585338093 0 0 0
636 1 39.030587022739994 1.2531254786553936 1.7334315354554963 0 0 0
725 1 39.03169612761641 3.7558248943019934 0.0007496711585698414 0 0 0
723 1 36.86215865460732 5.008947878062519 1.73343153544893 0 0 0
638 1 41.20012449574933 2.494890994288743e-06 0.000749671158528315 0 0 0
640 1 43.36744375030799 1.2531254786553971 1.7334315354555014 0 0 0
642 1 45.536981223317326 2.4948909976835927e-06 0.000749671158533611 0 0 0
729 1 43.3685528551844 3.7558248943019894 0.0007496711585645355 0 0 0
727 1 41.19901538217532 5.008947878062516 1.7334315354489245 0 0 0
731 1 45.53587210974332 5.008947878062515 1.7334315354489247 0 0 0
644 1 47.70430047787599 1.2531254786553936 1.7334315354554963 0 0 0
554 1 49.873837950885324 2.4948909956120246e-06 0.0007496711585307387 -1 0 0
556 1 52.041157205443994 1.2531254786553936 1.7334315354554963 -1 0 0
733 1 47.705409582752395 3.7558248943019934 0.0007496711585697382 0 0 0
645 1 52.0422663103204 3.7558248943019934 0.0007496711585698015 -1 0 0
735 1 49.87272883731132 5.008947878062517 1.7334315354489271 0 0 0
558 1 54.21069467845333 2.494890997444475e-06 0.000749671158533576 -1 0 0
560 1 56.37801393301199 1.2531254786553956 1.733431535455499 -1 0 0
562 1 58.54755140602133 2.4948909957602532e-06 0.000749671158530945 -1 0 0
649 1 56.379123037888405 3.755824894301991 0.0007496711585671652 -1 0 0
647 1 54.20958556487932 5.008947878062517 1.7334315354489274 -1 0 0
651 1 58.54644229244732 5.008947878062517 1.7334315354489274 -1 0 0
564 1 60.71487066057999 1.2531254786553954 1.7334315354554988 -1 0 0
566 1 62.884408133589325 2.4948909940795006e-06 0.0007496711585283178 -1 0 0
653 1 60.7159797654564 3.755824894301991 0.0007496711585671688 -1 0 0
655 1 62.883299020015315 5.008947878062518 1.7334315354489274 -1 0 0
568 1 65.051727388148 1.2531254786553936 1.7334315354554963 -1 0 0
570 1 67.22126486115732 2.494890997539944e-06 0.000749671158533411 -1 0 0
572 1 69.388584115716 1.253125478655394 1.7334315354554963 -1 0 0
657 1 65.0528364930244 3.7558248943019934 0.0007496711585697372 -1 0 0
661 1 69.3896932205924 3.75582489430199 0.0007496711585643365 -1 0 0
659 1 67.22015574758332 5.008947878062515 1.7334315354489245 -1 0 0
574 1 71.55812158872533 2.494890997683904e-06 0.0007496711585335983 -1 0 0
576 1 73.72544084328399 1.2531254786553971 1.7334315354555017 -1 0 0
578 1 75.89497831629333 2.4948909973959132e-06 0.0007496711585338058 -1 0 0
665 1 73.7265499481604 3.755824894301993 0.0007496711585700244 -1 0 0
663 1 71.55701247515132 5.008947878062515 1.7334315354489247 -1 0 0
667 1 75.89386920271932 5.008947878062519 1.73343153544893 -1 0 0
580 1 78.062297570852 1.2531254786553936 1.7334315354554963 -1 0 0
582 1 80.23183504386132 2.494890994288921e-06 0.0007496711585283172 -1 0 0
669 1 78.0634066757284 3.7558248943019934 0.0007496711585698393 -1 0 0
671 1 80.23072593028732 5.008947878062516 1.7334315354489247 -1 0 0
584 1 82.39915429841999 1.253125478655397 1.7334315354555017 -1 0 0
586 1 84.56869177142933 2.49489099739602e-06 0.0007496711585338043 -1 0 0
588 1 86.73601102598799 1.2531254786553938 1.733431535455496 -1 0 0
673 1 82.4002634032964 3.755824894301993 0.0007496711585700308 -1 0 0
677 1 86.73712013086441 3.7558248943019903 0.0007496711585647599 -1 0 0
675 1 84.56758265785531 5.008947878062519 1.7334315354489296 -1 0 0
590 1 88.90554849899732 2.494890994145139e-06 0.0007496711585281188 -1 0 0
592 1 91.072867753556 1.2531254786553938 1.733431535455496 -1 0 0
594 1 93.24240522656532 2.4948909975400863e-06 0.0007496711585333998 -1 0 0
681 1 91.0739768584324 3.75582489430199 0.0007496711585643365 -1 0 0
679 1 88.90443938542332 5.008947878062515 1.7334315354489243 -1 0 0
683 1 93.24129611299132 5.008947878062515 1.7334315354489247 -1 0 0
596 1 95.409724481124 1.2531254786553936 1.7334315354554966 -1 0 0
598 1 97.57926195413333 2.494890997683833e-06 0.0007496711585335981 -1 0 0
600 1 99.74658120869199 1.253125478655397 1.7334315354555017 -1 0 0
685 1 95.4108335860004 3.755824894301993 0.0007496711585696278 -1 0 0
689 1 99.7476903135684 3.755824894301993 0.0007496711585700243 -1 0 0
687 1 97.57815284055933 5.008947878062515 1.733431535448925 -1 0 0
694 1 2.1684139476373288 7.511647293712993 0.0007496711585307559 0 0 0
696 1 4.335733202195991 8.764770277477396 1.7334315354555019 0 0 0
785 1 4.336842307072402 11.267469693123989 0.0007496711585672752 0 0 0
698 1 6.505270675205327 7.511647293712993 0.000749671158530364 0 0 0
702 1 10.842127402773324 7.511647293712993 0.0007496711585304618 0 0 0
700 1 8.672589929763992 8.764770277477394 1.733431535455499 0 0 0
789 1 8.6736990346404 11.267469693123989 0.0007496711585673091 0 0 0
706 1 15.178984130341322 7.511647293712993 0.0007496711585304592 0 0 0
704 1 13.009446657331994 8.764770277477396 1.7334315354555019 0 0 0
708 1 17.346303384899997 8.764770277477394 1.7334315354554997 0 0 0
793 1 13.010555762208401 11.26746969312399 0.0007496711585700187 0 0 0
797 1 17.347412489776406 11.26746969312399 0.0007496711585698505 0 0 0
710 1 19.515840857909325 7.511647293712994 0.0007496711585329794 0 0 0
712 1 21.683160112467995 8.764770277477398 1.7334315354555048 0 0 0
801 1 21.684269217344404 11.267469693123987 0.0007496711585648479 0 0 0
714 1 23.85269758547733 7.511647293712994 0.0007496711585331568 0 0 0
718 1 28.189554313045328 7.511647293712991 0.0007496711585274663 0 0 0
716 1 26.02001684003599 8.764770277477394 1.7334315354554994 0 0 0
805 1 26.021125944912402 11.26746969312399 0.0007496711585699559 0 0 0
722 1 32.526411040613326 7.511647293712994 0.0007496711585329724 0 0 0
720 1 30.356873567603998 8.764770277477394 1.7334315354554992 0 0 0
724 1 34.693730295171996 8.764770277477398 1.733431535455505 0 0 0
809 1 30.3579826724804 11.267469693123987 0.0007496711585644524 0 0 0
813 1 34.694839400048394 11.26746969312399 0.000749671158570143 0 0 0
726 1 36.86326776818133 7.511647293712994 0.0007496711585331582 0 0 0
728 1 39.030587022739994 8.764770277477394 1.7334315354554994 0 0 0
817 1 39.03169612761641 11.26746969312399 0.0007496711585699566 0 0 0
730 1 41.20012449574933 7.511647293712991 0.0007496711585276643 0 0 0
734 1 45.536981223317326 7.511647293712994 0.0007496711585329603 0 0 0
732 1 43.36744375030799 8.764770277477398 1.7334315354555045 0 0 0
821 1 43.3685528551844 11.267469693123987 0.0007496711585646503 0 0 0
646 1 49.873837950885324 7.511647293712993 0.0007496711585303567 -1 0 0
736 1 47.70430047787599 8.764770277477394 1.7334315354554997 0 0 0
648 1 52.041157205443994 8.764770277477394 1.7334315354554992 -1 0 0
825 1 47.705409582752395 11.26746969312399 0.0007496711585698524 0 0 0
737 1 52.0422663103204 11.26746969312399 0.0007496711585699171 -1 0 0
650 1 54.21069467845333 7.511647293712994 0.0007496711585332406 -1 0 0
654 1 58.54755140602133 7.511647293712993 0.0007496711585305631 -1 0 0
652 1 56.37801393301199 8.764770277477396 1.733431535455502 -1 0 0
741 1 56.379123037888405 11.267469693123989 0.0007496711585672803 -1 0 0
658 1 62.884408133589325 7.511647293712991 0.000749671158527667 -1 0 0
656 1 60.71487066057999 8.764770277477396 1.7334315354555019 -1 0 0
745 1 60.7159797654564 11.267469693123989 0.0007496711585672847 -1 0 0
662 1 67.22126486115732 7.511647293712994 0.0007496711585327834 -1 0 0
660 1 65.051727388148 8.764770277477394 1.7334315354554994 -1 0 0
664 1 69.388584115716 8.764770277477394 1.7334315354554994 -1 0 0
749 1 65.0528364930244 11.26746969312399 0.0007496711585698528 -1 0 0
753 1 69.3896932205924 11.267469693123987 0.0007496711585644528 -1 0 0
666 1 71.55812158872533 7.511647293712994 0.0007496711585329706 -1 0 0
670 1 75.89497831629333 7.511647293712994 0.0007496711585331556 -1 0 0
668 1 73.72544084328399 8.764770277477398 1.733431535455505 -1 0 0
757 1 73.7265499481604 11.26746969312399 0.0007496711585701402 -1 0 0
674 1 80.23183504386132 7.511647293712991 0.0007496711585276667 -1 0 0
672 1 78.062297570852 8.764770277477394 1.7334315354554994 -1 0 0
761 1 78.0634066757284 11.26746969312399 0.0007496711585699545 -1 0 0
678 1 84.56869177142933 7.511647293712994 0.0007496711585331541 -1 0 0
676 1 82.39915429841999 8.764770277477398 1.7334315354555048 -1 0 0
680 1 86.73601102598799 8.764770277477394 1.7334315354554992 -1 0 0
765 1 82.4002634032964 11.26746969312399 0.0007496711585701464 -1 0 0
769 1 86.73712013086441 11.267469693123989 0.0007496711585648751 -1 0 0
682 1 88.90554849899732 7.511647293712991 0.0007496711585274676 -1 0 0
686 1 93.24240522656532 7.511647293712994 0.0007496711585327731 -1 0 0
684 1 91.072867753556 8.764770277477394 1.7334315354554992 -1 0 0
773 1 91.0739768584324 11.267469693123987 0.0007496711585644531 -1 0 0
690 1 97.57926195413333 7.511647293712994 0.0007496711585329712 -1 0 0
688 1 95.409724481124 8.764770277477394 1.7334315354554997 -1 0 0
692 1 99.74658120869199 8.764770277477398 1.733431535455505 -1 0 0
777 1 95.4108335860004 11.26746969312399 0.0007496711585697445 -1 0 0
781 1 99.7476903135684 11.26746969312399 0.00074967115857014 -1 0 0
783 1 2.167304834063321 12.52059267688452 1.7334315354489271 0 0 0
786 1 2.1684139476373288 15.023292092534993 0.0007496711585336473 0 0 0
788 1 4.335733202195991 16.276415076299397 1.733431535455505 0 0 0
787 1 6.50416156163132 12.520592676884517 1.7334315354489218 0 0 0
791 1 10.841018289199322 12.520592676884519 1.7334315354489243 0 0 0
790 1 6.505270675205327 15.023292092534993 0.0007496711585332556 0 0 0
792 1 8.672589929763992 16.276415076299394 1.733431535455502 0 0 0
794 1 10.842127402773324 15.023292092534993 0.000749671158533354 0 0 0
795 1 15.177875016767318 12.520592676884519 1.7334315354489247 0 0 0
796 1 13.009446657331994 16.276415076299397 1.733431535455505 0 0 0
798 1 15.178984130341322 15.023292092534993 0.0007496711585333503 0 0 0
800 1 17.346303384899997 16.276415076299394 1.7334315354555025 0 0 0
799 1 19.51473174433532 12.520592676884517 1.7334315354489218 0 0 0
802 1 19.515840857909325 15.023292092534994 0.0007496711585358707 0 0 0
804 1 21.683160112467995 16.276415076299397 1.7334315354555079 0 0 0
803 1 23.85158847190332 12.52059267688452 1.7334315354489271 0 0 0
807 1 28.188445199471317 12.520592676884517 1.7334315354489216 0 0 0
806 1 23.85269758547733 15.023292092534994 0.0007496711585360486 0 0 0
808 1 26.02001684003599 16.276415076299394 1.7334315354555025 0 0 0
810 1 28.189554313045328 15.02329209253499 0.0007496711585303592 0 0 0
811 1 32.52530192703932 12.520592676884517 1.7334315354489218 0 0 0
812 1 30.356873567603998 16.276415076299394 1.7334315354555023 0 0 0
814 1 32.526411040613326 15.023292092534994 0.0007496711585358635 0 0 0
816 1 34.693730295171996 16.276415076299397 1.733431535455508 0 0 0
815 1 36.86215865460732 12.52059267688452 1.7334315354489274 0 0 0
818 1 36.86326776818133 15.023292092534994 0.0007496711585360497 0 0 0
820 1 39.030587022739994 16.276415076299394 1.7334315354555025 0 0 0
819 1 41.19901538217532 12.520592676884517 1.7334315354489216 0 0 0
823 1 45.53587210974332 12.520592676884517 1.7334315354489218 0 0 0
822 1 41.20012449574933 15.02329209253499 0.000749671158530557 0 0 0
824 1 43.36744375030799 16.276415076299397 1.7334315354555077 0 0 0
826 1 45.536981223317326 15.023292092534994 0.000749671158535852 0 0 0
827 1 49.87272883731132 12.520592676884519 1.7334315354489245 0 0 0
828 1 47.70430047787599 16.276415076299394 1.7334315354555025 0 0 0
738 1 49.873837950885324 15.023292092534993 0.0007496711585332494 -1 0 0
740 1 52.041157205443994 16.276415076299394 1.7334315354555023 -1 0 0
739 1 54.20958556487932 12.520592676884519 1.7334315354489247 -1 0 0
743 1 58.54644229244732 12.520592676884519 1.7334315354489245 -1 0 0
742 1 54.21069467845333 15.023292092534994 0.0007496711585361321 -1 0 0
744 1 56.37801393301199 16.276415076299397 1.733431535455505 -1 0 0
746 1 58.54755140602133 15.023292092534993 0.0007496711585334546 -1 0 0
747 1 62.883299020015315 12.520592676884519 1.7334315354489245 -1 0 0
748 1 60.71487066057999 16.276415076299397 1.7334315354555048 -1 0 0
750 1 62.884408133589325 15.02329209253499 0.0007496711585305589 -1 0 0
751 1 67.22015574758332 12.520592676884517 1.7334315354489218 -1 0 0
752 1 65.051727388148 16.276415076299394 1.7334315354555025 -1 0 0
754 1 67.22126486115732 15.023292092534994 0.0007496711585356744 -1 0 0
756 1 69.388584115716 16.276415076299394 1.7334315354555025 -1 0 0
755 1 71.55701247515132 12.520592676884517 1.7334315354489218 -1 0 0
759 1 75.89386920271932 12.52059267688452 1.7334315354489274 -1 0 0
758 1 71.55812158872533 15.023292092534994 0.0007496711585358623 -1 0 0
760 1 73.72544084328399 16.276415076299397 1.733431535455508 -1 0 0
762 1 75.89497831629333 15.023292092534994 0.000749671158536047 -1 0 0
763 1 80.23072593028732 12.520592676884517 1.7334315354489218 -1 0 0
764 1 78.062297570852 16.276415076299394 1.7334315354555025 -1 0 0
766 1 80.23183504386132 15.02329209253499 0.0007496711585305587 -1 0 0
767 1 84.56758265785531 12.52059267688452 1.733431535448927 -1 0 0
768 1 82.39915429841999 16.276415076299397 1.7334315354555079 -1 0 0
770 1 84.56869177142933 15.023292092534994 0.0007496711585360442 -1 0 0
772 1 86.73601102598799 16.276415076299394 1.7334315354555023 -1 0 0
771 1 88.90443938542332 12.520592676884517 1.7334315354489214 -1 0 0
775 1 93.24129611299132 12.520592676884517 1.7334315354489218 -1 0 0
774 1 88.90554849899732 15.02329209253499 0.0007496711585303595 -1 0 0
776 1 91.072867753556 16.276415076299394 1.7334315354555023 -1 0 0
778 1 93.24240522656532 15.023292092534994 0.0007496711585356642 -1 0 0
779 1 97.57815284055933 12.520592676884517 1.733431535448922 -1 0 0
780 1 95.409724481124 16.276415076299394 1.7334315354555028 -1 0 0
782 1 97.57926195413333 15.023292092534994 0.000749671158535862 -1 0 0
784 1 99.74658120869199 16.276415076299397 1.7334315354555079 -1 0 0
875 1 2.167304834063321 20.032237475706513 1.73343153544893 0 0 0
877 1 4.336842307072402 18.779114491945993 0.0007496711585678996 0 0 0
878 1 2.1684139476373283 22.534936891357 0.0007496711585339201 0 0 0
879 1 6.504161561631319 20.03223747570651 1.7334315354489247 0 0 0
881 1 8.6736990346404 18.779114491945993 0.0007496711585677339 0 0 0
883 1 10.84101828919932 20.032237475706513 1.7334315354489274 0 0 0
882 1 6.505270675205327 22.534936891357 0.0007496711585335286 0 0 0
886 1 10.842127402773324 22.534936891357 0.0007496711585336495 0 0 0
885 1 13.010555762208401 18.779114491945997 0.0007496711585704434 0 0 0
887 1 15.177875016767318 20.032237475706513 1.7334315354489274 0 0 0
889 1 17.347412489776406 18.779114491945997 0.0007496711585704621 0 0 0
890 1 15.178984130341323 22.534936891357 0.0007496711585336465 0 0 0
891 1 19.51473174433532 20.03223747570651 1.7334315354489247 0 0 0
893 1 21.684269217344404 18.779114491945993 0.0007496711585654716 0 0 0
894 1 19.515840857909325 22.534936891357 0.000749671158536167 0 0 0
895 1 23.85158847190332 20.032237475706513 1.73343153544893 0 0 0
897 1 26.021125944912402 18.779114491945997 0.0007496711585705677 0 0 0
899 1 28.188445199471317 20.03223747570651 1.7334315354489245 0 0 0
898 1 23.85269758547733 22.534936891357 0.0007496711585365775 0 0 0
902 1 28.189554313045328 22.534936891356995 0.0007496711585308994 0 0 0
901 1 30.3579826724804 18.779114491945993 0.000749671158565076 0 0 0
903 1 32.52530192703932 20.03223747570651 1.733431535448925 0 0 0
905 1 34.6948394000484 18.779114491945997 0.000749671158570545 0 0 0
906 1 32.526411040613326 22.534936891357 0.0007496711585361594 0 0 0
907 1 36.86215865460732 20.032237475706513 1.73343153544893 0 0 0
909 1 39.03169612761641 18.779114491945997 0.0007496711585705686 0 0 0
910 1 36.86326776818133 22.534936891357 0.0007496711585365793 0 0 0
911 1 41.19901538217532 20.03223747570651 1.7334315354489245 0 0 0
913 1 43.3685528551844 18.779114491945993 0.0007496711585652733 0 0 0
915 1 45.53587210974332 20.03223747570651 1.733431535448925 0 0 0
914 1 41.20012449574933 22.534936891356995 0.000749671158531097 0 0 0
918 1 45.536981223317326 22.534936891357 0.0007496711585363811 0 0 0
917 1 47.7054095827524 18.779114491945997 0.0007496711585702547 0 0 0
919 1 49.87272883731132 20.032237475706513 1.7334315354489274 0 0 0
829 1 52.0422663103204 18.779114491945997 0.0007496711585703431 -1 0 0
830 1 49.873837950885324 22.534936891357 0.0007496711585335216 -1 0 0
831 1 54.20958556487932 20.032237475706513 1.7334315354489274 -1 0 0
833 1 56.379123037888405 18.779114491945993 0.0007496711585679041 -1 0 0
835 1 58.54644229244732 20.032237475706513 1.7334315354489274 -1 0 0
834 1 54.21069467845333 22.534936891357 0.0007496711585361596 -1 0 0
838 1 58.54755140602133 22.534936891357 0.0007496711585337275 -1 0 0
837 1 60.7159797654564 18.779114491945993 0.0007496711585679086 -1 0 0
839 1 62.883299020015315 20.032237475706513 1.7334315354489274 -1 0 0
842 1 62.884408133589325 22.534936891356995 0.0007496711585310999 -1 0 0
841 1 65.0528364930244 18.779114491945997 0.0007496711585704644 -1 0 0
843 1 67.22015574758332 20.03223747570651 1.7334315354489247 -1 0 0
845 1 69.3896932205924 18.779114491945993 0.0007496711585650759 -1 0 0
846 1 67.22126486115732 22.534936891357 0.0007496711585359707 -1 0 0
847 1 71.55701247515132 20.03223747570651 1.733431535448925 -1 0 0
849 1 73.7265499481604 18.779114491945997 0.0007496711585705427 -1 0 0
851 1 75.89386920271932 20.032237475706513 1.73343153544893 -1 0 0
850 1 71.55812158872533 22.534936891357 0.0007496711585361584 -1 0 0
854 1 75.89497831629333 22.534936891357 0.000749671158536576 -1 0 0
853 1 78.0634066757284 18.779114491945997 0.0007496711585705668 -1 0 0
855 1 80.23072593028732 20.03223747570651 1.7334315354489247 -1 0 0
858 1 80.23183504386132 22.534936891356995 0.0007496711585310997 -1 0 0
857 1 82.4002634032964 18.779114491945997 0.0007496711585707583 -1 0 0
859 1 84.56758265785531 20.032237475706513 1.7334315354489298 -1 0 0
861 1 86.73712013086441 18.779114491945993 0.0007496711585652647 -1 0 0
862 1 84.56869177142933 22.534936891357 0.0007496711585365747 -1 0 0
863 1 88.90443938542332 20.03223747570651 1.7334315354489243 -1 0 0
865 1 91.0739768584324 18.779114491945993 0.0007496711585650761 -1 0 0
867 1 93.24129611299132 20.03223747570651 1.733431535448925 -1 0 0
866 1 88.90554849899732 22.534936891356995 0.0007496711585309011 -1 0 0
870 1 93.24240522656532 22.534936891357 0.0007496711585359602 -1 0 0
869 1 95.4108335860004 18.779114491945997 0.0007496711585701462 -1 0 0
871 1 97.57815284055933 20.03223747570651 1.7334315354489251 -1 0 0
873 1 99.7476903135684 18.779114491945997 0.0007496711585705427 -1 0 0
874 1 97.57926195413333 22.534936891357 0.0007496711585361583 -1 0 0
880 1 4.335733202195991 23.788059875121395 1.7334315354554983 0 0 0
969 1 4.336842307072403 26.29075929076799 0.0007496711585611795 0 0 0
967 1 2.167304834063321 27.54388227452852 1.7334315354489302 0 0 0
884 1 8.672589929763992 23.78805987512139 1.7334315354554957 0 0 0
973 1 8.6736990346404 26.29075929076799 0.0007496711585609912 0 0 0
971 1 6.504161561631319 27.543882274528517 1.7334315354489245 0 0 0
975 1 10.841018289199322 27.543882274528517 1.7334315354489274 0 0 0
888 1 13.009446657331994 23.788059875121395 1.7334315354554983 0 0 0
892 1 17.346303384899997 23.78805987512139 1.7334315354554959 0 0 0
977 1 13.010555762208401 26.290759290767994 0.0007496711585639687 0 0 0
981 1 17.347412489776406 26.290759290767994 0.0007496711585634837 0 0 0
979 1 15.177875016767318 27.543882274528517 1.7334315354489274 0 0 0
896 1 21.683160112467995 23.788059875121395 1.733431535455501 0 0 0
985 1 21.684269217344404 26.29075929076799 0.0007496711585584821 0 0 0
983 1 19.51473174433532 27.543882274528517 1.733431535448925 0 0 0
900 1 26.02001684003599 23.78805987512139 1.7334315354554957 0 0 0
989 1 26.021125944912402 26.290759290767994 0.0007496711585635908 0 0 0
987 1 23.85158847190332 27.54388227452852 1.7334315354489302 0 0 0
991 1 28.188445199471317 27.543882274528517 1.7334315354489247 0 0 0
904 1 30.356873567603998 23.78805987512139 1.7334315354554957 0 0 0
908 1 34.693730295171996 23.788059875121395 1.7334315354555012 0 0 0
993 1 30.3579826724804 26.29075929076799 0.000749671158558087 0 0 0
997 1 34.694839400048394 26.290759290767994 0.0007496711585638008 0 0 0
995 1 32.52530192703932 27.543882274528517 1.733431535448925 0 0 0
912 1 39.030587022739994 23.78805987512139 1.7334315354554957 0 0 0
1001 1 39.03169612761641 26.290759290767994 0.0007496711585635918 0 0 0
999 1 36.86215865460732 27.54388227452852 1.7334315354489305 0 0 0
916 1 43.36744375030799 23.788059875121395 1.7334315354555008 0 0 0
1005 1 43.3685528551844 26.29075929076799 0.0007496711585582849 0 0 0
1003 1 41.19901538217532 27.543882274528517 1.7334315354489247 0 0 0
1007 1 45.53587210974332 27.543882274528517 1.733431535448925 0 0 0
920 1 47.70430047787599 23.78805987512139 1.7334315354554957 0 0 0
832 1 52.041157205443994 23.78805987512139 1.7334315354554959 -1 0 0
1009 1 47.705409582752395 26.290759290767994 0.0007496711585635115 0 0 0
921 1 52.0422663103204 26.290759290767994 0.0007496711585638668 -1 0 0
1011 1 49.87272883731132 27.543882274528517 1.7334315354489274 0 0 0
836 1 56.37801393301199 23.788059875121395 1.7334315354554983 -1 0 0
925 1 56.379123037888405 26.29075929076799 0.000749671158561184 -1 0 0
923 1 54.20958556487932 27.543882274528517 1.7334315354489274 -1 0 0
927 1 58.54644229244732 27.543882274528517 1.7334315354489274 -1 0 0
840 1 60.71487066057999 23.788059875121395 1.733431535455498 -1 0 0
929 1 60.7159797654564 26.29075929076799 0.0007496711585611879 -1 0 0
931 1 62.883299020015315 27.543882274528517 1.7334315354489274 -1 0 0
844 1 65.051727388148 23.78805987512139 1.7334315354554959 -1 0 0
848 1 69.388584115716 23.78805987512139 1.7334315354554959 -1 0 0
933 1 65.0528364930244 26.290759290767994 0.0007496711585634866 -1 0 0
937 1 69.3896932205924 26.29075929076799 0.0007496711585580864 -1 0 0
935 1 67.22015574758332 27.543882274528517 1.733431535448925 -1 0 0
852 1 73.72544084328399 23.788059875121395 1.7334315354555012 -1 0 0
941 1 73.7265499481604 26.290759290767994 0.0007496711585637981 -1 0 0
939 1 71.55701247515132 27.543882274528517 1.733431535448925 -1 0 0
943 1 75.89386920271932 27.54388227452852 1.7334315354489305 -1 0 0
856 1 78.062297570852 23.78805987512139 1.7334315354554957 -1 0 0
945 1 78.0634066757284 26.290759290767994 0.0007496711585635897 -1 0 0
947 1 80.23072593028732 27.543882274528517 1.733431535448925 -1 0 0
860 1 82.39915429841999 23.788059875121395 1.733431535455501 -1 0 0
864 1 86.73601102598799 23.78805987512139 1.7334315354554954 -1 0 0
949 1 82.4002634032964 26.290759290767994 0.000749671158563781 -1 0 0
953 1 86.73712013086441 26.29075929076799 0.0007496711585585566 -1 0 0
951 1 84.56758265785531 27.543882274528517 1.7334315354489298 -1 0 0
868 1 91.072867753556 23.78805987512139 1.7334315354554957 -1 0 0
957 1 91.0739768584324 26.29075929076799 0.0007496711585580865 -1 0 0
955 1 88.90443938542332 27.543882274528517 1.7334315354489245 -1 0 0
959 1 93.24129611299132 27.543882274528517 1.733431535448925 -1 0 0
872 1 95.409724481124 23.78805987512139 1.733431535455496 -1 0 0
876 1 99.74658120869199 23.788059875121395 1.733431535455501 -1 0 0
961 1 95.4108335860004 26.290759290767994 0.0007496711585634014 -1 0 0
965 1 99.7476903135684 26.290759290767994 0.0007496711585637979 -1 0 0
963 1 97.57815284055933 27.543882274528517 1.7334315354489251 -1 0 0
970 1 2.1684139476373288 30.04658169017899 0.0007496711585336501 0 0 0
972 1 4.335733202195991 31.2997046739434 1.733431535455499 0 0 0
1061 1 4.336842307072403 33.80240408958999 0.0007496711585671592 0 0 0
974 1 6.505270675205327 30.04658169017899 0.0007496711585332585 0 0 0
978 1 10.842127402773324 30.04658169017899 0.0007496711585333559 0 0 0
976 1 8.672589929763992 31.2997046739434 1.733431535455496 0 0 0
1065 1 8.6736990346404 33.80240408958999 0.0007496711585669702 0 0 0
982 1 15.178984130341322 30.04658169017899 0.0007496711585333528 0 0 0
980 1 13.009446657331994 31.2997046739434 1.733431535455499 0 0 0
984 1 17.346303384899997 31.2997046739434 1.7334315354554968 0 0 0
1069 1 13.010555762208401 33.80240408958999 0.0007496711585699486 0 0 0
1073 1 17.347412489776406 33.80240408958999 0.0007496711585694639 0 0 0
986 1 19.515840857909325 30.04658169017899 0.0007496711585358734 0 0 0
988 1 21.683160112467995 31.299704673943403 1.7334315354555019 0 0 0
1077 1 21.684269217344404 33.802404089589984 0.0007496711585644622 0 0 0
990 1 23.85269758547733 30.04658169017899 0.0007496711585360514 0 0 0
994 1 28.189554313045328 30.046581690178986 0.0007496711585303608 0 0 0
992 1 26.02001684003599 31.2997046739434 1.7334315354554966 0 0 0
1081 1 26.021125944912402 33.80240408958999 0.0007496711585695702 0 0 0
998 1 32.526411040613326 30.04658169017899 0.0007496711585358654 0 0 0
996 1 30.356873567603998 31.2997046739434 1.7334315354554963 0 0 0
1000 1 34.693730295171996 31.299704673943403 1.733431535455502 0 0 0
1085 1 30.3579826724804 33.802404089589984 0.0007496711585640662 0 0 0
1089 1 34.694839400048394 33.80240408958999 0.000749671158569781 0 0 0
1002 1 36.86326776818133 30.04658169017899 0.0007496711585360527 0 0 0
1004 1 39.030587022739994 31.2997046739434 1.7334315354554966 0 0 0
1093 1 39.03169612761641 33.80240408958999 0.0007496711585695709 0 0 0
1006 1 41.20012449574933 30.046581690178986 0.0007496711585305584 0 0 0
1010 1 45.536981223317326 30.04658169017899 0.0007496711585358553 0 0 0
1008 1 43.36744375030799 31.299704673943403 1.7334315354555017 0 0 0
1097 1 43.3685528551844 33.802404089589984 0.0007496711585642651 0 0 0
922 1 49.873837950885324 30.04658169017899 0.000749671158533251 -1 0 0
1012 1 47.70430047787599 31.2997046739434 1.7334315354554968 0 0 0
924 1 52.041157205443994 31.2997046739434 1.7334315354554963 -1 0 0
1101 1 47.705409582752395 33.80240408958999 0.0007496711585694909 0 0 0
1013 1 52.0422663103204 33.80240408958999 0.000749671158569846 -1 0 0
926 1 54.21069467845333 30.04658169017899 0.0007496711585361347 -1 0 0
930 1 58.54755140602133 30.04658169017899 0.0007496711585334579 -1 0 0
928 1 56.37801393301199 31.2997046739434 1.733431535455499 -1 0 0
1017 1 56.379123037888405 33.80240408958999 0.000749671158567164 -1 0 0
934 1 62.884408133589325 30.046581690178986 0.0007496711585305615 -1 0 0
932 1 60.71487066057999 31.2997046739434 1.7334315354554988 -1 0 0
1021 1 60.7159797654564 33.80240408958999 0.0007496711585671679 -1 0 0
938 1 67.22126486115732 30.04658169017899 0.0007496711585356772 -1 0 0
936 1 65.051727388148 31.2997046739434 1.7334315354554966 -1 0 0
940 1 69.388584115716 31.2997046739434 1.7334315354554966 -1 0 0
1025 1 65.0528364930244 33.80240408958999 0.0007496711585694673 -1 0 0
1029 1 69.3896932205924 33.802404089589984 0.0007496711585640658 -1 0 0
942 1 71.55812158872533 30.04658169017899 0.000749671158535864 -1 0 0
946 1 75.89497831629333 30.04658169017899 0.0007496711585360504 -1 0 0
944 1 73.72544084328399 31.299704673943403 1.733431535455502 -1 0 0
1033 1 73.7265499481604 33.80240408958999 0.0007496711585697781 -1 0 0
950 1 80.23183504386132 30.046581690178986 0.0007496711585305612 -1 0 0
948 1 78.062297570852 31.2997046739434 1.7334315354554966 -1 0 0
1037 1 78.0634066757284 33.80240408958999 0.0007496711585695689 -1 0 0
954 1 84.56869177142933 30.04658169017899 0.0007496711585360477 -1 0 0
952 1 82.39915429841999 31.299704673943403 1.7334315354555019 -1 0 0
956 1 86.73601102598799 31.2997046739434 1.7334315354554963 -1 0 0
1041 1 82.4002634032964 33.80240408958999 0.000749671158569761 -1 0 0
1045 1 86.73712013086441 33.802404089589984 0.0007496711585645361 -1 0 0