LAMMPS data file via write_data, version 29 Aug 2024, timestep = 0, units = metal

1196 atoms
1 atom types

0 99.747704734064 xlo xhi
0 97.651382384686 ylo yhi
0 16.74638958 zlo zhi

Masses

1 208.9804

Atoms # atomic

602 1 2.1684283637840025 0 0 0 0 0
604 1 4.336856566382004 1.2519407775030018 1.729838589119999 0 0 0
606 1 6.505285091352 0 0 0 0 0
608 1 8.673713293950001 1.2519407775030018 1.729838589119999 0 0 0
610 1 10.842141818920005 0 0 0 0 0
612 1 13.010570021518 1.2519407775030018 1.729838589119999 0 0 0
614 1 15.178998546488003 0 0 0 0 0
616 1 17.347426749085997 1.2519407775030018 1.729838589119999 0 0 0
618 1 19.51585527405601 0 0 0 0 0
620 1 21.684283476654002 1.2519407775030018 1.729838589119999 0 0 0
622 1 23.852712001624 0 0 0 0 0
624 1 26.021140204222007 1.2519407775030018 1.729838589119999 0 0 0
626 1 28.189568729192004 0 0 0 0 0
628 1 30.357996931789998 1.2519407775030018 1.729838589119999 0 0 0
630 1 32.52642545676001 0 0 0 0 0
632 1 34.694853659358 1.2519407775030018 1.729838589119999 0 0 0
634 1 36.863282184328 0 0 0 0 0
636 1 39.03171038692601 1.2519407775030018 1.729838589119999 0 0 0
638 1 41.200138911896005 0 0 0 0 0
640 1 43.368567114494 1.2519407775030018 1.729838589119999 0 0 0
642 1 45.536995639463996 0 0 0 0 0
644 1 47.705423842062004 1.2519407775030018 1.729838589119999 0 0 0
554 1 49.873852367032 0 0 -1 0 0
556 1 52.04228056963 1.2519407775030018 1.729838589119999 -1 0 0
558 1 54.210709094600006 0 0 -1 0 0
560 1 56.37913729719801 1.2519407775030018 1.729838589119999 -1 0 0
562 1 58.547565822168 0 0 -1 0 0
564 1 60.715994024766005 1.2519407775030018 1.729838589119999 -1 0 0
566 1 62.884422549736 0 0 -1 0 0
568 1 65.052850752334 1.2519407775030018 1.729838589119999 -1 0 0
570 1 67.221279277304 0 0 -1 0 0
572 1 69.389707479902 1.2519407775030018 1.729838589119999 -1 0 0
574 1 71.55813600487201 0 0 -1 0 0
576 1 73.72656420747 1.2519407775030018 1.729838589119999 -1 0 0
578 1 75.89499273244 0 0 -1 0 0
580 1 78.06342093503801 1.2519407775030018 1.729838589119999 -1 0 0
582 1 80.23184946000801 0 0 -1 0 0
584 1 82.400277662606 1.2519407775030018 1.729838589119999 -1 0 0
586 1 84.568706187576 0 0 -1 0 0
588 1 86.737134390174 1.2519407775030018 1.729838589119999 -1 0 0
590 1 88.905562915144 0 0 -1 0 0
592 1 91.073991117742 1.2519407775030018 1.729838589119999 -1 0 0
594 1 93.24241964271201 0 0 -1 0 0
596 1 95.41084784531 1.2519407775030018 1.729838589119999 -1 0 0
598 1 97.57927637028001 0 0 -1 0 0
600 1 99.747704572878 1.2519407775030018 1.729838589119999 -1 0 0
693 1 4.3368567225220005 3.7558223994110023 0 0 0 0
697 1 8.673713450090005 3.7558223994110023 0 0 0 0
701 1 13.010570177658003 3.7558223994110023 0 0 0 0
705 1 17.347426905226 3.7558223994110023 0 0 0 0
709 1 21.684283632794006 3.7558223994110023 0 0 0 0
713 1 26.021140360361997 3.7558223994110023 0 0 0 0
717 1 30.357997087930002 3.7558223994110023 0 0 0 0
721 1 34.69485381549801 3.7558223994110023 0 0 0 0
725 1 39.031710543066 3.7558223994110023 0 0 0 0
729 1 43.368567270634 3.7558223994110023 0 0 0 0
733 1 47.70542399820201 3.7558223994110023 0 0 0 0
645 1 52.042280725770006 3.7558223994110023 0 -1 0 0
649 1 56.379137453338004 3.7558223994110023 0 -1 0 0
653 1 60.715994180906 3.7558223994110023 0 -1 0 0
657 1 65.052850908474 3.7558223994110023 0 -1 0 0
661 1 69.389707636042 3.7558223994110023 0 -1 0 0
665 1 73.72656436361001 3.7558223994110023 0 -1 0 0
669 1 78.063421091178 3.7558223994110023 0 -1 0 0
673 1 82.400277818746 3.7558223994110023 0 -1 0 0
677 1 86.737134546314 3.7558223994110023 0 -1 0 0
681 1 91.073991273882 3.7558223994110023 0 -1 0 0
685 1 95.41084800145 3.7558223994110023 0 -1 0 0
689 1 99.74770472901801 3.7558223994110023 0 -1 0 0
691 1 2.1684281975520037 5.007763176914004 1.729838589119999 0 0 0
695 1 6.505284925120002 5.007763176914004 1.729838589119999 0 0 0
699 1 10.842141652688 5.007763176914004 1.729838589119999 0 0 0
703 1 15.178998380256004 5.007763176914004 1.729838589119999 0 0 0
707 1 19.51585510782401 5.007763176914004 1.729838589119999 0 0 0
711 1 23.852711835392 5.007763176914004 1.729838589119999 0 0 0
715 1 28.189568562960005 5.007763176914004 1.729838589119999 0 0 0
719 1 32.526425290527996 5.007763176914004 1.729838589119999 0 0 0
723 1 36.863282018096 5.007763176914004 1.729838589119999 0 0 0
727 1 41.200138745664006 5.007763176914004 1.729838589119999 0 0 0
731 1 45.536995473232 5.007763176914004 1.729838589119999 0 0 0
735 1 49.8738522008 5.007763176914004 1.729838589119999 0 0 0
647 1 54.21070892836801 5.007763176914004 1.729838589119999 -1 0 0
651 1 58.547565655936005 5.007763176914004 1.729838589119999 -1 0 0
655 1 62.884422383504 5.007763176914004 1.729838589119999 -1 0 0
659 1 67.22127911107201 5.007763176914004 1.729838589119999 -1 0 0
663 1 71.55813583864 5.007763176914004 1.729838589119999 -1 0 0
667 1 75.894992566208 5.007763176914004 1.729838589119999 -1 0 0
671 1 80.23184929377601 5.007763176914004 1.729838589119999 -1 0 0
675 1 84.56870602134401 5.007763176914004 1.729838589119999 -1 0 0
679 1 88.905562748912 5.007763176914004 1.729838589119999 -1 0 0
683 1 93.24241947648 5.007763176914004 1.729838589119999 -1 0 0
687 1 97.579276204048 5.007763176914004 1.729838589119999 -1 0 0
694 1 2.1684283637840025 7.5116447988220045 0 0 0 0
698 1 6.505285091352 7.5116447988220045 0 0 0 0
702 1 10.842141818920005 7.5116447988220045 0 0 0 0
706 1 15.178998546488003 7.5116447988220045 0 0 0 0
710 1 19.51585527405601 7.5116447988220045 0 0 0 0
714 1 23.852712001624 7.5116447988220045 0 0 0 0
718 1 28.189568729192004 7.5116447988220045 0 0 0 0
722 1 32.52642545676001 7.5116447988220045 0 0 0 0
726 1 36.863282184328 7.5116447988220045 0 0 0 0
730 1 41.200138911896005 7.5116447988220045 0 0 0 0
734 1 45.536995639463996 7.5116447988220045 0 0 0 0
646 1 49.873852367032 7.5116447988220045 0 -1 0 0
650 1 54.210709094600006 7.5116447988220045 0 -1 0 0
654 1 58.547565822168 7.5116447988220045 0 -1 0 0
658 1 62.884422549736 7.5116447988220045 0 -1 0 0
662 1 67.221279277304 7.5116447988220045 0 -1 0 0
666 1 71.55813600487201 7.5116447988220045 0 -1 0 0
670 1 75.89499273244 7.5116447988220045 0 -1 0 0
674 1 80.23184946000801 7.5116447988220045 0 -1 0 0
678 1 84.568706187576 7.5116447988220045 0 -1 0 0
682 1 88.905562915144 7.5116447988220045 0 -1 0 0
686 1 93.24241964271201 7.5116447988220045 0 -1 0 0
690 1 97.57927637028001 7.5116447988220045 0 -1 0 0
696 1 4.336856566382004 8.763585576325 1.729838589119999 0 0 0
700 1 8.673713293950001 8.763585576325 1.729838589119999 0 0 0
704 1 13.010570021518 8.763585576325 1.729838589119999 0 0 0
708 1 17.347426749085997 8.763585576325 1.729838589119999 0 0 0
712 1 21.684283476654002 8.763585576325 1.729838589119999 0 0 0
716 1 26.021140204222007 8.763585576325 1.729838589119999 0 0 0
720 1 30.357996931789998 8.763585576325 1.729838589119999 0 0 0
724 1 34.694853659358 8.763585576325 1.729838589119999 0 0 0
728 1 39.03171038692601 8.763585576325 1.729838589119999 0 0 0
732 1 43.368567114494 8.763585576325 1.729838589119999 0 0 0
736 1 47.705423842062004 8.763585576325 1.729838589119999 0 0 0
648 1 52.04228056963 8.763585576325 1.729838589119999 -1 0 0
652 1 56.37913729719801 8.763585576325 1.729838589119999 -1 0 0
656 1 60.715994024766005 8.763585576325 1.729838589119999 -1 0 0
660 1 65.052850752334 8.763585576325 1.729838589119999 -1 0 0
664 1 69.389707479902 8.763585576325 1.729838589119999 -1 0 0
668 1 73.72656420747 8.763585576325 1.729838589119999 -1 0 0
672 1 78.06342093503801 8.763585576325 1.729838589119999 -1 0 0
676 1 82.400277662606 8.763585576325 1.729838589119999 -1 0 0
680 1 86.737134390174 8.763585576325 1.729838589119999 -1 0 0
684 1 91.073991117742 8.763585576325 1.729838589119999 -1 0 0
688 1 95.41084784531 8.763585576325 1.729838589119999 -1 0 0
692 1 99.747704572878 8.763585576325 1.729838589119999 -1 0 0
785 1 4.3368567225220005 11.267467198233 0 0 0 0
789 1 8.673713450090005 11.267467198233 0 0 0 0
793 1 13.010570177658003 11.267467198233 0 0 0 0
797 1 17.347426905226 11.267467198233 0 0 0 0
801 1 21.684283632794006 11.267467198233 0 0 0 0
805 1 26.021140360361997 11.267467198233 0 0 0 0
809 1 30.357997087930002 11.267467198233 0 0 0 0
813 1 34.69485381549801 11.267467198233 0 0 0 0
817 1 39.031710543066 11.267467198233 0 0 0 0
821 1 43.368567270634 11.267467198233 0 0 0 0
825 1 47.70542399820201 11.267467198233 0 0 0 0
737 1 52.042280725770006 11.267467198233 0 -1 0 0
741 1 56.379137453338004 11.267467198233 0 -1 0 0
745 1 60.715994180906 11.267467198233 0 -1 0 0
749 1 65.052850908474 11.267467198233 0 -1 0 0
753 1 69.389707636042 11.267467198233 0 -1 0 0
757 1 73.72656436361001 11.267467198233 0 -1 0 0
761 1 78.063421091178 11.267467198233 0 -1 0 0
765 1 82.400277818746 11.267467198233 0 -1 0 0
769 1 86.737134546314 11.267467198233 0 -1 0 0
773 1 91.073991273882 11.267467198233 0 -1 0 0
777 1 95.41084800145 11.267467198233 0 -1 0 0
781 1 99.74770472901801 11.267467198233 0 -1 0 0
783 1 2.1684281975520037 12.519407975736002 1.729838589119999 0 0 0
787 1 6.505284925120002 12.519407975736002 1.729838589119999 0 0 0
791 1 10.842141652688 12.519407975736002 1.729838589119999 0 0 0
795 1 15.178998380256004 12.519407975736002 1.729838589119999 0 0 0
799 1 19.51585510782401 12.519407975736002 1.729838589119999 0 0 0
803 1 23.852711835392 12.519407975736002 1.729838589119999 0 0 0
807 1 28.189568562960005 12.519407975736002 1.729838589119999 0 0 0
811 1 32.526425290527996 12.519407975736002 1.729838589119999 0 0 0
815 1 36.863282018096 12.519407975736002 1.729838589119999 0 0 0
819 1 41.200138745664006 12.519407975736002 1.729838589119999 0 0 0
823 1 45.536995473232 12.519407975736002 1.729838589119999 0 0 0
827 1 49.8738522008 12.519407975736002 1.729838589119999 0 0 0
739 1 54.21070892836801 12.519407975736002 1.729838589119999 -1 0 0
743 1 58.547565655936005 12.519407975736002 1.729838589119999 -1 0 0
747 1 62.884422383504 12.519407975736002 1.729838589119999 -1 0 0
751 1 67.22127911107201 12.519407975736002 1.729838589119999 -1 0 0
755 1 71.55813583864 12.519407975736002 1.729838589119999 -1 0 0
759 1 75.894992566208 12.519407975736002 1.729838589119999 -1 0 0
763 1 80.23184929377601 12.519407975736002 1.729838589119999 -1 0 0
767 1 84.56870602134401 12.519407975736002 1.729838589119999 -1 0 0
771 1 88.905562748912 12.519407975736002 1.729838589119999 -1 0 0
775 1 93.24241947648 12.519407975736002 1.729838589119999 -1 0 0
779 1 97.579276204048 12.519407975736002 1.729838589119999 -1 0 0
786 1 2.1684283637840025 15.023289597644009 0 0 0 0
788 1 4.336856566382004 16.275230375147004 1.729838589119999 0 0 0
790 1 6.505285091352 15.023289597644009 0 0 0 0
792 1 8.673713293950001 16.275230375147004 1.729838589119999 0 0 0
794 1 10.842141818920005 15.023289597644009 0 0 0 0
796 1 13.010570021518 16.275230375147004 1.729838589119999 0 0 0
798 1 15.178998546488003 15.023289597644009 0 0 0 0
800 1 17.347426749085997 16.275230375147004 1.729838589119999 0 0 0
802 1 19.51585527405601 15.023289597644009 0 0 0 0
804 1 21.684283476654002 16.275230375147004 1.729838589119999 0 0 0
806 1 23.852712001624 15.023289597644009 0 0 0 0
808 1 26.021140204222007 16.275230375147004 1.729838589119999 0 0 0
810 1 28.189568729192004 15.023289597644009 0 0 0 0
812 1 30.357996931789998 16.275230375147004 1.729838589119999 0 0 0
814 1 32.52642545676001 15.023289597644009 0 0 0 0
816 1 34.694853659358 16.275230375147004 1.729838589119999 0 0 0
818 1 36.863282184328 15.023289597644009 0 0 0 0
820 1 39.03171038692601 16.275230375147004 1.729838589119999 0 0 0
822 1 41.200138911896005 15.023289597644009 0 0 0 0
824 1 43.368567114494 16.275230375147004 1.729838589119999 0 0 0
826 1 45.536995639463996 15.023289597644009 0 0 0 0
828 1 47.705423842062004 16.275230375147004 1.729838589119999 0 0 0
738 1 49.873852367032 15.023289597644009 0 -1 0 0
740 1 52.04228056963 16.275230375147004 1.729838589119999 -1 0 0
742 1 54.210709094600006 15.023289597644009 0 -1 0 0
744 1 56.37913729719801 16.275230375147004 1.729838589119999 -1 0 0
746 1 58.547565822168 15.023289597644009 0 -1 0 0
748 1 60.715994024766005 16.275230375147004 1.729838589119999 -1 0 0
750 1 62.884422549736 15.023289597644009 0 -1 0 0
752 1 65.052850752334 16.275230375147004 1.729838589119999 -1 0 0
754 1 67.221279277304 15.023289597644009 0 -1 0 0
756 1 69.389707479902 16.275230375147004 1.729838589119999 -1 0 0
758 1 71.55813600487201 15.023289597644009 0 -1 0 0
760 1 73.72656420747 16.275230375147004 1.729838589119999 -1 0 0
762 1 75.89499273244 15.023289597644009 0 -1 0 0
764 1 78.06342093503801 16.275230375147004 1.729838589119999 -1 0 0
766 1 80.23184946000801 15.023289597644009 0 -1 0 0
768 1 82.400277662606 16.275230375147004 1.729838589119999 -1 0 0
770 1 84.568706187576 15.023289597644009 0 -1 0 0
772 1 86.737134390174 16.275230375147004 1.729838589119999 -1 0 0
774 1 88.905562915144 15.023289597644009 0 -1 0 0
776 1 91.073991117742 16.275230375147004 1.729838589119999 -1 0 0
778 1 93.24241964271201 15.023289597644009 0 -1 0 0
780 1 95.41084784531 16.275230375147004 1.729838589119999 -1 0 0
782 1 97.57927637028001 15.023289597644009 0 -1 0 0
784 1 99.747704572878 16.275230375147004 1.729838589119999 -1 0 0
875 1 2.1684281975520037 20.031052774558006 1.729838589119999 0 0 0
877 1 4.3368567225220005 18.779111997054997 0 0 0 0
879 1 6.505284925120002 20.031052774558006 1.729838589119999 0 0 0
881 1 8.673713450090005 18.779111997054997 0 0 0 0
883 1 10.842141652688 20.031052774558006 1.729838589119999 0 0 0
885 1 13.010570177658003 18.779111997054997 0 0 0 0
887 1 15.178998380256004 20.031052774558006 1.729838589119999 0 0 0
889 1 17.347426905226 18.779111997054997 0 0 0 0
891 1 19.51585510782401 20.031052774558006 1.729838589119999 0 0 0
893 1 21.684283632794006 18.779111997054997 0 0 0 0
895 1 23.852711835392 20.031052774558006 1.729838589119999 0 0 0
897 1 26.021140360361997 18.779111997054997 0 0 0 0
899 1 28.189568562960005 20.031052774558006 1.729838589119999 0 0 0
901 1 30.357997087930002 18.779111997054997 0 0 0 0
903 1 32.526425290527996 20.031052774558006 1.729838589119999 0 0 0
905 1 34.69485381549801 18.779111997054997 0 0 0 0
907 1 36.863282018096 20.031052774558006 1.729838589119999 0 0 0
909 1 39.031710543066 18.779111997054997 0 0 0 0
911 1 41.200138745664006 20.031052774558006 1.729838589119999 0 0 0
913 1 43.368567270634 18.779111997054997 0 0 0 0
915 1 45.536995473232 20.031052774558006 1.729838589119999 0 0 0
917 1 47.70542399820201 18.779111997054997 0 0 0 0
919 1 49.8738522008 20.031052774558006 1.729838589119999 0 0 0
829 1 52.042280725770006 18.779111997054997 0 -1 0 0
831 1 54.21070892836801 20.031052774558006 1.729838589119999 -1 0 0
833 1 56.379137453338004 18.779111997054997 0 -1 0 0
835 1 58.547565655936005 20.031052774558006 1.729838589119999 -1 0 0
837 1 60.715994180906 18.779111997054997 0 -1 0 0
839 1 62.884422383504 20.031052774558006 1.729838589119999 -1 0 0
841 1 65.052850908474 18.779111997054997 0 -1 0 0
843 1 67.22127911107201 20.031052774558006 1.729838589119999 -1 0 0
845 1 69.389707636042 18.779111997054997 0 -1 0 0
847 1 71.55813583864 20.031052774558006 1.729838589119999 -1 0 0
849 1 73.72656436361001 18.779111997054997 0 -1 0 0
851 1 75.894992566208 20.031052774558006 1.729838589119999 -1 0 0
853 1 78.063421091178 18.779111997054997 0 -1 0 0
855 1 80.23184929377601 20.031052774558006 1.729838589119999 -1 0 0
857 1 82.400277818746 18.779111997054997 0 -1 0 0
859 1 84.56870602134401 20.031052774558006 1.729838589119999 -1 0 0
861 1 86.737134546314 18.779111997054997 0 -1 0 0
863 1 88.905562748912 20.031052774558006 1.729838589119999 -1 0 0
865 1 91.073991273882 18.779111997054997 0 -1 0 0
867 1 93.24241947648 20.031052774558006 1.729838589119999 -1 0 0
869 1 95.41084800145 18.779111997054997 0 -1 0 0
871 1 97.579276204048 20.031052774558006 1.729838589119999 -1 0 0
873 1 99.74770472901801 18.779111997054997 0 -1 0 0
878 1 2.1684283637840025 22.534934396466 0 0 0 0
880 1 4.336856566382004 23.78687517396901 1.729838589119999 0 0 0
882 1 6.505285091352 22.534934396466 0 0 0 0
884 1 8.673713293950001 23.78687517396901 1.729838589119999 0 0 0
886 1 10.842141818920005 22.534934396466 0 0 0 0
888 1 13.010570021518 23.78687517396901 1.729838589119999 0 0 0
890 1 15.178998546488003 22.534934396466 0 0 0 0
892 1 17.347426749085997 23.78687517396901 1.729838589119999 0 0 0
894 1 19.51585527405601 22.534934396466 0 0 0 0
896 1 21.684283476654002 23.78687517396901 1.729838589119999 0 0 0
898 1 23.852712001624 22.534934396466 0 0 0 0
900 1 26.021140204222007 23.78687517396901 1.729838589119999 0 0 0
902 1 28.189568729192004 22.534934396466 0 0 0 0
904 1 30.357996931789998 23.78687517396901 1.729838589119999 0 0 0
906 1 32.52642545676001 22.534934396466 0 0 0 0
908 1 34.694853659358 23.78687517396901 1.729838589119999 0 0 0
910 1 36.863282184328 22.534934396466 0 0 0 0
912 1 39.03171038692601 23.78687517396901 1.729838589119999 0 0 0
914 1 41.200138911896005 22.534934396466 0 0 0 0
916 1 43.368567114494 23.78687517396901 1.729838589119999 0 0 0
918 1 45.536995639463996 22.534934396466 0 0 0 0
920 1 47.705423842062004 23.78687517396901 1.729838589119999 0 0 0
830 1 49.873852367032 22.534934396466 0 -1 0 0
832 1 52.04228056963 23.78687517396901 1.729838589119999 -1 0 0
834 1 54.210709094600006 22.534934396466 0 -1 0 0
836 1 56.37913729719801 23.78687517396901 1.729838589119999 -1 0 0
838 1 58.547565822168 22.534934396466 0 -1 0 0
840 1 60.715994024766005 23.78687517396901 1.729838589119999 -1 0 0
842 1 62.884422549736 22.534934396466 0 -1 0 0
844 1 65.052850752334 23.78687517396901 1.729838589119999 -1 0 0
846 1 67.221279277304 22.534934396466 0 -1 0 0
848 1 69.389707479902 23.78687517396901 1.729838589119999 -1 0 0
850 1 71.55813600487201 22.534934396466 0 -1 0 0
852 1 73.72656420747 23.78687517396901 1.729838589119999 -1 0 0
854 1 75.89499273244 22.534934396466 0 -1 0 0
856 1 78.06342093503801 23.78687517396901 1.729838589119999 -1 0 0
858 1 80.23184946000801 22.534934396466 0 -1 0 0
860 1 82.400277662606 23.78687517396901 1.729838589119999 -1 0 0
862 1 84.568706187576 22.534934396466 0 -1 0 0
864 1 86.737134390174 23.78687517396901 1.729838589119999 -1 0 0
866 1 88.905562915144 22.534934396466 0 -1 0 0
868 1 91.073991117742 23.78687517396901 1.729838589119999 -1 0 0
870 1 93.24241964271201 22.534934396466 0 -1 0 0
872 1 95.41084784531 23.78687517396901 1.729838589119999 -1 0 0
874 1 97.57927637028001 22.534934396466 0 -1 0 0
876 1 99.747704572878 23.78687517396901 1.729838589119999 -1 0 0
969 1 4.3368567225220005 26.290756795877 0 0 0 0
973 1 8.673713450090005 26.290756795877 0 0 0 0
977 1 13.010570177658003 26.290756795877 0 0 0 0
981 1 17.347426905226 26.290756795877 0 0 0 0
985 1 21.684283632794006 26.290756795877 0 0 0 0
989 1 26.021140360361997 26.290756795877 0 0 0 0
993 1 30.357997087930002 26.290756795877 0 0 0 0
997 1 34.69485381549801 26.290756795877 0 0 0 0
1001 1 39.031710543066 26.290756795877 0 0 0 0
1005 1 43.368567270634 26.290756795877 0 0 0 0
1009 1 47.70542399820201 26.290756795877 0 0 0 0
921 1 52.042280725770006 26.290756795877 0 -1 0 0
925 1 56.379137453338004 26.290756795877 0 -1 0 0
929 1 60.715994180906 26.290756795877 0 -1 0 0
933 1 65.052850908474 26.290756795877 0 -1 0 0
937 1 69.389707636042 26.290756795877 0 -1 0 0
941 1 73.72656436361001 26.290756795877 0 -1 0 0
945 1 78.063421091178 26.290756795877 0 -1 0 0
949 1 82.400277818746 26.290756795877 0 -1 0 0
953 1 86.737134546314 26.290756795877 0 -1 0 0
957 1 91.073991273882 26.290756795877 0 -1 0 0
961 1 95.41084800145 26.290756795877 0 -1 0 0
965 1 99.74770472901801 26.290756795877 0 -1 0 0
967 1 2.1684281975520037 27.542697573379996 1.729838589119999 0 0 0
971 1 6.505284925120002 27.542697573379996 1.729838589119999 0 0 0
975 1 10.842141652688 27.542697573379996 1.729838589119999 0 0 0
979 1 15.178998380256004 27.542697573379996 1.729838589119999 0 0 0
983 1 19.51585510782401 27.542697573379996 1.729838589119999 0 0 0
987 1 23.852711835392 27.542697573379996 1.729838589119999 0 0 0
991 1 28.189568562960005 27.542697573379996 1.729838589119999 0 0 0
995 1 32.526425290527996 27.542697573379996 1.729838589119999 0 0 0
999 1 36.863282018096 27.542697573379996 1.729838589119999 0 0 0
1003 1 41.200138745664006 27.542697573379996 1.729838589119999 0 0 0
1007 1 45.536995473232 27.542697573379996 1.729838589119999 0 0 0
1011 1 49.8738522008 27.542697573379996 1.729838589119999 0 0 0
923 1 54.21070892836801 27.542697573379996 1.729838589119999 -1 0 0
927 1 58.547565655936005 27.542697573379996 1.729838589119999 -1 0 0
931 1 62.884422383504 27.542697573379996 1.729838589119999 -1 0 0
935 1 67.22127911107201 27.542697573379996 1.729838589119999 -1 0 0
939 1 71.55813583864 27.542697573379996 1.729838589119999 -1 0 0
943 1 75.894992566208 27.542697573379996 1.729838589119999 -1 0 0
947 1 80.23184929377601 27.542697573379996 1.729838589119999 -1 0 0
951 1 84.56870602134401 27.542697573379996 1.729838589119999 -1 0 0
955 1 88.905562748912 27.542697573379996 1.729838589119999 -1 0 0
959 1 93.24241947648 27.542697573379996 1.729838589119999 -1 0 0
963 1 97.579276204048 27.542697573379996 1.729838589119999 -1 0 0
970 1 2.1684283637840025 30.046579195288004 0 0 0 0
974 1 6.505285091352 30.046579195288004 0 0 0 0
978 1 10.842141818920005 30.046579195288004 0 0 0 0
982 1 15.178998546488003 30.046579195288004 0 0 0 0
986 1 19.51585527405601 30.046579195288004 0 0 0 0
990 1 23.852712001624 30.046579195288004 0 0 0 0
994 1 28.189568729192004 30.046579195288004 0 0 0 0
998 1 32.52642545676001 30.046579195288004 0 0 0 0
1002 1 36.863282184328 30.046579195288004 0 0 0 0
1006 1 41.200138911896005 30.046579195288004 0 0 0 0
1010 1 45.536995639463996 30.046579195288004 0 0 0 0
922 1 49.873852367032 30.046579195288004 0 -1 0 0
926 1 54.210709094600006 30.046579195288004 0 -1 0 0
930 1 58.547565822168 30.046579195288004 0 -1 0 0
934 1 62.884422549736 30.046579195288004 0 -1 0 0
938 1 67.221279277304 30.046579195288004 0 -1 0 0
942 1 71.55813600487201 30.046579195288004 0 -1 0 0
946 1 75.89499273244 30.046579195288004 0 -1 0 0
950 1 80.23184946000801 30.046579195288004 0 -1 0 0
954 1 84.568706187576 30.046579195288004 0 -1 0 0
958 1 88.905562915144 30.046579195288004 0 -1 0 0
962 1 93.24241964271201 30.046579195288004 0 -1 0 0
966 1 97.57927637028001 30.046579195288004 0 -1 0 0
972 1 4.336856566382004 31.298519972791 1.729838589119999 0 0 0
976 1 8.673713293950001 31.298519972791 1.729838589119999 0 0 0
980 1 13.010570021518 31.298519972791 1.729838589119999 0 0 0
984 1 17.347426749085997 31.298519972791 1.729838589119999 0 0 0
988 1 21.684283476654002 31.298519972791 1.729838589119999 0 0 0
992 1 26.021140204222007 31.298519972791 1.729838589119999 0 0 0
996 1 30.357996931789998 31.298519972791 1.729838589119999 0 0 0
1000 1 34.694853659358 31.298519972791 1.729838589119999 0 0 0
1004 1 39.03171038692601 31.298519972791 1.729838589119999 0 0 0
1008 1 43.368567114494 31.298519972791 1.729838589119999 0 0 0
1012 1 47.705423842062004 31.298519972791 1.729838589119999 0 0 0
924 1 52.04228056963 31.298519972791 1.729838589119999 -1 0 0
928 1 56.37913729719801 31.298519972791 1.729838589119999 -1 0 0
932 1 60.715994024766005 31.298519972791 1.729838589119999 -1 0 0
936 1 65.052850752334 31.298519972791 1.729838589119999 -1 0 0
940 1 69.389707479902 31.298519972791 1.729838589119999 -1 0 0
944 1 73.72656420747 31.298519972791 1.729838589119999 -1 0 0
948 1 78.06342093503801 31.298519972791 1.729838589119999 -1 0 0
952 1 82.400277662606 31.298519972791 1.729838589119999 -1 0 0
956 1 86.737134390174 31.298519972791 1.729838589119999 -1 0 0
960 1 91.073991117742 31.298519972791 1.729838589119999 -1 0 0
964 1 95.41084784531 31.298519972791 1.729838589119999 -1 0 0
968 1 99.747704572878 31.298519972791 1.729838589119999 -1 0 0
1061 1 4.3368567225220005 33.802401594699006 0 0 0 0
1065 1 8.673713450090005 33.802401594699006 0 0 0 0
1069 1 13.010570177658003 33.802401594699006 0 0 0 0
1073 1 17.347426905226 33.802401594699006 0 0 0 0
1077 1 21.684283632794006 33.802401594699006 0 0 0 0
1081 1 26.021140360361997 33.802401594699006 0 0 0 0
1085 1 30.357997087930002 33.802401594699006 0 0 0 0
1089 1 34.69485381549801 33.802401594699006 0 0 0 0
1093 1 39.031710543066 33.802401594699006 0 0 0 0
1097 1 43.368567270634 33.802401594699006 0 0 0 0
1101 1 47.70542399820201 33.802401594699006 0 0 0 0
1013 1 52.042280725770006 33.802401594699006 0 -1 0 0
1017 1 56.379137453338004 33.802401594699006 0 -1 0 0
1021 1 60.715994180906 33.802401594699006 0 -1 0 0
1025 1 65.052850908474 33.802401594699006 0 -1 0 0
1029 1 69.389707636042 33.802401594699006 0 -1 0 0
1033 1 73.72656436361001 33.802401594699006 0 -1 0 0
1037 1 78.063421091178 33.802401594699006 0 -1 0 0
1041 1 82.400277818746 33.802401594699006 0 -1 0 0
1045 1 86.737134546314 33.802401594699006 0 -1 0 0
1049 1 91.073991273882 33.802401594699006 0 -1 0 0
1053 1 95.41084800145 33.802401594699006 0 -1 0 0
1057 1 99.74770472901801 33.802401594699006 0 -1 0 0
1059 1 2.1684281975520037 35.054342372202 1.729838589119999 0 0 0
1063 1 6.505284925120002 35.054342372202 1.729838589119999 0 0 0
1067 1 10.842141652688 35.054342372202 1.729838589119999 0 0 0
1071 1 15.178998380256004 35.054342372202 1.729838589119999 0 0 0
1075 1 19.51585510782401 35.054342372202 1.729838589119999 0 0 0
1079 1 23.852711835392 35.054342372202 1.729838589119999 0 0 0
1083 1 28.189568562960005 35.054342372202 1.729838589119999 0 0 0
1087 1 32.526425290527996 35.054342372202 1.729838589119999 0 0 0
1091 1 36.863282018096 35.054342372202 1.729838589119999 0 0 0
1095 1 41.200138745664006 35.054342372202 1.729838589119999 0 0 0
1099 1 45.536995473232 35.054342372202 1.729838589119999 0 0 0
1103 1 49.8738522008 35.054342372202 1.729838589119999 0 0 0
1015 1 54.21070892836801 35.054342372202 1.729838589119999 -1 0 0
1019 1 58.547565655936005 35.054342372202 1.729838589119999 -1 0 0
1023 1 62.884422383504 35.054342372202 1.729838589119999 -1 0 0
1027 1 67.22127911107201 35.054342372202 1.729838589119999 -1 0 0
1031 1 71.55813583864 35.054342372202 1.729838589119999 -1 0 0
1035 1 75.894992566208 35.054342372202 1.729838589119999 -1 0 0
1039 1 80.23184929377601 35.054342372202 1.729838589119999 -1 0 0
1043 1 84.56870602134401 35.054342372202 1.729838589119999 -1 0 0
1047 1 88.905562748912 35.054342372202 1.729838589119999 -1 0 0
1051 1 93.24241947648 35.054342372202 1.729838589119999 -1 0 0
1055 1 97.579276204048 35.054342372202 1.729838589119999 -1 0 0
1062 1 2.1684283637840025 37.55822399411001 0 0 0 0
1066 1 6.505285091352 37.55822399411001 0 0 0 0
1070 1 10.842141818920005 37.55822399411001 0 0 0 0
1074 1 15.178998546488003 37.55822399411001 0 0 0 0
1078 1 19.51585527405601 37.55822399411001 0 0 0 0
1082 1 23.852712001624 37.55822399411001 0 0 0 0
1086 1 28.189568729192004 37.55822399411001 0 0 0 0
1090 1 32.52642545676001 37.55822399411001 0 0 0 0
1094 1 36.863282184328 37.55822399411001 0 0 0 0
1098 1 41.200138911896005 37.55822399411001 0 0 0 0
1102 1 45.536995639463996 37.55822399411001 0 0 0 0
1014 1 49.873852367032 37.55822399411001 0 -1 0 0
1018 1 54.210709094600006 37.55822399411001 0 -1 0 0
1022 1 58.547565822168 37.55822399411001 0 -1 0 0
1026 1 62.884422549736 37.55822399411001 0 -1 0 0
1030 1 67.221279277304 37.55822399411001 0 -1 0 0
1034 1 71.55813600487201 37.55822399411001 0 -1 0 0
1038 1 75.89499273244 37.55822399411001 0 -1 0 0
1042 1 80.23184946000801 37.55822399411001 0 -1 0 0
1046 1 84.568706187576 37.55822399411001 0 -1 0 0
1050 1 88.905562915144 37.55822399411001 0 -1 0 0
1054 1 93.24241964271201 37.55822399411001 0 -1 0 0
1058 1 97.57927637028001 37.55822399411001 0 -1 0 0
1064 1 4.336856566382004 38.810164771613 1.729838589119999 0 0 0
1068 1 8.673713293950001 38.810164771613 1.729838589119999 0 0 0
1072 1 13.010570021518 38.810164771613 1.729838589119999 0 0 0
1076 1 17.347426749085997 38.810164771613 1.729838589119999 0 0 0
1080 1 21.684283476654002 38.810164771613 1.729838589119999 0 0 0
1084 1 26.021140204222007 38.810164771613 1.729838589119999 0 0 0
1088 1 30.357996931789998 38.810164771613 1.729838589119999 0 0 0
1092 1 34.694853659358 38.810164771613 1.729838589119999 0 0 0
1096 1 39.03171038692601 38.810164771613 1.729838589119999 0 0 0
1100 1 43.368567114494 38.810164771613 1.729838589119999 0 0 0
1104 1 47.705423842062004 38.810164771613 1.729838589119999 0 0 0
1016 1 52.04228056963 38.810164771613 1.729838589119999 -1 0 0
1020 1 56.37913729719801 38.810164771613 1.729838589119999 -1 0 0
1024 1 60.715994024766005 38.810164771613 1.729838589119999 -1 0 0
1028 1 65.052850752334 38.810164771613 1.729838589119999 -1 0 0
1032 1 69.389707479902 38.810164771613 1.729838589119999 -1 0 0
1036 1 73.72656420747 38.810164771613 1.729838589119999 -1 0 0
1040 1 78.06342093503801 38.810164771613 1.729838589119999 -1 0 0
1044 1 82.400277662606 38.810164771613 1.729838589119999 -1 0 0
1048 1 86.737134390174 38.810164771613 1.729838589119999 -1 0 0
1052 1 91.073991117742 38.810164771613 1.729838589119999 -1 0 0
1056 1 95.41084784531 38.810164771613 1.729838589119999 -1 0 0
1060 1 99.747704572878 38.810164771613 1.729838589119999 -1 0 0
1151 1 2.1684281975520037 42.565987171024005 1.729838589119999 0 0 0
1153 1 4.3368567225220005 41.314046393521 0 0 0 0
1155 1 6.505284925120002 42.565987171024005 1.729838589119999 0 0 0
1157 1 8.673713450090005 41.314046393521 0 0 0 0
1159 1 10.842141652688 42.565987171024005 1.729838589119999 0 0 0
1161 1 13.010570177658003 41.314046393521 0 0 0 0
1163 1 15.178998380256004 42.565987171024005 1.729838589119999 0 0 0
1165 1 17.347426905226 41.314046393521 0 0 0 0
1167 1 19.51585510782401 42.565987171024005 1.729838589119999 0 0 0
1169 1 21.684283632794006 41.314046393521 0 0 0 0
1171 1 23.852711835392 42.565987171024005 1.729838589119999 0 0 0
1173 1 26.021140360361997 41.314046393521 0 0 0 0
1175 1 28.189568562960005 42.565987171024005 1.729838589119999 0 0 0
1177 1 30.357997087930002 41.314046393521 0 0 0 0
1179 1 32.526425290527996 42.565987171024005 1.729838589119999 0 0 0