LAMMPS data file via write_data, version 29 Aug 2024, timestep = 3, units = metal

6072 atoms
24 atom types

0 97.033262480616 xlo xhi
0 98.5457699781 ylo yhi
-50 50 zlo zhi

Masses

1 118.71
2 118.71
3 118.71
4 118.71
5 118.71
6 118.71
7 118.71
8 118.71
9 118.71
10 118.71
11 118.71
12 118.71
13 78.971
14 78.971
15 78.971
16 78.971
17 78.971
18 78.971
19 78.971
20 78.971
21 78.971
22 78.971
23 78.971
24 78.971

Atoms # atomic

1019 1 4.401683308524037 2.3270248658120715e-05 -0.010871190727129902 0 0 0
1102 16 2.4640514130883053 2.142323558154642 0.058459378038011246 0 0 0
1107 1 4.4016833085240386 4.28462196494866 -0.010871190727128386 0 0 0
1013 15 0.25914269239757254 2.1732631246903474e-05 2.703447527374997 0 0 0
1104 4 2.198875670926074 2.142320731549719 2.7692589036157145 0 0 0
1017 13 4.669745532425572 2.173263124704941e-05 2.703447527374998 0 0 0
1101 15 0.25914269239757154 4.284620427331249 2.703447527374999 0 0 0
1105 13 4.669745532425572 4.284620427331249 2.703447527375 0 0 0
1023 3 8.812286148552037 2.3270248658216683e-05 -0.010871190727130827 0 0 0
1106 14 6.8746542531163035 2.142323558154642 0.05845937803801146 0 0 0
1110 16 11.285257093144303 2.142323558154642 0.05845937803801212 0 0 0
1111 3 8.812286148552037 4.28462196494866 -0.010871190727129092 0 0 0
1108 2 6.609478510954074 2.142320731549719 2.7692589036157136 0 0 0
1021 15 9.080348372453571 2.1732631246974205e-05 2.7034475273749985 0 0 0
1112 4 11.020081350982073 2.1423207315497192 2.769258903615713 0 0 0
1109 15 9.08034837245357 4.284620427331248 2.703447527375 0 0 0
1027 1 13.222888988580035 2.327024865848303e-05 -0.010871190727130975 0 0 0
1114 14 15.695859933172306 2.142323558154642 0.05845937803801064 0 0 0
1115 1 13.222888988580037 4.28462196494866 -0.010871190727129734 0 0 0
1025 13 13.490951212481571 2.1732631246998444e-05 2.7034475273749976 0 0 0
1116 2 15.430684191010075 2.142320731549719 2.769258903615713 0 0 0
1113 13 13.490951212481571 4.284620427331249 2.703447527374999 0 0 0
1031 3 17.633491828608037 2.327024865835858e-05 -0.010871190727129715 0 0 0
1035 1 22.04409466863603 2.327024865831712e-05 -0.010871190727132092 0 0 0
1118 16 20.106462773200303 2.1423235581546423 0.058459378038012696 0 0 0
1119 3 17.63349182860804 4.284621964948659 -0.010871190727128307 0 0 0
1123 1 22.044094668636035 4.28462196494866 -0.010871190727130152 0 0 0
1029 15 17.90155405250957 2.173263124722264e-05 2.703447527374999 0 0 0
1120 4 19.84128703103807 2.1423207315497192 2.7692589036157136 0 0 0
1033 13 22.31215689253757 2.173263124709169e-05 2.703447527374998 0 0 0
1117 15 17.90155405250957 4.284620427331248 2.7034475273750003 0 0 0
1121 13 22.31215689253757 4.284620427331248 2.7034475273749994 0 0 0
1039 3 26.454697508664037 2.3270248658876634e-05 -0.010871190727130844 0 0 0
1122 14 24.517065613228304 2.1423235581546414 0.05845937803801213 0 0 0
1127 3 26.454697508664037 4.28462196494866 -0.010871190727129287 0 0 0
1124 2 24.251889871066073 2.1423207315497192 2.7692589036157127 0 0 0
1037 15 26.722759732565574 2.1732631247158933e-05 2.703447527374998 0 0 0
1125 15 26.722759732565574 4.284620427331248 2.7034475273749994 0 0 0
1043 1 30.86530034869204 2.327024865847718e-05 -0.010871190727129844 0 0 0
1126 16 28.92766845325631 2.142323558154642 0.05845937803801081 0 0 0
1130 14 33.3382712932843 2.142323558154642 0.05845937803801323 0 0 0
1131 1 30.865300348692042 4.284621964948659 -0.010871190727128137 0 0 0
1128 4 28.662492711094078 2.1423207315497192 2.7692589036157127 0 0 0
1041 13 31.133362572593573 2.1732631246388993e-05 2.703447527374999 0 0 0
1132 2 33.07309555112207 2.1423207315497192 2.769258903615714 0 0 0
1129 13 31.13336257259357 4.284620427331249 2.7034475273750003 0 0 0
1047 3 35.27590318872004 2.3270248659423075e-05 -0.010871190727132187 0 0 0
1051 1 39.686506028748035 2.3270248658326117e-05 -0.010871190727130149 0 0 0
1134 16 37.748874133312306 2.1423235581546414 0.05845937803801144 0 0 0
1135 3 35.27590318872004 4.28462196494866 -0.010871190727130864 0 0 0
1139 1 39.68650602874804 4.28462196494866 -0.010871190727129163 0 0 0
1045 15 35.543965412621574 2.1732631246563618e-05 2.7034475273749985 0 0 0
1136 4 37.48369839115007 2.1423207315497192 2.7692589036157127 0 0 0
1049 13 39.95456825264957 2.1732631246331307e-05 2.7034475273749976 0 0 0
1133 15 35.54396541262157 4.284620427331248 2.7034475273749994 0 0 0
1137 13 39.95456825264957 4.284620427331249 2.703447527374999 0 0 0
1055 3 44.09710886877604 2.327024865857189e-05 -0.010871190727130626 0 0 0
1138 14 42.159476973340304 2.142323558154643 0.05845937803800947 0 0 0
1143 3 44.09710886877604 4.28462196494866 -0.01087119072712854 0 0 0
1140 2 41.894301231178076 2.1423207315497184 2.7692589036157127 0 0 0
1053 15 44.36517109267757 2.173263124732021e-05 2.703447527374997 0 0 0
1141 15 44.36517109267757 4.284620427331248 2.7034475273749985 0 0 0
971 1 48.50771170880404 2.327024865931146e-05 -0.010871190727128995 -1 0 0
1142 16 46.57007981336831 2.142323558154642 0.058459378038011774 0 0 0
1058 14 50.98068265339631 2.142323558154642 0.05845937803801142 -1 0 0
1059 1 48.50771170880404 4.28462196494866 -0.010871190727127313 -1 0 0
1144 4 46.304904071206074 2.142320731549718 2.7692589036157154 0 0 0
969 13 48.775773932705576 2.1732631248299883e-05 2.7034475273749985 -1 0 0
1060 2 50.71550691123408 2.1423207315497192 2.7692589036157136 -1 0 0
1057 13 48.775773932705576 4.284620427331248 2.703447527375 -1 0 0
975 3 52.918314548832036 2.3270248658398714e-05 -0.010871190727130909 -1 0 0
1062 16 55.391285493424306 2.142323558154642 0.05845937803801233 -1 0 0
1063 3 52.918314548832036 4.28462196494866 -0.010871190727129535 -1 0 0
973 15 53.186376772733574 2.1732631247484752e-05 2.7034475273749985 -1 0 0
1064 4 55.12610975126208 2.1423207315497192 2.769258903615713 -1 0 0
1061 15 53.186376772733574 4.284620427331248 2.703447527375 -1 0 0
979 1 57.328917388860035 2.3270248658346988e-05 -0.010871190727130966 -1 0 0
983 3 61.73952022888804 2.3270248658054632e-05 -0.010871190727129987 -1 0 0
1066 14 59.80188833345231 2.142323558154642 0.058459378038010455 -1 0 0
1067 1 57.32891738886004 4.284621964948659 -0.010871190727130366 -1 0 0
1071 3 61.73952022888804 4.28462196494866 -0.010871190727128801 -1 0 0
977 13 57.59697961276157 2.1732631246329403e-05 2.7034475273749976 -1 0 0
1068 2 59.536712591290076 2.1423207315497184 2.769258903615713 -1 0 0
981 15 62.00758245278957 2.1732631245702022e-05 2.703447527374997 -1 0 0
1065 13 57.59697961276157 4.284620427331249 2.703447527374999 -1 0 0
1069 15 62.00758245278957 4.284620427331248 2.703447527374999 -1 0 0
987 1 66.15012306891605 2.327024865832094e-05 -0.010871190727130374 -1 0 0
1070 16 64.2124911734803 2.1423235581546414 0.05845937803801009 -1 0 0
1075 1 66.15012306891605 4.284621964948659 -0.010871190727128324 -1 0 0
1072 4 63.947315431318074 2.1423207315497175 2.7692589036157136 -1 0 0
985 13 66.41818529281757 2.1732631247224632e-05 2.703447527374997 -1 0 0
1076 2 68.35791827134608 2.1423207315497192 2.7692589036157154 -1 0 0
1073 13 66.41818529281757 4.284620427331249 2.703447527374999 -1 0 0
991 3 70.56072590894405 2.3270248658555612e-05 -0.010871190727129148 -1 0 0
1074 14 68.62309401350831 2.1423235581546427 0.0584593780380108 -1 0 0
1078 16 73.03369685353631 2.142323558154642 0.05845937803800993 -1 0 0
1079 3 70.56072590894405 4.284621964948661 -0.010871190727127654 -1 0 0
989 15 70.82878813284557 2.1732631247530214e-05 2.703447527374998 -1 0 0
1080 4 72.76852111137408 2.1423207315497192 2.769258903615714 -1 0 0
1077 15 70.82878813284557 4.284620427331249 2.703447527374999 -1 0 0
995 1 74.97132874897204 2.327024866125446e-05 -0.010871190727128959 -1 0 0
999 3 79.38193158900005 2.3270248658804375e-05 -0.010871190727129151 -1 0 0
1082 14 77.4442996935643 2.1423235581546423 0.058459378038010774 -1 0 0
1083 1 74.97132874897204 4.284621964948663 -0.010871190727129242 -1 0 0
1087 3 79.38193158900005 4.284621964948661 -0.010871190727127462 -1 0 0
993 13 75.23939097287357 2.173263124708037e-05 2.703447527374997 -1 0 0
1084 2 77.17912395140208 2.1423207315497192 2.769258903615715 -1 0 0
997 15 79.64999381290157 2.1732631247597208e-05 2.703447527374997 -1 0 0
1081 13 75.23939097287357 4.284620427331249 2.7034475273749985 -1 0 0
1085 15 79.64999381290157 4.284620427331249 2.7034475273749985 -1 0 0
1003 1 83.79253442902804 2.3270248658510675e-05 -0.010871190727128945 -1 0 0
1086 16 81.85490253359231 2.1423235581546427 0.05845937803801 -1 0 0
1091 1 83.79253442902805 4.284621964948661 -0.010871190727127635 -1 0 0
1088 4 81.58972679143008 2.1423207315497197 2.7692589036157145 -1 0 0
1001 13 84.06059665292958 2.1732631247604082e-05 2.703447527374999 -1 0 0
1089 13 84.06059665292958 4.284620427331249 2.7034475273750003 -1 0 0
1007 3 88.20313726905604 2.327024865852796e-05 -0.010871190727131993 -1 0 0
1090 14 86.2655053736203 2.1423235581546414 0.05845937803801115 -1 0 0
1094 16 90.6761082136483 2.1423235581546427 0.05845937803801042 -1 0 0
1095 3 88.20313726905604 4.28462196494866 -0.010871190727130145 -1 0 0
1092 2 86.00032963145809 2.1423207315497192 2.7692589036157136 -1 0 0
1005 15 88.47119949295757 2.1732631247676202e-05 2.703447527374997 -1 0 0
1096 4 90.41093247148608 2.1423207315497192 2.769258903615714 -1 0 0
1093 15 88.47119949295757 4.284620427331249 2.7034475273749985 -1 0 0
1015 3 97.02434294911204 2.3270248658546565e-05 -0.01087119072712953 -1 0 0
1103 3 97.02434294911204 4.2846219649486645 -0.010871190727129294 -1 0 0
1011 1 92.61374010908405 2.327024865855313e-05 -0.010871190727129523 -1 0 0
1098 14 95.08671105367631 2.1423235581546405 0.05845937803801026 -1 0 0
1099 1 92.61374010908405 4.28462196494866 -0.010871190727127852 -1 0 0
1009 13 92.88180233298557 2.1732631247557916e-05 2.703447527374997 -1 0 0
1100 2 94.82153531151408 2.1423207315497192 2.7692589036157145 -1 0 0
1097 13 92.88180233298557 4.284620427331249 2.7034475273749994 -1 0 0
1190 16 2.4640514130883053 6.4269222528546415 0.05845937803801256 0 0 0
1195 1 4.4016833085240386 8.569220659648659 -0.01087119072712799 0 0 0
1278 16 2.4640514130883058 10.711520947554641 0.05845937803801151 0 0 0
1192 4 2.198875670926075 6.426919426249719 2.7692589036157154 0 0 0
1189 15 0.25914269239757104 8.569219122031248 2.7034475273749994 0 0 0
1193 13 4.669745532425572 8.569219122031248 2.703447527375 0 0 0
1280 4 2.1988756709260744 10.71151812094972 2.7692589036157145 0 0 0
1194 14 6.874654253116304 6.4269222528546415 0.05845937803801282 0 0 0
1198 16 11.285257093144303 6.4269222528546415 0.05845937803801351 0 0 0
1199 3 8.812286148552037 8.569220659648659 -0.0108711907271289 0 0 0
1282 14 6.874654253116304 10.711520947554641 0.058459378038011836 0 0 0
1286 16 11.285257093144303 10.711520947554641 0.05845937803801276 0 0 0
1196 2 6.609478510954075 6.426919426249719 2.769258903615715 0 0 0
1200 4 11.020081350982073 6.426919426249719 2.7692589036157145 0 0 0
1197 15 9.080348372453571 8.569219122031248 2.7034475273750003 0 0 0
1284 2 6.609478510954074 10.71151812094972 2.7692589036157136 0 0 0
1288 4 11.020081350982073 10.71151812094972 2.7692589036157136 0 0 0
1202 14 15.695859933172308 6.4269222528546415 0.05845937803801161 0 0 0
1203 1 13.222888988580037 8.569220659648659 -0.010871190727129715 0 0 0
1290 14 15.695859933172306 10.711520947554641 0.058459378038010955 0 0 0
1204 2 15.430684191010076 6.426919426249719 2.769258903615714 0 0 0
1201 13 13.490951212481571 8.569219122031248 2.7034475273749994 0 0 0
1292 2 15.430684191010075 10.71151812094972 2.769258903615713 0 0 0
1206 16 20.106462773200303 6.4269222528546415 0.05845937803801355 0 0 0
1207 3 17.63349182860804 8.569220659648659 -0.010871190727128076 0 0 0
1211 1 22.044094668636035 8.569220659648659 -0.01087119072712989 0 0 0
1294 16 20.106462773200303 10.711520947554641 0.05845937803801299 0 0 0
1208 4 19.84128703103807 6.426919426249719 2.7692589036157145 0 0 0
1205 15 17.90155405250957 8.56921912203125 2.7034475273750007 0 0 0
1209 13 22.31215689253757 8.56921912203125 2.703447527375 0 0 0
1296 4 19.84128703103807 10.71151812094972 2.769258903615714 0 0 0
1210 14 24.517065613228304 6.426922252854642 0.058459378038012974 0 0 0
1215 3 26.454697508664037 8.569220659648659 -0.01087119072712892 0 0 0
1298 14 24.517065613228304 10.711520947554641 0.0584593780380122 0 0 0
1212 2 24.251889871066073 6.42691942624972 2.769258903615714 0 0 0
1213 15 26.72275973256557 8.569219122031248 2.7034475273749994 0 0 0
1300 2 24.251889871066073 10.71151812094972 2.769258903615713 0 0 0
1214 16 28.92766845325631 6.4269222528546415 0.05845937803801184 0 0 0
1218 14 33.3382712932843 6.4269222528546415 0.05845937803801431 0 0 0
1219 1 30.865300348692042 8.569220659648659 -0.010871190727128024 0 0 0
1302 16 28.927668453256306 10.711520947554641 0.058459378038010885 0 0 0
1306 14 33.3382712932843 10.711520947554641 0.058459378038013536 0 0 0
1216 4 28.662492711094078 6.426919426249719 2.7692589036157136 0 0 0
1220 2 33.07309555112207 6.426919426249719 2.769258903615715 0 0 0
1217 13 31.133362572593573 8.56921912203125 2.7034475273750007 0 0 0
1304 4 28.662492711094075 10.71151812094972 2.7692589036157136 0 0 0
1308 2 33.07309555112207 10.71151812094972 2.769258903615714 0 0 0
1222 16 37.748874133312306 6.4269222528546415 0.058459378038013085 0 0 0
1223 3 35.27590318872004 8.569220659648657 -0.010871190727130583 0 0 0
1227 1 39.68650602874804 8.569220659648659 -0.010871190727129157 0 0 0
1310 16 37.748874133312306 10.711520947554641 0.05845937803801169 0 0 0
1224 4 37.48369839115007 6.426919426249719 2.769258903615714 0 0 0
1221 15 35.54396541262157 8.569219122031248 2.703447527375 0 0 0
1225 13 39.95456825264957 8.569219122031248 2.7034475273749994 0 0 0
1312 4 37.48369839115007 10.71151812094972 2.7692589036157127 0 0 0
1226 14 42.15947697334031 6.4269222528546415 0.05845937803801064 0 0 0
1231 3 44.09710886877604 8.569220659648659 -0.010871190727128433 0 0 0
1314 14 42.15947697334031 10.711520947554641 0.058459378038009865 0 0 0
1228 2 41.894301231178076 6.426919426249719 2.7692589036157136 0 0 0
1229 15 44.36517109267757 8.56921912203125 2.7034475273749985 0 0 0
1316 2 41.894301231178076 10.71151812094972 2.769258903615713 0 0 0
1230 16 46.57007981336831 6.4269222528546415 0.05845937803801299 0 0 0
1146 14 50.98068265339631 6.4269222528546415 0.058459378038012634 -1 0 0
1147 1 48.50771170880404 8.569220659648659 -0.010871190727127299 -1 0 0
1318 16 46.57007981336831 10.711520947554641 0.05845937803801193 0 0 0
1234 14 50.98068265339631 10.711520947554641 0.058459378038011545 -1 0 0
1232 4 46.304904071206074 6.426919426249719 2.7692589036157162 0 0 0
1148 2 50.71550691123408 6.426919426249719 2.769258903615715 -1 0 0
1145 13 48.775773932705576 8.569219122031248 2.7034475273750003 -1 0 0
1320 4 46.304904071206074 10.71151812094972 2.7692589036157154 0 0 0
1236 2 50.71550691123408 10.71151812094972 2.7692589036157136 -1 0 0
1150 16 55.391285493424306 6.4269222528546415 0.058459378038014084 -1 0 0
1151 3 52.918314548832036 8.569220659648659 -0.010871190727129248 -1 0 0
1238 16 55.391285493424306 10.711520947554641 0.05845937803801317 -1 0 0
1152 4 55.12610975126208 6.426919426249719 2.7692589036157145 -1 0 0
1149 15 53.186376772733574 8.569219122031248 2.7034475273750003 -1 0 0
1240 4 55.12610975126208 10.71151812094972 2.769258903615713 -1 0 0
1154 14 59.80188833345231 6.4269222528546415 0.058459378038011815 -1 0 0
1155 1 57.32891738886004 8.569220659648659 -0.010871190727130237 -1 0 0
1159 3 61.73952022888804 8.569220659648659 -0.010871190727128565 -1 0 0
1242 14 59.80188833345231 10.711520947554641 0.058459378038010726 -1 0 0
1156 2 59.536712591290076 6.42691942624972 2.769258903615714 -1 0 0
1153 13 57.59697961276157 8.569219122031248 2.703447527374999 -1 0 0
1157 15 62.00758245278957 8.56921912203125 2.703447527374999 -1 0 0
1244 2 59.536712591290076 10.71151812094972 2.7692589036157127 -1 0 0
1158 16 64.2124911734803 6.4269222528546415 0.058459378038011295 -1 0 0
1163 1 66.15012306891605 8.569220659648659 -0.010871190727128026 -1 0 0
1246 16 64.2124911734803 10.711520947554641 0.058459378038010185 -1 0 0
1160 4 63.947315431318074 6.426919426249719 2.769258903615714 -1 0 0
1164 2 68.35791827134608 6.426919426249719 2.7692589036157162 -1 0 0
1161 13 66.41818529281757 8.569219122031248 2.7034475273749994 -1 0 0
1248 4 63.947315431318074 10.71151812094972 2.769258903615714 -1 0 0
1252 2 68.35791827134608 10.71151812094972 2.769258903615715 -1 0 0
1162 14 68.62309401350831 6.4269222528546415 0.058459378038011926 -1 0 0
1166 16 73.0336968535363 6.4269222528546415 0.058459378038012495 -1 0 0
1167 3 70.56072590894405 8.569220659648657 -0.010871190727127777 -1 0 0
1250 14 68.62309401350831 10.71152094755464 0.058459378038011184 -1 0 0
1254 16 73.03369685353631 10.71152094755464 0.058459378038010525 -1 0 0
1168 4 72.76852111137408 6.426919426249719 2.769258903615714 -1 0 0
1165 15 70.82878813284557 8.569219122031248 2.7034475273749994 -1 0 0
1256 4 72.76852111137408 10.71151812094972 2.769258903615714 -1 0 0
1170 14 77.4442996935643 6.4269222528546415 0.05845937803801191 -1 0 0
1171 1 74.97132874897204 8.569220659648655 -0.010871190727129063 -1 0 0
1175 3 79.38193158900005 8.569220659648657 -0.010871190727127791 -1 0 0
1258 14 77.4442996935643 10.71152094755464 0.05845937803801118 -1 0 0
1172 2 77.17912395140208 6.426919426249719 2.7692589036157162 -1 0 0
1169 13 75.23939097287357 8.569219122031248 2.703447527374999 -1 0 0
1173 15 79.64999381290157 8.569219122031248 2.703447527374999 -1 0 0
1260 2 77.17912395140208 10.71151812094972 2.769258903615715 -1 0 0
1174 16 81.85490253359231 6.4269222528546415 0.05845937803801178 -1 0 0
1179 1 83.79253442902805 8.569220659648657 -0.010871190727127777 -1 0 0
1262 16 81.85490253359231 10.71152094755464 0.05845937803801076 -1 0 0
1176 4 81.58972679143008 6.426919426249719 2.769258903615716 -1 0 0
1177 13 84.06059665292958 8.569219122031248 2.7034475273750007 -1 0 0
1264 4 81.58972679143008 10.71151812094972 2.769258903615714 -1 0 0
1178 14 86.26550537362031 6.4269222528546415 0.05845937803801261 -1 0 0
1182 16 90.6761082136483 6.4269222528546415 0.05845937803801177 -1 0 0
1183 3 88.20313726905604 8.569220659648659 -0.010871190727130121 -1 0 0
1266 14 86.26550537362031 10.711520947554641 0.058459378038011746 -1 0 0
1270 16 90.6761082136483 10.71152094755464 0.05845937803801077 -1 0 0
1180 2 86.00032963145809 6.426919426249719 2.7692589036157145 -1 0 0
1184 4 90.41093247148608 6.426919426249719 2.769258903615715 -1 0 0
1181 15 88.47119949295757 8.56921912203125 2.7034475273749985 -1 0 0
1268 2 86.00032963145807 10.71151812094972 2.7692589036157136 -1 0 0
1272 4 90.41093247148608 10.71151812094972 2.769258903615714 -1 0 0
1191 3 97.02434294911204 8.569220659648655 -0.010871190727129276 -1 0 0
1186 14 95.08671105367631 6.426922252854641 0.05845937803801301 -1 0 0
1187 1 92.61374010908405 8.569220659648659 -0.0108711907271282 -1 0 0
1274 14 95.08671105367631 10.711520947554643 0.058459378038011385 -1 0 0
1188 2 94.82153531151408 6.426919426249719 2.7692589036157145 -1 0 0
1185 13 92.88180233298557 8.569219122031248 2.703447527375 -1 0 0
1276 2 94.82153531151408 10.711518120949718 2.769258903615714 -1 0 0
1283 1 4.4016833085240386 12.85381935434866 -0.010871190727129566 0 0 0
1366 16 2.464051413088306 14.996119642254643 0.05845937803801152 0 0 0
1371 1 4.401683308524039 17.13841804904866 -0.010871190727127849 0 0 0
1277 15 0.25914269239757143 12.85381781673125 2.7034475273749976 0 0 0
1368 4 2.198875670926075 14.996116815649719 2.769258903615714 0 0 0
1281 13 4.669745532425571 12.85381781673125 2.703447527374998 0 0 0
1365 15 0.25914269239757176 17.13841651143125 2.703447527375 0 0 0
1369 13 4.669745532425572 17.13841651143125 2.703447527375 0 0 0
1287 3 8.812286148552037 12.853819354348659 -0.010871190727130348 0 0 0
1370 14 6.874654253116305 14.996119642254643 0.058459378038011454 0 0 0
1374 16 11.285257093144304 14.996119642254643 0.05845937803801203 0 0 0
1375 3 8.812286148552039 17.13841804904866 -0.010871190727129037 0 0 0
1372 2 6.609478510954075 14.996116815649719 2.7692589036157136 0 0 0
1285 15 9.08034837245357 12.85381781673125 2.7034475273749985 0 0 0
1376 4 11.020081350982073 14.996116815649719 2.7692589036157136 0 0 0
1373 15 9.080348372453571 17.13841651143125 2.7034475273750003 0 0 0
1291 1 13.222888988580035 12.853819354348659 -0.010871190727131096 0 0 0
1378 14 15.695859933172308 14.996119642254643 0.058459378038010566 0 0 0
1379 1 13.222888988580038 17.13841804904866 -0.010871190727129023 0 0 0
1289 13 13.490951212481571 12.85381781673125 2.703447527374998 0 0 0
1380 2 15.430684191010076 14.996116815649719 2.769258903615713 0 0 0
1377 13 13.490951212481573 17.13841651143125 2.703447527375 0 0 0
1295 3 17.63349182860804 12.853819354348659 -0.0108711907271293 0 0 0
1299 1 22.04409466863603 12.85381935434866 -0.01087119072713192 0 0 0
1382 16 20.106462773200303 14.996119642254643 0.05845937803801255 0 0 0
1383 3 17.63349182860804 17.13841804904866 -0.010871190727127627 0 0 0
1387 1 22.044094668636035 17.13841804904866 -0.010871190727129543 0 0 0
1293 15 17.90155405250957 12.85381781673125 2.7034475273749994 0 0 0
1384 4 19.84128703103807 14.996116815649719 2.769258903615714 0 0 0
1297 13 22.31215689253757 12.85381781673125 2.7034475273749985 0 0 0
1381 15 17.90155405250957 17.13841651143125 2.703447527375001 0 0 0
1385 13 22.31215689253757 17.13841651143125 2.7034475273749994 0 0 0
1303 3 26.454697508664037 12.853819354348659 -0.010871190727130728 0 0 0
1386 14 24.517065613228304 14.996119642254643 0.058459378038011454 0 0 0
1391 3 26.45469750866404 17.13841804904866 -0.010871190727128149 0 0 0
1388 2 24.251889871066073 14.996116815649719 2.769258903615713 0 0 0
1301 15 26.72275973256557 12.85381781673125 2.703447527374998 0 0 0
1389 15 26.722759732565574 17.13841651143125 2.7034475273749994 0 0 0
1307 1 30.865300348692042 12.853819354348659 -0.010871190727129247 0 0 0
1390 16 28.92766845325631 14.996119642254643 0.058459378038010726 0 0 0
1394 14 33.3382712932843 14.996119642254643 0.05845937803801309 0 0 0
1395 1 30.865300348692042 17.13841804904866 -0.01087119072712755 0 0 0
1392 4 28.662492711094078 14.996116815649719 2.769258903615713 0 0 0
1305 13 31.133362572593573 12.85381781673125 2.7034475273749994 0 0 0
1396 2 33.07309555112208 14.996116815649719 2.769258903615714 0 0 0
1393 13 31.133362572593573 17.13841651143125 2.703447527375001 0 0 0
1311 3 35.27590318872004 12.85381935434866 -0.010871190727132088 0 0 0
1315 1 39.686506028748035 12.85381935434866 -0.010871190727129965 0 0 0
1398 16 37.748874133312306 14.996119642254643 0.058459378038011725 0 0 0
1399 3 35.27590318872004 17.13841804904866 -0.010871190727129944 0 0 0
1403 1 39.68650602874804 17.13841804904866 -0.010871190727129023 0 0 0
1309 15 35.54396541262157 12.85381781673125 2.703447527374999 0 0 0
1400 4 37.48369839115008 14.996116815649719 2.769258903615712 0 0 0
1313 13 39.95456825264957 12.85381781673125 2.703447527374998 0 0 0
1397 15 35.543965412621574 17.13841651143125 2.7034475273750003 0 0 0
1401 13 39.95456825264958 17.13841651143125 2.7034475273750003 0 0 0
1319 3 44.09710886877604 12.85381935434866 -0.010871190727129956 0 0 0
1402 14 42.15947697334031 14.996119642254643 0.05845937803800983 0 0 0
1407 3 44.09710886877604 17.13841804904866 -0.010871190727128482 0 0 0
1404 2 41.89430123117808 14.996116815649717 2.769258903615712 0 0 0
1317 15 44.36517109267757 12.85381781673125 2.703447527374997 0 0 0
1405 15 44.36517109267757 17.13841651143125 2.703447527374999 0 0 0
1235 1 48.50771170880404 12.85381935434866 -0.01087119072712873 -1 0 0
1406 16 46.57007981336831 14.996119642254643 0.05845937803801176 0 0 0
1322 14 50.98068265339631 14.996119642254643 0.05845937803801097 -1 0 0
1323 1 48.50771170880404 17.138418049048664 -0.010871190727127363 -1 0 0
1408 4 46.304904071206074 14.996116815649719 2.769258903615715 0 0 0
1233 13 48.775773932705576 12.85381781673125 2.7034475273749985 -1 0 0
1324 2 50.71550691123408 14.996116815649719 2.769258903615714 -1 0 0
1321 13 48.775773932705576 17.13841651143125 2.7034475273750003 -1 0 0
1239 3 52.91831454883204 12.853819354348659 -0.010871190727130308 -1 0 0
1326 16 55.391285493424306 14.996119642254643 0.05845937803801218 -1 0 0
1327 3 52.91831454883204 17.138418049048664 -0.010871190727128912 -1 0 0
1237 15 53.186376772733574 12.85381781673125 2.7034475273749985 -1 0 0
1328 4 55.12610975126208 14.996116815649719 2.769258903615714 -1 0 0
1325 15 53.186376772733574 17.13841651143125 2.7034475273750003 -1 0 0
1243 1 57.32891738886004 12.853819354348659 -0.010871190727130876 -1 0 0
1247 3 61.73952022888804 12.85381935434866 -0.010871190727129625 -1 0 0
1330 14 59.80188833345231 14.996119642254643 0.05845937803801066 -1 0 0
1331 1 57.32891738886004 17.13841804904866 -0.01087119072712958 -1 0 0
1335 3 61.73952022888804 17.13841804904866 -0.010871190727128593 -1 0 0
1241 13 57.59697961276157 12.85381781673125 2.7034475273749985 -1 0 0
1332 2 59.53671259129008 14.996116815649719 2.7692589036157114 -1 0 0
1245 15 62.00758245278957 12.853817816731251 2.7034475273749976 -1 0 0
1329 13 57.59697961276158 17.13841651143125 2.703447527375 -1 0 0
1333 15 62.00758245278958 17.13841651143125 2.7034475273750003 -1 0 0
1251 1 66.15012306891605 12.85381935434866 -0.010871190727130095 -1 0 0
1334 16 64.2124911734803 14.996119642254643 0.058459378038011336 -1 0 0
1339 1 66.15012306891605 17.13841804904866 -0.010871190727128919 -1 0 0
1336 4 63.94731543131808 14.996116815649717 2.769258903615713 -1 0 0
1249 13 66.41818529281757 12.85381781673125 2.7034475273749976 -1 0 0
1340 2 68.35791827134608 14.996116815649717 2.769258903615714 -1 0 0
1337 13 66.41818529281758 17.13841651143125 2.703447527375 -1 0 0
1255 3 70.56072590894405 12.85381935434866 -0.010871190727129488 -1 0 0
1338 14 68.62309401350831 14.996119642254643 0.058459378038010684 -1 0 0
1342 16 73.03369685353631 14.996119642254643 0.05845937803801115 -1 0 0
1343 3 70.56072590894405 17.13841804904866 -0.010871190727127198 -1 0 0
1253 15 70.82878813284557 12.85381781673125 2.7034475273749976 -1 0 0
1344 4 72.76852111137408 14.996116815649719 2.7692589036157145 -1 0 0
1341 15 70.82878813284557 17.13841651143125 2.703447527375 -1 0 0
1259 1 74.97132874897204 12.85381935434866 -0.010871190727129668 -1 0 0
1263 3 79.38193158900005 12.85381935434866 -0.010871190727129495 -1 0 0
1346 14 77.4442996935643 14.996119642254643 0.05845937803801067 -1 0 0
1347 1 74.97132874897204 17.138418049048664 -0.010871190727129764 -1 0 0
1351 3 79.38193158900005 17.13841804904866 -0.010871190727127016 -1 0 0
1257 13 75.23939097287357 12.85381781673125 2.7034475273749976 -1 0 0
1348 2 77.17912395140208 14.996116815649717 2.769258903615714 -1 0 0
1261 15 79.64999381290157 12.85381781673125 2.703447527374998 -1 0 0
1345 13 75.23939097287358 17.13841651143125 2.703447527375 -1 0 0
1349 15 79.64999381290157 17.13841651143125 2.703447527374999 -1 0 0
1267 1 83.79253442902805 12.85381935434866 -0.010871190727128957 -1 0 0
1350 16 81.85490253359231 14.996119642254643 0.05845937803801071 -1 0 0
1355 1 83.79253442902805 17.13841804904866 -0.01087119072712757 -1 0 0
1352 4 81.58972679143008 14.996116815649719 2.769258903615714 -1 0 0
1265 13 84.06059665292958 12.85381781673125 2.703447527375 -1 0 0
1353 13 84.06059665292958 17.13841651143125 2.703447527375001 -1 0 0
1271 3 88.20313726905604 12.85381935434866 -0.01087119072713157 -1 0 0
1354 14 86.26550537362031 14.996119642254643 0.05845937803801149 -1 0 0
1358 16 90.6761082136483 14.996119642254643 0.05845937803801089 -1 0 0
1359 3 88.20313726905604 17.13841804904866 -0.010871190727129677 -1 0 0
1356 2 86.00032963145807 14.996116815649719 2.7692589036157136 -1 0 0
1269 15 88.47119949295757 12.85381781673125 2.7034475273749976 -1 0 0
1360 4 90.41093247148608 14.996116815649719 2.7692589036157136 -1 0 0
1357 15 88.47119949295757 17.13841651143125 2.703447527374999 -1 0 0
1279 3 97.02434294911204 12.85381935434866 -0.010871190727129559 -1 0 0
1367 3 97.02434294911205 17.13841804904866 -0.01087119072712825 -1 0 0
1275 1 92.61374010908405 12.85381935434866 -0.010871190727129703 -1 0 0
1362 14 95.08671105367631 14.996119642254643 0.058459378038010795 -1 0 0
1363 1 92.61374010908405 17.13841804904866 -0.010871190727127977 -1 0 0
1273 13 92.88180233298557 12.85381781673125 2.7034475273749976 -1 0 0
1364 2 94.82153531151408 14.996116815649719 2.7692589036157145 -1 0 0
1361 13 92.88180233298557 17.13841651143125 2.7034475273749994 -1 0 0
1454 16 2.4640514130883053 19.280718336954642 0.05845937803801292 0 0 0
1459 1 4.4016833085240386 21.423016743748658 -0.010871190727128562 0 0 0
1456 4 2.1988756709260744 19.280715510349722 2.7692589036157154 0 0 0
1453 15 0.2591426923975692 21.42301520613125 2.703447527374999 0 0 0
1457 13 4.669745532425571 21.42301520613125 2.703447527375 0 0 0
1458 14 6.874654253116305 19.280718336954642 0.05845937803801313 0 0 0
1462 16 11.285257093144304 19.280718336954642 0.058459378038013626 0 0 0
1463 3 8.812286148552039 21.423016743748658 -0.010871190727128947 0 0 0
1460 2 6.609478510954075 19.28071551034972 2.769258903615715 0 0 0
1464 4 11.020081350982073 19.280715510349722 2.769258903615715 0 0 0
1461 15 9.08034837245357 21.42301520613125 2.703447527375 0 0 0
1466 14 15.695859933172306 19.280718336954642 0.058459378038012155 0 0 0
1467 1 13.222888988580037 21.423016743748658 -0.010871190727129677 0 0 0
1468 2 15.430684191010075 19.280715510349722 2.7692589036157145 0 0 0
1465 13 13.49095121248157 21.42301520613125 2.7034475273749994 0 0 0
1470 16 20.106462773200303 19.280718336954642 0.05845937803801404 0 0 0
1471 3 17.63349182860804 21.423016743748658 -0.010871190727128485 0 0 0
1475 1 22.044094668636035 21.423016743748658 -0.010871190727130269 0 0 0
1472 4 19.84128703103807 19.280715510349722 2.769258903615715 0 0 0
1469 15 17.90155405250957 21.42301520613125 2.7034475273750003 0 0 0
1473 13 22.312156892537566 21.42301520613125 2.703447527374999 0 0 0
1474 14 24.517065613228304 19.280718336954642 0.058459378038012766 0 0 0