LAMMPS data file via write_data, version 29 Aug 2024, timestep = 0, units = metal

2024 atoms
8 atom types

0 97.033262480616 xlo xhi
0 98.5457699781 ylo yhi
0 17.10979291 zlo zhi

Masses

1 78.95999999999999
2 78.95999999999999
3 78.95999999999999
4 118.71
5 118.71
6 118.71
7 118.71
8 78.971

Atoms # atomic

1015 3 0 6.090067800101906e-05 0.049891365527999554 0 0 0
1019 1 4.410602840027998 6.090067800101906e-05 0.049891365527999554 0 0 0
1023 3 8.821205680055996 6.090067800101906e-05 0.049891365527999554 0 0 0
1027 1 13.231808520083995 6.090067800101906e-05 0.049891365527999554 0 0 0
1031 3 17.642411360112 6.090067800101906e-05 0.049891365527999554 0 0 0
1035 1 22.05301420013999 6.090067800101906e-05 0.049891365527999554 0 0 0
1039 3 26.463617040167996 6.090067800101906e-05 0.049891365527999554 0 0 0
1043 1 30.874219880196 6.090067800101906e-05 0.049891365527999554 0 0 0
1047 3 35.28482272022399 6.090067800101906e-05 0.049891365527999554 0 0 0
1051 1 39.695425560252 6.090067800101906e-05 0.049891365527999554 0 0 0
1055 3 44.10602840028 6.090067800101906e-05 0.049891365527999554 0 0 0
971 1 48.516631240308 6.090067800101906e-05 0.049891365527999554 -1 0 0
975 3 52.927234080336 6.090067800101906e-05 0.049891365527999554 -1 0 0
979 1 57.337836920364 6.090067800101906e-05 0.049891365527999554 -1 0 0
983 3 61.748439760392 6.090067800101906e-05 0.049891365527999554 -1 0 0
987 1 66.15904260042001 6.090067800101906e-05 0.049891365527999554 -1 0 0
991 3 70.569645440448 6.090067800101906e-05 0.049891365527999554 -1 0 0
995 1 74.980248280476 6.090067800101906e-05 0.049891365527999554 -1 0 0
999 3 79.390851120504 6.090067800101906e-05 0.049891365527999554 -1 0 0
1003 1 83.801453960532 6.090067800101906e-05 0.049891365527999554 -1 0 0
1007 3 88.21205680055999 6.090067800101906e-05 0.049891365527999554 -1 0 0
1011 1 92.622659640588 6.090067800101906e-05 0.049891365527999554 -1 0 0
1102 8 2.456547327347998 2.142309756738001 0 0 0 0
1106 6 6.867150167375996 2.142309756738001 0 0 0 0
1110 8 11.277753007403994 2.142309756738001 0 0 0 0
1114 6 15.688355847432 2.142309756738001 0 0 0 0
1118 8 20.09895868745999 2.142309756738001 0 0 0 0
1122 6 24.509561527487996 2.142309756738001 0 0 0 0
1126 8 28.920164367516 2.142309756738001 0 0 0 0
1130 6 33.33076720754399 2.142309756738001 0 0 0 0
1134 8 37.741370047572 2.142309756738001 0 0 0 0
1138 6 42.1519728876 2.142309756738001 0 0 0 0
1142 8 46.562575727627994 2.142309756738001 0 0 0 0
1058 6 50.973178567656 2.142309756738001 0 -1 0 0
1062 8 55.383781407684 2.142309756738001 0 -1 0 0
1066 6 59.794384247712 2.142309756738001 0 -1 0 0
1070 8 64.20498708774 2.142309756738001 0 -1 0 0
1074 6 68.615589927768 2.142309756738001 0 -1 0 0
1078 8 73.026192767796 2.142309756738001 0 -1 0 0
1082 6 77.436795607824 2.142309756738001 0 -1 0 0
1086 8 81.847398447852 2.142309756738001 0 -1 0 0
1090 6 86.25800128788 2.142309756738001 0 -1 0 0
1094 8 90.668604127908 2.142309756738001 0 -1 0 0
1098 6 95.079206967936 2.142309756738001 0 -1 0 0
1103 3 0 4.2846595953780025 0.049891365527999554 0 0 0
1107 1 4.410602840027998 4.2846595953780025 0.049891365527999554 0 0 0
1111 3 8.821205680055996 4.2846595953780025 0.049891365527999554 0 0 0
1115 1 13.231808520083995 4.2846595953780025 0.049891365527999554 0 0 0
1119 3 17.642411360112 4.2846595953780025 0.049891365527999554 0 0 0
1123 1 22.05301420013999 4.2846595953780025 0.049891365527999554 0 0 0
1127 3 26.463617040167996 4.2846595953780025 0.049891365527999554 0 0 0
1131 1 30.874219880196 4.2846595953780025 0.049891365527999554 0 0 0
1135 3 35.28482272022399 4.2846595953780025 0.049891365527999554 0 0 0
1139 1 39.695425560252 4.2846595953780025 0.049891365527999554 0 0 0
1143 3 44.10602840028 4.2846595953780025 0.049891365527999554 0 0 0
1059 1 48.516631240308 4.2846595953780025 0.049891365527999554 -1 0 0
1063 3 52.927234080336 4.2846595953780025 0.049891365527999554 -1 0 0
1067 1 57.337836920364 4.2846595953780025 0.049891365527999554 -1 0 0
1071 3 61.748439760392 4.2846595953780025 0.049891365527999554 -1 0 0
1075 1 66.15904260042001 4.2846595953780025 0.049891365527999554 -1 0 0
1079 3 70.569645440448 4.2846595953780025 0.049891365527999554 -1 0 0
1083 1 74.980248280476 4.2846595953780025 0.049891365527999554 -1 0 0
1087 3 79.390851120504 4.2846595953780025 0.049891365527999554 -1 0 0
1091 1 83.801453960532 4.2846595953780025 0.049891365527999554 -1 0 0
1095 3 88.21205680055999 4.2846595953780025 0.049891365527999554 -1 0 0
1099 1 92.622659640588 4.2846595953780025 0.049891365527999554 -1 0 0
1190 8 2.456547327347998 6.426908451438003 0 0 0 0
1194 6 6.867150167375996 6.426908451438003 0 0 0 0
1198 8 11.277753007403994 6.426908451438003 0 0 0 0
1202 6 15.688355847432 6.426908451438003 0 0 0 0
1206 8 20.09895868745999 6.426908451438003 0 0 0 0
1210 6 24.509561527487996 6.426908451438003 0 0 0 0
1214 8 28.920164367516 6.426908451438003 0 0 0 0
1218 6 33.33076720754399 6.426908451438003 0 0 0 0
1222 8 37.741370047572 6.426908451438003 0 0 0 0
1226 6 42.1519728876 6.426908451438003 0 0 0 0
1230 8 46.562575727627994 6.426908451438003 0 0 0 0
1146 6 50.973178567656 6.426908451438003 0 -1 0 0
1150 8 55.383781407684 6.426908451438003 0 -1 0 0
1154 6 59.794384247712 6.426908451438003 0 -1 0 0
1158 8 64.20498708774 6.426908451438003 0 -1 0 0
1162 6 68.615589927768 6.426908451438003 0 -1 0 0
1166 8 73.026192767796 6.426908451438003 0 -1 0 0
1170 6 77.436795607824 6.426908451438003 0 -1 0 0
1174 8 81.847398447852 6.426908451438003 0 -1 0 0
1178 6 86.25800128788 6.426908451438003 0 -1 0 0
1182 8 90.668604127908 6.426908451438003 0 -1 0 0
1186 6 95.079206967936 6.426908451438003 0 -1 0 0
1191 3 0 8.569258290077997 0.049891365527999554 0 0 0
1195 1 4.410602840027998 8.569258290077997 0.049891365527999554 0 0 0
1199 3 8.821205680055996 8.569258290077997 0.049891365527999554 0 0 0
1203 1 13.231808520083995 8.569258290077997 0.049891365527999554 0 0 0
1207 3 17.642411360112 8.569258290077997 0.049891365527999554 0 0 0
1211 1 22.05301420013999 8.569258290077997 0.049891365527999554 0 0 0
1215 3 26.463617040167996 8.569258290077997 0.049891365527999554 0 0 0
1219 1 30.874219880196 8.569258290077997 0.049891365527999554 0 0 0
1223 3 35.28482272022399 8.569258290077997 0.049891365527999554 0 0 0
1227 1 39.695425560252 8.569258290077997 0.049891365527999554 0 0 0
1231 3 44.10602840028 8.569258290077997 0.049891365527999554 0 0 0
1147 1 48.516631240308 8.569258290077997 0.049891365527999554 -1 0 0
1151 3 52.927234080336 8.569258290077997 0.049891365527999554 -1 0 0
1155 1 57.337836920364 8.569258290077997 0.049891365527999554 -1 0 0
1159 3 61.748439760392 8.569258290077997 0.049891365527999554 -1 0 0
1163 1 66.15904260042001 8.569258290077997 0.049891365527999554 -1 0 0
1167 3 70.569645440448 8.569258290077997 0.049891365527999554 -1 0 0
1171 1 74.980248280476 8.569258290077997 0.049891365527999554 -1 0 0
1175 3 79.390851120504 8.569258290077997 0.049891365527999554 -1 0 0
1179 1 83.801453960532 8.569258290077997 0.049891365527999554 -1 0 0
1183 3 88.21205680055999 8.569258290077997 0.049891365527999554 -1 0 0
1187 1 92.622659640588 8.569258290077997 0.049891365527999554 -1 0 0
1278 8 2.456547327347998 10.711507146137997 0 0 0 0
1282 6 6.867150167375996 10.711507146137997 0 0 0 0
1286 8 11.277753007403994 10.711507146137997 0 0 0 0
1290 6 15.688355847432 10.711507146137997 0 0 0 0
1294 8 20.09895868745999 10.711507146137997 0 0 0 0
1298 6 24.509561527487996 10.711507146137997 0 0 0 0
1302 8 28.920164367516 10.711507146137997 0 0 0 0
1306 6 33.33076720754399 10.711507146137997 0 0 0 0
1310 8 37.741370047572 10.711507146137997 0 0 0 0
1314 6 42.1519728876 10.711507146137997 0 0 0 0
1318 8 46.562575727627994 10.711507146137997 0 0 0 0
1234 6 50.973178567656 10.711507146137997 0 -1 0 0
1238 8 55.383781407684 10.711507146137997 0 -1 0 0
1242 6 59.794384247712 10.711507146137997 0 -1 0 0
1246 8 64.20498708774 10.711507146137997 0 -1 0 0
1250 6 68.615589927768 10.711507146137997 0 -1 0 0
1254 8 73.026192767796 10.711507146137997 0 -1 0 0
1258 6 77.436795607824 10.711507146137997 0 -1 0 0
1262 8 81.847398447852 10.711507146137997 0 -1 0 0
1266 6 86.25800128788 10.711507146137997 0 -1 0 0
1270 8 90.668604127908 10.711507146137997 0 -1 0 0
1274 6 95.079206967936 10.711507146137997 0 -1 0 0
1279 3 0 12.853856984777998 0.049891365527999554 0 0 0
1283 1 4.410602840027998 12.853856984777998 0.049891365527999554 0 0 0
1287 3 8.821205680055996 12.853856984777998 0.049891365527999554 0 0 0
1291 1 13.231808520083995 12.853856984777998 0.049891365527999554 0 0 0
1295 3 17.642411360112 12.853856984777998 0.049891365527999554 0 0 0
1299 1 22.05301420013999 12.853856984777998 0.049891365527999554 0 0 0
1303 3 26.463617040167996 12.853856984777998 0.049891365527999554 0 0 0
1307 1 30.874219880196 12.853856984777998 0.049891365527999554 0 0 0
1311 3 35.28482272022399 12.853856984777998 0.049891365527999554 0 0 0
1315 1 39.695425560252 12.853856984777998 0.049891365527999554 0 0 0
1319 3 44.10602840028 12.853856984777998 0.049891365527999554 0 0 0
1235 1 48.516631240308 12.853856984777998 0.049891365527999554 -1 0 0
1239 3 52.927234080336 12.853856984777998 0.049891365527999554 -1 0 0
1243 1 57.337836920364 12.853856984777998 0.049891365527999554 -1 0 0
1247 3 61.748439760392 12.853856984777998 0.049891365527999554 -1 0 0
1251 1 66.15904260042001 12.853856984777998 0.049891365527999554 -1 0 0
1255 3 70.569645440448 12.853856984777998 0.049891365527999554 -1 0 0
1259 1 74.980248280476 12.853856984777998 0.049891365527999554 -1 0 0
1263 3 79.390851120504 12.853856984777998 0.049891365527999554 -1 0 0
1267 1 83.801453960532 12.853856984777998 0.049891365527999554 -1 0 0
1271 3 88.21205680055999 12.853856984777998 0.049891365527999554 -1 0 0
1275 1 92.622659640588 12.853856984777998 0.049891365527999554 -1 0 0
1366 8 2.456547327347998 14.996105840838005 0 0 0 0
1370 6 6.867150167375996 14.996105840838005 0 0 0 0
1374 8 11.277753007403994 14.996105840838005 0 0 0 0
1378 6 15.688355847432 14.996105840838005 0 0 0 0
1382 8 20.09895868745999 14.996105840838005 0 0 0 0
1386 6 24.509561527487996 14.996105840838005 0 0 0 0
1390 8 28.920164367516 14.996105840838005 0 0 0 0
1394 6 33.33076720754399 14.996105840838005 0 0 0 0
1398 8 37.741370047572 14.996105840838005 0 0 0 0
1402 6 42.1519728876 14.996105840838005 0 0 0 0
1406 8 46.562575727627994 14.996105840838005 0 0 0 0
1322 6 50.973178567656 14.996105840838005 0 -1 0 0
1326 8 55.383781407684 14.996105840838005 0 -1 0 0
1330 6 59.794384247712 14.996105840838005 0 -1 0 0
1334 8 64.20498708774 14.996105840838005 0 -1 0 0
1338 6 68.615589927768 14.996105840838005 0 -1 0 0
1342 8 73.026192767796 14.996105840838005 0 -1 0 0
1346 6 77.436795607824 14.996105840838005 0 -1 0 0
1350 8 81.847398447852 14.996105840838005 0 -1 0 0
1354 6 86.25800128788 14.996105840838005 0 -1 0 0
1358 8 90.668604127908 14.996105840838005 0 -1 0 0
1362 6 95.079206967936 14.996105840838005 0 -1 0 0
1367 3 0 17.138455679478007 0.049891365527999554 0 0 0
1371 1 4.410602840027998 17.138455679478007 0.049891365527999554 0 0 0
1375 3 8.821205680055996 17.138455679478007 0.049891365527999554 0 0 0
1379 1 13.231808520083995 17.138455679478007 0.049891365527999554 0 0 0
1383 3 17.642411360112 17.138455679478007 0.049891365527999554 0 0 0
1387 1 22.05301420013999 17.138455679478007 0.049891365527999554 0 0 0
1391 3 26.463617040167996 17.138455679478007 0.049891365527999554 0 0 0
1395 1 30.874219880196 17.138455679478007 0.049891365527999554 0 0 0
1399 3 35.28482272022399 17.138455679478007 0.049891365527999554 0 0 0
1403 1 39.695425560252 17.138455679478007 0.049891365527999554 0 0 0
1407 3 44.10602840028 17.138455679478007 0.049891365527999554 0 0 0
1323 1 48.516631240308 17.138455679478007 0.049891365527999554 -1 0 0
1327 3 52.927234080336 17.138455679478007 0.049891365527999554 -1 0 0
1331 1 57.337836920364 17.138455679478007 0.049891365527999554 -1 0 0
1335 3 61.748439760392 17.138455679478007 0.049891365527999554 -1 0 0
1339 1 66.15904260042001 17.138455679478007 0.049891365527999554 -1 0 0
1343 3 70.569645440448 17.138455679478007 0.049891365527999554 -1 0 0
1347 1 74.980248280476 17.138455679478007 0.049891365527999554 -1 0 0
1351 3 79.390851120504 17.138455679478007 0.049891365527999554 -1 0 0
1355 1 83.801453960532 17.138455679478007 0.049891365527999554 -1 0 0
1359 3 88.21205680055999 17.138455679478007 0.049891365527999554 -1 0 0
1363 1 92.622659640588 17.138455679478007 0.049891365527999554 -1 0 0
1454 8 2.456547327347998 19.280704535538 0 0 0 0
1458 6 6.867150167375996 19.280704535538 0 0 0 0
1462 8 11.277753007403994 19.280704535538 0 0 0 0
1466 6 15.688355847432 19.280704535538 0 0 0 0
1470 8 20.09895868745999 19.280704535538 0 0 0 0
1474 6 24.509561527487996 19.280704535538 0 0 0 0
1478 8 28.920164367516 19.280704535538 0 0 0 0
1482 6 33.33076720754399 19.280704535538 0 0 0 0
1486 8 37.741370047572 19.280704535538 0 0 0 0
1490 6 42.1519728876 19.280704535538 0 0 0 0
1494 8 46.562575727627994 19.280704535538 0 0 0 0
1410 6 50.973178567656 19.280704535538 0 -1 0 0
1414 8 55.383781407684 19.280704535538 0 -1 0 0
1418 6 59.794384247712 19.280704535538 0 -1 0 0
1422 8 64.20498708774 19.280704535538 0 -1 0 0
1426 6 68.615589927768 19.280704535538 0 -1 0 0
1430 8 73.026192767796 19.280704535538 0 -1 0 0
1434 6 77.436795607824 19.280704535538 0 -1 0 0
1438 8 81.847398447852 19.280704535538 0 -1 0 0
1442 6 86.25800128788 19.280704535538 0 -1 0 0
1446 8 90.668604127908 19.280704535538 0 -1 0 0
1450 6 95.079206967936 19.280704535538 0 -1 0 0
1455 3 0 21.423054374178 0.049891365527999554 0 0 0
1459 1 4.410602840027998 21.423054374178 0.049891365527999554 0 0 0
1463 3 8.821205680055996 21.423054374178 0.049891365527999554 0 0 0
1467 1 13.231808520083995 21.423054374178 0.049891365527999554 0 0 0
1471 3 17.642411360112 21.423054374178 0.049891365527999554 0 0 0
1475 1 22.05301420013999 21.423054374178 0.049891365527999554 0 0 0
1479 3 26.463617040167996 21.423054374178 0.049891365527999554 0 0 0
1483 1 30.874219880196 21.423054374178 0.049891365527999554 0 0 0
1487 3 35.28482272022399 21.423054374178 0.049891365527999554 0 0 0
1491 1 39.695425560252 21.423054374178 0.049891365527999554 0 0 0
1495 3 44.10602840028 21.423054374178 0.049891365527999554 0 0 0
1411 1 48.516631240308 21.423054374178 0.049891365527999554 -1 0 0
1415 3 52.927234080336 21.423054374178 0.049891365527999554 -1 0 0
1419 1 57.337836920364 21.423054374178 0.049891365527999554 -1 0 0
1423 3 61.748439760392 21.423054374178 0.049891365527999554 -1 0 0
1427 1 66.15904260042001 21.423054374178 0.049891365527999554 -1 0 0
1431 3 70.569645440448 21.423054374178 0.049891365527999554 -1 0 0
1435 1 74.980248280476 21.423054374178 0.049891365527999554 -1 0 0
1439 3 79.390851120504 21.423054374178 0.049891365527999554 -1 0 0
1443 1 83.801453960532 21.423054374178 0.049891365527999554 -1 0 0
1447 3 88.21205680055999 21.423054374178 0.049891365527999554 -1 0 0
1451 1 92.622659640588 21.423054374178 0.049891365527999554 -1 0 0
1542 8 2.456547327347998 23.565303230237994 0 0 0 0
1546 6 6.867150167375996 23.565303230237994 0 0 0 0
1550 8 11.277753007403994 23.565303230237994 0 0 0 0
1554 6 15.688355847432 23.565303230237994 0 0 0 0
1558 8 20.09895868745999 23.565303230237994 0 0 0 0
1562 6 24.509561527487996 23.565303230237994 0 0 0 0
1566 8 28.920164367516 23.565303230237994 0 0 0 0
1570 6 33.33076720754399 23.565303230237994 0 0 0 0
1574 8 37.741370047572 23.565303230237994 0 0 0 0
1578 6 42.1519728876 23.565303230237994 0 0 0 0
1582 8 46.562575727627994 23.565303230237994 0 0 0 0
1498 6 50.973178567656 23.565303230237994 0 -1 0 0
1502 8 55.383781407684 23.565303230237994 0 -1 0 0
1506 6 59.794384247712 23.565303230237994 0 -1 0 0
1510 8 64.20498708774 23.565303230237994 0 -1 0 0
1514 6 68.615589927768 23.565303230237994 0 -1 0 0
1518 8 73.026192767796 23.565303230237994 0 -1 0 0
1522 6 77.436795607824 23.565303230237994 0 -1 0 0
1526 8 81.847398447852 23.565303230237994 0 -1 0 0
1530 6 86.25800128788 23.565303230237994 0 -1 0 0
1534 8 90.668604127908 23.565303230237994 0 -1 0 0
1538 6 95.079206967936 23.565303230237994 0 -1 0 0
1543 3 0 25.707653068877995 0.049891365527999554 0 0 0
1547 1 4.410602840027998 25.707653068877995 0.049891365527999554 0 0 0
1551 3 8.821205680055996 25.707653068877995 0.049891365527999554 0 0 0
1555 1 13.231808520083995 25.707653068877995 0.049891365527999554 0 0 0
1559 3 17.642411360112 25.707653068877995 0.049891365527999554 0 0 0
1563 1 22.05301420013999 25.707653068877995 0.049891365527999554 0 0 0
1567 3 26.463617040167996 25.707653068877995 0.049891365527999554 0 0 0
1571 1 30.874219880196 25.707653068877995 0.049891365527999554 0 0 0
1575 3 35.28482272022399 25.707653068877995 0.049891365527999554 0 0 0
1579 1 39.695425560252 25.707653068877995 0.049891365527999554 0 0 0
1583 3 44.10602840028 25.707653068877995 0.049891365527999554 0 0 0
1499 1 48.516631240308 25.707653068877995 0.049891365527999554 -1 0 0
1503 3 52.927234080336 25.707653068877995 0.049891365527999554 -1 0 0
1507 1 57.337836920364 25.707653068877995 0.049891365527999554 -1 0 0
1511 3 61.748439760392 25.707653068877995 0.049891365527999554 -1 0 0
1515 1 66.15904260042001 25.707653068877995 0.049891365527999554 -1 0 0
1519 3 70.569645440448 25.707653068877995 0.049891365527999554 -1 0 0
1523 1 74.980248280476 25.707653068877995 0.049891365527999554 -1 0 0
1527 3 79.390851120504 25.707653068877995 0.049891365527999554 -1 0 0
1531 1 83.801453960532 25.707653068877995 0.049891365527999554 -1 0 0
1535 3 88.21205680055999 25.707653068877995 0.049891365527999554 -1 0 0
1539 1 92.622659640588 25.707653068877995 0.049891365527999554 -1 0 0
1630 8 2.456547327347998 27.849901924938003 0 0 0 0
1634 6 6.867150167375996 27.849901924938003 0 0 0 0
1638 8 11.277753007403994 27.849901924938003 0 0 0 0
1642 6 15.688355847432 27.849901924938003 0 0 0 0
1646 8 20.09895868745999 27.849901924938003 0 0 0 0
1650 6 24.509561527487996 27.849901924938003 0 0 0 0
1654 8 28.920164367516 27.849901924938003 0 0 0 0
1658 6 33.33076720754399 27.849901924938003 0 0 0 0
1662 8 37.741370047572 27.849901924938003 0 0 0 0
1666 6 42.1519728876 27.849901924938003 0 0 0 0
1670 8 46.562575727627994 27.849901924938003 0 0 0 0
1586 6 50.973178567656 27.849901924938003 0 -1 0 0
1590 8 55.383781407684 27.849901924938003 0 -1 0 0
1594 6 59.794384247712 27.849901924938003 0 -1 0 0
1598 8 64.20498708774 27.849901924938003 0 -1 0 0
1602 6 68.615589927768 27.849901924938003 0 -1 0 0
1606 8 73.026192767796 27.849901924938003 0 -1 0 0
1610 6 77.436795607824 27.849901924938003 0 -1 0 0
1614 8 81.847398447852 27.849901924938003 0 -1 0 0
1618 6 86.25800128788 27.849901924938003 0 -1 0 0
1622 8 90.668604127908 27.849901924938003 0 -1 0 0
1626 6 95.079206967936 27.849901924938003 0 -1 0 0
1631 3 0 29.992251763578004 0.049891365527999554 0 0 0
1635 1 4.410602840027998 29.992251763578004 0.049891365527999554 0 0 0
1639 3 8.821205680055996 29.992251763578004 0.049891365527999554 0 0 0
1643 1 13.231808520083995 29.992251763578004 0.049891365527999554 0 0 0
1647 3 17.642411360112 29.992251763578004 0.049891365527999554 0 0 0
1651 1 22.05301420013999 29.992251763578004 0.049891365527999554 0 0 0
1655 3 26.463617040167996 29.992251763578004 0.049891365527999554 0 0 0
1659 1 30.874219880196 29.992251763578004 0.049891365527999554 0 0 0
1663 3 35.28482272022399 29.992251763578004 0.049891365527999554 0 0 0
1667 1 39.695425560252 29.992251763578004 0.049891365527999554 0 0 0
1671 3 44.10602840028 29.992251763578004 0.049891365527999554 0 0 0
1587 1 48.516631240308 29.992251763578004 0.049891365527999554 -1 0 0
1591 3 52.927234080336 29.992251763578004 0.049891365527999554 -1 0 0
1595 1 57.337836920364 29.992251763578004 0.049891365527999554 -1 0 0
1599 3 61.748439760392 29.992251763578004 0.049891365527999554 -1 0 0
1603 1 66.15904260042001 29.992251763578004 0.049891365527999554 -1 0 0
1607 3 70.569645440448 29.992251763578004 0.049891365527999554 -1 0 0
1611 1 74.980248280476 29.992251763578004 0.049891365527999554 -1 0 0
1615 3 79.390851120504 29.992251763578004 0.049891365527999554 -1 0 0
1619 1 83.801453960532 29.992251763578004 0.049891365527999554 -1 0 0
1623 3 88.21205680055999 29.992251763578004 0.049891365527999554 -1 0 0
1627 1 92.622659640588 29.992251763578004 0.049891365527999554 -1 0 0
1718 8 2.456547327347998 32.134500619638 0 0 0 0
1722 6 6.867150167375996 32.134500619638 0 0 0 0
1726 8 11.277753007403994 32.134500619638 0 0 0 0
1730 6 15.688355847432 32.134500619638 0 0 0 0
1734 8 20.09895868745999 32.134500619638 0 0 0 0
1738 6 24.509561527487996 32.134500619638 0 0 0 0
1742 8 28.920164367516 32.134500619638 0 0 0 0
1746 6 33.33076720754399 32.134500619638 0 0 0 0
1750 8 37.741370047572 32.134500619638 0 0 0 0
1754 6 42.1519728876 32.134500619638 0 0 0 0
1758 8 46.562575727627994 32.134500619638 0 0 0 0
1674 6 50.973178567656 32.134500619638 0 -1 0 0
1678 8 55.383781407684 32.134500619638 0 -1 0 0
1682 6 59.794384247712 32.134500619638 0 -1 0 0
1686 8 64.20498708774 32.134500619638 0 -1 0 0
1690 6 68.615589927768 32.134500619638 0 -1 0 0
1694 8 73.026192767796 32.134500619638 0 -1 0 0
1698 6 77.436795607824 32.134500619638 0 -1 0 0
1702 8 81.847398447852 32.134500619638 0 -1 0 0
1706 6 86.25800128788 32.134500619638 0 -1 0 0
1710 8 90.668604127908 32.134500619638 0 -1 0 0
1714 6 95.079206967936 32.134500619638 0 -1 0 0
1719 3 0 34.276850458278 0.049891365527999554 0 0 0
1723 1 4.410602840027998 34.276850458278 0.049891365527999554 0 0 0
1727 3 8.821205680055996 34.276850458278 0.049891365527999554 0 0 0
1731 1 13.231808520083995 34.276850458278 0.049891365527999554 0 0 0
1735 3 17.642411360112 34.276850458278 0.049891365527999554 0 0 0
1739 1 22.05301420013999 34.276850458278 0.049891365527999554 0 0 0
1743 3 26.463617040167996 34.276850458278 0.049891365527999554 0 0 0
1747 1 30.874219880196 34.276850458278 0.049891365527999554 0 0 0
1751 3 35.28482272022399 34.276850458278 0.049891365527999554 0 0 0
1755 1 39.695425560252 34.276850458278 0.049891365527999554 0 0 0
1759 3 44.10602840028 34.276850458278 0.049891365527999554 0 0 0
1675 1 48.516631240308 34.276850458278 0.049891365527999554 -1 0 0
1679 3 52.927234080336 34.276850458278 0.049891365527999554 -1 0 0
1683 1 57.337836920364 34.276850458278 0.049891365527999554 -1 0 0
1687 3 61.748439760392 34.276850458278 0.049891365527999554 -1 0 0
1691 1 66.15904260042001 34.276850458278 0.049891365527999554 -1 0 0
1695 3 70.569645440448 34.276850458278 0.049891365527999554 -1 0 0
1699 1 74.980248280476 34.276850458278 0.049891365527999554 -1 0 0
1703 3 79.390851120504 34.276850458278 0.049891365527999554 -1 0 0
1707 1 83.801453960532 34.276850458278 0.049891365527999554 -1 0 0
1711 3 88.21205680055999 34.276850458278 0.049891365527999554 -1 0 0
1715 1 92.622659640588 34.276850458278 0.049891365527999554 -1 0 0
1806 8 2.456547327347998 36.419099314338006 0 0 0 0
1810 6 6.867150167375996 36.419099314338006 0 0 0 0
1814 8 11.277753007403994 36.419099314338006 0 0 0 0
1818 6 15.688355847432 36.419099314338006 0 0 0 0
1822 8 20.09895868745999 36.419099314338006 0 0 0 0
1826 6 24.509561527487996 36.419099314338006 0 0 0 0
1830 8 28.920164367516 36.419099314338006 0 0 0 0
1834 6 33.33076720754399 36.419099314338006 0 0 0 0
1838 8 37.741370047572 36.419099314338006 0 0 0 0
1842 6 42.1519728876 36.419099314338006 0 0 0 0
1846 8 46.562575727627994 36.419099314338006 0 0 0 0
1762 6 50.973178567656 36.419099314338006 0 -1 0 0
1766 8 55.383781407684 36.419099314338006 0 -1 0 0
1770 6 59.794384247712 36.419099314338006 0 -1 0 0
1774 8 64.20498708774 36.419099314338006 0 -1 0 0
1778 6 68.615589927768 36.419099314338006 0 -1 0 0
1782 8 73.026192767796 36.419099314338006 0 -1 0 0
1786 6 77.436795607824 36.419099314338006 0 -1 0 0
1790 8 81.847398447852 36.419099314338006 0 -1 0 0
1794 6 86.25800128788 36.419099314338006 0 -1 0 0
1798 8 90.668604127908 36.419099314338006 0 -1 0 0
1802 6 95.079206967936 36.419099314338006 0 -1 0 0
1807 3 0 38.56144915297801 0.049891365527999554 0 0 0
1811 1 4.410602840027998 38.56144915297801 0.049891365527999554 0 0 0
1815 3 8.821205680055996 38.56144915297801 0.049891365527999554 0 0 0
1819 1 13.231808520083995 38.56144915297801 0.049891365527999554 0 0 0
1823 3 17.642411360112 38.56144915297801 0.049891365527999554 0 0 0
1827 1 22.05301420013999 38.56144915297801 0.049891365527999554 0 0 0
1831 3 26.463617040167996 38.56144915297801 0.049891365527999554 0 0 0
1835 1 30.874219880196 38.56144915297801 0.049891365527999554 0 0 0
1839 3 35.28482272022399 38.56144915297801 0.049891365527999554 0 0 0
1843 1 39.695425560252 38.56144915297801 0.049891365527999554 0 0 0
1847 3 44.10602840028 38.56144915297801 0.049891365527999554 0 0 0
1763 1 48.516631240308 38.56144915297801 0.049891365527999554 -1 0 0
1767 3 52.927234080336 38.56144915297801 0.049891365527999554 -1 0 0
1771 1 57.337836920364 38.56144915297801 0.049891365527999554 -1 0 0
1775 3 61.748439760392 38.56144915297801 0.049891365527999554 -1 0 0
1779 1 66.15904260042001 38.56144915297801 0.049891365527999554 -1 0 0
1783 3 70.569645440448 38.56144915297801 0.049891365527999554 -1 0 0
1787 1 74.980248280476 38.56144915297801 0.049891365527999554 -1 0 0
1791 3 79.390851120504 38.56144915297801 0.049891365527999554 -1 0 0
1795 1 83.801453960532 38.56144915297801 0.049891365527999554 -1 0 0
1799 3 88.21205680055999 38.56144915297801 0.049891365527999554 -1 0 0
1803 1 92.622659640588 38.56144915297801 0.049891365527999554 -1 0 0
1894 8 2.456547327347998 40.703698009038 0 0 0 0
1898 6 6.867150167375996 40.703698009038 0 0 0 0
1902 8 11.277753007403994 40.703698009038 0 0 0 0
1906 6 15.688355847432 40.703698009038 0 0 0 0
1910 8 20.09895868745999 40.703698009038 0 0 0 0
1914 6 24.509561527487996 40.703698009038 0 0 0 0
1918 8 28.920164367516 40.703698009038 0 0 0 0
1922 6 33.33076720754399 40.703698009038 0 0 0 0
1926 8 37.741370047572 40.703698009038 0 0 0 0
1930 6 42.1519728876 40.703698009038 0 0 0 0
1934 8 46.562575727627994 40.703698009038 0 0 0 0
1850 6 50.973178567656 40.703698009038 0 -1 0 0
1854 8 55.383781407684 40.703698009038 0 -1 0 0
1858 6 59.794384247712 40.703698009038 0 -1 0 0
1862 8 64.20498708774 40.703698009038 0 -1 0 0
1866 6 68.615589927768 40.703698009038 0 -1 0 0
1870 8 73.026192767796 40.703698009038 0 -1 0 0
1874 6 77.436795607824 40.703698009038 0 -1 0 0
1878 8 81.847398447852 40.703698009038 0 -1 0 0
1882 6 86.25800128788 40.703698009038 0 -1 0 0
1886 8 90.668604127908 40.703698009038 0 -1 0 0
1890 6 95.079206967936 40.703698009038 0 -1 0 0
1895 3 0 42.846047847678 0.049891365527999554 0 0 0
1899 1 4.410602840027998 42.846047847678 0.049891365527999554 0 0 0
1903 3 8.821205680055996 42.846047847678 0.049891365527999554 0 0 0
1907 1 13.231808520083995 42.846047847678 0.049891365527999554 0 0 0
1911 3 17.642411360112 42.846047847678 0.049891365527999554 0 0 0
1915 1 22.05301420013999 42.846047847678 0.049891365527999554 0 0 0
1919 3 26.463617040167996 42.846047847678 0.049891365527999554 0 0 0
1923 1 30.874219880196 42.846047847678 0.049891365527999554 0 0 0
1927 3 35.28482272022399 42.846047847678 0.049891365527999554 0 0 0
1931 1 39.695425560252 42.846047847678 0.049891365527999554 0 0 0
1935 3 44.10602840028 42.846047847678 0.049891365527999554 0 0 0
1851 1 48.516631240308 42.846047847678 0.049891365527999554 -1 0 0
1855 3 52.927234080336 42.846047847678 0.049891365527999554 -1 0 0
1859 1 57.337836920364 42.846047847678 0.049891365527999554 -1 0 0
1863 3 61.748439760392 42.846047847678 0.049891365527999554 -1 0 0
1867 1 66.15904260042001 42.846047847678 0.049891365527999554 -1 0 0
1871 3 70.569645440448 42.846047847678 0.049891365527999554 -1 0 0
1875 1 74.980248280476 42.846047847678 0.049891365527999554 -1 0 0
1879 3 79.390851120504 42.846047847678 0.049891365527999554 -1 0 0
1883 1 83.801453960532 42.846047847678 0.049891365527999554 -1 0 0
1887 3 88.21205680055999 42.846047847678 0.049891365527999554 -1 0 0
1891 1 92.622659640588 42.846047847678 0.049891365527999554 -1 0 0
1982 8 2.456547327347998 44.988296703737994 0 0 0 0
1986 6 6.867150167375996 44.988296703737994 0 0 0 0
1990 8 11.277753007403994 44.988296703737994 0 0 0 0
1994 6 15.688355847432 44.988296703737994 0 0 0 0
1998 8 20.09895868745999 44.988296703737994 0 0 0 0
2002 6 24.509561527487996 44.988296703737994 0 0 0 0
2006 8 28.920164367516 44.988296703737994 0 0 0 0
2010 6 33.33076720754399 44.988296703737994 0 0 0 0
2014 8 37.741370047572 44.988296703737994 0 0 0 0
2018 6 42.1519728876 44.988296703737994 0 0 0 0
2022 8 46.562575727627994 44.988296703737994 0 0 0 0
1938 6 50.973178567656 44.988296703737994 0 -1 0 0
1942 8 55.383781407684 44.988296703737994 0 -1 0 0
1946 6 59.794384247712 44.988296703737994 0 -1 0 0
1950 8 64.20498708774 44.988296703737994 0 -1 0 0
1954 6 68.615589927768 44.988296703737994 0 -1 0 0
1958 8 73.026192767796 44.988296703737994 0 -1 0 0
1962 6 77.436795607824 44.988296703737994 0 -1 0 0
1966 8 81.847398447852 44.988296703737994 0 -1 0 0
1970 6 86.25800128788 44.988296703737994 0 -1 0 0
1974 8 90.668604127908 44.988296703737994 0 -1 0 0
1978 6 95.079206967936 44.988296703737994 0 -1 0 0
1983 3 0 47.130646542377995 0.049891365527999554 0 0 0
1987 1 4.410602840027998 47.130646542377995 0.049891365527999554 0 0 0
1991 3 8.821205680055996 47.130646542377995 0.049891365527999554 0 0 0
1995 1 13.231808520083995 47.130646542377995 0.049891365527999554 0 0 0
1999 3 17.642411360112 47.130646542377995 0.049891365527999554 0 0 0
2003 1 22.05301420013999 47.130646542377995 0.049891365527999554 0 0 0
2007 3 26.463617040167996 47.130646542377995 0.049891365527999554 0 0 0
2011 1 30.874219880196 47.130646542377995 0.049891365527999554 0 0 0
2015 3 35.28482272022399 47.130646542377995 0.049891365527999554 0 0 0
2019 1 39.695425560252 47.130646542377995 0.049891365527999554 0 0 0
2023 3 44.10602840028 47.130646542377995 0.049891365527999554 0 0 0
1939 1 48.516631240308 47.130646542377995 0.049891365527999554 -1 0 0
1943 3 52.927234080336 47.130646542377995 0.049891365527999554 -1 0 0