LAMMPS data file via write_data, version 29 Aug 2024, timestep = 3, units = metal

4048 atoms
16 atom types

0 97.033262480616 xlo xhi
0 98.5457699781 ylo yhi
-50 50 zlo zhi

Masses

1 118.71
2 118.71
3 118.71
4 118.71
5 118.71
6 118.71
7 118.71
8 118.71
9 78.971
10 78.971
11 78.971
12 78.971
13 78.971
14 78.971
15 78.971
16 78.971

Atoms # atomic

1019 1 4.401666549423278 2.3291997129660146e-05 -0.010904983921745425 0 0 0
1102 12 2.464023915305286 2.142323452598512 0.05843974326687996 0 0 0
1107 1 4.401666549423279 4.284621986697132 -0.010904983921743333 0 0 0
1013 11 0.2591436200147834 2.1763416756643967e-05 2.7031781567584607 0 0 0
1104 4 2.198907609877675 2.142320781018835 2.7689302023414184 0 0 0
1017 9 4.669746460042784 2.1763416756487933e-05 2.703178156758461 0 0 0
1101 11 0.2591436200147836 4.284620458116757 2.7031781567584634 0 0 0
1105 9 4.669746460042784 4.284620458116757 2.703178156758464 0 0 0
1023 3 8.812269389451277 2.3291997129569934e-05 -0.010904983921746107 0 0 0
1106 10 6.874626755333285 2.1423234525985118 0.05843974326687989 0 0 0
1110 12 11.285229595361283 2.142323452598512 0.05843974326688038 0 0 0
1111 3 8.812269389451277 4.284621986697132 -0.010904983921743841 0 0 0
1108 2 6.609510449905676 2.142320781018835 2.768930202341418 0 0 0
1021 11 9.080349300070782 2.176341675656419e-05 2.7031781567584616 0 0 0
1112 4 11.020113289933674 2.142320781018835 2.768930202341418 0 0 0
1109 11 9.080349300070782 4.284620458116757 2.703178156758464 0 0 0
1027 1 13.222872229479275 2.3291997129816322e-05 -0.010904983921746613 0 0 0
1114 10 15.695832435389287 2.142323452598512 0.05843974326687955 0 0 0
1115 1 13.222872229479277 4.284621986697132 -0.010904983921744249 0 0 0
1025 9 13.490952140098784 2.1763416756368207e-05 2.7031781567584607 0 0 0
1116 2 15.430716129961676 2.142320781018835 2.768930202341417 0 0 0
1113 9 13.490952140098784 4.284620458116757 2.7031781567584634 0 0 0
1031 3 17.633475069507277 2.3291997129957915e-05 -0.01090498392174544 0 0 0
1035 1 22.04407790953527 2.3291997129560786e-05 -0.010904983921747087 0 0 0
1118 12 20.106435275417283 2.142323452598512 0.05843974326688095 0 0 0
1119 3 17.63347506950728 4.284621986697132 -0.010904983921743284 0 0 0
1123 1 22.044077909535275 4.284621986697132 -0.010904983921744769 0 0 0
1029 11 17.90155498012678 2.1763416759387564e-05 2.7031781567584616 0 0 0
1120 4 19.841318969989672 2.142320781018835 2.7689302023414184 0 0 0
1033 9 22.31215782015478 2.1763416756619562e-05 2.703178156758461 0 0 0
1117 11 17.901554980126782 4.284620458116758 2.7031781567584647 0 0 0
1121 9 22.31215782015478 4.284620458116757 2.703178156758464 0 0 0
1039 3 26.454680749563277 2.3291997130049666e-05 -0.010904983921745744 0 0 0
1122 10 24.517038115445285 2.1423234525985113 0.05843974326688062 0 0 0
1127 3 26.454680749563277 4.284621986697132 -0.010904983921744316 0 0 0
1124 2 24.251921810017674 2.1423207810188347 2.768930202341417 0 0 0
1037 11 26.722760660182786 2.176341675668206e-05 2.7031781567584607 0 0 0
1125 11 26.722760660182786 4.284620458116757 2.703178156758464 0 0 0
1043 1 30.86528358959128 2.32919971296623e-05 -0.010904983921745473 0 0 0
1126 12 28.92764095547329 2.142323452598512 0.0584397432668792 0 0 0
1130 10 33.338243795501285 2.1423234525985118 0.058439743266881124 0 0 0
1131 1 30.865283589591282 4.284621986697132 -0.010904983921743147 0 0 0
1128 4 28.66252465004568 2.1423207810188347 2.768930202341417 0 0 0
1041 9 31.133363500210784 2.1763416756795633e-05 2.7031781567584616 0 0 0
1132 2 33.073127490073674 2.1423207810188356 2.7689302023414184 0 0 0
1129 9 31.133363500210784 4.284620458116757 2.7031781567584643 0 0 0
1047 3 35.27588642961928 2.3291997129673644e-05 -0.010904983921746922 0 0 0
1051 1 39.686489269647275 2.3291997129671114e-05 -0.010904983921745624 0 0 0
1134 12 37.74884663552928 2.1423234525985118 0.058439743266880013 0 0 0
1135 3 35.27588642961928 4.284621986697132 -0.01090498392174508 0 0 0
1139 1 39.68648926964728 4.284621986697132 -0.010904983921743517 0 0 0
1045 11 35.543966340238775 2.1763416756768708e-05 2.7031781567584603 0 0 0
1136 4 37.48373033010167 2.1423207810188343 2.768930202341417 0 0 0
1049 9 39.95456918026678 2.176341675677233e-05 2.703178156758461 0 0 0
1133 11 35.54396634023878 4.284620458116757 2.703178156758463 0 0 0
1137 9 39.95456918026679 4.284620458116757 2.7031781567584634 0 0 0
1055 3 44.09709210967528 2.3291997129867273e-05 -0.010904983921746141 0 0 0
1138 10 42.15944947555729 2.142323452598512 0.05843974326687856 0 0 0
1143 3 44.09709210967528 4.28462198669713 -0.010904983921743456 0 0 0
1140 2 41.89433317012968 2.1423207810188343 2.7689302023414166 0 0 0
1053 11 44.36517202029478 2.176341675699346e-05 2.70317815675846 0 0 0
1141 11 44.36517202029478 4.284620458116757 2.703178156758462 0 0 0
971 1 48.50769494970328 2.329199712956974e-05 -0.010904983921744268 -1 0 0
1142 12 46.570052315585286 2.142323452598512 0.05843974326687986 0 0 0
1058 10 50.980655155613285 2.1423234525985118 0.058439743266880013 -1 0 0
1059 1 48.50769494970328 4.284621986697132 -0.010904983921741735 -1 0 0
1144 4 46.30493601015767 2.1423207810188356 2.7689302023414197 0 0 0
969 9 48.77577486032279 2.1763416756936773e-05 2.703178156758461 -1 0 0
1060 2 50.71553885018568 2.1423207810188356 2.768930202341418 -1 0 0
1057 9 48.77577486032279 4.284620458116757 2.7031781567584634 -1 0 0
975 3 52.918297789731284 2.3291997129693865e-05 -0.010904983921746651 -1 0 0
1062 12 55.39125799564129 2.1423234525985118 0.05843974326688102 -1 0 0
1063 3 52.918297789731284 4.284621986697132 -0.010904983921743702 -1 0 0
973 11 53.18637770035079 2.176341675676967e-05 2.7031781567584616 -1 0 0
1064 4 55.12614169021368 2.1423207810188356 2.7689302023414175 -1 0 0
1061 11 53.18637770035078 4.284620458116757 2.703178156758464 -1 0 0
979 1 57.328900629759275 2.329199712965736e-05 -0.010904983921746823 -1 0 0
983 3 61.73950346978729 2.3291997129667874e-05 -0.010904983921745985 -1 0 0
1066 10 59.80186083566929 2.1423234525985118 0.058439743266879396 -1 0 0
1067 1 57.32890062975928 4.284621986697132 -0.01090498392174506 -1 0 0
1071 3 61.73950346978729 4.284621986697132 -0.010904983921743407 -1 0 0
977 9 57.59698054037878 2.1763416756786086e-05 2.7031781567584603 -1 0 0
1068 2 59.53674453024168 2.1423207810188343 2.7689302023414175 -1 0 0
981 11 62.00758338040679 2.1763416757067734e-05 2.7031781567584616 -1 0 0
1065 9 57.59698054037879 4.284620458116757 2.703178156758463 -1 0 0
1069 11 62.007583380406786 4.284620458116757 2.703178156758464 -1 0 0
987 1 66.15010630981529 2.3291997129533098e-05 -0.010904983921745494 -1 0 0
1070 12 64.2124636756973 2.1423234525985118 0.05843974326688003 -1 0 0
1075 1 66.15010630981529 4.284621986697132 -0.010904983921744292 -1 0 0
1072 4 63.94734737026968 2.1423207810188356 2.768930202341417 -1 0 0
985 9 66.41818622043479 2.1763416756621714e-05 2.7031781567584616 -1 0 0
1076 2 68.35795021029767 2.142320781018833 2.7689302023414175 -1 0 0
1073 9 66.41818622043479 4.284620458116757 2.7031781567584647 -1 0 0
991 3 70.56070914984328 2.3291997129575267e-05 -0.010904983921746311 -1 0 0
1074 10 68.62306651572528 2.1423234525985113 0.05843974326687986 -1 0 0
1078 12 73.03366935575329 2.1423234525985118 0.05843974326687707 -1 0 0
1079 3 70.56070914984328 4.284621986697132 -0.010904983921743671 -1 0 0
989 11 70.82878906046278 2.1763416754280193e-05 2.7031781567584603 -1 0 0
1080 4 72.76855305032568 2.142320781018836 2.7689302023414184 -1 0 0
1077 11 70.82878906046278 4.284620458116757 2.7031781567584616 -1 0 0
995 1 74.97131198987128 2.329199712959927e-05 -0.010904983921744455 -1 0 0
999 3 79.38191482989927 2.3291997129641755e-05 -0.01090498392174635 -1 0 0
1082 10 77.44427219578128 2.1423234525985113 0.05843974326688055 -1 0 0
1083 1 74.97131198987128 4.284621986697132 -0.010904983921742571 -1 0 0
1087 3 79.38191482989927 4.284621986697132 -0.010904983921743818 -1 0 0
993 9 75.23939190049079 2.1763416756589242e-05 2.7031781567584607 -1 0 0
1084 2 77.17915589035367 2.142320781018833 2.7689302023414193 -1 0 0
997 11 79.64999474051879 2.1763416756730005e-05 2.703178156758462 -1 0 0
1081 9 75.23939190049079 4.284620458116757 2.7031781567584643 -1 0 0
1085 11 79.64999474051879 4.284620458116757 2.7031781567584647 -1 0 0
1003 1 83.79251766992728 2.3291997129568765e-05 -0.010904983921745841 -1 0 0
1086 12 81.85487503580929 2.1423234525985118 0.05843974326687999 -1 0 0
1091 1 83.79251766992728 4.284621986697132 -0.010904983921743825 -1 0 0
1088 4 81.58975873038167 2.1423207810188356 2.7689302023414175 -1 0 0
1001 9 84.06059758054678 2.1763416754279204e-05 2.7031781567584607 -1 0 0
1089 9 84.06059758054678 4.284620458116757 2.703178156758462 -1 0 0
1007 3 88.20312050995528 2.329199712942381e-05 -0.010904983921746521 -1 0 0
1090 10 86.26547787583729 2.142323452598512 0.05843974326687826 -1 0 0
1094 12 90.67608071586528 2.1423234525985118 0.05843974326688082 -1 0 0
1095 3 88.20312050995528 4.284621986697132 -0.01090498392174332 -1 0 0
1092 2 86.00036157040968 2.142320781018836 2.7689302023414193 -1 0 0
1005 11 88.47120042057479 2.1763416756800546e-05 2.7031781567584625 -1 0 0
1096 4 90.41096441043767 2.1423207810188356 2.768930202341417 -1 0 0
1093 11 88.47120042057479 4.284620458116757 2.7031781567584647 -1 0 0
1015 3 97.02432619001128 2.3291997131044157e-05 -0.010904983921746166 -1 0 0
1103 3 97.02432619001128 4.2846219866971325 -0.010904983921742705 -1 0 0
1011 1 92.61372334998327 2.3291997129519495e-05 -0.010904983921746447 -1 0 0
1098 10 95.08668355589329 2.142323452598511 0.058439743266878875 -1 0 0
1099 1 92.61372334998327 4.284621986697132 -0.010904983921744372 -1 0 0
1009 9 92.88180326060278 2.1763416754333224e-05 2.7031781567584607 -1 0 0
1100 2 94.82156725046568 2.142320781018836 2.768930202341419 -1 0 0
1097 9 92.88180326060278 4.284620458116757 2.703178156758462 -1 0 0
1190 12 2.4640239153052863 6.426922147298512 0.05843974326688159 0 0 0
1195 1 4.40166654942328 8.56922068139713 -0.010904983921742672 0 0 0
1278 12 2.464023915305286 10.71152084199851 0.05843974326688075 0 0 0
1192 4 2.1989076098776756 6.426919475718836 2.76893020234142 0 0 0
1189 11 0.25914362001478375 8.569219152816757 2.703178156758464 0 0 0
1193 9 4.669746460042784 8.569219152816757 2.7031781567584643 0 0 0
1280 4 2.1989076098776756 10.711518170418836 2.768930202341419 0 0 0
1194 10 6.874626755333285 6.426922147298512 0.05843974326688202 0 0 0
1198 12 11.285229595361285 6.426922147298512 0.058439743266882324 0 0 0
1199 3 8.812269389451279 8.56922068139713 -0.010904983921743485 0 0 0
1282 10 6.874626755333286 10.71152084199851 0.058439743266880784 0 0 0
1286 12 11.285229595361283 10.71152084199851 0.05843974326688131 0 0 0
1196 2 6.6095104499056765 6.426919475718836 2.7689302023414193 0 0 0
1200 4 11.020113289933676 6.426919475718836 2.768930202341419 0 0 0
1197 11 9.080349300070782 8.569219152816757 2.7031781567584643 0 0 0
1284 2 6.609510449905676 10.711518170418836 2.7689302023414184 0 0 0
1288 4 11.020113289933674 10.711518170418836 2.7689302023414184 0 0 0
1202 10 15.695832435389287 6.426922147298512 0.05843974326688074 0 0 0
1203 1 13.222872229479277 8.56922068139713 -0.010904983921743966 0 0 0
1290 10 15.695832435389288 10.71152084199851 0.058439743266880326 0 0 0
1204 2 15.430716129961676 6.426919475718836 2.768930202341419 0 0 0
1201 9 13.490952140098782 8.569219152816757 2.7031781567584634 0 0 0
1292 2 15.430716129961676 10.711518170418834 2.7689302023414175 0 0 0
1206 12 20.106435275417283 6.426922147298512 0.05843974326688284 0 0 0
1207 3 17.63347506950728 8.56922068139713 -0.01090498392174244 0 0 0
1211 1 22.044077909535275 8.56922068139713 -0.010904983921744486 0 0 0
1294 12 20.106435275417283 10.711520841998512 0.05843974326688167 0 0 0
1208 4 19.841318969989675 6.426919475718836 2.7689302023414197 0 0 0
1205 11 17.901554980126782 8.569219152816757 2.7031781567584647 0 0 0
1209 9 22.31215782015478 8.569219152816757 2.703178156758464 0 0 0
1296 4 19.841318969989672 10.711518170418834 2.768930202341419 0 0 0
1210 10 24.517038115445285 6.426922147298512 0.05843974326688232 0 0 0
1215 3 26.45468074956328 8.56922068139713 -0.010904983921743432 0 0 0
1298 10 24.517038115445285 10.71152084199851 0.05843974326688092 0 0 0
1212 2 24.251921810017674 6.426919475718836 2.768930202341419 0 0 0
1213 11 26.722760660182786 8.569219152816757 2.703178156758464 0 0 0
1300 2 24.251921810017674 10.711518170418834 2.7689302023414175 0 0 0
1214 12 28.927640955473287 6.426922147298512 0.05843974326688069 0 0 0
1218 10 33.33824379550128 6.426922147298511 0.058439743266883185 0 0 0
1219 1 30.865283589591282 8.56922068139713 -0.010904983921742738 0 0 0
1302 12 28.92764095547329 10.711520841998512 0.05843974326688002 0 0 0
1306 10 33.338243795501285 10.71152084199851 0.058439743266882276 0 0 0
1216 4 28.66252465004568 6.426919475718836 2.7689302023414184 0 0 0
1220 2 33.073127490073674 6.426919475718836 2.7689302023414206 0 0 0
1217 9 31.13336350021078 8.569219152816757 2.7031781567584647 0 0 0
1304 4 28.66252465004568 10.711518170418836 2.7689302023414175 0 0 0
1308 2 33.073127490073674 10.711518170418834 2.7689302023414193 0 0 0
1222 12 37.74884663552928 6.426922147298511 0.05843974326688202 0 0 0
1223 3 35.27588642961928 8.56922068139713 -0.010904983921744674 0 0 0
1227 1 39.68648926964728 8.56922068139713 -0.010904983921743158 0 0 0
1310 12 37.74884663552928 10.711520841998512 0.058439743266880895 0 0 0
1224 4 37.48373033010167 6.426919475718836 2.768930202341419 0 0 0
1221 11 35.54396634023878 8.569219152816757 2.7031781567584634 0 0 0
1225 9 39.95456918026679 8.569219152816757 2.7031781567584634 0 0 0
1312 4 37.48373033010167 10.711518170418836 2.768930202341418 0 0 0
1226 10 42.15944947555729 6.426922147298511 0.05843974326687931 0 0 0
1231 3 44.09709210967529 8.56922068139713 -0.0109049839217428 0 0 0
1314 10 42.15944947555729 10.711520841998512 0.0584397432668785 0 0 0
1228 2 41.89433317012968 6.426919475718836 2.7689302023414184 0 0 0
1229 11 44.36517202029478 8.569219152816757 2.703178156758463 0 0 0
1316 2 41.89433317012968 10.711518170418836 2.7689302023414175 0 0 0
1230 12 46.570052315585286 6.426922147298511 0.05843974326688171 0 0 0
1146 10 50.980655155613285 6.426922147298511 0.05843974326688124 -1 0 0
1147 1 48.50769494970328 8.56922068139713 -0.010904983921741232 -1 0 0
1318 12 46.570052315585286 10.71152084199851 0.05843974326688069 0 0 0
1234 10 50.98065515561329 10.711520841998512 0.05843974326688053 -1 0 0
1232 4 46.30493601015767 6.426919475718836 2.7689302023414215 0 0 0
1148 2 50.71553885018568 6.426919475718836 2.7689302023414197 -1 0 0
1145 9 48.77577486032279 8.569219152816757 2.703178156758464 -1 0 0
1320 4 46.30493601015767 10.711518170418834 2.76893020234142 0 0 0
1236 2 50.71553885018568 10.711518170418836 2.7689302023414184 -1 0 0
1150 12 55.39125799564128 6.426922147298511 0.05843974326688283 -1 0 0
1151 3 52.918297789731284 8.56922068139713 -0.010904983921743541 -1 0 0
1238 12 55.39125799564129 10.71152084199851 0.058439743266881915 -1 0 0
1152 4 55.12614169021368 6.426919475718836 2.7689302023414193 -1 0 0
1149 11 53.18637770035078 8.569219152816757 2.7031781567584643 -1 0 0
1240 4 55.12614169021368 10.711518170418836 2.7689302023414184 -1 0 0
1154 10 59.80186083566929 6.426922147298511 0.05843974326688105 -1 0 0
1155 1 57.32890062975928 8.56922068139713 -0.010904983921744233 -1 0 0
1159 3 61.73950346978729 8.56922068139713 -0.010904983921742946 -1 0 0
1242 10 59.80186083566929 10.711520841998512 0.05843974326687994 -1 0 0
1156 2 59.53674453024168 6.426919475718836 2.768930202341419 -1 0 0
1153 9 57.59698054037879 8.569219152816757 2.703178156758463 -1 0 0
1157 11 62.007583380406786 8.569219152816757 2.7031781567584643 -1 0 0
1244 2 59.53674453024168 10.711518170418836 2.7689302023414175 -1 0 0
1158 12 64.2124636756973 6.426922147298511 0.05843974326688249 -1 0 0
1163 1 66.15010630981529 8.56922068139713 -0.010904983921743671 -1 0 0
1246 12 64.2124636756973 10.71152084199851 0.058439743266881526 -1 0 0
1160 4 63.94734737026968 6.426919475718836 2.768930202341419 -1 0 0
1164 2 68.35795021029769 6.426919475718836 2.7689302023414184 -1 0 0
1161 9 66.41818622043479 8.569219152816757 2.703178156758465 -1 0 0
1248 4 63.94734737026968 10.711518170418836 2.768930202341418 -1 0 0
1252 2 68.35795021029769 10.711518170418836 2.7689302023414175 -1 0 0
1162 10 68.62306651572528 6.426922147298512 0.05843974326688108 -1 0 0
1166 12 73.03366935575329 6.426922147298512 0.058439743266879396 -1 0 0
1167 3 70.56070914984328 8.56922068139713 -0.010904983921743366 -1 0 0
1250 10 68.62306651572528 10.711520841998512 0.05843974326688007 -1 0 0
1254 12 73.03366935575329 10.711520841998512 0.05843974326687836 -1 0 0
1168 4 72.76855305032568 6.426919475718836 2.7689302023414206 -1 0 0
1165 11 70.82878906046278 8.569219152816757 2.703178156758462 -1 0 0
1256 4 72.76855305032568 10.711518170418836 2.7689302023414193 -1 0 0
1170 10 77.44427219578128 6.426922147298512 0.05843974326688185 -1 0 0
1171 1 74.97131198987128 8.56922068139713 -0.010904983921741964 -1 0 0
1175 3 79.38191482989927 8.56922068139713 -0.010904983921743399 -1 0 0
1258 10 77.44427219578128 10.711520841998512 0.05843974326688082 -1 0 0
1172 2 77.17915589035368 6.426919475718836 2.7689302023414197 -1 0 0
1169 9 75.23939190049079 8.569219152816757 2.7031781567584647 -1 0 0
1173 11 79.64999474051879 8.569219152816757 2.7031781567584647 -1 0 0
1260 2 77.17915589035368 10.711518170418836 2.7689302023414193 -1 0 0
1174 12 81.85487503580929 6.426922147298512 0.058439743266881616 -1 0 0
1179 1 83.79251766992728 8.56922068139713 -0.010904983921743203 -1 0 0
1262 12 81.85487503580929 10.711520841998512 0.05843974326688051 -1 0 0
1176 4 81.58975873038167 6.426919475718836 2.768930202341419 -1 0 0
1177 9 84.06059758054678 8.569219152816757 2.7031781567584625 -1 0 0
1264 4 81.58975873038167 10.711518170418836 2.768930202341418 -1 0 0
1178 10 86.26547787583729 6.426922147298511 0.05843974326687978 -1 0 0
1182 12 90.67608071586528 6.426922147298512 0.05843974326688224 -1 0 0
1183 3 88.20312050995528 8.56922068139713 -0.010904983921743178 -1 0 0
1266 10 86.26547787583729 10.711520841998512 0.058439743266878744 -1 0 0
1270 12 90.67608071586528 10.711520841998512 0.05843974326688132 -1 0 0
1180 2 86.00036157040968 6.426919475718836 2.7689302023414206 -1 0 0
1184 4 90.41096441043767 6.426919475718836 2.7689302023414184 -1 0 0
1181 11 88.47120042057479 8.569219152816757 2.703178156758465 -1 0 0
1268 2 86.00036157040968 10.711518170418836 2.7689302023414197 -1 0 0
1272 4 90.41096441043767 10.711518170418836 2.7689302023414175 -1 0 0
1191 3 97.02432619001128 8.569220681397132 -0.010904983921742207 -1 0 0
1186 10 95.08668355589329 6.426922147298511 0.058439743266880465 -1 0 0
1187 1 92.61372334998327 8.56922068139713 -0.010904983921743818 -1 0 0
1274 10 95.08668355589329 10.71152084199851 0.0584397432668794 -1 0 0
1188 2 94.82156725046568 6.426919475718836 2.7689302023414206 -1 0 0
1185 9 92.88180326060278 8.569219152816757 2.7031781567584625 -1 0 0
1276 2 94.82156725046568 10.711518170418834 2.7689302023414197 -1 0 0
1283 1 4.401666549423279 12.853819376097132 -0.010904983921744462 0 0 0
1366 12 2.464023915305287 14.996119536698513 0.058439743266880326 0 0 0
1371 1 4.401666549423281 17.138418070797133 -0.010904983921742434 0 0 0
1277 11 0.25914362001478325 12.853817847516757 2.703178156758462 0 0 0
1368 4 2.1989076098776765 14.996116865118836 2.768930202341419 0 0 0
1281 9 4.669746460042783 12.853817847516757 2.7031781567584625 0 0 0
1365 11 0.25914362001478414 17.138416542216756 2.7031781567584643 0 0 0
1369 9 4.669746460042785 17.138416542216756 2.7031781567584647 0 0 0
1287 3 8.812269389451277 12.85381937609713 -0.0109049839217449 0 0 0
1370 10 6.874626755333287 14.996119536698513 0.05843974326688024 0 0 0
1374 12 11.285229595361285 14.996119536698513 0.058439743266880735 0 0 0
1375 3 8.812269389451279 17.138418070797133 -0.010904983921742998 0 0 0
1372 2 6.6095104499056765 14.996116865118836 2.768930202341418 0 0 0
1285 11 9.080349300070782 12.853817847516757 2.7031781567584625 0 0 0
1376 4 11.020113289933676 14.996116865118836 2.7689302023414184 0 0 0
1373 11 9.080349300070782 17.138416542216756 2.7031781567584647 0 0 0
1291 1 13.222872229479277 12.85381937609713 -0.0109049839217457 0 0 0
1378 10 15.695832435389288 14.996119536698513 0.05843974326687966 0 0 0
1379 1 13.222872229479279 17.138418070797133 -0.010904983921743477 0 0 0
1289 9 13.490952140098782 12.853817847516757 2.703178156758462 0 0 0
1380 2 15.430716129961676 14.996116865118836 2.7689302023414175 0 0 0
1377 9 13.490952140098784 17.138416542216756 2.703178156758464 0 0 0
1295 3 17.63347506950728 12.853819376097132 -0.010904983921744403 0 0 0
1299 1 22.044077909535275 12.853819376097132 -0.010904983921746034 0 0 0
1382 12 20.106435275417283 14.996119536698513 0.05843974326688164 0 0 0
1383 3 17.63347506950728 17.138418070797133 -0.0109049839217419 0 0 0
1387 1 22.044077909535275 17.138418070797133 -0.01090498392174418 0 0 0
1293 11 17.901554980126782 12.853817847516758 2.703178156758463 0 0 0
1384 4 19.841318969989675 14.996116865118836 2.7689302023414184 0 0 0
1297 9 22.31215782015478 12.853817847516757 2.703178156758462 0 0 0
1381 11 17.901554980126782 17.138416542216756 2.703178156758465 0 0 0
1385 9 22.31215782015478 17.138416542216756 2.703178156758464 0 0 0
1303 3 26.454680749563277 12.853819376097132 -0.010904983921744856 0 0 0
1386 10 24.517038115445285 14.996119536698513 0.05843974326688058 0 0 0
1391 3 26.45468074956328 17.138418070797133 -0.010904983921742764 0 0 0
1388 2 24.251921810017674 14.996116865118836 2.768930202341418 0 0 0
1301 11 26.722760660182786 12.853817847516757 2.7031781567584625 0 0 0
1389 11 26.722760660182786 17.138416542216756 2.7031781567584643 0 0 0
1307 1 30.86528358959128 12.853819376097132 -0.01090498392174433 0 0 0
1390 12 28.92764095547329 14.996119536698513 0.05843974326687962 0 0 0
1394 10 33.338243795501285 14.996119536698512 0.05843974326688193 0 0 0
1395 1 30.865283589591282 17.138418070797133 -0.010904983921742328 0 0 0
1392 4 28.66252465004568 14.996116865118834 2.768930202341418 0 0 0
1305 9 31.13336350021078 12.853817847516757 2.703178156758463 0 0 0
1396 2 33.073127490073674 14.996116865118834 2.768930202341419 0 0 0
1393 9 31.133363500210784 17.138416542216756 2.7031781567584647 0 0 0
1311 3 35.27588642961928 12.85381937609713 -0.010904983921746145 0 0 0
1315 1 39.68648926964728 12.853819376097132 -0.01090498392174439 0 0 0
1398 12 37.74884663552928 14.996119536698513 0.05843974326688044 0 0 0
1399 3 35.27588642961928 17.138418070797133 -0.010904983921744342 0 0 0
1403 1 39.68648926964728 17.138418070797133 -0.010904983921742743 0 0 0
1309 11 35.54396634023878 12.853817847516757 2.703178156758462 0 0 0
1400 4 37.48373033010167 14.996116865118836 2.7689302023414175 0 0 0
1313 9 39.95456918026679 12.853817847516758 2.703178156758462 0 0 0
1397 11 35.54396634023878 17.138416542216756 2.7031781567584634 0 0 0
1401 9 39.95456918026679 17.138416542216756 2.7031781567584634 0 0 0
1319 3 44.09709210967528 12.853819376097132 -0.010904983921744184 0 0 0
1402 10 42.15944947555729 14.996119536698513 0.058439743266878195 0 0 0
1407 3 44.09709210967529 17.138418070797133 -0.010904983921742615 0 0 0
1404 2 41.89433317012968 14.996116865118836 2.768930202341417 0 0 0
1317 11 44.36517202029478 12.853817847516757 2.7031781567584616 0 0 0
1405 11 44.36517202029478 17.138416542216756 2.7031781567584634 0 0 0
1235 1 48.50769494970328 12.85381937609713 -0.010904983921743144 -1 0 0
1406 12 46.570052315585286 14.996119536698512 0.0584397432668805 0 0 0
1322 10 50.98065515561329 14.996119536698513 0.05843974326688041 -1 0 0
1323 1 48.50769494970328 17.138418070797133 -0.01090498392174149 -1 0 0
1408 4 46.30493601015767 14.996116865118834 2.76893020234142 0 0 0
1233 9 48.775774860322784 12.853817847516757 2.703178156758463 -1 0 0
1324 2 50.71553885018568 14.996116865118836 2.768930202341418 -1 0 0
1321 9 48.775774860322784 17.138416542216756 2.7031781567584647 -1 0 0
1239 3 52.918297789731284 12.853819376097132 -0.01090498392174512 -1 0 0
1326 12 55.39125799564129 14.996119536698513 0.05843974326688161 -1 0 0
1327 3 52.918297789731284 17.138418070797133 -0.010904983921743255 -1 0 0
1237 11 53.18637770035078 12.853817847516757 2.703178156758463 -1 0 0
1328 4 55.12614169021368 14.996116865118836 2.7689302023414184 -1 0 0
1325 11 53.18637770035079 17.13841654221676 2.7031781567584647 -1 0 0
1243 1 57.32890062975928 12.853819376097132 -0.010904983921745822 -1 0 0
1247 3 61.73950346978729 12.853819376097132 -0.010904983921744325 -1 0 0
1330 10 59.80186083566929 14.996119536698513 0.05843974326687941 -1 0 0
1331 1 57.32890062975928 17.138418070797133 -0.010904983921743749 -1 0 0
1335 3 61.73950346978729 17.138418070797133 -0.010904983921742824 -1 0 0
1241 9 57.59698054037879 12.853817847516758 2.7031781567584616 -1 0 0
1332 2 59.53674453024168 14.996116865118836 2.7689302023414175 -1 0 0
1245 11 62.007583380406786 12.853817847516757 2.7031781567584625 -1 0 0
1329 9 57.59698054037879 17.138416542216756 2.7031781567584634 -1 0 0
1333 11 62.007583380406786 17.13841654221676 2.703178156758464 -1 0 0
1251 1 66.15010630981529 12.853819376097132 -0.010904983921744608 -1 0 0
1334 12 64.2124636756973 14.996119536698513 0.05843974326688042 -1 0 0
1339 1 66.15010630981529 17.138418070797133 -0.010904983921743359 -1 0 0
1336 4 63.947347370269675 14.996116865118836 2.768930202341419 -1 0 0
1249 9 66.41818622043479 12.853817847516758 2.7031781567584634 -1 0 0
1340 2 68.35795021029769 14.996116865118836 2.768930202341417 -1 0 0
1337 9 66.41818622043479 17.13841654221676 2.7031781567584656 -1 0 0
1255 3 70.56070914984328 12.85381937609713 -0.010904983921744818 -1 0 0
1338 10 68.62306651572528 14.996119536698513 0.05843974326687984 -1 0 0
1342 12 73.03366935575329 14.996119536698513 0.05843974326687822 -1 0 0
1343 3 70.56070914984328 17.138418070797133 -0.01090498392174314 -1 0 0
1253 11 70.82878906046278 12.853817847516758 2.7031781567584607 -1 0 0
1344 4 72.76855305032568 14.996116865118836 2.7689302023414193 -1 0 0
1341 11 70.82878906046278 17.138416542216756 2.7031781567584625 -1 0 0
1259 1 74.97131198987128 12.85381937609713 -0.010904983921743102 -1 0 0
1263 3 79.38191482989927 12.85381937609713 -0.010904983921744688 -1 0 0
1346 10 77.44427219578128 14.996119536698513 0.0584397432668816 -1 0 0
1347 1 74.97131198987128 17.138418070797133 -0.010904983921741848 -1 0 0
1351 3 79.38191482989927 17.138418070797133 -0.010904983921744056 -1 0 0
1257 9 75.23939190049079 12.853817847516758 2.703178156758463 -1 0 0
1348 2 77.17915589035368 14.996116865118836 2.768930202341419 -1 0 0
1261 11 79.64999474051879 12.853817847516758 2.703178156758463 -1 0 0
1345 9 75.23939190049079 17.13841654221676 2.703178156758465 -1 0 0
1349 11 79.64999474051879 17.13841654221676 2.703178156758466 -1 0 0
1267 1 83.79251766992728 12.85381937609713 -0.010904983921744557 -1 0 0
1350 12 81.85487503580929 14.996119536698513 0.05843974326688003 -1 0 0
1355 1 83.79251766992728 17.138418070797133 -0.010904983921742533 -1 0 0
1352 4 81.58975873038167 14.996116865118832 2.768930202341417 -1 0 0
1265 9 84.06059758054678 12.853817847516758 2.703178156758461 -1 0 0
1353 9 84.06059758054678 17.138416542216756 2.7031781567584625 -1 0 0
1271 3 88.20312050995528 12.853819376097132 -0.010904983921744367 -1 0 0
1354 10 86.26547787583729 14.996119536698513 0.05843974326687857 -1 0 0
1358 12 90.67608071586528 14.996119536698513 0.05843974326688059 -1 0 0
1359 3 88.20312050995528 17.138418070797133 -0.01090498392174288 -1 0 0
1356 2 86.00036157040968 14.996116865118836 2.7689302023414197 -1 0 0
1269 11 88.47120042057477 12.853817847516755 2.703178156758463 -1 0 0
1360 4 90.41096441043767 14.996116865118836 2.7689302023414193 -1 0 0
1357 11 88.47120042057477 17.13841654221676 2.7031781567584643 -1 0 0
1279 3 97.02432619001128 12.853819376097132 -0.010904983921744776 -1 0 0
1367 3 97.02432619001128 17.138418070797133 -0.010904983921743586 -1 0 0
1275 1 92.61372334998327 12.85381937609713 -0.010904983921744067 -1 0 0
1362 10 95.08668355589329 14.996119536698512 0.058439743266880194 -1 0 0
1363 1 92.61372334998327 17.138418070797133 -0.010904983921743685 -1 0 0
1273 9 92.88180326060278 12.85381784751676 2.7031781567584616 -1 0 0
1364 2 94.82156725046568 14.996116865118832 2.768930202341417 -1 0 0
1361 9 92.8818032606028 17.13841654221676 2.7031781567584656 -1 0 0
1454 12 2.464023915305286 19.280718231398513 0.058439743266882095 0 0 0
1459 1 4.401666549423279 21.42301676549713 -0.010904983921742847 0 0 0
1456 4 2.198907609877675 19.280715559818837 2.7689302023414206 0 0 0
1453 11 0.2591436200147831 21.423015236916758 2.7031781567584634 0 0 0
1457 9 4.669746460042783 21.423015236916758 2.703178156758464 0 0 0
1458 10 6.874626755333286 19.280718231398513 0.05843974326688205 0 0 0
1462 12 11.285229595361285 19.280718231398513 0.058439743266882775 0 0 0
1463 3 8.812269389451279 21.42301676549713 -0.01090498392174351 0 0 0
1460 2 6.609510449905676 19.280715559818837 2.76893020234142 0 0 0
1464 4 11.020113289933674 19.280715559818837 2.76893020234142 0 0 0
1461 11 9.080349300070782 21.423015236916758 2.7031781567584643 0 0 0
1466 10 15.695832435389288 19.280718231398513 0.05843974326688143 0 0 0
1467 1 13.222872229479277 21.42301676549713 -0.010904983921743865 0 0 0
1468 2 15.430716129961676 19.280715559818837 2.7689302023414193 0 0 0
1465 9 13.490952140098784 21.423015236916758 2.7031781567584634 0 0 0
1470 12 20.10643527541728 19.280718231398513 0.0584397432668835 0 0 0
1471 3 17.63347506950728 21.42301676549713 -0.010904983921742531 0 0 0
1475 1 22.044077909535275 21.42301676549713 -0.010904983921744618 0 0 0
1472 4 19.841318969989672 19.280715559818837 2.7689302023414206 0 0 0
1469 11 17.901554980126782 21.423015236916758 2.7031781567584647 0 0 0
1473 9 22.31215782015478 21.423015236916758 2.703178156758464 0 0 0
1474 10 24.517038115445285 19.280718231398513 0.058439743266882054 0 0 0