LAMMPS data file via write_data, version 29 Aug 2024, timestep = 2, units = metal

8064 atoms
36 atom types

0 99.402134217988 xlo xhi
0 98.38259819792 ylo yhi
-50 50 zlo zhi

Masses

1 183.84
2 183.84
3 183.84
4 183.84
5 183.84
6 183.84
7 183.84
8 183.84
9 183.84
10 183.84
11 183.84
12 183.84
13 127.6
14 127.6
15 127.6
16 127.6
17 127.6
18 127.6
19 127.6
20 127.6
21 127.6
22 127.6
23 127.6
24 127.6
25 127.6
26 127.6
27 127.6
28 127.6
29 127.6
30 127.6
31 127.6
32 127.6
33 127.6
34 127.6
35 127.6
36 127.6

Atoms # atomic

1431 14 1.7750381110357596 1.0248187312281316 0.008298231029119144 0 0 0
1437 18 5.325114333106758 1.0248187312281316 0.00829823102911907 0 0 0
1432 2 1.7750381110354367 3.074456193684727 1.8108451409323414 0 0 0
1438 4 5.325114333106437 3.0744561936847266 1.8108451409323414 0 0 0
1440 20 3.550076222070897 4.099274924913131 0.008298231029119313 0 0 0
1443 14 8.875190555177758 1.0248187312281318 0.008298231029119132 0 0 0
1444 2 8.875190555177436 3.0744561936847266 1.8108451409323416 0 0 0
1446 16 7.100152444141897 4.099274924913131 0.008298231029119507 0 0 0
1452 20 10.650228666212897 4.099274924913131 0.008298231029119302 0 0 0
1449 18 12.42526677724876 1.0248187312281318 0.008298231029119103 0 0 0
1455 14 15.97534299931976 1.0248187312281312 0.008298231029119295 0 0 0
1450 4 12.425266777248437 3.074456193684727 1.8108451409323414 0 0 0
1456 2 15.975342999319437 3.074456193684727 1.8108451409323414 0 0 0
1458 16 14.200304888283895 4.099274924913132 0.008298231029119005 0 0 0
1461 18 19.52541922139076 1.0248187312281316 0.008298231029119052 0 0 0
1467 14 23.075495443461758 1.0248187312281318 0.008298231029119174 0 0 0
1462 4 19.52541922139044 3.074456193684727 1.8108451409323416 0 0 0
1468 2 23.07549544346144 3.0744561936847266 1.8108451409323414 0 0 0
1464 20 17.750381110354898 4.099274924913131 0.00829823102911965 0 0 0
1470 16 21.3004573324259 4.099274924913131 0.008298231029119205 0 0 0
1473 18 26.625571665532757 1.0248187312281318 0.00829823102911917 0 0 0
1474 4 26.625571665532437 3.0744561936847266 1.8108451409323414 0 0 0
1476 20 24.8505335544969 4.099274924913131 0.008298231029119266 0 0 0
1482 16 28.400609776567897 4.099274924913131 0.008298231029119266 0 0 0
1479 14 30.175647887603755 1.0248187312281318 0.008298231029119115 0 0 0
1485 18 33.72572410967476 1.0248187312281318 0.008298231029119313 0 0 0
1480 2 30.175647887603436 3.0744561936847266 1.8108451409323414 0 0 0
1486 4 33.72572410967443 3.0744561936847266 1.8108451409323416 0 0 0
1488 20 31.950685998638896 4.099274924913131 0.008298231029119078 0 0 0
1491 14 37.27580033174576 1.0248187312281318 0.008298231029119174 0 0 0
1497 18 40.825876553816755 1.024818731228132 0.008298231029118863 0 0 0
1492 2 37.27580033174543 3.0744561936847266 1.8108451409323414 0 0 0
1498 4 40.82587655381643 3.0744561936847266 1.8108451409323414 0 0 0
1494 16 35.500762220709895 4.099274924913131 0.008298231029119321 0 0 0
1500 20 39.05083844278089 4.099274924913131 0.00829823102911928 0 0 0
1503 14 44.37595277588776 1.0248187312281318 0.008298231029119137 0 0 0
1504 2 44.375952775887434 3.074456193684727 1.8108451409323414 0 0 0
1506 16 42.60091466485189 4.099274924913131 0.008298231029119441 0 0 0
1512 20 46.15099088692289 4.099274924913131 0.008298231029118825 0 0 0
1509 18 47.92602899795876 1.024818731228131 0.0082982310291191 0 0 0
1347 14 51.476105220029766 1.0248187312281316 0.008298231029119283 -1 0 0
1510 4 47.92602899795843 3.0744561936847283 1.8108451409323414 0 0 0
1348 2 51.47610522002944 3.0744561936847266 1.8108451409323414 -1 0 0
1350 16 49.701067108993904 4.099274924913131 0.008298231029119385 -1 0 0
1353 18 55.026181442100764 1.0248187312281318 0.00829823102911906 -1 0 0
1354 4 55.02618144210044 3.0744561936847266 1.8108451409323414 -1 0 0
1356 20 53.2511433310649 4.099274924913131 0.008298231029119257 -1 0 0
1362 16 56.8012195531359 4.099274924913131 0.008298231029119372 -1 0 0
1359 14 58.57625766417176 1.0248187312281312 0.00829823102911942 -1 0 0
1365 18 62.12633388624277 1.0248187312281316 0.008298231029119021 -1 0 0
1360 2 58.57625766417144 3.0744561936847274 1.8108451409323414 -1 0 0
1366 4 62.12633388624244 3.0744561936847266 1.8108451409323414 -1 0 0
1368 20 60.35129577520691 4.099274924913131 0.008298231029118856 -1 0 0
1374 16 63.901371997277906 4.099274924913131 0.008298231029119502 -1 0 0
1371 14 65.67641010831377 1.0248187312281318 0.008298231029119186 -1 0 0
1377 18 69.22648633038477 1.0248187312281318 0.008298231029119172 -1 0 0
1372 2 65.67641010831345 3.0744561936847266 1.8108451409323414 -1 0 0
1378 4 69.22648633038445 3.0744561936847266 1.8108451409323414 -1 0 0
1380 20 67.4514482193489 4.099274924913131 0.008298231029119262 -1 0 0
1383 14 72.77656255245577 1.0248187312281318 0.00829823102911917 -1 0 0
1384 2 72.77656255245545 3.0744561936847266 1.8108451409323414 -1 0 0
1386 16 71.0015244414199 4.099274924913131 0.008298231029119266 -1 0 0
1392 20 74.5516006634909 4.099274924913131 0.008298231029119266 -1 0 0
1389 18 76.32663877452677 1.0248187312281318 0.00829823102911917 -1 0 0
1395 14 79.87671499659777 1.0248187312281318 0.00829823102911917 -1 0 0
1390 4 76.32663877452644 3.0744561936847266 1.8108451409323414 -1 0 0
1396 2 79.87671499659744 3.0744561936847266 1.8108451409323414 -1 0 0
1398 16 78.1016768855619 4.099274924913131 0.008298231029119266 -1 0 0
1404 20 81.6517531076329 4.099274924913131 0.008298231029119266 -1 0 0
1401 18 83.42679121866877 1.0248187312281318 0.00829823102911917 -1 0 0
1407 14 86.97686744073977 1.0248187312281318 0.008298231029119175 -1 0 0
1402 4 83.42679121866844 3.0744561936847266 1.8108451409323414 -1 0 0
1408 2 86.97686744073944 3.0744561936847266 1.8108451409323414 -1 0 0
1410 16 85.2018293297039 4.099274924913131 0.008298231029119266 -1 0 0
1413 18 90.52694366281077 1.0248187312281318 0.00829823102911897 -1 0 0
1414 4 90.52694366281044 3.0744561936847266 1.8108451409323414 -1 0 0
1416 20 88.7519055517749 4.099274924913131 0.00829823102911928 -1 0 0
1422 16 92.3019817738459 4.099274924913132 0.008298231029119222 -1 0 0
1434 16 99.4021342179879 4.099274924913131 0.008298231029119108 -1 0 0
1419 14 94.07701988488176 1.024818731228132 0.008298231029118749 -1 0 0
1425 18 97.62709610695276 1.0248187312281305 0.008298231029119758 -1 0 0
1420 2 94.07701988488144 3.0744561936847266 1.8108451409323414 -1 0 0
1426 4 97.62709610695244 3.0744561936847283 1.8108451409323412 -1 0 0
1428 20 95.8520579959169 4.099274924913131 0.008298231029119228 -1 0 0
1599 14 1.7750381110357596 7.173731118598133 0.008298231029119349 0 0 0
1597 1 2.344835529988768e-13 6.148912387369728 1.8108451409323412 0 0 0
1603 3 3.5500762220712336 6.148912387369728 1.8108451409323416 0 0 0
1605 18 5.325114333106758 7.173731118598133 0.008298231029119219 0 0 0
1600 2 1.775038111035437 9.22336858105473 1.8108451409323414 0 0 0
1606 4 5.325114333106437 9.22336858105473 1.8108451409323414 0 0 0
1608 20 3.550076222070897 10.248187312283134 0.008298231029119267 0 0 0
1609 1 7.100152444142233 6.1489123873697284 1.8108451409323416 0 0 0
1611 14 8.875190555177758 7.173731118598133 0.008298231029119259 0 0 0
1615 3 10.650228666213234 6.1489123873697284 1.8108451409323412 0 0 0
1612 2 8.875190555177436 9.22336858105473 1.8108451409323416 0 0 0
1614 16 7.100152444141897 10.248187312283134 0.00829823102911937 0 0 0
1620 20 10.650228666212897 10.248187312283134 0.008298231029119422 0 0 0
1617 18 12.42526677724876 7.173731118598133 0.008298231029119222 0 0 0
1621 1 14.200304888284235 6.148912387369728 1.8108451409323414 0 0 0
1623 14 15.97534299931976 7.173731118598133 0.008298231029119297 0 0 0
1618 4 12.425266777248437 9.22336858105473 1.8108451409323412 0 0 0
1624 2 15.975342999319437 9.22336858105473 1.8108451409323414 0 0 0
1626 16 14.200304888283895 10.248187312283134 0.008298231029119094 0 0 0
1627 3 17.750381110355235 6.1489123873697284 1.8108451409323414 0 0 0
1629 18 19.52541922139076 7.173731118598133 0.00829823102911919 0 0 0
1633 1 21.300457332426234 6.148912387369728 1.8108451409323416 0 0 0
1635 14 23.075495443461758 7.173731118598133 0.008298231029119245 0 0 0
1630 4 19.52541922139044 9.22336858105473 1.8108451409323414 0 0 0
1636 2 23.07549544346144 9.22336858105473 1.8108451409323414 0 0 0
1632 20 17.750381110354898 10.248187312283134 0.00829823102911971 0 0 0
1638 16 21.3004573324259 10.248187312283134 0.00829823102911924 0 0 0
1639 3 24.850533554497233 6.148912387369728 1.8108451409323416 0 0 0
1641 18 26.625571665532757 7.173731118598133 0.008298231029119245 0 0 0
1645 1 28.40060977656823 6.148912387369728 1.8108451409323416 0 0 0
1642 4 26.625571665532437 9.22336858105473 1.8108451409323414 0 0 0
1644 20 24.8505335544969 10.248187312283134 0.008298231029119304 0 0 0
1650 16 28.400609776567897 10.248187312283134 0.008298231029119304 0 0 0
1647 14 30.175647887603755 7.173731118598133 0.00829823102911919 0 0 0
1653 18 33.72572410967476 7.173731118598133 0.008298231029119385 0 0 0
1651 3 31.95068599863923 6.148912387369728 1.8108451409323416 0 0 0
1648 2 30.175647887603436 9.22336858105473 1.8108451409323414 0 0 0
1654 4 33.72572410967443 9.22336858105473 1.8108451409323414 0 0 0
1656 20 31.950685998638896 10.248187312283134 0.008298231029119169 0 0 0
1657 1 35.50076222071023 6.148912387369728 1.8108451409323416 0 0 0
1659 14 37.27580033174576 7.173731118598133 0.008298231029119252 0 0 0
1663 3 39.05083844278123 6.148912387369728 1.8108451409323416 0 0 0
1665 18 40.825876553816755 7.173731118598133 0.00829823102911903 0 0 0
1660 2 37.27580033174543 9.22336858105473 1.8108451409323414 0 0 0
1666 4 40.82587655381643 9.22336858105473 1.8108451409323414 0 0 0
1662 16 35.500762220709895 10.248187312283134 0.008298231029119358 0 0 0
1668 20 39.05083844278089 10.248187312283134 0.008298231029119314 0 0 0
1669 1 42.60091466485223 6.148912387369729 1.8108451409323414 0 0 0
1671 14 44.37595277588776 7.173731118598134 0.00829823102911927 0 0 0
1675 3 46.15099088692323 6.148912387369728 1.8108451409323414 0 0 0
1672 2 44.375952775887434 9.22336858105473 1.8108451409323416 0 0 0
1674 16 42.60091466485189 10.248187312283134 0.008298231029119476 0 0 0
1680 20 46.15099088692289 10.248187312283134 0.00829823102911898 0 0 0
1677 18 47.92602899795876 7.173731118598132 0.008298231029119503 0 0 0
1515 14 51.476105220029766 7.173731118598133 0.008298231029119084 -1 0 0
1513 1 49.70106710899424 6.1489123873697284 1.8108451409323414 -1 0 0
1678 4 47.92602899795843 9.22336858105473 1.8108451409323416 0 0 0
1516 2 51.47610522002944 9.22336858105473 1.8108451409323414 -1 0 0
1518 16 49.7010671089939 10.248187312283134 0.008298231029119411 -1 0 0
1519 3 53.25114333106524 6.148912387369728 1.8108451409323414 -1 0 0
1521 18 55.026181442100764 7.173731118598133 0.008298231029119193 -1 0 0
1525 1 56.801219553136235 6.148912387369728 1.8108451409323414 -1 0 0
1522 4 55.02618144210044 9.22336858105473 1.8108451409323412 -1 0 0
1524 20 53.2511433310649 10.248187312283134 0.008298231029119427 -1 0 0
1530 16 56.8012195531359 10.248187312283134 0.008298231029119574 -1 0 0
1527 14 58.57625766417176 7.173731118598133 0.008298231029119443 -1 0 0
1531 3 60.35129577520724 6.1489123873697284 1.8108451409323416 -1 0 0
1533 18 62.12633388624277 7.173731118598133 0.008298231029119143 -1 0 0
1537 1 63.90137199727824 6.1489123873697284 1.8108451409323414 -1 0 0
1528 2 58.57625766417144 9.22336858105473 1.8108451409323414 -1 0 0
1534 4 62.12633388624244 9.22336858105473 1.8108451409323414 -1 0 0
1536 20 60.35129577520691 10.248187312283134 0.008298231029119111 -1 0 0
1542 16 63.901371997277906 10.248187312283134 0.008298231029119385 -1 0 0
1539 14 65.67641010831377 7.173731118598133 0.008298231029119255 -1 0 0
1543 3 67.45144821934925 6.148912387369728 1.8108451409323416 -1 0 0
1545 18 69.22648633038477 7.173731118598133 0.008298231029119247 -1 0 0
1540 2 65.67641010831345 9.22336858105473 1.8108451409323414 -1 0 0
1546 4 69.22648633038445 9.22336858105473 1.8108451409323414 -1 0 0
1548 20 67.4514482193489 10.248187312283134 0.008298231029119297 -1 0 0
1549 1 71.00152444142024 6.148912387369728 1.8108451409323416 -1 0 0
1551 14 72.77656255245577 7.173731118598133 0.008298231029119247 -1 0 0
1555 3 74.55160066349124 6.148912387369728 1.8108451409323416 -1 0 0
1552 2 72.77656255245545 9.22336858105473 1.8108451409323414 -1 0 0
1554 16 71.0015244414199 10.248187312283134 0.008298231029119302 -1 0 0
1560 20 74.5516006634909 10.248187312283134 0.008298231029119304 -1 0 0
1557 18 76.32663877452677 7.173731118598133 0.008298231029119247 -1 0 0
1561 1 78.10167688556224 6.148912387369728 1.8108451409323416 -1 0 0
1563 14 79.87671499659777 7.173731118598133 0.008298231029119247 -1 0 0
1567 3 81.65175310763324 6.148912387369728 1.8108451409323416 -1 0 0
1558 4 76.32663877452644 9.22336858105473 1.8108451409323414 -1 0 0
1564 2 79.87671499659744 9.22336858105473 1.8108451409323414 -1 0 0
1566 16 78.1016768855619 10.248187312283134 0.008298231029119304 -1 0 0
1572 20 81.6517531076329 10.248187312283134 0.008298231029119304 -1 0 0
1569 18 83.42679121866877 7.173731118598133 0.008298231029119247 -1 0 0
1573 1 85.20182932970424 6.148912387369728 1.8108451409323416 -1 0 0
1575 14 86.97686744073977 7.173731118598133 0.008298231029119252 -1 0 0
1570 4 83.42679121866844 9.22336858105473 1.8108451409323414 -1 0 0
1576 2 86.97686744073944 9.22336858105473 1.8108451409323414 -1 0 0
1578 16 85.2018293297039 10.248187312283134 0.008298231029119304 -1 0 0
1579 3 88.75190555177524 6.148912387369728 1.8108451409323416 -1 0 0
1581 18 90.52694366281075 7.173731118598133 0.008298231029119137 -1 0 0
1585 1 92.30198177384624 6.1489123873697284 1.8108451409323414 -1 0 0
1582 4 90.52694366281044 9.22336858105473 1.8108451409323414 -1 0 0
1584 20 88.7519055517749 10.248187312283134 0.008298231029119314 -1 0 0
1590 16 92.3019817738459 10.248187312283134 0.008298231029119309 -1 0 0
1602 16 99.4021342179879 10.248187312283134 0.008298231029119208 -1 0 0
1587 14 94.07701988488176 7.173731118598134 0.008298231029118832 -1 0 0
1591 3 95.85205799591724 6.148912387369729 1.8108451409323414 -1 0 0
1593 18 97.62709610695276 7.173731118598132 0.00829823102911984 -1 0 0
1588 2 94.07701988488144 9.22336858105473 1.8108451409323416 -1 0 0
1594 4 97.62709610695244 9.223368581054732 1.8108451409323414 -1 0 0
1596 20 95.8520579959169 10.248187312283134 0.00829823102911939 -1 0 0
1767 14 1.7750381110357596 13.322643505968133 0.008298231029119404 0 0 0
1765 1 2.344566309699754e-13 12.297824774739729 1.810845140932341 0 0 0
1771 3 3.5500762220712336 12.297824774739729 1.8108451409323414 0 0 0
1773 18 5.325114333106758 13.322643505968133 0.008298231029119333 0 0 0
1768 2 1.7750381110354367 15.372280968424727 1.8108451409323414 0 0 0
1774 4 5.325114333106437 15.372280968424727 1.8108451409323414 0 0 0
1776 20 3.550076222070897 16.397099699653133 0.008298231029119226 0 0 0
1777 1 7.100152444142233 12.297824774739729 1.8108451409323414 0 0 0
1779 14 8.875190555177758 13.322643505968133 0.008298231029119333 0 0 0
1783 3 10.650228666213234 12.29782477473973 1.8108451409323414 0 0 0
1780 2 8.875190555177436 15.372280968424727 1.8108451409323414 0 0 0
1782 16 7.100152444141897 16.397099699653133 0.008298231029119332 0 0 0
1788 20 10.650228666212897 16.397099699653133 0.00829823102911911 0 0 0
1785 18 12.42526677724876 13.322643505968134 0.008298231029119365 0 0 0
1789 1 14.200304888284235 12.297824774739729 1.8108451409323414 0 0 0
1791 14 15.97534299931976 13.322643505968133 0.008298231029119543 0 0 0
1786 4 12.425266777248437 15.372280968424729 1.8108451409323418 0 0 0
1792 2 15.975342999319436 15.372280968424729 1.8108451409323416 0 0 0
1794 16 14.200304888283895 16.397099699653133 0.00829823102911899 0 0 0
1795 3 17.750381110355235 12.297824774739729 1.8108451409323414 0 0 0
1797 18 19.52541922139076 13.322643505968133 0.008298231029119318 0 0 0
1801 1 21.300457332426234 12.297824774739729 1.8108451409323412 0 0 0
1803 14 23.075495443461758 13.322643505968133 0.008298231029119436 0 0 0
1798 4 19.52541922139044 15.372280968424727 1.8108451409323414 0 0 0
1804 2 23.07549544346144 15.372280968424729 1.8108451409323414 0 0 0
1800 20 17.750381110354898 16.397099699653133 0.0082982310291194 0 0 0
1806 16 21.3004573324259 16.397099699653133 0.008298231029119165 0 0 0
1807 3 24.850533554497233 12.297824774739729 1.8108451409323412 0 0 0
1809 18 26.625571665532757 13.322643505968133 0.008298231029119434 0 0 0
1813 1 28.40060977656823 12.297824774739729 1.8108451409323412 0 0 0
1810 4 26.625571665532437 15.372280968424729 1.8108451409323414 0 0 0
1812 20 24.8505335544969 16.397099699653133 0.008298231029119085 0 0 0
1818 16 28.400609776567897 16.397099699653133 0.008298231029119085 0 0 0
1815 14 30.175647887603755 13.322643505968134 0.00829823102911938 0 0 0
1821 18 33.72572410967476 13.322643505968133 0.008298231029119576 0 0 0
1819 3 31.95068599863923 12.297824774739729 1.8108451409323414 0 0 0
1816 2 30.175647887603436 15.372280968424729 1.8108451409323414 0 0 0
1822 4 33.72572410967443 15.372280968424729 1.8108451409323414 0 0 0
1824 20 31.950685998638896 16.397099699653133 0.008298231029118945 0 0 0
1825 1 35.50076222071023 12.297824774739729 1.8108451409323412 0 0 0
1827 14 37.27580033174576 13.322643505968133 0.008298231029119437 0 0 0
1831 3 39.05083844278123 12.297824774739729 1.8108451409323414 0 0 0
1833 18 40.825876553816755 13.322643505968134 0.008298231029119174 0 0 0
1828 2 37.27580033174543 15.372280968424729 1.8108451409323414 0 0 0
1834 4 40.82587655381643 15.372280968424729 1.8108451409323414 0 0 0
1830 16 35.500762220709895 16.397099699653133 0.00829823102911914 0 0 0
1836 20 39.05083844278089 16.397099699653133 0.0082982310291191 0 0 0
1837 1 42.60091466485223 12.29782477473973 1.8108451409323414 0 0 0
1839 14 44.37595277588776 13.322643505968133 0.008298231029119446 0 0 0
1843 3 46.15099088692323 12.297824774739729 1.8108451409323414 0 0 0
1840 2 44.375952775887434 15.372280968424729 1.8108451409323414 0 0 0
1842 16 42.60091466485189 16.397099699653133 0.008298231029119231 0 0 0
1848 20 46.15099088692289 16.397099699653133 0.008298231029118865 0 0 0
1845 18 47.92602899795876 13.322643505968133 0.008298231029119295 0 0 0
1683 14 51.476105220029766 13.322643505968133 0.008298231029119526 -1 0 0
1681 1 49.70106710899424 12.29782477473973 1.8108451409323414 -1 0 0
1846 4 47.92602899795843 15.372280968424729 1.8108451409323414 0 0 0
1684 2 51.47610522002944 15.372280968424727 1.8108451409323414 -1 0 0
1686 16 49.7010671089939 16.397099699653133 0.008298231029119358 -1 0 0
1687 3 53.25114333106524 12.29782477473973 1.8108451409323414 -1 0 0
1689 18 55.026181442100764 13.322643505968134 0.00829823102911931 -1 0 0
1693 1 56.801219553136235 12.297824774739729 1.8108451409323414 -1 0 0
1690 4 55.02618144210044 15.372280968424729 1.8108451409323416 -1 0 0
1692 20 53.2511433310649 16.397099699653133 0.008298231029119038 -1 0 0
1698 16 56.8012195531359 16.397099699653133 0.008298231029119278 -1 0 0
1695 14 58.57625766417176 13.322643505968133 0.008298231029119673 -1 0 0
1699 3 60.35129577520724 12.297824774739729 1.8108451409323414 -1 0 0
1701 18 62.12633388624277 13.322643505968133 0.008298231029119273 -1 0 0
1705 1 63.90137199727824 12.297824774739729 1.8108451409323414 -1 0 0
1696 2 58.57625766417144 15.372280968424729 1.8108451409323416 -1 0 0
1702 4 62.12633388624244 15.372280968424727 1.8108451409323414 -1 0 0
1704 20 60.35129577520691 16.397099699653133 0.00829823102911897 -1 0 0
1710 16 63.901371997277906 16.397099699653133 0.008298231029119313 -1 0 0
1707 14 65.67641010831377 13.322643505968133 0.008298231029119392 -1 0 0
1711 3 67.45144821934925 12.297824774739729 1.8108451409323412 -1 0 0
1713 18 69.22648633038477 13.322643505968133 0.008298231029119434 -1 0 0
1708 2 65.67641010831345 15.372280968424727 1.8108451409323414 -1 0 0
1714 4 69.22648633038445 15.372280968424729 1.8108451409323414 -1 0 0
1716 20 67.4514482193489 16.397099699653133 0.008298231029119092 -1 0 0
1717 1 71.00152444142024 12.297824774739729 1.8108451409323412 -1 0 0
1719 14 72.77656255245577 13.322643505968133 0.008298231029119434 -1 0 0
1723 3 74.55160066349124 12.297824774739729 1.8108451409323412 -1 0 0
1720 2 72.77656255245545 15.372280968424729 1.8108451409323414 -1 0 0
1722 16 71.0015244414199 16.397099699653133 0.008298231029119087 -1 0 0
1728 20 74.5516006634909 16.397099699653133 0.008298231029119087 -1 0 0
1725 18 76.32663877452677 13.322643505968133 0.008298231029119436 -1 0 0
1729 1 78.10167688556224 12.297824774739729 1.8108451409323412 -1 0 0
1731 14 79.87671499659777 13.322643505968133 0.008298231029119436 -1 0 0
1735 3 81.65175310763324 12.297824774739729 1.8108451409323412 -1 0 0
1726 4 76.32663877452644 15.372280968424729 1.8108451409323414 -1 0 0
1732 2 79.87671499659744 15.372280968424729 1.8108451409323414 -1 0 0
1734 16 78.1016768855619 16.397099699653133 0.008298231029119089 -1 0 0
1740 20 81.6517531076329 16.397099699653133 0.008298231029119087 -1 0 0
1737 18 83.42679121866877 13.322643505968133 0.008298231029119434 -1 0 0
1741 1 85.20182932970424 12.297824774739729 1.8108451409323412 -1 0 0
1743 14 86.97686744073977 13.322643505968133 0.008298231029119437 -1 0 0
1738 4 83.42679121866844 15.372280968424729 1.8108451409323414 -1 0 0
1744 2 86.97686744073944 15.372280968424729 1.8108451409323414 -1 0 0
1746 16 85.2018293297039 16.397099699653133 0.008298231029119087 -1 0 0
1747 3 88.75190555177524 12.297824774739729 1.8108451409323414 -1 0 0
1749 18 90.52694366281077 13.322643505968134 0.008298231029119287 -1 0 0
1753 1 92.30198177384624 12.29782477473973 1.8108451409323414 -1 0 0
1750 4 90.52694366281044 15.372280968424729 1.8108451409323414 -1 0 0
1752 20 88.7519055517749 16.397099699653133 0.0082982310291191 -1 0 0
1758 16 92.3019817738459 16.397099699653133 0.00829823102911907 -1 0 0
1770 16 99.4021342179879 16.397099699653133 0.008298231029119179 -1 0 0
1755 14 94.07701988488176 13.322643505968134 0.008298231029119054 -1 0 0
1759 3 95.85205799591724 12.29782477473973 1.8108451409323414 -1 0 0
1761 18 97.62709610695276 13.322643505968133 0.008298231029120034 -1 0 0
1756 2 94.07701988488144 15.372280968424729 1.8108451409323414 -1 0 0
1762 4 97.62709610695244 15.372280968424729 1.8108451409323414 -1 0 0
1764 20 95.8520579959169 16.397099699653133 0.008298231029119191 -1 0 0
1935 14 1.7750381110357594 19.47155589333813 0.00829823102911888 0 0 0
1933 1 2.3461431476289157e-13 18.446737162109727 1.810845140932341 0 0 0
1939 3 3.5500762220712336 18.446737162109727 1.8108451409323414 0 0 0
1941 18 5.325114333106758 19.47155589333813 0.008298231029118933 0 0 0
1936 2 1.7750381110354367 21.52119335579473 1.8108451409323414 0 0 0
1942 4 5.325114333106436 21.52119335579473 1.8108451409323414 0 0 0
1944 20 3.550076222070897 22.546012087023136 0.008298231029119597 0 0 0
1945 1 7.100152444142233 18.446737162109727 1.8108451409323414 0 0 0
1947 14 8.875190555177758 19.47155589333813 0.008298231029119009 0 0 0
1951 3 10.650228666213234 18.446737162109727 1.8108451409323416 0 0 0
1948 2 8.875190555177436 21.52119335579473 1.8108451409323416 0 0 0
1950 16 7.100152444141897 22.546012087023133 0.008298231029119748 0 0 0
1956 20 10.650228666212897 22.546012087023133 0.008298231029119483 0 0 0
1953 18 12.42526677724876 19.47155589333813 0.008298231029119049 0 0 0
1957 1 14.200304888284235 18.446737162109727 1.8108451409323412 0 0 0
1959 14 15.97534299931976 19.471555893338127 0.008298231029119092 0 0 0
1954 4 12.425266777248437 21.52119335579473 1.8108451409323414 0 0 0
1960 2 15.975342999319436 21.521193355794725 1.8108451409323414 0 0 0
1962 16 14.200304888283895 22.546012087023136 0.008298231029119257 0 0 0
1963 3 17.750381110355235 18.446737162109727 1.8108451409323416 0 0 0
1965 18 19.52541922139076 19.47155589333813 0.008298231029118901 0 0 0
1969 1 21.300457332426234 18.446737162109727 1.8108451409323414 0 0 0
1971 14 23.075495443461758 19.47155589333813 0.00829823102911893 0 0 0
1966 4 19.52541922139044 21.52119335579473 1.8108451409323416 0 0 0
1972 2 23.07549544346144 21.52119335579473 1.8108451409323416 0 0 0
1968 20 17.750381110354898 22.546012087023133 0.008298231029119876 0 0 0
1974 16 21.3004573324259 22.546012087023133 0.00829823102911972 0 0 0
1975 3 24.850533554497233 18.446737162109727 1.8108451409323414 0 0 0
1977 18 26.625571665532757 19.47155589333813 0.00829823102911893 0 0 0
1981 1 28.40060977656823 18.446737162109727 1.8108451409323414 0 0 0
1978 4 26.625571665532437 21.52119335579473 1.8108451409323416 0 0 0
1980 20 24.8505335544969 22.546012087023136 0.008298231029119635 0 0 0
1986 16 28.400609776567897 22.546012087023136 0.008298231029119633 0 0 0
1983 14 30.175647887603755 19.47155589333813 0.008298231029118874 0 0 0
1989 18 33.72572410967476 19.47155589333813 0.008298231029119066 0 0 0
1987 3 31.95068599863923 18.446737162109727 1.8108451409323414 0 0 0
1984 2 30.175647887603436 21.52119335579473 1.8108451409323416 0 0 0
1990 4 33.72572410967443 21.52119335579473 1.8108451409323416 0 0 0
1992 20 31.950685998638896 22.546012087023136 0.008298231029119486 0 0 0
1993 1 35.50076222071023 18.446737162109727 1.8108451409323414 0 0 0
1995 14 37.27580033174576 19.47155589333813 0.00829823102911894 0 0 0
1999 3 39.05083844278123 18.446737162109727 1.8108451409323414 0 0 0
2001 18 40.825876553816755 19.47155589333813 0.008298231029118818 0 0 0
1996 2 37.27580033174543 21.52119335579473 1.8108451409323416 0 0 0
2002 4 40.82587655381643 21.521193355794725 1.8108451409323414 0 0 0
1998 16 35.500762220709895 22.546012087023136 0.00829823102911969 0 0 0
2004 20 39.05083844278089 22.546012087023136 0.00829823102911963 0 0 0
2005 1 42.60091466485223 18.446737162109727 1.8108451409323414 0 0 0
2007 14 44.37595277588776 19.47155589333813 0.00829823102911913 0 0 0
2011 3 46.15099088692323 18.446737162109727 1.8108451409323414 0 0 0
2008 2 44.375952775887434 21.52119335579473 1.8108451409323414 0 0 0
2010 16 42.60091466485189 22.546012087023133 0.008298231029119684 0 0 0
2016 20 46.15099088692289 22.546012087023136 0.008298231029119238 0 0 0
2013 18 47.92602899795876 19.471555893338127 0.008298231029118912 0 0 0
1851 14 51.476105220029766 19.47155589333813 0.008298231029119186 -1 0 0
1849 1 49.70106710899424 18.446737162109727 1.8108451409323414 -1 0 0
2014 4 47.92602899795843 21.521193355794725 1.8108451409323414 0 0 0
1852 2 51.47610522002944 21.52119335579473 1.8108451409323414 -1 0 0
1854 16 49.7010671089939 22.546012087023133 0.008298231029119767 -1 0 0
1855 3 53.25114333106524 18.446737162109727 1.8108451409323416 -1 0 0
1857 18 55.026181442100764 19.47155589333813 0.008298231029118995 -1 0 0
1861 1 56.801219553136235 18.446737162109727 1.8108451409323416 -1 0 0
1858 4 55.02618144210044 21.52119335579473 1.8108451409323416 -1 0 0
1860 20 53.2511433310649 22.546012087023136 0.008298231029119477 -1 0 0
1866 16 56.8012195531359 22.546012087023133 0.008298231029119689 -1 0 0
1863 14 58.57625766417176 19.471555893338127 0.008298231029119156 -1 0 0
1867 3 60.35129577520724 18.446737162109727 1.8108451409323416 -1 0 0
1869 18 62.12633388624277 19.47155589333813 0.008298231029118855 -1 0 0
1873 1 63.90137199727824 18.446737162109727 1.8108451409323414 -1 0 0
1864 2 58.57625766417144 21.52119335579473 1.8108451409323416 -1 0 0
1870 4 62.12633388624244 21.52119335579473 1.8108451409323416 -1 0 0
1872 20 60.35129577520691 22.546012087023133 0.008298231029119238 -1 0 0
1878 16 63.901371997277906 22.546012087023133 0.008298231029119769 -1 0 0
1875 14 65.67641010831377 19.47155589333813 0.008298231029118986 -1 0 0
1879 3 67.45144821934925 18.446737162109727 1.8108451409323414 -1 0 0
1881 18 69.22648633038477 19.47155589333813 0.008298231029118933 -1 0 0
1876 2 65.67641010831345 21.521193355794725 1.8108451409323416 -1 0 0
1882 4 69.22648633038445 21.52119335579473 1.8108451409323416 -1 0 0
1884 20 67.4514482193489 22.546012087023136 0.008298231029119611 -1 0 0
1885 1 71.00152444142024 18.446737162109727 1.8108451409323414 -1 0 0
1887 14 72.77656255245577 19.47155589333813 0.008298231029118933 -1 0 0
1891 3 74.55160066349124 18.446737162109727 1.8108451409323414 -1 0 0
1888 2 72.77656255245545 21.52119335579473 1.8108451409323416 -1 0 0
1890 16 71.0015244414199 22.546012087023136 0.008298231029119635 -1 0 0
1896 20 74.5516006634909 22.546012087023136 0.008298231029119633 -1 0 0
1893 18 76.32663877452677 19.47155589333813 0.008298231029118933 -1 0 0
1897 1 78.10167688556224 18.446737162109727 1.8108451409323414 -1 0 0
1899 14 79.87671499659777 19.47155589333813 0.008298231029118933 -1 0 0
1903 3 81.65175310763324 18.446737162109727 1.8108451409323414 -1 0 0
1894 4 76.32663877452644 21.52119335579473 1.8108451409323416 -1 0 0
1900 2 79.87671499659744 21.52119335579473 1.8108451409323416 -1 0 0
1902 16 78.1016768855619 22.546012087023136 0.008298231029119635 -1 0 0
1908 20 81.6517531076329 22.546012087023136 0.008298231029119633 -1 0 0
1905 18 83.42679121866877 19.47155589333813 0.008298231029118933 -1 0 0
1909 1 85.20182932970424 18.446737162109727 1.8108451409323414 -1 0 0
1911 14 86.97686744073977 19.47155589333813 0.00829823102911894 -1 0 0
1906 4 83.42679121866844 21.52119335579473 1.8108451409323416 -1 0 0
1912 2 86.97686744073944 21.52119335579473 1.8108451409323416 -1 0 0
1914 16 85.2018293297039 22.546012087023136 0.008298231029119635 -1 0 0
1915 3 88.75190555177524 18.446737162109727 1.8108451409323414 -1 0 0
1917 18 90.52694366281075 19.47155589333813 0.00829823102911893 -1 0 0
1921 1 92.30198177384624 18.446737162109727 1.8108451409323416 -1 0 0
1918 4 90.52694366281044 21.521193355794725 1.8108451409323414 -1 0 0
1920 20 88.7519055517749 22.546012087023136 0.00829823102911963 -1 0 0
1926 16 92.3019817738459 22.546012087023133 0.008298231029119467 -1 0 0
1938 16 99.4021342179879 22.546012087023136 0.008298231029119396 -1 0 0
1923 14 94.07701988488176 19.47155589333813 0.008298231029118691 -1 0 0
1927 3 95.85205799591724 18.446737162109727 1.8108451409323414 -1 0 0
1929 18 97.62709610695276 19.471555893338127 0.008298231029119505 -1 0 0