LAMMPS data file via write_data, version 29 Aug 2024, timestep = 2, units = metal

5376 atoms
24 atom types

0 99.402134217988 xlo xhi
0 98.38259819792 ylo yhi
-50 50 zlo zhi

Masses

1 183.84
2 183.84
3 183.84
4 183.84
5 183.84
6 183.84
7 183.84
8 183.84
9 127.6
10 127.6
11 127.6
12 127.6
13 127.6
14 127.6
15 127.6
16 127.6
17 127.6
18 127.6
19 127.6
20 127.6
21 127.6
22 127.6
23 127.6
24 127.6

Atoms # atomic

1431 10 1.7750381110357603 1.0248187312281323 0.008275253707387981 0 0 0
1437 14 5.325114333106759 1.0248187312281323 0.008275253707387936 0 0 0
1432 2 1.7750381110354372 3.0744561936847252 1.8109114287078694 0 0 0
1438 4 5.325114333106437 3.0744561936847252 1.8109114287078694 0 0 0
1440 16 3.550076222070895 4.099274924913132 0.008275253707388174 0 0 0
1443 10 8.875190555177758 1.0248187312281325 0.008275253707387928 0 0 0
1444 2 8.875190555177436 3.0744561936847257 1.8109114287078694 0 0 0
1446 12 7.100152444141895 4.099274924913132 0.008275253707388408 0 0 0
1452 16 10.650228666212895 4.099274924913132 0.008275253707388117 0 0 0
1449 14 12.42526677724876 1.0248187312281325 0.008275253707387928 0 0 0
1455 10 15.97534299931976 1.0248187312281318 0.008275253707388155 0 0 0
1450 4 12.425266777248437 3.0744561936847257 1.8109114287078694 0 0 0
1456 2 15.975342999319437 3.074456193684726 1.8109114287078694 0 0 0
1458 12 14.200304888283894 4.099274924913133 0.008275253707387851 0 0 0
1461 14 19.525419221390763 1.0248187312281323 0.008275253707387834 0 0 0
1467 10 23.07549544346176 1.0248187312281325 0.008275253707387919 0 0 0
1462 4 19.52541922139044 3.0744561936847252 1.8109114287078694 0 0 0
1468 2 23.07549544346144 3.0744561936847252 1.8109114287078691 0 0 0
1464 16 17.750381110354898 4.099274924913132 0.008275253707388547 0 0 0
1470 12 21.300457332425896 4.099274924913132 0.008275253707388224 0 0 0
1473 14 26.62557166553276 1.0248187312281325 0.008275253707387915 0 0 0
1474 4 26.625571665532437 3.0744561936847257 1.8109114287078694 0 0 0
1476 16 24.850533554496895 4.099274924913132 0.008275253707388235 0 0 0
1482 12 28.400609776567894 4.099274924913132 0.008275253707388235 0 0 0
1479 10 30.17564788760376 1.0248187312281323 0.008275253707387967 0 0 0
1485 14 33.72572410967475 1.0248187312281325 0.008275253707388032 0 0 0
1480 2 30.175647887603436 3.0744561936847252 1.8109114287078694 0 0 0
1486 4 33.72572410967444 3.0744561936847252 1.8109114287078694 0 0 0
1488 16 31.950685998638892 4.099274924913132 0.00827525370738843 0 0 0
1491 10 37.27580033174575 1.0248187312281325 0.008275253707387834 0 0 0
1497 14 40.825876553816755 1.0248187312281327 0.008275253707387633 0 0 0
1492 2 37.27580033174544 3.0744561936847257 1.8109114287078694 0 0 0
1498 4 40.825876553816435 3.0744561936847252 1.8109114287078694 0 0 0
1494 12 35.500762220709895 4.099274924913132 0.008275253707388255 0 0 0
1500 16 39.05083844278089 4.099274924913132 0.008275253707388155 0 0 0
1503 10 44.37595277588776 1.0248187312281323 0.00827525370738812 0 0 0
1504 2 44.375952775887434 3.0744561936847257 1.8109114287078691 0 0 0
1506 12 42.60091466485189 4.099274924913132 0.008275253707388009 0 0 0
1512 16 46.15099088692289 4.099274924913132 0.008275253707388065 0 0 0
1509 14 47.92602899795876 1.0248187312281314 0.008275253707388233 0 0 0
1347 10 51.476105220029766 1.0248187312281325 0.00827525370738771 -1 0 0
1510 4 47.92602899795844 3.074456193684727 1.8109114287078694 0 0 0
1348 2 51.476105220029446 3.0744561936847252 1.8109114287078694 -1 0 0
1350 12 49.7010671089939 4.099274924913132 0.008275253707388392 -1 0 0
1353 14 55.026181442100764 1.0248187312281325 0.008275253707387981 -1 0 0
1354 4 55.026181442100444 3.0744561936847252 1.8109114287078694 -1 0 0
1356 16 53.2511433310649 4.099274924913132 0.008275253707388174 -1 0 0
1362 12 56.8012195531359 4.099274924913132 0.008275253707388056 -1 0 0
1359 10 58.57625766417176 1.0248187312281316 0.008275253707388368 -1 0 0
1365 14 62.12633388624276 1.0248187312281323 0.008275253707387822 -1 0 0
1360 2 58.57625766417144 3.0744561936847266 1.8109114287078691 -1 0 0
1366 4 62.12633388624244 3.0744561936847252 1.8109114287078694 -1 0 0
1368 16 60.3512957752069 4.099274924913132 0.008275253707388056 -1 0 0
1374 12 63.9013719972779 4.099274924913132 0.00827525370738828 -1 0 0
1371 10 65.67641010831377 1.0248187312281325 0.008275253707387756 -1 0 0
1377 14 69.22648633038477 1.0248187312281325 0.008275253707387865 -1 0 0
1372 2 65.67641010831345 3.0744561936847257 1.8109114287078694 -1 0 0
1378 4 69.22648633038445 3.0744561936847257 1.8109114287078694 -1 0 0
1380 16 67.4514482193489 4.099274924913132 0.008275253707388247 -1 0 0
1383 10 72.77656255245577 1.0248187312281325 0.00827525370738786 -1 0 0
1384 2 72.77656255245545 3.0744561936847257 1.8109114287078694 -1 0 0
1386 12 71.0015244414199 4.099274924913132 0.008275253707388252 -1 0 0
1392 16 74.5516006634909 4.099274924913132 0.008275253707388252 -1 0 0
1389 14 76.32663877452677 1.0248187312281325 0.008275253707387862 -1 0 0
1395 10 79.87671499659777 1.0248187312281325 0.008275253707387862 -1 0 0
1390 4 76.32663877452644 3.0744561936847257 1.8109114287078694 -1 0 0
1396 2 79.87671499659744 3.0744561936847257 1.8109114287078694 -1 0 0
1398 12 78.1016768855619 4.099274924913132 0.008275253707388252 -1 0 0
1404 16 81.6517531076329 4.099274924913132 0.008275253707388252 -1 0 0
1401 14 83.42679121866877 1.0248187312281325 0.008275253707387862 -1 0 0
1407 10 86.97686744073977 1.0248187312281325 0.008275253707387872 -1 0 0
1402 4 83.42679121866844 3.0744561936847257 1.8109114287078694 -1 0 0
1408 2 86.97686744073944 3.0744561936847257 1.8109114287078694 -1 0 0
1410 12 85.2018293297039 4.099274924913132 0.008275253707388252 -1 0 0
1413 14 90.52694366281077 1.0248187312281325 0.00827525370738784 -1 0 0
1414 4 90.52694366281044 3.0744561936847257 1.8109114287078694 -1 0 0
1416 16 88.7519055517749 4.099274924913132 0.008275253707388257 -1 0 0
1422 12 92.3019817738459 4.099274924913132 0.008275253707388158 -1 0 0
1434 12 99.4021342179879 4.099274924913132 0.00827525370738824 -1 0 0
1419 10 94.07701988488176 1.024818731228132 0.00827525370738819 -1 0 0
1425 14 97.62709610695278 1.0248187312281316 0.008275253707388018 -1 0 0
1420 2 94.07701988488144 3.0744561936847257 1.8109114287078691 -1 0 0
1426 4 97.62709610695244 3.0744561936847266 1.8109114287078691 -1 0 0
1428 16 95.8520579959169 4.099274924913131 0.00827525370738819 -1 0 0
1599 10 1.7750381110357603 7.173731118598134 0.008275253707388325 0 0 0
1597 1 2.3805759986177665e-13 6.148912387369726 1.8109114287078691 0 0 0
1603 3 3.5500762220712363 6.148912387369727 1.8109114287078694 0 0 0
1605 14 5.325114333106759 7.173731118598134 0.008275253707388202 0 0 0
1600 2 1.7750381110354372 9.223368581054729 1.8109114287078694 0 0 0
1606 4 5.325114333106437 9.223368581054729 1.8109114287078691 0 0 0
1608 16 3.550076222070895 10.248187312283136 0.008275253707388363 0 0 0
1609 1 7.1001524441422355 6.148912387369727 1.8109114287078694 0 0 0
1611 10 8.875190555177758 7.173731118598134 0.008275253707388113 0 0 0
1615 3 10.650228666213236 6.148912387369727 1.8109114287078694 0 0 0
1612 2 8.875190555177436 9.223368581054729 1.8109114287078694 0 0 0
1614 12 7.100152444141895 10.248187312283134 0.008275253707388583 0 0 0
1620 16 10.650228666212895 10.248187312283134 0.008275253707388243 0 0 0
1617 14 12.42526677724876 7.173731118598134 0.008275253707388094 0 0 0
1621 1 14.200304888284236 6.148912387369727 1.8109114287078694 0 0 0
1623 10 15.97534299931976 7.173731118598134 0.008275253707388385 0 0 0
1618 4 12.425266777248437 9.223368581054729 1.8109114287078691 0 0 0
1624 2 15.975342999319437 9.223368581054729 1.8109114287078694 0 0 0
1626 12 14.200304888283894 10.248187312283136 0.008275253707387978 0 0 0
1627 3 17.75038111035524 6.148912387369727 1.8109114287078694 0 0 0
1629 14 19.525419221390763 7.173731118598134 0.008275253707388207 0 0 0
1633 1 21.300457332426237 6.148912387369727 1.8109114287078694 0 0 0
1635 10 23.07549544346176 7.173731118598134 0.008275253707388285 0 0 0
1630 4 19.52541922139044 9.223368581054729 1.8109114287078696 0 0 0
1636 2 23.07549544346144 9.223368581054729 1.8109114287078691 0 0 0
1632 16 17.750381110354898 10.248187312283134 0.00827525370738861 0 0 0
1638 12 21.300457332425896 10.248187312283134 0.008275253707388306 0 0 0
1639 3 24.850533554497236 6.148912387369727 1.8109114287078694 0 0 0
1641 14 26.62557166553276 7.173731118598134 0.008275253707388285 0 0 0
1645 1 28.400609776568235 6.148912387369727 1.8109114287078694 0 0 0
1642 4 26.625571665532437 9.223368581054729 1.8109114287078694 0 0 0
1644 16 24.850533554496895 10.248187312283134 0.008275253707388292 0 0 0
1650 12 28.400609776567894 10.248187312283134 0.008275253707388292 0 0 0
1647 10 30.17564788760376 7.173731118598134 0.008275253707388337 0 0 0
1653 14 33.72572410967475 7.173731118598134 0.008275253707388285 0 0 0
1651 3 31.950685998639234 6.148912387369726 1.8109114287078694 0 0 0
1648 2 30.175647887603436 9.223368581054729 1.8109114287078694 0 0 0
1654 4 33.72572410967444 9.223368581054729 1.8109114287078694 0 0 0
1656 16 31.950685998638892 10.248187312283134 0.008275253707388476 0 0 0
1657 1 35.50076222071023 6.148912387369727 1.8109114287078694 0 0 0
1659 10 37.27580033174575 7.173731118598134 0.008275253707388134 0 0 0
1663 3 39.050838442781235 6.148912387369727 1.8109114287078694 0 0 0
1665 14 40.825876553816755 7.173731118598134 0.008275253707387858 0 0 0
1660 2 37.27580033174544 9.223368581054729 1.8109114287078694 0 0 0
1666 4 40.825876553816435 9.223368581054729 1.8109114287078694 0 0 0
1662 12 35.500762220709895 10.248187312283134 0.008275253707388231 0 0 0
1668 16 39.05083844278089 10.248187312283134 0.008275253707388137 0 0 0
1669 1 42.60091466485223 6.148912387369728 1.8109114287078694 0 0 0
1671 10 44.37595277588776 7.173731118598135 0.008275253707388144 0 0 0
1675 3 46.15099088692324 6.148912387369727 1.8109114287078694 0 0 0
1672 2 44.375952775887434 9.223368581054729 1.8109114287078694 0 0 0
1674 12 42.60091466485189 10.248187312283134 0.008275253707388281 0 0 0
1680 16 46.15099088692289 10.248187312283136 0.00827525370738822 0 0 0
1677 14 47.92602899795876 7.173731118598133 0.008275253707388562 0 0 0
1515 10 51.47610522002976 7.173731118598134 0.00827525370738797 -1 0 0
1513 1 49.70106710899424 6.148912387369727 1.8109114287078694 -1 0 0
1678 4 47.92602899795844 9.22336858105473 1.8109114287078694 0 0 0
1516 2 51.476105220029446 9.223368581054729 1.8109114287078694 -1 0 0
1518 12 49.7010671089939 10.248187312283134 0.008275253707388405 -1 0 0
1519 3 53.251143331065244 6.148912387369728 1.8109114287078694 -1 0 0
1521 14 55.026181442100764 7.173731118598134 0.008275253707388014 -1 0 0
1525 1 56.80121955313624 6.148912387369727 1.8109114287078694 -1 0 0
1522 4 55.026181442100444 9.223368581054729 1.8109114287078691 -1 0 0
1524 16 53.2511433310649 10.248187312283134 0.008275253707388207 -1 0 0
1530 12 56.8012195531359 10.248187312283136 0.008275253707388092 -1 0 0
1527 10 58.57625766417176 7.173731118598134 0.00827525370738853 -1 0 0
1531 3 60.35129577520724 6.148912387369727 1.8109114287078691 -1 0 0
1533 14 62.12633388624276 7.173731118598134 0.008275253707388087 -1 0 0
1537 1 63.90137199727825 6.148912387369728 1.8109114287078694 -1 0 0
1528 2 58.57625766417144 9.223368581054729 1.8109114287078691 -1 0 0
1534 4 62.12633388624244 9.223368581054729 1.8109114287078694 -1 0 0
1536 16 60.3512957752069 10.248187312283136 0.008275253707388075 -1 0 0
1542 12 63.9013719972779 10.248187312283134 0.008275253707388432 -1 0 0
1539 10 65.67641010831377 7.173731118598134 0.008275253707388155 -1 0 0
1543 3 67.45144821934925 6.148912387369727 1.8109114287078694 -1 0 0
1545 14 69.22648633038477 7.173731118598134 0.008275253707388287 -1 0 0
1540 2 65.67641010831345 9.223368581054729 1.8109114287078694 -1 0 0
1546 4 69.22648633038445 9.223368581054729 1.8109114287078694 -1 0 0
1548 16 67.4514482193489 10.248187312283134 0.008275253707388281 -1 0 0
1549 1 71.00152444142024 6.148912387369727 1.8109114287078694 -1 0 0
1551 10 72.77656255245577 7.173731118598134 0.008275253707388287 -1 0 0
1555 3 74.55160066349124 6.148912387369727 1.8109114287078694 -1 0 0
1552 2 72.77656255245545 9.223368581054729 1.8109114287078694 -1 0 0
1554 12 71.0015244414199 10.248187312283134 0.008275253707388283 -1 0 0
1560 16 74.5516006634909 10.248187312283134 0.008275253707388283 -1 0 0
1557 14 76.32663877452677 7.173731118598134 0.008275253707388287 -1 0 0
1561 1 78.10167688556224 6.148912387369727 1.8109114287078694 -1 0 0
1563 10 79.87671499659777 7.173731118598134 0.008275253707388287 -1 0 0
1567 3 81.65175310763324 6.148912387369727 1.8109114287078694 -1 0 0
1558 4 76.32663877452644 9.223368581054729 1.8109114287078694 -1 0 0
1564 2 79.87671499659744 9.223368581054729 1.8109114287078694 -1 0 0
1566 12 78.1016768855619 10.248187312283134 0.008275253707388283 -1 0 0
1572 16 81.6517531076329 10.248187312283134 0.008275253707388283 -1 0 0
1569 14 83.42679121866877 7.173731118598134 0.008275253707388287 -1 0 0
1573 1 85.20182932970424 6.148912387369727 1.8109114287078694 -1 0 0
1575 10 86.97686744073977 7.173731118598134 0.008275253707388292 -1 0 0
1570 4 83.42679121866844 9.223368581054729 1.8109114287078694 -1 0 0
1576 2 86.97686744073944 9.223368581054729 1.8109114287078694 -1 0 0
1578 12 85.2018293297039 10.248187312283134 0.008275253707388283 -1 0 0
1579 3 88.75190555177524 6.148912387369727 1.8109114287078694 -1 0 0
1581 14 90.52694366281077 7.173731118598134 0.008275253707388061 -1 0 0
1585 1 92.30198177384624 6.148912387369728 1.8109114287078694 -1 0 0
1582 4 90.52694366281044 9.223368581054729 1.8109114287078694 -1 0 0
1584 16 88.7519055517749 10.248187312283134 0.008275253707388297 -1 0 0
1590 12 92.3019817738459 10.248187312283136 0.008275253707388327 -1 0 0
1602 12 99.4021342179879 10.248187312283134 0.008275253707388316 -1 0 0
1587 10 94.07701988488176 7.173731118598134 0.008275253707388365 -1 0 0
1591 3 95.85205799591725 6.148912387369728 1.8109114287078694 -1 0 0
1593 14 97.62709610695278 7.173731118598133 0.008275253707388193 -1 0 0
1588 2 94.07701988488144 9.223368581054729 1.8109114287078694 -1 0 0
1594 4 97.62709610695244 9.22336858105473 1.8109114287078691 -1 0 0
1596 16 95.8520579959169 10.248187312283136 0.008275253707388327 -1 0 0
1767 10 1.7750381110357603 13.322643505968133 0.008275253707388124 0 0 0
1765 1 2.377677170333759e-13 12.297824774739727 1.8109114287078691 0 0 0
1771 3 3.5500762220712363 12.297824774739727 1.8109114287078694 0 0 0
1773 14 5.325114333106759 13.322643505968133 0.008275253707388049 0 0 0
1768 2 1.7750381110354372 15.372280968424727 1.8109114287078694 0 0 0
1774 4 5.325114333106437 15.372280968424727 1.8109114287078691 0 0 0
1776 16 3.550076222070895 16.397099699653133 0.008275253707388344 0 0 0
1777 1 7.1001524441422355 12.297824774739727 1.8109114287078694 0 0 0
1779 10 8.875190555177758 13.322643505968133 0.008275253707388082 0 0 0
1783 3 10.650228666213236 12.297824774739729 1.8109114287078694 0 0 0
1780 2 8.875190555177436 15.372280968424727 1.8109114287078694 0 0 0
1782 12 7.100152444141895 16.397099699653133 0.008275253707388477 0 0 0
1788 16 10.650228666212895 16.397099699653133 0.008275253707388002 0 0 0
1785 14 12.42526677724876 13.322643505968134 0.008275253707388274 0 0 0
1789 1 14.200304888284236 12.297824774739729 1.8109114287078694 0 0 0
1791 10 15.97534299931976 13.322643505968133 0.008275253707388425 0 0 0
1786 4 12.425266777248437 15.372280968424727 1.8109114287078694 0 0 0
1792 2 15.975342999319437 15.372280968424727 1.8109114287078694 0 0 0
1794 12 14.200304888283894 16.397099699653133 0.008275253707387683 0 0 0
1795 3 17.75038111035524 12.297824774739727 1.8109114287078694 0 0 0
1797 14 19.525419221390763 13.322643505968133 0.008275253707388085 0 0 0
1801 1 21.300457332426237 12.297824774739727 1.8109114287078694 0 0 0
1803 10 23.07549544346176 13.322643505968134 0.008275253707388157 0 0 0
1798 4 19.52541922139044 15.372280968424727 1.8109114287078694 0 0 0
1804 2 23.07549544346144 15.372280968424727 1.8109114287078694 0 0 0
1800 16 17.750381110354898 16.397099699653133 0.008275253707388543 0 0 0
1806 12 21.3004573324259 16.397099699653133 0.008275253707388132 0 0 0
1807 3 24.850533554497236 12.297824774739727 1.8109114287078694 0 0 0
1809 14 26.62557166553276 13.322643505968134 0.008275253707388157 0 0 0
1813 1 28.400609776568235 12.297824774739727 1.8109114287078694 0 0 0
1810 4 26.625571665532437 15.372280968424727 1.8109114287078694 0 0 0
1812 16 24.8505335544969 16.397099699653136 0.008275253707388143 0 0 0
1818 12 28.400609776567897 16.397099699653136 0.008275253707388143 0 0 0
1815 10 30.17564788760376 13.322643505968134 0.008275253707388209 0 0 0
1821 14 33.72572410967475 13.322643505968134 0.008275253707388242 0 0 0
1819 3 31.950685998639234 12.297824774739727 1.8109114287078691 0 0 0
1816 2 30.175647887603436 15.372280968424727 1.8109114287078694 0 0 0
1822 4 33.72572410967444 15.372280968424727 1.8109114287078694 0 0 0
1824 16 31.950685998638896 16.397099699653133 0.008275253707388373 0 0 0
1825 1 35.50076222071023 12.297824774739727 1.8109114287078691 0 0 0
1827 10 37.27580033174575 13.322643505968134 0.008275253707388082 0 0 0
1831 3 39.050838442781235 12.297824774739729 1.8109114287078694 0 0 0
1833 14 40.825876553816755 13.322643505968134 0.008275253707387908 0 0 0
1828 2 37.27580033174544 15.372280968424727 1.8109114287078691 0 0 0
1834 4 40.825876553816435 15.372280968424727 1.8109114287078694 0 0 0
1830 12 35.500762220709895 16.397099699653136 0.008275253707388215 0 0 0
1836 16 39.05083844278089 16.397099699653133 0.008275253707388066 0 0 0
1837 1 42.60091466485223 12.297824774739729 1.8109114287078694 0 0 0
1839 10 44.37595277588776 13.322643505968134 0.008275253707388346 0 0 0
1843 3 46.15099088692324 12.297824774739729 1.8109114287078694 0 0 0
1840 2 44.375952775887434 15.372280968424727 1.8109114287078694 0 0 0
1842 12 42.60091466485189 16.397099699653133 0.008275253707387928 0 0 0
1848 16 46.15099088692289 16.397099699653133 0.008275253707388033 0 0 0
1845 14 47.92602899795876 13.322643505968133 0.008275253707388488 0 0 0
1683 10 51.476105220029766 13.322643505968134 0.008275253707388 -1 0 0
1681 1 49.701067108994245 12.297824774739729 1.8109114287078694 -1 0 0
1846 4 47.92602899795844 15.372280968424729 1.8109114287078694 0 0 0
1684 2 51.476105220029446 15.372280968424727 1.8109114287078694 -1 0 0
1686 12 49.7010671089939 16.397099699653133 0.008275253707388356 -1 0 0
1687 3 53.251143331065244 12.297824774739729 1.8109114287078694 -1 0 0
1689 14 55.026181442100764 13.322643505968134 0.008275253707388243 -1 0 0
1693 1 56.80121955313624 12.297824774739729 1.8109114287078694 -1 0 0
1690 4 55.026181442100444 15.372280968424727 1.8109114287078691 -1 0 0
1692 16 53.2511433310649 16.397099699653133 0.008275253707388065 -1 0 0
1698 12 56.8012195531359 16.397099699653136 0.008275253707387907 -1 0 0
1695 10 58.57625766417176 13.322643505968133 0.008275253707388606 -1 0 0
1699 3 60.35129577520724 12.297824774739729 1.8109114287078691 -1 0 0
1701 14 62.12633388624276 13.322643505968133 0.008275253707388006 -1 0 0
1705 1 63.90137199727825 12.297824774739729 1.8109114287078694 -1 0 0
1696 2 58.57625766417144 15.372280968424729 1.8109114287078694 -1 0 0
1702 4 62.12633388624244 15.372280968424727 1.8109114287078694 -1 0 0
1704 16 60.3512957752069 16.397099699653133 0.00827525370738802 -1 0 0
1710 12 63.9013719972779 16.397099699653133 0.008275253707388332 -1 0 0
1707 10 65.67641010831377 13.322643505968133 0.008275253707387966 -1 0 0
1711 3 67.45144821934925 12.297824774739727 1.8109114287078694 -1 0 0
1713 14 69.22648633038477 13.322643505968134 0.008275253707388158 -1 0 0
1708 2 65.67641010831345 15.372280968424727 1.8109114287078691 -1 0 0
1714 4 69.22648633038445 15.372280968424727 1.8109114287078694 -1 0 0
1716 16 67.4514482193489 16.397099699653133 0.008275253707388205 -1 0 0
1717 1 71.00152444142024 12.297824774739727 1.8109114287078694 -1 0 0
1719 10 72.77656255245577 13.322643505968134 0.008275253707388158 -1 0 0
1723 3 74.55160066349124 12.297824774739727 1.8109114287078694 -1 0 0
1720 2 72.77656255245545 15.372280968424727 1.8109114287078691 -1 0 0
1722 12 71.0015244414199 16.397099699653136 0.008275253707388143 -1 0 0
1728 16 74.5516006634909 16.397099699653136 0.008275253707388143 -1 0 0
1725 14 76.32663877452677 13.322643505968134 0.008275253707388158 -1 0 0
1729 1 78.10167688556224 12.297824774739727 1.8109114287078694 -1 0 0
1731 10 79.87671499659777 13.322643505968134 0.008275253707388158 -1 0 0
1735 3 81.65175310763324 12.297824774739727 1.8109114287078694 -1 0 0
1726 4 76.32663877452644 15.372280968424727 1.8109114287078694 -1 0 0
1732 2 79.87671499659744 15.372280968424727 1.8109114287078694 -1 0 0
1734 12 78.1016768855619 16.397099699653136 0.008275253707388143 -1 0 0
1740 16 81.6517531076329 16.397099699653136 0.008275253707388143 -1 0 0
1737 14 83.42679121866877 13.322643505968134 0.008275253707388158 -1 0 0
1741 1 85.20182932970424 12.297824774739727 1.8109114287078694 -1 0 0
1743 10 86.97686744073977 13.322643505968134 0.008275253707388165 -1 0 0
1738 4 83.42679121866844 15.372280968424727 1.8109114287078691 -1 0 0
1744 2 86.97686744073944 15.372280968424727 1.8109114287078694 -1 0 0
1746 12 85.2018293297039 16.397099699653136 0.008275253707388143 -1 0 0
1747 3 88.75190555177524 12.297824774739727 1.8109114287078694 -1 0 0
1749 14 90.52694366281077 13.322643505968134 0.008275253707388117 -1 0 0
1753 1 92.30198177384624 12.297824774739729 1.8109114287078694 -1 0 0
1750 4 90.52694366281044 15.372280968424727 1.8109114287078694 -1 0 0
1752 16 88.7519055517749 16.397099699653136 0.008275253707388153 -1 0 0
1758 12 92.3019817738459 16.397099699653136 0.00827525370738796 -1 0 0
1770 12 99.4021342179879 16.397099699653136 0.008275253707388268 -1 0 0
1755 10 94.07701988488176 13.322643505968133 0.008275253707388453 -1 0 0
1759 3 95.85205799591725 12.297824774739729 1.8109114287078694 -1 0 0
1761 14 97.62709610695278 13.322643505968134 0.00827525370738821 -1 0 0
1756 2 94.07701988488144 15.372280968424727 1.8109114287078694 -1 0 0
1762 4 97.62709610695244 15.372280968424729 1.8109114287078691 -1 0 0
1764 16 95.8520579959169 16.397099699653133 0.00827525370738804 -1 0 0
1935 10 1.7750381110357603 19.47155589333813 0.008275253707387785 0 0 0
1933 1 2.378192390852384e-13 18.446737162109727 1.8109114287078691 0 0 0
1939 3 3.5500762220712363 18.446737162109727 1.8109114287078694 0 0 0
1941 14 5.325114333106759 19.47155589333813 0.008275253707387707 0 0 0
1936 2 1.775038111035437 21.521193355794725 1.8109114287078691 0 0 0
1942 4 5.325114333106437 21.521193355794725 1.8109114287078691 0 0 0
1944 16 3.550076222070895 22.546012087023133 0.008275253707388514 0 0 0
1945 1 7.1001524441422355 18.446737162109727 1.8109114287078691 0 0 0
1947 10 8.875190555177758 19.47155589333813 0.008275253707387575 0 0 0
1951 3 10.650228666213236 18.446737162109727 1.8109114287078694 0 0 0
1948 2 8.875190555177436 21.521193355794725 1.8109114287078694 0 0 0
1950 12 7.100152444141895 22.546012087023133 0.00827525370738867 0 0 0
1956 16 10.650228666212895 22.546012087023133 0.0082752537073886 0 0 0
1953 14 12.42526677724876 19.47155589333813 0.008275253707387738 0 0 0
1957 1 14.200304888284236 18.446737162109724 1.8109114287078694 0 0 0
1959 10 15.97534299931976 19.47155589333813 0.008275253707388021 0 0 0
1954 4 12.425266777248437 21.521193355794725 1.8109114287078694 0 0 0
1960 2 15.975342999319437 21.521193355794725 1.8109114287078694 0 0 0
1962 12 14.200304888283894 22.546012087023133 0.008275253707388077 0 0 0
1963 3 17.75038111035524 18.446737162109724 1.8109114287078694 0 0 0
1965 14 19.525419221390763 19.47155589333813 0.008275253707387601 0 0 0
1969 1 21.300457332426237 18.446737162109727 1.8109114287078691 0 0 0
1971 10 23.07549544346176 19.47155589333813 0.008275253707387721 0 0 0
1966 4 19.52541922139044 21.521193355794725 1.8109114287078696 0 0 0
1972 2 23.07549544346144 21.521193355794725 1.8109114287078694 0 0 0
1968 16 17.750381110354898 22.546012087023133 0.00827525370738873 0 0 0
1974 12 21.300457332425896 22.546012087023133 0.008275253707388554 0 0 0
1975 3 24.850533554497236 18.446737162109727 1.8109114287078691 0 0 0
1977 14 26.62557166553276 19.47155589333813 0.008275253707387721 0 0 0
1981 1 28.400609776568235 18.446737162109727 1.8109114287078691 0 0 0
1978 4 26.625571665532437 21.521193355794725 1.8109114287078694 0 0 0
1980 16 24.850533554496895 22.546012087023133 0.008275253707388557 0 0 0
1986 12 28.400609776567894 22.546012087023133 0.008275253707388554 0 0 0
1983 10 30.17564788760376 19.47155589333813 0.008275253707387773 0 0 0
1989 14 33.72572410967475 19.47155589333813 0.008275253707387811 0 0 0
1987 3 31.950685998639234 18.446737162109727 1.8109114287078691 0 0 0
1984 2 30.175647887603436 21.521193355794725 1.8109114287078694 0 0 0
1990 4 33.72572410967444 21.521193355794725 1.810911428707869 0 0 0
1992 16 31.950685998638892 22.546012087023133 0.008275253707388755 0 0 0
1993 1 35.50076222071023 18.446737162109727 1.8109114287078694 0 0 0
1995 10 37.27580033174575 19.47155589333813 0.008275253707387614 0 0 0
1999 3 39.050838442781235 18.446737162109727 1.8109114287078694 0 0 0
2001 14 40.825876553816755 19.47155589333813 0.008275253707387414 0 0 0
1996 2 37.27580033174544 21.521193355794725 1.8109114287078691 0 0 0
2002 4 40.825876553816435 21.521193355794725 1.8109114287078694 0 0 0
1998 12 35.500762220709895 22.546012087023133 0.00827525370738853 0 0 0
2004 16 39.05083844278089 22.546012087023133 0.008275253707388429 0 0 0
2005 1 42.60091466485223 18.446737162109727 1.8109114287078694 0 0 0
2007 10 44.37595277588776 19.47155589333813 0.008275253707387782 0 0 0
2011 3 46.15099088692324 18.446737162109727 1.8109114287078694 0 0 0
2008 2 44.375952775887434 21.521193355794725 1.8109114287078694 0 0 0
2010 12 42.60091466485189 22.546012087023133 0.008275253707388412 0 0 0
2016 16 46.15099088692289 22.546012087023133 0.008275253707388342 0 0 0
2013 14 47.92602899795876 19.47155589333813 0.008275253707388078 0 0 0
1851 10 51.476105220029766 19.47155589333813 0.00827525370738736 -1 0 0
1849 1 49.701067108994245 18.446737162109727 1.8109114287078694 -1 0 0
2014 4 47.92602899795844 21.52119335579473 1.8109114287078694 0 0 0
1852 2 51.476105220029446 21.521193355794725 1.8109114287078694 -1 0 0
1854 12 49.7010671089939 22.546012087023133 0.008275253707388566 -1 0 0
1855 3 53.251143331065244 18.446737162109727 1.8109114287078694 -1 0 0
1857 14 55.026181442100764 19.47155589333813 0.00827525370738758 -1 0 0
1861 1 56.80121955313624 18.446737162109727 1.8109114287078694 -1 0 0
1858 4 55.026181442100444 21.521193355794725 1.8109114287078694 -1 0 0
1860 16 53.2511433310649 22.546012087023136 0.008275253707388661 -1 0 0
1866 12 56.8012195531359 22.546012087023133 0.0082752537073883 -1 0 0
1863 10 58.57625766417176 19.47155589333813 0.008275253707388195 -1 0 0
1867 3 60.35129577520724 18.446737162109727 1.8109114287078694 -1 0 0
1869 14 62.12633388624276 19.47155589333813 0.0082752537073876 -1 0 0
1873 1 63.90137199727825 18.446737162109727 1.8109114287078694 -1 0 0
1864 2 58.57625766417144 21.52119335579473 1.8109114287078694 -1 0 0
1870 4 62.12633388624244 21.521193355794725 1.8109114287078694 -1 0 0
1872 16 60.3512957752069 22.546012087023133 0.008275253707388278 -1 0 0
1878 12 63.9013719972779 22.546012087023133 0.008275253707388528 -1 0 0
1875 10 65.67641010831377 19.47155589333813 0.008275253707387546 -1 0 0
1879 3 67.45144821934925 18.446737162109727 1.8109114287078694 -1 0 0
1881 14 69.22648633038477 19.47155589333813 0.008275253707387659 -1 0 0
1876 2 65.67641010831345 21.521193355794725 1.8109114287078691 -1 0 0
1882 4 69.22648633038445 21.521193355794725 1.8109114287078694 -1 0 0
1884 16 67.4514482193489 22.546012087023133 0.008275253707388552 -1 0 0
1885 1 71.00152444142024 18.446737162109727 1.8109114287078694 -1 0 0
1887 10 72.77656255245577 19.47155589333813 0.008275253707387659 -1 0 0
1891 3 74.55160066349124 18.446737162109727 1.8109114287078694 -1 0 0
1888 2 72.77656255245545 21.521193355794725 1.8109114287078694 -1 0 0
1890 12 71.0015244414199 22.546012087023133 0.008275253707388555 -1 0 0
1896 16 74.5516006634909 22.546012087023133 0.008275253707388552 -1 0 0
1893 14 76.32663877452677 19.47155589333813 0.008275253707387659 -1 0 0
1897 1 78.10167688556224 18.446737162109727 1.8109114287078694 -1 0 0
1899 10 79.87671499659777 19.47155589333813 0.008275253707387659 -1 0 0
1903 3 81.65175310763324 18.446737162109727 1.8109114287078694 -1 0 0
1894 4 76.32663877452644 21.521193355794725 1.8109114287078694 -1 0 0
1900 2 79.87671499659744 21.521193355794725 1.8109114287078694 -1 0 0
1902 12 78.1016768855619 22.546012087023133 0.008275253707388555 -1 0 0
1908 16 81.6517531076329 22.546012087023133 0.008275253707388552 -1 0 0
1905 14 83.42679121866877 19.47155589333813 0.008275253707387659 -1 0 0
1909 1 85.20182932970424 18.446737162109727 1.8109114287078694 -1 0 0
1911 10 86.97686744073977 19.47155589333813 0.008275253707387662 -1 0 0
1906 4 83.42679121866844 21.521193355794725 1.8109114287078694 -1 0 0
1912 2 86.97686744073944 21.521193355794725 1.8109114287078694 -1 0 0
1914 12 85.2018293297039 22.546012087023133 0.008275253707388555 -1 0 0
1915 3 88.75190555177524 18.446737162109727 1.8109114287078694 -1 0 0
1917 14 90.52694366281077 19.47155589333813 0.008275253707387622 -1 0 0
1921 1 92.30198177384624 18.446737162109727 1.8109114287078694 -1 0 0
1918 4 90.52694366281044 21.521193355794725 1.8109114287078694 -1 0 0
1920 16 88.7519055517749 22.546012087023133 0.008275253707388568 -1 0 0
1926 12 92.3019817738459 22.546012087023136 0.008275253707388509 -1 0 0
1938 12 99.4021342179879 22.546012087023133 0.00827525370738852 -1 0 0
1923 10 94.07701988488176 19.47155589333813 0.008275253707387999 -1 0 0
1927 3 95.85205799591725 18.446737162109727 1.8109114287078694 -1 0 0
1929 14 97.62709610695278 19.47155589333813 0.008275253707387875 -1 0 0