LAMMPS data file via write_data, version 29 Aug 2024, timestep = 2, units = metal

6750 atoms
9 atom types

0 99.2023754408 xlo xhi
0 103.094132697 ylo yhi
-50 50 zlo zhi

Masses

1 91.224
2 91.224
3 91.224
4 127.6
5 127.6
6 127.6
7 127.6
8 127.6
9 127.6

Atoms # atomic

1279 1 1.98475183662904 3.4357415305332877 1.7931314612081275 0 0 0
1134 5 3.968087964003921 2.2909833358269927 0.03697749658906474 0 0 0
1285 1 5.952846854261039 3.4357415305332872 1.7931314612081275 0 0 0
1140 5 7.936182981635919 2.290983335826993 0.03697749658906513 0 0 0
1291 1 9.920941871893039 3.4357415305332877 1.7931314612081277 0 0 0
1146 5 11.904277999267919 2.2909833358269927 0.03697749658906471 0 0 0
1297 1 13.88903688952504 3.4357415305332877 1.7931314612081275 0 0 0
1152 5 15.872373016899921 2.290983335826993 0.03697749658906564 0 0 0
1303 1 17.85713190715704 3.4357415305332872 1.7931314612081275 0 0 0
1158 5 19.84046803453192 2.2909833358269927 0.03697749658906471 0 0 0
1309 1 21.825226924789042 3.4357415305332877 1.7931314612081275 0 0 0
1164 5 23.808563052163922 2.2909833358269927 0.03697749658906471 0 0 0
1315 1 25.79332194242104 3.4357415305332877 1.7931314612081277 0 0 0
1170 5 27.77665806979592 2.2909833358269935 0.03697749658906555 0 0 0
1321 1 29.76141696005304 3.4357415305332877 1.7931314612081277 0 0 0
1176 5 31.74475308742792 2.2909833358269927 0.036977496589064456 0 0 0
1327 1 33.72951197768504 3.4357415305332877 1.7931314612081275 0 0 0
1182 5 35.71284810505992 2.2909833358269927 0.03697749658906463 0 0 0
1333 1 37.69760699531704 3.4357415305332877 1.7931314612081277 0 0 0
1188 5 39.68094312269192 2.2909833358269935 0.036977496589065934 0 0 0
1339 1 41.66570201294904 3.4357415305332877 1.7931314612081275 0 0 0
1194 5 43.649038140323924 2.2909833358269927 0.03697749658906428 0 0 0
1345 1 45.63379703058104 3.4357415305332877 1.7931314612081275 0 0 0
1200 5 47.61713315795592 2.2909833358269927 0.03697749658906488 0 0 0
1056 5 51.58522817558792 2.2909833358269927 0.036977496589065156 -1 0 0
1201 1 49.60189204821304 3.4357415305332877 1.7931314612081275 -1 0 0
1207 1 53.56998706584504 3.4357415305332877 1.7931314612081275 -1 0 0
1062 5 55.55332319321992 2.2909833358269927 0.036977496589064615 -1 0 0
1213 1 57.538082083477036 3.4357415305332877 1.793131461208128 -1 0 0
1068 5 59.52141821085192 2.2909833358269927 0.03697749658906491 -1 0 0
1219 1 61.50617710110904 3.4357415305332872 1.793131461208127 -1 0 0
1074 5 63.489513228483915 2.2909833358269927 0.03697749658906513 -1 0 0
1225 1 65.47427211874103 3.4357415305332872 1.7931314612081275 -1 0 0
1080 5 67.45760824611592 2.2909833358269927 0.03697749658906512 -1 0 0
1231 1 69.44236713637304 3.4357415305332877 1.7931314612081275 -1 0 0
1086 5 71.42570326374792 2.2909833358269927 0.03697749658906428 -1 0 0
1092 5 75.39379828137992 2.2909833358269935 0.03697749658906554 -1 0 0
1237 1 73.41046215400503 3.4357415305332877 1.7931314612081275 -1 0 0
1243 1 77.37855717163703 3.4357415305332877 1.7931314612081277 -1 0 0
1098 5 79.36189329901192 2.2909833358269927 0.036977496589065045 -1 0 0
1249 1 81.34665218926904 3.4357415305332877 1.7931314612081275 -1 0 0
1104 5 83.32998831664392 2.2909833358269927 0.03697749658906429 -1 0 0
1255 1 85.31474720690103 3.4357415305332877 1.7931314612081277 -1 0 0
1110 5 87.29808333427592 2.2909833358269935 0.036977496589065545 -1 0 0
1261 1 89.28284222453303 3.4357415305332877 1.7931314612081277 -1 0 0
1116 5 91.26617835190793 2.2909833358269927 0.036977496589065045 -1 0 0
1267 1 93.25093724216504 3.4357415305332877 1.7931314612081275 -1 0 0
1128 5 99.20236838717192 2.290983335826993 0.03697749658906556 -1 0 0
1122 5 95.23427336953992 2.2909833358269927 0.03697749658906429 -1 0 0
1273 1 97.21903225979703 3.4357415305332872 1.7931314612081275 -1 0 0
1283 5 1.9840404551879216 5.727454425726994 0.03697749658906557 0 0 0
1274 1 0.0007043278130391993 6.872212620433286 1.7931314612081286 0 0 0
1280 1 3.9687993454450403 6.872212620433287 1.7931314612081286 0 0 0
1429 1 1.98475183662904 10.308683710333286 1.7931314612081284 0 0 0
1284 5 3.968087964003921 9.16392551562699 0.036977496589064726 0 0 0
1289 5 5.952135472819919 5.727454425726993 0.03697749658906503 0 0 0
1295 5 9.920230490451921 5.727454425726994 0.036977496589065566 0 0 0
1286 1 7.936894363077039 6.872212620433286 1.7931314612081288 0 0 0
1435 1 5.952846854261039 10.308683710333286 1.7931314612081284 0 0 0
1290 5 7.936182981635919 9.16392551562699 0.03697749658906511 0 0 0
1441 1 9.920941871893039 10.308683710333286 1.7931314612081286 0 0 0
1301 5 13.888325508083918 5.727454425726994 0.03697749658906541 0 0 0
1292 1 11.90498938070904 6.872212620433287 1.7931314612081288 0 0 0
1298 1 15.87308439834104 6.872212620433287 1.7931314612081288 0 0 0
1296 5 11.904277999267919 9.16392551562699 0.03697749658906465 0 0 0
1447 1 13.88903688952504 10.308683710333286 1.7931314612081284 0 0 0
1302 5 15.872373016899921 9.16392551562699 0.03697749658906558 0 0 0
1307 5 17.856420525715922 5.727454425726993 0.036977496589065115 0 0 0
1313 5 21.82451554334792 5.727454425726994 0.036977496589065934 0 0 0
1304 1 19.84117941597304 6.872212620433287 1.7931314612081288 0 0 0
1453 1 17.85713190715704 10.308683710333286 1.7931314612081284 0 0 0
1308 5 19.84046803453192 9.16392551562699 0.03697749658906463 0 0 0
1459 1 21.825226924789042 10.308683710333286 1.7931314612081284 0 0 0
1319 5 25.79261056097992 5.727454425726993 0.03697749658906502 0 0 0
1310 1 23.80927443360504 6.872212620433287 1.7931314612081288 0 0 0
1316 1 27.777369451237043 6.872212620433286 1.7931314612081288 0 0 0
1314 5 23.808563052163922 9.16392551562699 0.036977496589064636 0 0 0
1465 1 25.79332194242104 10.308683710333286 1.7931314612081284 0 0 0
1320 5 27.77665806979592 9.16392551562699 0.03697749658906557 0 0 0
1325 5 29.760705578611923 5.727454425726993 0.03697749658906499 0 0 0
1331 5 33.72880059624392 5.727454425726994 0.03697749658906614 0 0 0
1322 1 31.745464468869045 6.872212620433287 1.7931314612081286 0 0 0
1471 1 29.76141696005304 10.308683710333286 1.7931314612081284 0 0 0
1326 5 31.74475308742792 9.16392551562699 0.03697749658906443 0 0 0
1477 1 33.72951197768504 10.308683710333286 1.7931314612081282 0 0 0
1337 5 37.696895613875924 5.727454425726993 0.03697749658906465 0 0 0
1328 1 35.71355948650104 6.872212620433287 1.7931314612081288 0 0 0
1334 1 39.68165450413304 6.872212620433287 1.7931314612081288 0 0 0
1332 5 35.71284810505992 9.16392551562699 0.036977496589064685 0 0 0
1483 1 37.69760699531704 10.308683710333286 1.7931314612081282 0 0 0
1338 5 39.68094312269192 9.16392551562699 0.03697749658906595 0 0 0
1343 5 41.66499063150792 5.727454425726993 0.03697749658906504 0 0 0
1349 5 45.63308564913992 5.727454425726994 0.03697749658906595 0 0 0
1340 1 43.64974952176504 6.872212620433287 1.7931314612081286 0 0 0
1489 1 41.66570201294904 10.308683710333286 1.7931314612081284 0 0 0
1344 5 43.649038140323924 9.16392551562699 0.036977496589064296 0 0 0
1495 1 45.63379703058104 10.308683710333286 1.7931314612081282 0 0 0
1205 5 49.60118066677192 5.727454425726993 0.03697749658906487 -1 0 0
1346 1 47.61784453939704 6.872212620433287 1.7931314612081286 0 0 0
1202 1 51.585939557029036 6.872212620433287 1.7931314612081293 -1 0 0
1350 5 47.61713315795592 9.16392551562699 0.03697749658906493 0 0 0
1206 5 51.58522817558792 9.16392551562699 0.03697749658906512 -1 0 0
1351 1 49.60189204821304 10.308683710333286 1.7931314612081282 -1 0 0
1211 5 53.56927568440392 5.727454425726993 0.036977496589065316 -1 0 0
1217 5 57.537370702035915 5.727454425726993 0.03697749658906569 -1 0 0
1208 1 55.55403457466104 6.872212620433287 1.7931314612081284 -1 0 0
1357 1 53.56998706584504 10.308683710333286 1.7931314612081284 -1 0 0
1212 5 55.55332319321992 9.16392551562699 0.036977496589064685 -1 0 0
1363 1 57.538082083477036 10.308683710333286 1.7931314612081288 -1 0 0
1223 5 61.50546571966792 5.727454425726993 0.036977496589065025 -1 0 0
1214 1 59.522129592293034 6.872212620433286 1.7931314612081288 -1 0 0
1220 1 63.490224609925036 6.872212620433286 1.7931314612081288 -1 0 0
1218 5 59.52141821085192 9.16392551562699 0.03697749658906488 -1 0 0
1369 1 61.50617710110904 10.308683710333286 1.793131461208128 -1 0 0
1224 5 63.489513228483915 9.16392551562699 0.03697749658906504 -1 0 0
1229 5 65.47356073729992 5.727454425726993 0.03697749658906487 -1 0 0
1235 5 69.44165575493192 5.727454425726994 0.03697749658906592 -1 0 0
1226 1 67.45831962755703 6.872212620433287 1.7931314612081286 -1 0 0
1375 1 65.47427211874103 10.308683710333286 1.7931314612081284 -1 0 0
1230 5 67.45760824611592 9.16392551562699 0.036977496589065136 -1 0 0
1381 1 69.44236713637304 10.308683710333286 1.7931314612081282 -1 0 0
1241 5 73.40975077256392 5.727454425726993 0.03697749658906545 -1 0 0
1232 1 71.42641464518903 6.872212620433287 1.7931314612081288 -1 0 0
1238 1 75.39450966282104 6.872212620433286 1.7931314612081288 -1 0 0
1236 5 71.42570326374792 9.16392551562699 0.036977496589064296 -1 0 0
1242 5 75.39379828137992 9.16392551562699 0.03697749658906555 -1 0 0
1387 1 73.41046215400503 10.308683710333286 1.7931314612081282 -1 0 0
1247 5 77.37784579019592 5.727454425726993 0.03697749658906466 -1 0 0
1253 5 81.34594080782792 5.727454425726994 0.03697749658906593 -1 0 0
1244 1 79.36260468045303 6.872212620433287 1.7931314612081288 -1 0 0
1393 1 77.37855717163703 10.308683710333286 1.7931314612081284 -1 0 0
1248 5 79.36189329901192 9.16392551562699 0.03697749658906506 -1 0 0
1399 1 81.34665218926904 10.308683710333286 1.7931314612081282 -1 0 0
1259 5 85.31403582545992 5.727454425726993 0.03697749658906545 -1 0 0
1250 1 83.33069969808503 6.872212620433287 1.7931314612081288 -1 0 0
1256 1 87.29879471571704 6.872212620433286 1.7931314612081288 -1 0 0
1254 5 83.32998831664392 9.16392551562699 0.036977496589064296 -1 0 0
1405 1 85.31474720690103 10.308683710333286 1.7931314612081284 -1 0 0
1260 5 87.29808333427592 9.16392551562699 0.03697749658906556 -1 0 0
1265 5 89.28213084309192 5.727454425726993 0.03697749658906466 -1 0 0
1271 5 93.25022586072392 5.727454425726994 0.03697749658906593 -1 0 0
1262 1 91.26688973334903 6.872212620433287 1.7931314612081288 -1 0 0
1411 1 89.28284222453303 10.308683710333286 1.7931314612081284 -1 0 0
1266 5 91.26617835190793 9.16392551562699 0.03697749658906506 -1 0 0
1417 1 93.25093724216504 10.308683710333286 1.7931314612081284 -1 0 0
1278 5 99.20236838717192 9.16392551562699 0.036977496589065545 -1 0 0
1277 5 97.21832087835593 5.727454425726993 0.03697749658906538 -1 0 0
1268 1 95.23498475098103 6.872212620433287 1.7931314612081288 -1 0 0
1272 5 95.23427336953992 9.16392551562699 0.036977496589064296 -1 0 0
1423 1 97.21903225979703 10.308683710333286 1.7931314612081284 -1 0 0
1433 5 1.9840404551879216 12.600396605526988 0.03697749658906491 0 0 0
1424 1 0.0007043278130392769 13.745154800233287 1.7931314612081275 0 0 0
1430 1 3.9687993454450403 13.745154800233287 1.793131461208128 0 0 0
1434 5 3.968087964003921 16.03686769542699 0.03697749658906535 0 0 0
1579 1 1.98475183662904 17.18162589013329 1.7931314612081282 0 0 0
1439 5 5.952135472819919 12.600396605526988 0.036977496589064504 0 0 0
1445 5 9.920230490451921 12.600396605526988 0.03697749658906496 0 0 0
1436 1 7.936894363077039 13.745154800233287 1.793131461208128 0 0 0
1440 5 7.936182981635919 16.03686769542699 0.03697749658906578 0 0 0
1585 1 5.952846854261039 17.181625890133287 1.7931314612081282 0 0 0
1591 1 9.920941871893039 17.18162589013329 1.7931314612081282 0 0 0
1451 5 13.888325508083918 12.600396605526988 0.036977496589064816 0 0 0
1442 1 11.90498938070904 13.745154800233287 1.7931314612081282 0 0 0
1448 1 15.87308439834104 13.745154800233287 1.7931314612081277 0 0 0
1446 5 11.904277999267919 16.03686769542699 0.03697749658906533 0 0 0
1452 5 15.872373016899921 16.036867695426995 0.03697749658906627 0 0 0
1597 1 13.88903688952504 17.18162589013329 1.7931314612081282 0 0 0
1457 5 17.856420525715922 12.600396605526988 0.03697749658906452 0 0 0
1463 5 21.82451554334792 12.60039660552699 0.03697749658906531 0 0 0
1454 1 19.84117941597304 13.745154800233287 1.793131461208128 0 0 0
1458 5 19.84046803453192 16.03686769542699 0.03697749658906536 0 0 0
1603 1 17.85713190715704 17.181625890133287 1.7931314612081282 0 0 0
1609 1 21.825226924789042 17.18162589013329 1.7931314612081282 0 0 0
1469 5 25.79261056097992 12.600396605526988 0.03697749658906444 0 0 0
1460 1 23.80927443360504 13.745154800233287 1.7931314612081282 0 0 0
1466 1 27.777369451237043 13.745154800233287 1.7931314612081277 0 0 0
1464 5 23.808563052163922 16.03686769542699 0.036977496589065365 0 0 0
1470 5 27.77665806979592 16.036867695426995 0.03697749658906627 0 0 0
1615 1 25.79332194242104 17.181625890133287 1.7931314612081282 0 0 0
1475 5 29.760705578611923 12.600396605526988 0.03697749658906441 0 0 0
1481 5 33.72880059624392 12.60039660552699 0.03697749658906552 0 0 0
1472 1 31.745464468869045 13.745154800233287 1.7931314612081277 0 0 0
1476 5 31.74475308742792 16.03686769542699 0.036977496589065115 0 0 0
1621 1 29.76141696005304 17.181625890133287 1.7931314612081282 0 0 0
1627 1 33.72951197768504 17.18162589013329 1.793131461208128 0 0 0
1487 5 37.696895613875924 12.600396605526988 0.03697749658906406 0 0 0
1478 1 35.71355948650104 13.745154800233287 1.793131461208128 0 0 0
1484 1 39.68165450413304 13.745154800233287 1.7931314612081282 0 0 0
1482 5 35.71284810505992 16.03686769542699 0.03697749658906533 0 0 0
1488 5 39.68094312269192 16.036867695426995 0.03697749658906664 0 0 0
1633 1 37.69760699531704 17.181625890133287 1.7931314612081284 0 0 0
1493 5 41.66499063150792 12.600396605526988 0.036977496589064435 0 0 0
1499 5 45.63308564913992 12.60039660552699 0.03697749658906531 0 0 0
1490 1 43.64974952176504 13.745154800233287 1.7931314612081275 0 0 0
1494 5 43.649038140323924 16.03686769542699 0.03697749658906498 0 0 0
1639 1 41.66570201294904 17.181625890133287 1.7931314612081282 0 0 0
1645 1 45.63379703058104 17.18162589013329 1.7931314612081282 0 0 0
1355 5 49.60118066677192 12.600396605526988 0.03697749658906419 -1 0 0
1496 1 47.61784453939704 13.745154800233287 1.793131461208128 0 0 0
1352 1 51.585939557029036 13.745154800233287 1.7931314612081282 -1 0 0
1500 5 47.61713315795592 16.03686769542699 0.03697749658906554 0 0 0
1356 5 51.58522817558792 16.036867695426995 0.03697749658906577 -1 0 0
1501 1 49.60189204821304 17.18162589013329 1.7931314612081282 -1 0 0
1361 5 53.56927568440392 12.600396605526988 0.03697749658906468 -1 0 0
1367 5 57.537370702035915 12.600396605526988 0.03697749658906503 -1 0 0
1358 1 55.55403457466104 13.745154800233287 1.7931314612081275 -1 0 0
1362 5 55.55332319321992 16.03686769542699 0.03697749658906528 -1 0 0
1507 1 53.56998706584504 17.18162589013329 1.7931314612081282 -1 0 0
1513 1 57.538082083477036 17.18162589013329 1.7931314612081286 -1 0 0
1373 5 61.50546571966792 12.600396605526988 0.03697749658906444 -1 0 0
1364 1 59.522129592293034 13.745154800233287 1.793131461208128 -1 0 0
1370 1 63.490224609925036 13.745154800233287 1.7931314612081277 -1 0 0
1368 5 59.52141821085192 16.03686769542699 0.03697749658906557 -1 0 0
1374 5 63.489513228483915 16.036867695426995 0.03697749658906571 -1 0 0
1519 1 61.50617710110904 17.181625890133287 1.793131461208128 -1 0 0
1379 5 65.47356073729992 12.600396605526988 0.03697749658906424 -1 0 0
1385 5 69.44165575493192 12.60039660552699 0.0369774965890653 -1 0 0
1376 1 67.45831962755703 13.745154800233287 1.793131461208128 -1 0 0
1380 5 67.45760824611592 16.03686769542699 0.036977496589065774 -1 0 0
1525 1 65.47427211874103 17.18162589013329 1.7931314612081284 -1 0 0
1531 1 69.44236713637304 17.18162589013329 1.7931314612081282 -1 0 0
1391 5 73.40975077256392 12.600396605526988 0.036977496589064816 -1 0 0
1382 1 71.42641464518903 13.745154800233287 1.793131461208128 -1 0 0
1388 1 75.39450966282104 13.745154800233287 1.7931314612081277 -1 0 0
1386 5 71.42570326374792 16.03686769542699 0.03697749658906499 -1 0 0
1392 5 75.39379828137992 16.036867695426995 0.03697749658906626 -1 0 0
1537 1 73.41046215400503 17.181625890133287 1.7931314612081282 -1 0 0
1397 5 77.37784579019592 12.600396605526988 0.03697749658906406 -1 0 0
1403 5 81.34594080782792 12.60039660552699 0.0369774965890653 -1 0 0
1394 1 79.36260468045303 13.745154800233287 1.793131461208128 -1 0 0
1398 5 79.36189329901192 16.03686769542699 0.0369774965890657 -1 0 0
1543 1 77.37855717163703 17.181625890133287 1.7931314612081284 -1 0 0
1549 1 81.34665218926904 17.18162589013329 1.7931314612081282 -1 0 0
1409 5 85.31403582545992 12.600396605526988 0.036977496589064816 -1 0 0
1400 1 83.33069969808503 13.745154800233287 1.7931314612081282 -1 0 0
1406 1 87.29879471571704 13.745154800233287 1.7931314612081277 -1 0 0
1404 5 83.32998831664392 16.03686769542699 0.03697749658906499 -1 0 0
1410 5 87.29808333427592 16.036867695426995 0.03697749658906626 -1 0 0
1555 1 85.31474720690103 17.181625890133287 1.7931314612081282 -1 0 0
1415 5 89.28213084309192 12.600396605526988 0.03697749658906406 -1 0 0
1421 5 93.25022586072392 12.60039660552699 0.0369774965890653 -1 0 0
1412 1 91.26688973334903 13.745154800233287 1.793131461208128 -1 0 0
1416 5 91.26617835190793 16.03686769542699 0.0369774965890657 -1 0 0
1561 1 89.28284222453303 17.181625890133287 1.7931314612081284 -1 0 0
1567 1 93.25093724216504 17.18162589013329 1.7931314612081282 -1 0 0
1428 5 99.20236838717192 16.036867695426995 0.036977496589066176 -1 0 0
1427 5 97.21832087835593 12.600396605526988 0.03697749658906474 -1 0 0
1418 1 95.23498475098103 13.745154800233287 1.7931314612081282 -1 0 0
1422 5 95.23427336953992 16.03686769542699 0.03697749658906499 -1 0 0
1573 1 97.21903225979703 17.181625890133287 1.7931314612081284 -1 0 0
1574 1 0.0007043278130391446 20.618096980033286 1.793131461208128 0 0 0
1583 5 1.9840404551879216 19.473338785326995 0.03697749658906502 0 0 0
1580 1 3.9687993454450403 20.618096980033286 1.7931314612081282 0 0 0
1589 5 5.952135472819919 19.47333878532699 0.03697749658906461 0 0 0
1586 1 7.936894363077039 20.618096980033286 1.793131461208128 0 0 0
1595 5 9.920230490451921 19.473338785326995 0.03697749658906508 0 0 0
1592 1 11.90498938070904 20.618096980033286 1.7931314612081284 0 0 0
1601 5 13.888325508083918 19.473338785326995 0.0369774965890649 0 0 0
1598 1 15.87308439834104 20.618096980033286 1.7931314612081282 0 0 0
1607 5 17.856420525715922 19.47333878532699 0.03697749658906465 0 0 0
1604 1 19.84117941597304 20.618096980033286 1.7931314612081282 0 0 0
1613 5 21.82451554334792 19.473338785326995 0.03697749658906542 0 0 0
1610 1 23.80927443360504 20.618096980033286 1.7931314612081282 0 0 0
1619 5 25.79261056097992 19.47333878532699 0.03697749658906459 0 0 0
1616 1 27.777369451237043 20.618096980033286 1.7931314612081282 0 0 0
1625 5 29.760705578611923 19.47333878532699 0.03697749658906455 0 0 0
1622 1 31.74546446886904 20.618096980033286 1.793131461208128 0 0 0
1631 5 33.72880059624392 19.473338785326995 0.03697749658906563 0 0 0
1628 1 35.71355948650104 20.618096980033286 1.7931314612081282 0 0 0
1637 5 37.696895613875924 19.47333878532699 0.03697749658906424 0 0 0
1634 1 39.68165450413304 20.618096980033286 1.7931314612081282 0 0 0
1643 5 41.66499063150792 19.47333878532699 0.03697749658906459 0 0 0
1640 1 43.64974952176504 20.618096980033286 1.793131461208128 0 0 0
1649 5 45.63308564913992 19.473338785326995 0.03697749658906543 0 0 0
1646 1 47.61784453939704 20.618096980033286 1.7931314612081282 0 0 0
1502 1 51.585939557029036 20.618096980033286 1.7931314612081284 -1 0 0
1505 5 49.60118066677192 19.47333878532699 0.03697749658906436 -1 0 0
1511 5 53.56927568440392 19.473338785326995 0.03697749658906487 -1 0 0
1508 1 55.55403457466104 20.618096980033286 1.793131461208128 -1 0 0
1517 5 57.537370702035915 19.473338785326995 0.03697749658906516 -1 0 0
1514 1 59.522129592293034 20.618096980033286 1.793131461208128 -1 0 0
1523 5 61.50546571966792 19.47333878532699 0.03697749658906455 -1 0 0
1520 1 63.490224609925036 20.618096980033286 1.7931314612081277 -1 0 0
1529 5 65.47356073729992 19.47333878532699 0.036977496589064386 -1 0 0
1526 1 67.45831962755703 20.618096980033286 1.793131461208128 -1 0 0
1535 5 69.44165575493192 19.473338785326995 0.03697749658906541 -1 0 0
1532 1 71.42641464518903 20.618096980033286 1.7931314612081282 -1 0 0
1538 1 75.39450966282104 20.618096980033286 1.793131461208128 -1 0 0
1541 5 73.40975077256392 19.47333878532699 0.03697749658906497 -1 0 0
1547 5 77.37784579019592 19.47333878532699 0.03697749658906424 -1 0 0
1544 1 79.36260468045303 20.618096980033286 1.793131461208128 -1 0 0
1553 5 81.34594080782792 19.473338785326995 0.03697749658906541 -1 0 0
1550 1 83.33069969808503 20.618096980033286 1.7931314612081282 -1 0 0
1559 5 85.31403582545992 19.47333878532699 0.03697749658906497 -1 0 0
1556 1 87.29879471571704 20.618096980033286 1.7931314612081282 -1 0 0
1565 5 89.28213084309192 19.47333878532699 0.03697749658906425 -1 0 0
1562 1 91.26688973334903 20.618096980033286 1.793131461208128 -1 0 0
1571 5 93.25022586072392 19.473338785326995 0.03697749658906541 -1 0 0
1568 1 95.23498475098103 20.618096980033286 1.7931314612081282 -1 0 0
1577 5 97.21832087835593 19.47333878532699 0.036977496589064886 -1 0 0
1584 5 3.968087964003921 22.909809875226987 0.0369774965890645 0 0 0
1729 1 1.98475183662904 24.054568069933286 1.793131461208128 0 0 0
1724 1 0.0007043278130391527 27.491039159833285 1.7931314612081282 0 0 0
1733 5 1.9840404551879216 26.34628096512699 0.03697749658906613 0 0 0
1730 1 3.9687993454450403 27.49103915983329 1.7931314612081282 0 0 0
1590 5 7.936182981635919 22.90980987522699 0.03697749658906488 0 0 0
1735 1 5.952846854261039 24.054568069933286 1.7931314612081282 0 0 0
1741 1 9.920941871893039 24.054568069933286 1.7931314612081282 0 0 0
1739 5 5.952135472819919 26.346280965126986 0.0369774965890657 0 0 0
1736 1 7.936894363077039 27.49103915983329 1.7931314612081282 0 0 0
1745 5 9.920230490451921 26.34628096512699 0.03697749658906618 0 0 0
1596 5 11.904277999267919 22.909809875226987 0.03697749658906444 0 0 0
1602 5 15.872373016899921 22.90980987522699 0.03697749658906535 0 0 0
1747 1 13.88903688952504 24.054568069933286 1.793131461208128 0 0 0
1742 1 11.90498938070904 27.49103915983329 1.7931314612081284 0 0 0
1751 5 13.888325508083918 26.34628096512699 0.03697749658906596 0 0 0
1748 1 15.87308439834104 27.49103915983329 1.7931314612081284 0 0 0
1608 5 19.84046803453192 22.909809875226987 0.03697749658906444 0 0 0
1753 1 17.85713190715704 24.054568069933282 1.7931314612081282 0 0 0
1759 1 21.825226924789042 24.054568069933282 1.7931314612081282 0 0 0
1757 5 17.856420525715922 26.346280965126986 0.0369774965890657 0 0 0
1754 1 19.84117941597304 27.49103915983329 1.7931314612081284 0 0 0
1763 5 21.82451554334792 26.34628096512699 0.036977496589066544 0 0 0
1614 5 23.808563052163922 22.909809875226987 0.03697749658906444 0 0 0
1620 5 27.77665806979592 22.90980987522699 0.036977496589065274 0 0 0
1765 1 25.79332194242104 24.054568069933282 1.7931314612081282 0 0 0
1760 1 23.80927443360504 27.49103915983329 1.7931314612081282 0 0 0
1769 5 25.79261056097992 26.346280965126986 0.03697749658906562 0 0 0
1766 1 27.777369451237043 27.49103915983329 1.7931314612081284 0 0 0
1626 5 31.74475308742792 22.909809875226987 0.036977496589064233 0 0 0
1771 1 29.76141696005304 24.054568069933282 1.7931314612081282 0 0 0
1777 1 33.72951197768504 24.054568069933282 1.793131461208128 0 0 0
1775 5 29.760705578611923 26.346280965126986 0.03697749658906559 0 0 0
1772 1 31.74546446886904 27.491039159833285 1.7931314612081282 0 0 0
1781 5 33.72880059624392 26.34628096512699 0.03697749658906671 0 0 0
1632 5 35.71284810505992 22.909809875226987 0.03697749658906448 0 0 0
1638 5 39.68094312269192 22.90980987522699 0.03697749658906566 0 0 0
1783 1 37.69760699531704 24.054568069933282 1.7931314612081282 0 0 0
1778 1 35.71355948650104 27.49103915983329 1.7931314612081284 0 0 0
1787 5 37.696895613875924 26.346280965126986 0.03697749658906524 0 0 0
1784 1 39.68165450413304 27.49103915983329 1.7931314612081286 0 0 0
1644 5 43.649038140323924 22.909809875226987 0.036977496589064095 0 0 0
1789 1 41.66570201294904 24.054568069933282 1.793131461208128 0 0 0
1795 1 45.63379703058104 24.054568069933282 1.7931314612081282 0 0 0
1793 5 41.66499063150792 26.346280965126986 0.03697749658906566 0 0 0
1790 1 43.64974952176504 27.491039159833285 1.7931314612081277 0 0 0
1799 5 45.63308564913992 26.34628096512699 0.036977496589066544 0 0 0
1650 5 47.61713315795592 22.909809875226987 0.036977496589064726 0 0 0
1506 5 51.58522817558792 22.90980987522699 0.03697749658906494 -1 0 0
1651 1 49.60189204821304 24.054568069933282 1.7931314612081282 -1 0 0
1796 1 47.61784453939704 27.49103915983329 1.7931314612081284 0 0 0
1652 1 51.585939557029036 27.49103915983329 1.7931314612081286 -1 0 0
1655 5 49.60118066677192 26.346280965126986 0.036977496589065344 -1 0 0
1512 5 55.55332319321992 22.909809875226987 0.036977496589064476 -1 0 0
1657 1 53.56998706584504 24.054568069933286 1.793131461208128 -1 0 0
1663 1 57.538082083477036 24.054568069933286 1.7931314612081284 -1 0 0
1661 5 53.56927568440392 26.34628096512699 0.03697749658906593 -1 0 0
1658 1 55.55403457466104 27.491039159833285 1.7931314612081277 -1 0 0
1667 5 57.537370702035915 26.34628096512699 0.0369774965890663 -1 0 0
1518 5 59.52141821085192 22.90980987522699 0.03697749658906467 -1 0 0
1524 5 63.489513228483915 22.90980987522699 0.03697749658906483 -1 0 0
1669 1 61.50617710110904 24.054568069933286 1.793131461208128 -1 0 0
1664 1 59.52212959229304 27.49103915983329 1.7931314612081282 -1 0 0
1673 5 61.50546571966792 26.346280965126986 0.03697749658906575 -1 0 0
1670 1 63.490224609925036 27.49103915983329 1.7931314612081282 -1 0 0
1530 5 67.45760824611592 22.909809875226987 0.036977496589064934 -1 0 0
1675 1 65.47427211874103 24.054568069933286 1.7931314612081282 -1 0 0
1681 1 69.44236713637304 24.054568069933282 1.7931314612081282 -1 0 0
1679 5 65.47356073729992 26.346280965126986 0.03697749658906549 -1 0 0
1676 1 67.45831962755703 27.49103915983329 1.7931314612081282 -1 0 0
1685 5 69.44165575493192 26.34628096512699 0.03697749658906653 -1 0 0
1536 5 71.42570326374792 22.909809875226987 0.036977496589064095 -1 0 0
1542 5 75.39379828137992 22.90980987522699 0.03697749658906527 -1 0 0
1687 1 73.41046215400503 24.054568069933282 1.7931314612081282 -1 0 0
1682 1 71.42641464518903 27.49103915983329 1.7931314612081282 -1 0 0
1688 1 75.39450966282104 27.49103915983329 1.7931314612081282 -1 0 0
1691 5 73.40975077256392 26.346280965126986 0.036977496589066045 -1 0 0
1548 5 79.36189329901192 22.909809875226987 0.036977496589064865 -1 0 0
1693 1 77.37855717163703 24.054568069933282 1.7931314612081282 -1 0 0
1699 1 81.34665218926904 24.054568069933282 1.7931314612081282 -1 0 0
1697 5 77.37784579019592 26.346280965126986 0.03697749658906524 -1 0 0
1694 1 79.36260468045303 27.49103915983329 1.7931314612081284 -1 0 0
1703 5 81.34594080782792 26.34628096512699 0.03697749658906653 -1 0 0
1554 5 83.32998831664392 22.909809875226987 0.036977496589064095 -1 0 0
1560 5 87.29808333427592 22.90980987522699 0.03697749658906527 -1 0 0
1705 1 85.31474720690103 24.054568069933282 1.7931314612081282 -1 0 0
1700 1 83.33069969808503 27.49103915983329 1.7931314612081284 -1 0 0
1709 5 85.31403582545992 26.346280965126986 0.036977496589066045 -1 0 0
1706 1 87.29879471571704 27.49103915983329 1.7931314612081282 -1 0 0
1566 5 91.26617835190793 22.909809875226987 0.036977496589064865 -1 0 0
1711 1 89.28284222453303 24.054568069933282 1.7931314612081282 -1 0 0
1717 1 93.25093724216504 24.054568069933282 1.7931314612081282 -1 0 0
1715 5 89.28213084309192 26.346280965126986 0.03697749658906524 -1 0 0
1712 1 91.26688973334903 27.49103915983329 1.7931314612081284 -1 0 0
1721 5 93.25022586072392 26.34628096512699 0.03697749658906653 -1 0 0
1578 5 99.20236838717192 22.90980987522699 0.03697749658906535 -1 0 0
1572 5 95.23427336953992 22.909809875226987 0.036977496589064095 -1 0 0
1723 1 97.21903225979703 24.054568069933282 1.7931314612081282 -1 0 0
1718 1 95.23498475098103 27.49103915983329 1.7931314612081284 -1 0 0
1727 5 97.21832087835593 26.346280965126986 0.03697749658906595 -1 0 0
1734 5 3.968087964003921 29.782752055026993 0.03697749658906426 0 0 0
1879 1 1.98475183662904 30.927510249733288 1.793131461208128 0 0 0
1874 1 0.0007043278130392793 34.363981339633284 1.7931314612081284 0 0 0
1883 5 1.9840404551879216 33.21922314492699 0.036977496589064754 0 0 0
1880 1 3.9687993454450403 34.363981339633284 1.7931314612081284 0 0 0
1740 5 7.936182981635919 29.782752055026993 0.03697749658906458 0 0 0
1885 1 5.952846854261039 30.927510249733288 1.7931314612081277 0 0 0
1891 1 9.920941871893039 30.927510249733288 1.793131461208128 0 0 0
1889 5 5.952135472819919 33.21922314492699 0.036977496589064296 0 0 0
1886 1 7.936894363077039 34.363981339633284 1.7931314612081284 0 0 0
1895 5 9.920230490451921 33.21922314492699 0.0369774965890648 0 0 0
1746 5 11.904277999267919 29.782752055026993 0.03697749658906424 0 0 0
1752 5 15.872373016899921 29.782752055026997 0.036977496589065115 0 0 0
1897 1 13.88903688952504 30.927510249733288 1.793131461208128 0 0 0
1892 1 11.90498938070904 34.363981339633284 1.7931314612081284 0 0 0
1901 5 13.888325508083918 33.21922314492699 0.03697749658906466 0 0 0
1898 1 15.87308439834104 34.363981339633284 1.7931314612081284 0 0 0
1758 5 19.84046803453192 29.782752055026993 0.0369774965890642 0 0 0
1903 1 17.85713190715704 30.927510249733288 1.7931314612081277 0 0 0
1909 1 21.825226924789042 30.927510249733288 1.793131461208128 0 0 0
1907 5 17.856420525715922 33.21922314492699 0.036977496589064386 0 0 0
1904 1 19.84117941597304 34.363981339633284 1.7931314612081284 0 0 0
1913 5 21.82451554334792 33.21922314492699 0.036977496589065136 0 0 0
1764 5 23.808563052163922 29.782752055026993 0.0369774965890642 0 0 0
1770 5 27.77665806979592 29.782752055026997 0.03697749658906501 0 0 0
1915 1 25.79332194242104 30.927510249733288 1.793131461208128 0 0 0