LAMMPS data file via write_data, version 29 Aug 2024, timestep = 0, units = metal

2250 atoms
3 atom types

0 99.2023754408 xlo xhi
0 103.094132697 ylo yhi
0 18.595051911725 zlo zhi

Masses

1 91.224
2 127.6
3 127.6

Atoms # atomic

1124 1 0 0 1.7975259558619996 0 0 0
1130 1 3.9680950176320025 0 1.7975259558619996 0 0 0
1136 1 7.936190035263998 0 1.7975259558619996 0 0 0
1142 1 11.904285052896 0 1.7975259558619996 0 0 0
1148 1 15.872380070528003 0 1.7975259558619996 0 0 0
1154 1 19.840475088159998 0 1.7975259558619996 0 0 0
1160 1 23.808570105792008 0 1.7975259558619996 0 0 0
1166 1 27.776665123424003 0 1.7975259558619996 0 0 0
1172 1 31.744760141056 0 1.7975259558619996 0 0 0
1178 1 35.71285515868801 0 1.7975259558619996 0 0 0
1184 1 39.68095017632 0 1.7975259558619996 0 0 0
1190 1 43.649045193952 0 1.7975259558619996 0 0 0
1196 1 47.61714021158401 0 1.7975259558619996 0 0 0
1052 1 51.585235229215996 0 1.7975259558619996 -1 0 0
1058 1 55.553330246848 0 1.7975259558619996 -1 0 0
1064 1 59.52142526448 0 1.7975259558619996 -1 0 0
1070 1 63.489520282112 0 1.7975259558619996 -1 0 0
1076 1 67.45761529974399 0 1.7975259558619996 -1 0 0
1082 1 71.425710317376 0 1.7975259558619996 -1 0 0
1088 1 75.393805335008 0 1.7975259558619996 -1 0 0
1094 1 79.36190035263999 0 1.7975259558619996 -1 0 0
1100 1 83.329995370272 0 1.7975259558619996 -1 0 0
1106 1 87.298090387904 0 1.7975259558619996 -1 0 0
1112 1 91.26618540553599 0 1.7975259558619996 -1 0 0
1118 1 95.234280423168 0 1.7975259558619996 -1 0 0
1128 3 0 2.2909807265999973 0 0 0 0
1279 1 1.9840475088160048 3.436471089899996 1.7975259558619996 0 0 0
1134 3 3.9680950176320025 2.2909807265999973 0 0 0 0
1285 1 5.952142526448 3.436471089899996 1.7975259558619996 0 0 0
1140 3 7.936190035263998 2.2909807265999973 0 0 0 0
1291 1 9.920237544080003 3.436471089899996 1.7975259558619996 0 0 0
1146 3 11.904285052896 2.2909807265999973 0 0 0 0
1297 1 13.888332561711998 3.436471089899996 1.7975259558619996 0 0 0
1152 3 15.872380070528003 2.2909807265999973 0 0 0 0
1303 1 17.856427579344007 3.436471089899996 1.7975259558619996 0 0 0
1158 3 19.840475088159998 2.2909807265999973 0 0 0 0
1309 1 21.824522596976003 3.436471089899996 1.7975259558619996 0 0 0
1164 3 23.808570105792008 2.2909807265999973 0 0 0 0
1315 1 25.792617614607998 3.436471089899996 1.7975259558619996 0 0 0
1170 3 27.776665123424003 2.2909807265999973 0 0 0 0
1321 1 29.760712632240008 3.436471089899996 1.7975259558619996 0 0 0
1176 3 31.744760141056 2.2909807265999973 0 0 0 0
1327 1 33.728807649872 3.436471089899996 1.7975259558619996 0 0 0
1182 3 35.71285515868801 2.2909807265999973 0 0 0 0
1333 1 37.696902667504 3.436471089899996 1.7975259558619996 0 0 0
1188 3 39.68095017632 2.2909807265999973 0 0 0 0
1339 1 41.66499768513601 3.436471089899996 1.7975259558619996 0 0 0
1194 3 43.649045193952 2.2909807265999973 0 0 0 0
1345 1 45.633092702768 3.436471089899996 1.7975259558619996 0 0 0
1200 3 47.61714021158401 2.2909807265999973 0 0 0 0
1056 3 51.585235229215996 2.2909807265999973 0 -1 0 0
1201 1 49.6011877204 3.436471089899996 1.7975259558619996 -1 0 0
1207 1 53.569282738032 3.436471089899996 1.7975259558619996 -1 0 0
1062 3 55.553330246848 2.2909807265999973 0 -1 0 0
1213 1 57.537377755664 3.436471089899996 1.7975259558619996 -1 0 0
1068 3 59.52142526448 2.2909807265999973 0 -1 0 0
1219 1 61.505472773296 3.436471089899996 1.7975259558619996 -1 0 0
1074 3 63.489520282112 2.2909807265999973 0 -1 0 0
1225 1 65.473567790928 3.436471089899996 1.7975259558619996 -1 0 0
1080 3 67.45761529974399 2.2909807265999973 0 -1 0 0
1231 1 69.44166280856 3.436471089899996 1.7975259558619996 -1 0 0
1086 3 71.425710317376 2.2909807265999973 0 -1 0 0
1092 3 75.393805335008 2.2909807265999973 0 -1 0 0
1237 1 73.40975782619199 3.436471089899996 1.7975259558619996 -1 0 0
1243 1 77.377852843824 3.436471089899996 1.7975259558619996 -1 0 0
1098 3 79.36190035263999 2.2909807265999973 0 -1 0 0
1249 1 81.345947861456 3.436471089899996 1.7975259558619996 -1 0 0
1104 3 83.329995370272 2.2909807265999973 0 -1 0 0
1255 1 85.31404287908799 3.436471089899996 1.7975259558619996 -1 0 0
1110 3 87.298090387904 2.2909807265999973 0 -1 0 0
1261 1 89.28213789672 3.436471089899996 1.7975259558619996 -1 0 0
1116 3 91.26618540553599 2.2909807265999973 0 -1 0 0
1267 1 93.250232914352 3.436471089899996 1.7975259558619996 -1 0 0
1122 3 95.234280423168 2.2909807265999973 0 -1 0 0
1273 1 97.21832793198399 3.436471089899996 1.7975259558619996 -1 0 0
1283 3 1.9840475088160048 5.7274518165 0 0 0 0
1289 3 5.952142526448 5.7274518165 0 0 0 0
1295 3 9.920237544080003 5.7274518165 0 0 0 0
1301 3 13.888332561711998 5.7274518165 0 0 0 0
1307 3 17.856427579344007 5.7274518165 0 0 0 0
1313 3 21.824522596976003 5.7274518165 0 0 0 0
1319 3 25.792617614607998 5.7274518165 0 0 0 0
1325 3 29.760712632240008 5.7274518165 0 0 0 0
1331 3 33.728807649872 5.7274518165 0 0 0 0
1337 3 37.696902667504 5.7274518165 0 0 0 0
1343 3 41.66499768513601 5.7274518165 0 0 0 0
1349 3 45.633092702768 5.7274518165 0 0 0 0
1205 3 49.6011877204 5.7274518165 0 -1 0 0
1211 3 53.569282738032 5.7274518165 0 -1 0 0
1217 3 57.537377755664 5.7274518165 0 -1 0 0
1223 3 61.505472773296 5.7274518165 0 -1 0 0
1229 3 65.473567790928 5.7274518165 0 -1 0 0
1235 3 69.44166280856 5.7274518165 0 -1 0 0
1241 3 73.40975782619199 5.7274518165 0 -1 0 0
1247 3 77.377852843824 5.7274518165 0 -1 0 0
1253 3 81.345947861456 5.7274518165 0 -1 0 0
1259 3 85.31404287908799 5.7274518165 0 -1 0 0
1265 3 89.28213789672 5.7274518165 0 -1 0 0
1271 3 93.250232914352 5.7274518165 0 -1 0 0
1277 3 97.21832793198399 5.7274518165 0 -1 0 0
1274 1 0 6.872942179799999 1.7975259558619996 0 0 0
1280 1 3.9680950176320025 6.872942179799999 1.7975259558619996 0 0 0
1286 1 7.936190035263998 6.872942179799999 1.7975259558619996 0 0 0
1292 1 11.904285052896 6.872942179799999 1.7975259558619996 0 0 0
1298 1 15.872380070528003 6.872942179799999 1.7975259558619996 0 0 0
1304 1 19.840475088159998 6.872942179799999 1.7975259558619996 0 0 0
1310 1 23.808570105792008 6.872942179799999 1.7975259558619996 0 0 0
1316 1 27.776665123424003 6.872942179799999 1.7975259558619996 0 0 0
1322 1 31.744760141056 6.872942179799999 1.7975259558619996 0 0 0
1328 1 35.71285515868801 6.872942179799999 1.7975259558619996 0 0 0
1334 1 39.68095017632 6.872942179799999 1.7975259558619996 0 0 0
1340 1 43.649045193952 6.872942179799999 1.7975259558619996 0 0 0
1346 1 47.61714021158401 6.872942179799999 1.7975259558619996 0 0 0
1202 1 51.585235229215996 6.872942179799999 1.7975259558619996 -1 0 0
1208 1 55.553330246848 6.872942179799999 1.7975259558619996 -1 0 0
1214 1 59.52142526448 6.872942179799999 1.7975259558619996 -1 0 0
1220 1 63.489520282112 6.872942179799999 1.7975259558619996 -1 0 0
1226 1 67.45761529974399 6.872942179799999 1.7975259558619996 -1 0 0
1232 1 71.425710317376 6.872942179799999 1.7975259558619996 -1 0 0
1238 1 75.393805335008 6.872942179799999 1.7975259558619996 -1 0 0
1244 1 79.36190035263999 6.872942179799999 1.7975259558619996 -1 0 0
1250 1 83.329995370272 6.872942179799999 1.7975259558619996 -1 0 0
1256 1 87.298090387904 6.872942179799999 1.7975259558619996 -1 0 0
1262 1 91.26618540553599 6.872942179799999 1.7975259558619996 -1 0 0
1268 1 95.234280423168 6.872942179799999 1.7975259558619996 -1 0 0
1278 3 0 9.163922906399996 0 0 0 0
1429 1 1.9840475088160048 10.309413269699995 1.7975259558619996 0 0 0
1284 3 3.9680950176320025 9.163922906399996 0 0 0 0
1435 1 5.952142526448 10.309413269699995 1.7975259558619996 0 0 0
1290 3 7.936190035263998 9.163922906399996 0 0 0 0
1441 1 9.920237544080003 10.309413269699995 1.7975259558619996 0 0 0
1296 3 11.904285052896 9.163922906399996 0 0 0 0
1447 1 13.888332561711998 10.309413269699995 1.7975259558619996 0 0 0
1302 3 15.872380070528003 9.163922906399996 0 0 0 0
1453 1 17.856427579344007 10.309413269699995 1.7975259558619996 0 0 0
1308 3 19.840475088159998 9.163922906399996 0 0 0 0
1459 1 21.824522596976003 10.309413269699995 1.7975259558619996 0 0 0
1314 3 23.808570105792008 9.163922906399996 0 0 0 0
1465 1 25.792617614607998 10.309413269699995 1.7975259558619996 0 0 0
1320 3 27.776665123424003 9.163922906399996 0 0 0 0
1471 1 29.760712632240008 10.309413269699995 1.7975259558619996 0 0 0
1326 3 31.744760141056 9.163922906399996 0 0 0 0
1477 1 33.728807649872 10.309413269699995 1.7975259558619996 0 0 0
1332 3 35.71285515868801 9.163922906399996 0 0 0 0
1483 1 37.696902667504 10.309413269699995 1.7975259558619996 0 0 0
1338 3 39.68095017632 9.163922906399996 0 0 0 0
1489 1 41.66499768513601 10.309413269699995 1.7975259558619996 0 0 0
1344 3 43.649045193952 9.163922906399996 0 0 0 0
1495 1 45.633092702768 10.309413269699995 1.7975259558619996 0 0 0
1350 3 47.61714021158401 9.163922906399996 0 0 0 0
1206 3 51.585235229215996 9.163922906399996 0 -1 0 0
1351 1 49.6011877204 10.309413269699995 1.7975259558619996 -1 0 0
1357 1 53.569282738032 10.309413269699995 1.7975259558619996 -1 0 0
1212 3 55.553330246848 9.163922906399996 0 -1 0 0
1363 1 57.537377755664 10.309413269699995 1.7975259558619996 -1 0 0
1218 3 59.52142526448 9.163922906399996 0 -1 0 0
1369 1 61.505472773296 10.309413269699995 1.7975259558619996 -1 0 0
1224 3 63.489520282112 9.163922906399996 0 -1 0 0
1375 1 65.473567790928 10.309413269699995 1.7975259558619996 -1 0 0
1230 3 67.45761529974399 9.163922906399996 0 -1 0 0
1381 1 69.44166280856 10.309413269699995 1.7975259558619996 -1 0 0
1236 3 71.425710317376 9.163922906399996 0 -1 0 0
1242 3 75.393805335008 9.163922906399996 0 -1 0 0
1387 1 73.40975782619199 10.309413269699995 1.7975259558619996 -1 0 0
1393 1 77.377852843824 10.309413269699995 1.7975259558619996 -1 0 0
1248 3 79.36190035263999 9.163922906399996 0 -1 0 0
1399 1 81.345947861456 10.309413269699995 1.7975259558619996 -1 0 0
1254 3 83.329995370272 9.163922906399996 0 -1 0 0
1405 1 85.31404287908799 10.309413269699995 1.7975259558619996 -1 0 0
1260 3 87.298090387904 9.163922906399996 0 -1 0 0
1411 1 89.28213789672 10.309413269699995 1.7975259558619996 -1 0 0
1266 3 91.26618540553599 9.163922906399996 0 -1 0 0
1417 1 93.250232914352 10.309413269699995 1.7975259558619996 -1 0 0
1272 3 95.234280423168 9.163922906399996 0 -1 0 0
1423 1 97.21832793198399 10.309413269699995 1.7975259558619996 -1 0 0
1433 3 1.9840475088160048 12.600393996299992 0 0 0 0
1439 3 5.952142526448 12.600393996299992 0 0 0 0
1445 3 9.920237544080003 12.600393996299992 0 0 0 0
1451 3 13.888332561711998 12.600393996299992 0 0 0 0
1457 3 17.856427579344007 12.600393996299992 0 0 0 0
1463 3 21.824522596976003 12.600393996299992 0 0 0 0
1469 3 25.792617614607998 12.600393996299992 0 0 0 0
1475 3 29.760712632240008 12.600393996299992 0 0 0 0
1481 3 33.728807649872 12.600393996299992 0 0 0 0
1487 3 37.696902667504 12.600393996299992 0 0 0 0
1493 3 41.66499768513601 12.600393996299992 0 0 0 0
1499 3 45.633092702768 12.600393996299992 0 0 0 0
1355 3 49.6011877204 12.600393996299992 0 -1 0 0
1361 3 53.569282738032 12.600393996299992 0 -1 0 0
1367 3 57.537377755664 12.600393996299992 0 -1 0 0
1373 3 61.505472773296 12.600393996299992 0 -1 0 0
1379 3 65.473567790928 12.600393996299992 0 -1 0 0
1385 3 69.44166280856 12.600393996299992 0 -1 0 0
1391 3 73.40975782619199 12.600393996299992 0 -1 0 0
1397 3 77.377852843824 12.600393996299992 0 -1 0 0
1403 3 81.345947861456 12.600393996299992 0 -1 0 0
1409 3 85.31404287908799 12.600393996299992 0 -1 0 0
1415 3 89.28213789672 12.600393996299992 0 -1 0 0
1421 3 93.250232914352 12.600393996299992 0 -1 0 0
1427 3 97.21832793198399 12.600393996299992 0 -1 0 0
1424 1 0 13.74588435959999 1.7975259558619996 0 0 0
1430 1 3.9680950176320025 13.74588435959999 1.7975259558619996 0 0 0
1436 1 7.936190035263998 13.74588435959999 1.7975259558619996 0 0 0
1442 1 11.904285052896 13.74588435959999 1.7975259558619996 0 0 0
1448 1 15.872380070528003 13.74588435959999 1.7975259558619996 0 0 0
1454 1 19.840475088159998 13.74588435959999 1.7975259558619996 0 0 0
1460 1 23.808570105792008 13.74588435959999 1.7975259558619996 0 0 0
1466 1 27.776665123424003 13.74588435959999 1.7975259558619996 0 0 0
1472 1 31.744760141056 13.74588435959999 1.7975259558619996 0 0 0
1478 1 35.71285515868801 13.74588435959999 1.7975259558619996 0 0 0
1484 1 39.68095017632 13.74588435959999 1.7975259558619996 0 0 0
1490 1 43.649045193952 13.74588435959999 1.7975259558619996 0 0 0
1496 1 47.61714021158401 13.74588435959999 1.7975259558619996 0 0 0
1352 1 51.585235229215996 13.74588435959999 1.7975259558619996 -1 0 0
1358 1 55.553330246848 13.74588435959999 1.7975259558619996 -1 0 0
1364 1 59.52142526448 13.74588435959999 1.7975259558619996 -1 0 0
1370 1 63.489520282112 13.74588435959999 1.7975259558619996 -1 0 0
1376 1 67.45761529974399 13.74588435959999 1.7975259558619996 -1 0 0
1382 1 71.425710317376 13.74588435959999 1.7975259558619996 -1 0 0
1388 1 75.393805335008 13.74588435959999 1.7975259558619996 -1 0 0
1394 1 79.36190035263999 13.74588435959999 1.7975259558619996 -1 0 0
1400 1 83.329995370272 13.74588435959999 1.7975259558619996 -1 0 0
1406 1 87.298090387904 13.74588435959999 1.7975259558619996 -1 0 0
1412 1 91.26618540553599 13.74588435959999 1.7975259558619996 -1 0 0
1418 1 95.234280423168 13.74588435959999 1.7975259558619996 -1 0 0
1428 3 0 16.036865086200002 0 0 0 0
1434 3 3.9680950176320025 16.036865086200002 0 0 0 0
1440 3 7.936190035263998 16.036865086200002 0 0 0 0
1446 3 11.904285052896 16.036865086200002 0 0 0 0
1452 3 15.872380070528003 16.036865086200002 0 0 0 0
1458 3 19.840475088159998 16.036865086200002 0 0 0 0
1464 3 23.808570105792008 16.036865086200002 0 0 0 0
1470 3 27.776665123424003 16.036865086200002 0 0 0 0
1476 3 31.744760141056 16.036865086200002 0 0 0 0
1482 3 35.71285515868801 16.036865086200002 0 0 0 0
1488 3 39.68095017632 16.036865086200002 0 0 0 0
1494 3 43.649045193952 16.036865086200002 0 0 0 0
1500 3 47.61714021158401 16.036865086200002 0 0 0 0
1356 3 51.585235229215996 16.036865086200002 0 -1 0 0
1362 3 55.553330246848 16.036865086200002 0 -1 0 0
1368 3 59.52142526448 16.036865086200002 0 -1 0 0
1374 3 63.489520282112 16.036865086200002 0 -1 0 0
1380 3 67.45761529974399 16.036865086200002 0 -1 0 0
1386 3 71.425710317376 16.036865086200002 0 -1 0 0
1392 3 75.393805335008 16.036865086200002 0 -1 0 0
1398 3 79.36190035263999 16.036865086200002 0 -1 0 0
1404 3 83.329995370272 16.036865086200002 0 -1 0 0
1410 3 87.298090387904 16.036865086200002 0 -1 0 0
1416 3 91.26618540553599 16.036865086200002 0 -1 0 0
1422 3 95.234280423168 16.036865086200002 0 -1 0 0
1579 1 1.9840475088160048 17.1823554495 1.7975259558619996 0 0 0
1585 1 5.952142526448 17.1823554495 1.7975259558619996 0 0 0
1591 1 9.920237544080003 17.1823554495 1.7975259558619996 0 0 0
1597 1 13.888332561711998 17.1823554495 1.7975259558619996 0 0 0
1603 1 17.856427579344007 17.1823554495 1.7975259558619996 0 0 0
1609 1 21.824522596976003 17.1823554495 1.7975259558619996 0 0 0
1615 1 25.792617614607998 17.1823554495 1.7975259558619996 0 0 0
1621 1 29.760712632240008 17.1823554495 1.7975259558619996 0 0 0
1627 1 33.728807649872 17.1823554495 1.7975259558619996 0 0 0
1633 1 37.696902667504 17.1823554495 1.7975259558619996 0 0 0
1639 1 41.66499768513601 17.1823554495 1.7975259558619996 0 0 0
1645 1 45.633092702768 17.1823554495 1.7975259558619996 0 0 0
1501 1 49.6011877204 17.1823554495 1.7975259558619996 -1 0 0
1507 1 53.569282738032 17.1823554495 1.7975259558619996 -1 0 0
1513 1 57.537377755664 17.1823554495 1.7975259558619996 -1 0 0
1519 1 61.505472773296 17.1823554495 1.7975259558619996 -1 0 0
1525 1 65.473567790928 17.1823554495 1.7975259558619996 -1 0 0
1531 1 69.44166280856 17.1823554495 1.7975259558619996 -1 0 0
1537 1 73.40975782619199 17.1823554495 1.7975259558619996 -1 0 0
1543 1 77.377852843824 17.1823554495 1.7975259558619996 -1 0 0
1549 1 81.345947861456 17.1823554495 1.7975259558619996 -1 0 0
1555 1 85.31404287908799 17.1823554495 1.7975259558619996 -1 0 0
1561 1 89.28213789672 17.1823554495 1.7975259558619996 -1 0 0
1567 1 93.250232914352 17.1823554495 1.7975259558619996 -1 0 0
1573 1 97.21832793198399 17.1823554495 1.7975259558619996 -1 0 0
1574 1 0 20.618826539399997 1.7975259558619996 0 0 0
1583 3 1.9840475088160048 19.4733361761 0 0 0 0
1580 1 3.9680950176320025 20.618826539399997 1.7975259558619996 0 0 0
1589 3 5.952142526448 19.4733361761 0 0 0 0
1586 1 7.936190035263998 20.618826539399997 1.7975259558619996 0 0 0
1595 3 9.920237544080003 19.4733361761 0 0 0 0
1592 1 11.904285052896 20.618826539399997 1.7975259558619996 0 0 0
1601 3 13.888332561711998 19.4733361761 0 0 0 0
1598 1 15.872380070528003 20.618826539399997 1.7975259558619996 0 0 0
1607 3 17.856427579344007 19.4733361761 0 0 0 0
1604 1 19.840475088159998 20.618826539399997 1.7975259558619996 0 0 0
1613 3 21.824522596976003 19.4733361761 0 0 0 0
1610 1 23.808570105792008 20.618826539399997 1.7975259558619996 0 0 0
1619 3 25.792617614607998 19.4733361761 0 0 0 0
1616 1 27.776665123424003 20.618826539399997 1.7975259558619996 0 0 0
1625 3 29.760712632240008 19.4733361761 0 0 0 0
1622 1 31.744760141056 20.618826539399997 1.7975259558619996 0 0 0
1631 3 33.728807649872 19.4733361761 0 0 0 0
1628 1 35.71285515868801 20.618826539399997 1.7975259558619996 0 0 0
1637 3 37.696902667504 19.4733361761 0 0 0 0
1634 1 39.68095017632 20.618826539399997 1.7975259558619996 0 0 0
1643 3 41.66499768513601 19.4733361761 0 0 0 0
1640 1 43.649045193952 20.618826539399997 1.7975259558619996 0 0 0
1649 3 45.633092702768 19.4733361761 0 0 0 0
1646 1 47.61714021158401 20.618826539399997 1.7975259558619996 0 0 0
1502 1 51.585235229215996 20.618826539399997 1.7975259558619996 -1 0 0
1505 3 49.6011877204 19.4733361761 0 -1 0 0
1511 3 53.569282738032 19.4733361761 0 -1 0 0
1508 1 55.553330246848 20.618826539399997 1.7975259558619996 -1 0 0
1517 3 57.537377755664 19.4733361761 0 -1 0 0
1514 1 59.52142526448 20.618826539399997 1.7975259558619996 -1 0 0
1523 3 61.505472773296 19.4733361761 0 -1 0 0
1520 1 63.489520282112 20.618826539399997 1.7975259558619996 -1 0 0
1529 3 65.473567790928 19.4733361761 0 -1 0 0
1526 1 67.45761529974399 20.618826539399997 1.7975259558619996 -1 0 0
1535 3 69.44166280856 19.4733361761 0 -1 0 0
1532 1 71.425710317376 20.618826539399997 1.7975259558619996 -1 0 0
1538 1 75.393805335008 20.618826539399997 1.7975259558619996 -1 0 0
1541 3 73.40975782619199 19.4733361761 0 -1 0 0
1547 3 77.377852843824 19.4733361761 0 -1 0 0
1544 1 79.36190035263999 20.618826539399997 1.7975259558619996 -1 0 0
1553 3 81.345947861456 19.4733361761 0 -1 0 0
1550 1 83.329995370272 20.618826539399997 1.7975259558619996 -1 0 0
1559 3 85.31404287908799 19.4733361761 0 -1 0 0
1556 1 87.298090387904 20.618826539399997 1.7975259558619996 -1 0 0
1565 3 89.28213789672 19.4733361761 0 -1 0 0
1562 1 91.26618540553599 20.618826539399997 1.7975259558619996 -1 0 0
1571 3 93.250232914352 19.4733361761 0 -1 0 0
1568 1 95.234280423168 20.618826539399997 1.7975259558619996 -1 0 0
1577 3 97.21832793198399 19.4733361761 0 -1 0 0
1578 3 0 22.909807265999994 0 0 0 0
1584 3 3.9680950176320025 22.909807265999994 0 0 0 0
1590 3 7.936190035263998 22.909807265999994 0 0 0 0
1596 3 11.904285052896 22.909807265999994 0 0 0 0
1602 3 15.872380070528003 22.909807265999994 0 0 0 0
1608 3 19.840475088159998 22.909807265999994 0 0 0 0
1614 3 23.808570105792008 22.909807265999994 0 0 0 0
1620 3 27.776665123424003 22.909807265999994 0 0 0 0
1626 3 31.744760141056 22.909807265999994 0 0 0 0
1632 3 35.71285515868801 22.909807265999994 0 0 0 0
1638 3 39.68095017632 22.909807265999994 0 0 0 0
1644 3 43.649045193952 22.909807265999994 0 0 0 0
1650 3 47.61714021158401 22.909807265999994 0 0 0 0
1506 3 51.585235229215996 22.909807265999994 0 -1 0 0
1512 3 55.553330246848 22.909807265999994 0 -1 0 0
1518 3 59.52142526448 22.909807265999994 0 -1 0 0
1524 3 63.489520282112 22.909807265999994 0 -1 0 0
1530 3 67.45761529974399 22.909807265999994 0 -1 0 0
1536 3 71.425710317376 22.909807265999994 0 -1 0 0
1542 3 75.393805335008 22.909807265999994 0 -1 0 0
1548 3 79.36190035263999 22.909807265999994 0 -1 0 0
1554 3 83.329995370272 22.909807265999994 0 -1 0 0
1560 3 87.298090387904 22.909807265999994 0 -1 0 0
1566 3 91.26618540553599 22.909807265999994 0 -1 0 0
1572 3 95.234280423168 22.909807265999994 0 -1 0 0
1729 1 1.9840475088160048 24.055297629299993 1.7975259558619996 0 0 0
1735 1 5.952142526448 24.055297629299993 1.7975259558619996 0 0 0
1741 1 9.920237544080003 24.055297629299993 1.7975259558619996 0 0 0
1747 1 13.888332561711998 24.055297629299993 1.7975259558619996 0 0 0
1753 1 17.856427579344007 24.055297629299993 1.7975259558619996 0 0 0
1759 1 21.824522596976003 24.055297629299993 1.7975259558619996 0 0 0
1765 1 25.792617614607998 24.055297629299993 1.7975259558619996 0 0 0
1771 1 29.760712632240008 24.055297629299993 1.7975259558619996 0 0 0
1777 1 33.728807649872 24.055297629299993 1.7975259558619996 0 0 0
1783 1 37.696902667504 24.055297629299993 1.7975259558619996 0 0 0
1789 1 41.66499768513601 24.055297629299993 1.7975259558619996 0 0 0
1795 1 45.633092702768 24.055297629299993 1.7975259558619996 0 0 0
1651 1 49.6011877204 24.055297629299993 1.7975259558619996 -1 0 0
1657 1 53.569282738032 24.055297629299993 1.7975259558619996 -1 0 0
1663 1 57.537377755664 24.055297629299993 1.7975259558619996 -1 0 0
1669 1 61.505472773296 24.055297629299993 1.7975259558619996 -1 0 0
1675 1 65.473567790928 24.055297629299993 1.7975259558619996 -1 0 0
1681 1 69.44166280856 24.055297629299993 1.7975259558619996 -1 0 0
1687 1 73.40975782619199 24.055297629299993 1.7975259558619996 -1 0 0
1693 1 77.377852843824 24.055297629299993 1.7975259558619996 -1 0 0
1699 1 81.345947861456 24.055297629299993 1.7975259558619996 -1 0 0
1705 1 85.31404287908799 24.055297629299993 1.7975259558619996 -1 0 0
1711 1 89.28213789672 24.055297629299993 1.7975259558619996 -1 0 0
1717 1 93.250232914352 24.055297629299993 1.7975259558619996 -1 0 0
1723 1 97.21832793198399 24.055297629299993 1.7975259558619996 -1 0 0
1724 1 0 27.491768719200003 1.7975259558619996 0 0 0
1733 3 1.9840475088160048 26.34627835589999 0 0 0 0
1730 1 3.9680950176320025 27.491768719200003 1.7975259558619996 0 0 0
1739 3 5.952142526448 26.34627835589999 0 0 0 0
1736 1 7.936190035263998 27.491768719200003 1.7975259558619996 0 0 0
1745 3 9.920237544080003 26.34627835589999 0 0 0 0
1742 1 11.904285052896 27.491768719200003 1.7975259558619996 0 0 0
1751 3 13.888332561711998 26.34627835589999 0 0 0 0
1748 1 15.872380070528003 27.491768719200003 1.7975259558619996 0 0 0
1757 3 17.856427579344007 26.34627835589999 0 0 0 0
1754 1 19.840475088159998 27.491768719200003 1.7975259558619996 0 0 0
1763 3 21.824522596976003 26.34627835589999 0 0 0 0
1760 1 23.808570105792008 27.491768719200003 1.7975259558619996 0 0 0
1769 3 25.792617614607998 26.34627835589999 0 0 0 0
1766 1 27.776665123424003 27.491768719200003 1.7975259558619996 0 0 0
1775 3 29.760712632240008 26.34627835589999 0 0 0 0
1772 1 31.744760141056 27.491768719200003 1.7975259558619996 0 0 0
1781 3 33.728807649872 26.34627835589999 0 0 0 0
1778 1 35.71285515868801 27.491768719200003 1.7975259558619996 0 0 0
1787 3 37.696902667504 26.34627835589999 0 0 0 0
1784 1 39.68095017632 27.491768719200003 1.7975259558619996 0 0 0
1793 3 41.66499768513601 26.34627835589999 0 0 0 0
1790 1 43.649045193952 27.491768719200003 1.7975259558619996 0 0 0
1799 3 45.633092702768 26.34627835589999 0 0 0 0
1796 1 47.61714021158401 27.491768719200003 1.7975259558619996 0 0 0
1652 1 51.585235229215996 27.491768719200003 1.7975259558619996 -1 0 0
1655 3 49.6011877204 26.34627835589999 0 -1 0 0
1661 3 53.569282738032 26.34627835589999 0 -1 0 0
1658 1 55.553330246848 27.491768719200003 1.7975259558619996 -1 0 0
1667 3 57.537377755664 26.34627835589999 0 -1 0 0
1664 1 59.52142526448 27.491768719200003 1.7975259558619996 -1 0 0
1673 3 61.505472773296 26.34627835589999 0 -1 0 0
1670 1 63.489520282112 27.491768719200003 1.7975259558619996 -1 0 0
1679 3 65.473567790928 26.34627835589999 0 -1 0 0
1676 1 67.45761529974399 27.491768719200003 1.7975259558619996 -1 0 0
1685 3 69.44166280856 26.34627835589999 0 -1 0 0
1682 1 71.425710317376 27.491768719200003 1.7975259558619996 -1 0 0
1688 1 75.393805335008 27.491768719200003 1.7975259558619996 -1 0 0
1691 3 73.40975782619199 26.34627835589999 0 -1 0 0
1697 3 77.377852843824 26.34627835589999 0 -1 0 0
1694 1 79.36190035263999 27.491768719200003 1.7975259558619996 -1 0 0
1703 3 81.345947861456 26.34627835589999 0 -1 0 0
1700 1 83.329995370272 27.491768719200003 1.7975259558619996 -1 0 0
1709 3 85.31404287908799 26.34627835589999 0 -1 0 0
1706 1 87.298090387904 27.491768719200003 1.7975259558619996 -1 0 0
1715 3 89.28213789672 26.34627835589999 0 -1 0 0
1712 1 91.26618540553599 27.491768719200003 1.7975259558619996 -1 0 0
1721 3 93.250232914352 26.34627835589999 0 -1 0 0
1718 1 95.234280423168 27.491768719200003 1.7975259558619996 -1 0 0
1727 3 97.21832793198399 26.34627835589999 0 -1 0 0
1728 3 0 29.7827494458 0 0 0 0
1734 3 3.9680950176320025 29.7827494458 0 0 0 0
1740 3 7.936190035263998 29.7827494458 0 0 0 0
1746 3 11.904285052896 29.7827494458 0 0 0 0
1752 3 15.872380070528003 29.7827494458 0 0 0 0
1758 3 19.840475088159998 29.7827494458 0 0 0 0
1764 3 23.808570105792008 29.7827494458 0 0 0 0
1770 3 27.776665123424003 29.7827494458 0 0 0 0
1776 3 31.744760141056 29.7827494458 0 0 0 0
1782 3 35.71285515868801 29.7827494458 0 0 0 0
1788 3 39.68095017632 29.7827494458 0 0 0 0
1794 3 43.649045193952 29.7827494458 0 0 0 0
1800 3 47.61714021158401 29.7827494458 0 0 0 0
1656 3 51.585235229215996 29.7827494458 0 -1 0 0
1662 3 55.553330246848 29.7827494458 0 -1 0 0
1668 3 59.52142526448 29.7827494458 0 -1 0 0
1674 3 63.489520282112 29.7827494458 0 -1 0 0
1680 3 67.45761529974399 29.7827494458 0 -1 0 0
1686 3 71.425710317376 29.7827494458 0 -1 0 0
1692 3 75.393805335008 29.7827494458 0 -1 0 0
1698 3 79.36190035263999 29.7827494458 0 -1 0 0
1704 3 83.329995370272 29.7827494458 0 -1 0 0
1710 3 87.298090387904 29.7827494458 0 -1 0 0
1716 3 91.26618540553599 29.7827494458 0 -1 0 0
1722 3 95.234280423168 29.7827494458 0 -1 0 0
1879 1 1.9840475088160048 30.9282398091 1.7975259558619996 0 0 0
1885 1 5.952142526448 30.9282398091 1.7975259558619996 0 0 0
1891 1 9.920237544080003 30.9282398091 1.7975259558619996 0 0 0
1897 1 13.888332561711998 30.9282398091 1.7975259558619996 0 0 0
1903 1 17.856427579344007 30.9282398091 1.7975259558619996 0 0 0
1909 1 21.824522596976003 30.9282398091 1.7975259558619996 0 0 0
1915 1 25.792617614607998 30.9282398091 1.7975259558619996 0 0 0
1921 1 29.760712632240008 30.9282398091 1.7975259558619996 0 0 0
1927 1 33.728807649872 30.9282398091 1.7975259558619996 0 0 0
1933 1 37.696902667504 30.9282398091 1.7975259558619996 0 0 0
1939 1 41.66499768513601 30.9282398091 1.7975259558619996 0 0 0
1945 1 45.633092702768 30.9282398091 1.7975259558619996 0 0 0
1801 1 49.6011877204 30.9282398091 1.7975259558619996 -1 0 0
1807 1 53.569282738032 30.9282398091 1.7975259558619996 -1 0 0
1813 1 57.537377755664 30.9282398091 1.7975259558619996 -1 0 0
1819 1 61.505472773296 30.9282398091 1.7975259558619996 -1 0 0
1825 1 65.473567790928 30.9282398091 1.7975259558619996 -1 0 0
1831 1 69.44166280856 30.9282398091 1.7975259558619996 -1 0 0
1837 1 73.40975782619199 30.9282398091 1.7975259558619996 -1 0 0
1843 1 77.377852843824 30.9282398091 1.7975259558619996 -1 0 0
1849 1 81.345947861456 30.9282398091 1.7975259558619996 -1 0 0
1855 1 85.31404287908799 30.9282398091 1.7975259558619996 -1 0 0
1861 1 89.28213789672 30.9282398091 1.7975259558619996 -1 0 0
1867 1 93.250232914352 30.9282398091 1.7975259558619996 -1 0 0
1873 1 97.21832793198399 30.9282398091 1.7975259558619996 -1 0 0
1874 1 0 34.364710898999995 1.7975259558619996 0 0 0
1883 3 1.9840475088160048 33.219220535699996 0 0 0 0
1880 1 3.9680950176320025 34.364710898999995 1.7975259558619996 0 0 0
1889 3 5.952142526448 33.219220535699996 0 0 0 0
1886 1 7.936190035263998 34.364710898999995 1.7975259558619996 0 0 0
1895 3 9.920237544080003 33.219220535699996 0 0 0 0
1892 1 11.904285052896 34.364710898999995 1.7975259558619996 0 0 0
1901 3 13.888332561711998 33.219220535699996 0 0 0 0
1898 1 15.872380070528003 34.364710898999995 1.7975259558619996 0 0 0
1907 3 17.856427579344007 33.219220535699996 0 0 0 0
1904 1 19.840475088159998 34.364710898999995 1.7975259558619996 0 0 0
1913 3 21.824522596976003 33.219220535699996 0 0 0 0
1910 1 23.808570105792008 34.364710898999995 1.7975259558619996 0 0 0
1919 3 25.792617614607998 33.219220535699996 0 0 0 0
1916 1 27.776665123424003 34.364710898999995 1.7975259558619996 0 0 0
1925 3 29.760712632240008 33.219220535699996 0 0 0 0
1922 1 31.744760141056 34.364710898999995 1.7975259558619996 0 0 0
1931 3 33.728807649872 33.219220535699996 0 0 0 0
1928 1 35.71285515868801 34.364710898999995 1.7975259558619996 0 0 0
1937 3 37.696902667504 33.219220535699996 0 0 0 0
1934 1 39.68095017632 34.364710898999995 1.7975259558619996 0 0 0
1943 3 41.66499768513601 33.219220535699996 0 0 0 0
1940 1 43.649045193952 34.364710898999995 1.7975259558619996 0 0 0
1949 3 45.633092702768 33.219220535699996 0 0 0 0
1946 1 47.61714021158401 34.364710898999995 1.7975259558619996 0 0 0
1802 1 51.585235229215996 34.364710898999995 1.7975259558619996 -1 0 0
1805 3 49.6011877204 33.219220535699996 0 -1 0 0
1811 3 53.569282738032 33.219220535699996 0 -1 0 0
1808 1 55.553330246848 34.364710898999995 1.7975259558619996 -1 0 0
1817 3 57.537377755664 33.219220535699996 0 -1 0 0
1814 1 59.52142526448 34.364710898999995 1.7975259558619996 -1 0 0
1823 3 61.505472773296 33.219220535699996 0 -1 0 0
1820 1 63.489520282112 34.364710898999995 1.7975259558619996 -1 0 0
1829 3 65.473567790928 33.219220535699996 0 -1 0 0
1826 1 67.45761529974399 34.364710898999995 1.7975259558619996 -1 0 0
1835 3 69.44166280856 33.219220535699996 0 -1 0 0
1832 1 71.425710317376 34.364710898999995 1.7975259558619996 -1 0 0
1838 1 75.393805335008 34.364710898999995 1.7975259558619996 -1 0 0
1841 3 73.40975782619199 33.219220535699996 0 -1 0 0