LAMMPS data file via write_data, version 29 Aug 2024, timestep = 3, units = metal

4500 atoms
6 atom types

0 99.2023754408 xlo xhi
0 103.094132697 ylo yhi
-50 50 zlo zhi

Masses

1 91.224
2 91.224
3 127.6
4 127.6
5 127.6
6 127.6

Atoms # atomic

1128 4 0.0008672222549525187 2.290073540135213 0.036378066647527324 0 0 0
1279 1 1.9881135000318144 3.4322659020256276 1.7885027122228747 0 0 0
1134 4 3.968962239886946 2.2900735401352144 0.03637806664752972 0 0 0
1283 4 1.9849147310709474 5.726544630035215 0.036378066647529746 0 0 0
1285 1 5.9562085176638115 3.4322659020256285 1.7885027122228752 0 0 0
1140 4 7.937057257518947 2.290073540135215 0.0363780666475296 0 0 0
1291 1 9.92430353529581 3.432265902025628 1.7885027122228752 0 0 0
1289 4 5.9530097487029465 5.726544630035214 0.03637806664752867 0 0 0
1295 4 9.921104766334945 5.726544630035214 0.03637806664752802 0 0 0
1146 4 11.905152275150947 2.2900735401352144 0.03637806664752958 0 0 0
1297 1 13.892398552927812 3.432265902025628 1.7885027122228756 0 0 0
1152 4 15.873247292782947 2.290073540135215 0.036378066647529 0 0 0
1301 4 13.889199783966948 5.726544630035214 0.03637806664752907 0 0 0
1303 1 17.86049357055981 3.4322659020256276 1.788502712222875 0 0 0
1158 4 19.84134231041495 2.2900735401352144 0.03637806664752972 0 0 0
1309 1 21.828588588191813 3.432265902025628 1.7885027122228758 0 0 0
1307 4 17.85729480159895 5.726544630035214 0.0363780666475297 0 0 0
1313 4 21.82538981923095 5.726544630035214 0.03637806664752697 0 0 0
1164 4 23.80943732804695 2.2900735401352144 0.036378066647530405 0 0 0
1315 1 25.79668360582381 3.432265902025628 1.7885027122228765 0 0 0
1170 4 27.77753234567895 2.2900735401352144 0.03637806664752798 0 0 0
1319 4 25.79348483686295 5.726544630035214 0.036378066647528025 0 0 0
1321 1 29.76477862345581 3.4322659020256276 1.7885027122228756 0 0 0
1176 4 31.745627363310952 2.2900735401352144 0.0363780666475283 0 0 0
1327 1 33.732873641087814 3.432265902025628 1.788502712222874 0 0 0
1325 4 29.76157985449495 5.726544630035215 0.036378066647528975 0 0 0
1331 4 33.72967487212695 5.726544630035213 0.036378066647525444 0 0 0
1182 4 35.71372238094295 2.290073540135215 0.0363780666475303 0 0 0
1333 1 37.70096865871981 3.4322659020256276 1.7885027122228756 0 0 0
1188 4 39.68181739857495 2.290073540135214 0.036378066647527435 0 0 0
1337 4 37.697769889758945 5.726544630035215 0.0363780666475297 0 0 0
1339 1 41.66906367635182 3.432265902025627 1.7885027122228734 0 0 0
1194 4 43.649912416206945 2.290073540135215 0.03637806664753104 0 0 0
1345 1 45.637158693983814 3.432265902025629 1.7885027122228772 0 0 0
1343 4 41.66586490739095 5.726544630035215 0.036378066647529406 0 0 0
1349 4 45.63395992502295 5.726544630035213 0.03637806664752731 0 0 0
1200 4 47.61800743383895 2.2900735401352144 0.03637806664752962 0 0 0
1056 4 51.58610245147094 2.290073540135215 0.03637806664752981 -1 0 0
1201 1 49.605253711615816 3.4322659020256276 1.7885027122228747 -1 0 0
1205 4 49.602054942654945 5.726544630035214 0.03637806664752841 -1 0 0
1207 1 53.573348729247805 3.432265902025626 1.788502712222874 -1 0 0
1062 4 55.554197469102945 2.2900735401352135 0.03637806664752825 -1 0 0
1213 1 57.541443746879814 3.432265902025627 1.7885027122228738 -1 0 0
1211 4 53.57014996028694 5.726544630035215 0.03637806664752834 -1 0 0
1217 4 57.53824497791894 5.726544630035214 0.03637806664752905 -1 0 0
1068 4 59.52229248673494 2.2900735401352152 0.03637806664753024 -1 0 0
1219 1 61.50953876451181 3.4322659020256285 1.7885027122228783 -1 0 0
1074 4 63.49038750436695 2.290073540135215 0.036378066647529655 -1 0 0
1223 4 61.506339995550945 5.726544630035213 0.036378066647525915 -1 0 0
1225 1 65.47763378214381 3.4322659020256263 1.7885027122228705 -1 0 0
1080 4 67.45848252199895 2.290073540135213 0.036378066647528476 -1 0 0
1231 1 69.44572879977581 3.4322659020256276 1.788502712222875 -1 0 0
1229 4 65.47443501318294 5.726544630035216 0.036378066647530904 -1 0 0
1235 4 69.44253003081495 5.726544630035212 0.03637806664752579 -1 0 0
1086 4 71.42657753963094 2.2900735401352152 0.03637806664752796 -1 0 0
1092 4 75.39467255726294 2.290073540135215 0.036378066647532424 -1 0 0
1237 1 73.41382381740782 3.432265902025628 1.7885027122228783 -1 0 0
1241 4 73.41062504844695 5.726544630035213 0.036378066647527296 -1 0 0
1243 1 77.3819188350398 3.4322659020256268 1.7885027122228718 -1 0 0
1098 4 79.36276757489495 2.2900735401352135 0.03637806664752826 -1 0 0
1249 1 81.35001385267181 3.432265902025628 1.7885027122228752 -1 0 0
1247 4 77.37872006607894 5.7265446300352165 0.03637806664753127 -1 0 0
1253 4 81.34681508371095 5.726544630035212 0.036378066647525874 -1 0 0
1104 4 83.33086259252694 2.2900735401352152 0.03637806664752806 -1 0 0
1255 1 85.31810887030382 3.4322659020256285 1.788502712222878 -1 0 0
1110 4 87.29895761015894 2.290073540135215 0.036378066647532445 -1 0 0
1259 4 85.31491010134295 5.726544630035213 0.03637806664752764 -1 0 0
1261 1 89.2862038879358 3.4322659020256268 1.7885027122228718 -1 0 0
1116 4 91.26705262779095 2.2900735401352135 0.03637806664752826 -1 0 0
1267 1 93.25429890556782 3.432265902025628 1.7885027122228752 -1 0 0
1265 4 89.28300511897494 5.7265446300352165 0.03637806664753127 -1 0 0
1271 4 93.25110013660695 5.726544630035212 0.03637806664752622 -1 0 0
1122 4 95.23514764542294 2.290073540135217 0.036378066647533125 -1 0 0
1273 1 97.22239392319979 3.4322659020256294 1.788502712222877 -1 0 0
1277 4 97.21919515423895 5.726544630035213 0.036378066647528 -1 0 0
1274 1 0.00406599121581698 6.868736991925631 1.7885027122228763 0 0 0
1280 1 3.9721610088478125 6.868736991925629 1.7885027122228734 0 0 0
1278 4 0.0008672222549522705 9.16301571993521 0.036378066647527574 0 0 0
1429 1 1.9881135000318146 10.30520808182563 1.7885027122228732 0 0 0
1284 4 3.9689622398869466 9.163015719935212 0.036378066647529746 0 0 0
1286 1 7.940256026479811 6.86873699192563 1.788502712222875 0 0 0
1435 1 5.9562085176638115 10.30520808182563 1.788502712222875 0 0 0
1290 4 7.937057257518947 9.163015719935212 0.03637806664752914 0 0 0
1441 1 9.924303535295811 10.30520808182563 1.788502712222875 0 0 0
1292 1 11.908351044111813 6.868736991925629 1.7885027122228745 0 0 0
1298 1 15.876446061743813 6.868736991925629 1.7885027122228747 0 0 0
1296 4 11.905152275150947 9.163015719935212 0.03637806664752965 0 0 0
1447 1 13.89239855292781 10.30520808182563 1.7885027122228743 0 0 0
1302 4 15.873247292782947 9.163015719935212 0.0363780666475287 0 0 0
1304 1 19.84454107937581 6.86873699192563 1.7885027122228754 0 0 0
1453 1 17.86049357055981 10.30520808182563 1.7885027122228734 0 0 0
1308 4 19.84134231041495 9.163015719935212 0.036378066647529204 0 0 0
1459 1 21.828588588191813 10.30520808182563 1.7885027122228752 0 0 0
1310 1 23.81263609700781 6.868736991925629 1.7885027122228756 0 0 0
1316 1 27.780731114639813 6.868736991925629 1.7885027122228756 0 0 0
1314 4 23.80943732804695 9.163015719935212 0.03637806664753008 0 0 0
1465 1 25.79668360582381 10.30520808182563 1.7885027122228747 0 0 0
1320 4 27.77753234567895 9.163015719935212 0.03637806664752791 0 0 0
1322 1 31.748826132271805 6.868736991925629 1.788502712222874 0 0 0
1471 1 29.764778623455815 10.305208081825631 1.7885027122228745 0 0 0
1326 4 31.745627363310952 9.163015719935212 0.03637806664752891 0 0 0
1477 1 33.732873641087814 10.30520808182563 1.7885027122228732 0 0 0
1328 1 35.71692114990382 6.86873699192563 1.7885027122228738 0 0 0
1334 1 39.685016167535814 6.868736991925629 1.7885027122228754 0 0 0
1332 4 35.71372238094295 9.163015719935212 0.036378066647530516 0 0 0
1483 1 37.70096865871981 10.305208081825631 1.7885027122228754 0 0 0
1338 4 39.68181739857495 9.163015719935212 0.03637806664752675 0 0 0
1340 1 43.65311118516781 6.86873699192563 1.788502712222875 0 0 0
1489 1 41.66906367635182 10.30520808182563 1.788502712222873 0 0 0
1344 4 43.649912416206945 9.163015719935212 0.036378066647530995 0 0 0
1495 1 45.637158693983814 10.30520808182563 1.7885027122228774 0 0 0
1346 1 47.62120620279981 6.86873699192563 1.788502712222877 0 0 0
1202 1 51.589301220431814 6.868736991925628 1.788502712222873 -1 0 0
1350 4 47.61800743383895 9.163015719935212 0.03637806664752916 0 0 0
1206 4 51.58610245147094 9.163015719935213 0.03637806664752942 -1 0 0
1351 1 49.605253711615816 10.30520808182563 1.788502712222874 -1 0 0
1208 1 55.55739623806381 6.868736991925631 1.7885027122228765 -1 0 0
1357 1 53.573348729247805 10.305208081825628 1.7885027122228725 -1 0 0
1212 4 55.554197469102945 9.163015719935212 0.03637806664752786 -1 0 0
1363 1 57.541443746879814 10.30520808182563 1.7885027122228732 -1 0 0
1214 1 59.525491255695805 6.868736991925628 1.7885027122228734 -1 0 0
1220 1 63.493586273327814 6.868736991925629 1.7885027122228718 -1 0 0
1218 4 59.52229248673494 9.163015719935213 0.036378066647529274 -1 0 0
1369 1 61.50953876451181 10.305208081825631 1.7885027122228763 -1 0 0
1224 4 63.49038750436694 9.163015719935212 0.036378066647529225 -1 0 0
1226 1 67.46168129095979 6.868736991925631 1.7885027122228783 -1 0 0
1375 1 65.47763378214381 10.305208081825628 1.7885027122228694 -1 0 0
1230 4 67.45848252199895 9.163015719935212 0.03637806664752813 -1 0 0
1381 1 69.44572879977582 10.30520808182563 1.7885027122228745 -1 0 0
1232 1 71.42977630859181 6.868736991925628 1.7885027122228705 -1 0 0
1238 1 75.39787132622382 6.868736991925628 1.788502712222875 -1 0 0
1236 4 71.42657753963094 9.163015719935215 0.03637806664753176 -1 0 0
1242 4 75.39467255726295 9.163015719935212 0.03637806664752663 -1 0 0
1387 1 73.41382381740779 10.305208081825631 1.7885027122228783 -1 0 0
1244 1 79.36596634385579 6.868736991925631 1.7885027122228787 -1 0 0
1393 1 77.38191883503981 10.305208081825628 1.7885027122228705 -1 0 0
1248 4 79.36276757489495 9.163015719935212 0.03637806664752761 -1 0 0
1399 1 81.35001385267182 10.30520808182563 1.7885027122228745 -1 0 0
1250 1 83.33406136148781 6.868736991925628 1.7885027122228703 -1 0 0
1256 1 87.30215637911982 6.868736991925628 1.788502712222875 -1 0 0
1254 4 83.33086259252694 9.163015719935215 0.03637806664753186 -1 0 0
1405 1 85.31810887030379 10.305208081825631 1.788502712222878 -1 0 0
1260 4 87.29895761015895 9.16301571993521 0.03637806664752675 -1 0 0
1262 1 91.27025139675179 6.868736991925631 1.7885027122228792 -1 0 0
1411 1 89.28620388793581 10.305208081825628 1.7885027122228705 -1 0 0
1266 4 91.26705262779095 9.163015719935212 0.03637806664752761 -1 0 0
1417 1 93.25429890556782 10.30520808182563 1.788502712222875 -1 0 0
1268 1 95.23834641438381 6.868736991925627 1.78850271222287 -1 0 0
1272 4 95.23514764542294 9.163015719935215 0.03637806664753269 -1 0 0
1423 1 97.22239392319979 10.305208081825628 1.7885027122228763 -1 0 0
1433 4 1.9849147310709474 12.599486809835215 0.036378066647530835 0 0 0
1424 1 0.00406599121581684 13.741679171725627 1.7885027122228772 0 0 0
1430 1 3.9721610088478125 13.741679171725625 1.7885027122228738 0 0 0
1428 4 0.0008672222549524283 16.035957899735212 0.03637806664752519 0 0 0
1434 4 3.9689622398869466 16.035957899735216 0.0363780666475279 0 0 0
1579 1 1.9881135000318146 17.178150261625632 1.7885027122228747 0 0 0
1439 4 5.9530097487029465 12.599486809835215 0.03637806664753008 0 0 0
1445 4 9.921104766334945 12.599486809835215 0.036378066647529336 0 0 0
1436 1 7.940256026479811 13.741679171725625 1.7885027122228756 0 0 0
1440 4 7.937057257518947 16.035957899735216 0.036378066647526984 0 0 0
1585 1 5.9562085176638115 17.178150261625632 1.7885027122228752 0 0 0
1591 1 9.924303535295811 17.178150261625632 1.7885027122228752 0 0 0
1451 4 13.889199783966948 12.599486809835215 0.03637806664753005 0 0 0
1442 1 11.908351044111813 13.741679171725625 1.7885027122228754 0 0 0
1448 1 15.876446061743811 13.741679171725625 1.7885027122228754 0 0 0
1446 4 11.905152275150947 16.035957899735216 0.03637806664752761 0 0 0
1452 4 15.873247292782947 16.035957899735216 0.03637806664752723 0 0 0
1597 1 13.89239855292781 17.178150261625632 1.788502712222875 0 0 0
1457 4 17.85729480159895 12.599486809835215 0.03637806664753071 0 0 0
1463 4 21.82538981923095 12.599486809835215 0.03637806664752865 0 0 0
1454 1 19.84454107937581 13.741679171725625 1.788502712222875 0 0 0
1458 4 19.84134231041495 16.035957899735216 0.03637806664752735 0 0 0
1603 1 17.86049357055981 17.178150261625632 1.7885027122228754 0 0 0
1609 1 21.828588588191813 17.178150261625632 1.7885027122228745 0 0 0
1469 4 25.79348483686295 12.599486809835215 0.03637806664752993 0 0 0
1460 1 23.81263609700781 13.741679171725625 1.7885027122228745 0 0 0
1466 1 27.780731114639813 13.741679171725625 1.7885027122228745 0 0 0
1464 4 23.80943732804695 16.035957899735216 0.036378066647528726 0 0 0
1470 4 27.77753234567895 16.035957899735216 0.0363780666475263 0 0 0
1615 1 25.79668360582381 17.178150261625632 1.7885027122228752 0 0 0
1475 4 29.76157985449495 12.599486809835215 0.03637806664753039 0 0 0
1481 4 33.72967487212695 12.599486809835215 0.03637806664752642 0 0 0
1472 1 31.748826132271805 13.741679171725625 1.7885027122228752 0 0 0
1476 4 31.745627363310952 16.035957899735216 0.03637806664752671 0 0 0
1621 1 29.76477862345581 17.178150261625632 1.788502712222875 0 0 0
1627 1 33.732873641087814 17.178150261625632 1.7885027122228732 0 0 0
1487 4 37.697769889758945 12.599486809835215 0.03637806664753067 0 0 0
1478 1 35.71692114990382 13.741679171725625 1.7885027122228743 0 0 0
1484 1 39.685016167535814 13.741679171725625 1.7885027122228743 0 0 0
1482 4 35.71372238094295 16.035957899735216 0.0363780666475284 0 0 0
1488 4 39.68181739857495 16.035957899735212 0.03637806664752553 0 0 0
1633 1 37.70096865871981 17.178150261625632 1.7885027122228752 0 0 0
1493 4 41.66586490739095 12.599486809835215 0.03637806664753098 0 0 0
1499 4 45.63395992502295 12.599486809835215 0.03637806664752835 0 0 0
1490 1 43.65311118516781 13.741679171725625 1.7885027122228754 0 0 0
1494 4 43.649912416206945 16.035957899735216 0.0363780666475289 0 0 0
1639 1 41.66906367635182 17.178150261625632 1.7885027122228736 0 0 0
1645 1 45.637158693983814 17.178150261625632 1.7885027122228778 0 0 0
1355 4 49.602054942654945 12.599486809835215 0.03637806664752967 -1 0 0
1496 1 47.62120620279981 13.741679171725625 1.7885027122228765 0 0 0
1352 1 51.589301220431814 13.741679171725625 1.7885027122228718 -1 0 0
1500 4 47.61800743383895 16.035957899735212 0.03637806664752688 0 0 0
1356 4 51.58610245147094 16.035957899735216 0.03637806664752783 -1 0 0
1501 1 49.605253711615816 17.178150261625632 1.7885027122228745 -1 0 0
1361 4 53.57014996028694 12.599486809835215 0.0363780666475295 -1 0 0
1367 4 57.53824497791894 12.599486809835215 0.03637806664753021 -1 0 0
1358 1 55.55739623806381 13.741679171725627 1.7885027122228772 -1 0 0
1362 4 55.554197469102945 16.035957899735212 0.03637806664752622 -1 0 0
1507 1 53.573348729247805 17.17815026162563 1.7885027122228734 -1 0 0
1513 1 57.541443746879814 17.178150261625632 1.7885027122228732 -1 0 0
1373 4 61.506339995550945 12.599486809835213 0.03637806664752788 -1 0 0
1364 1 59.525491255695805 13.741679171725625 1.788502712222873 -1 0 0
1370 1 63.493586273327814 13.741679171725625 1.7885027122228718 -1 0 0
1368 4 59.52229248673494 16.035957899735216 0.03637806664752778 -1 0 0
1374 4 63.49038750436694 16.035957899735216 0.03637806664752739 -1 0 0
1519 1 61.50953876451181 17.178150261625632 1.7885027122228765 -1 0 0
1379 4 65.47443501318294 12.599486809835216 0.03637806664753282 -1 0 0
1385 4 69.44253003081495 12.599486809835213 0.036378066647527296 -1 0 0
1376 1 67.46168129095979 13.741679171725627 1.7885027122228774 -1 0 0
1380 4 67.45848252199895 16.035957899735212 0.03637806664752632 -1 0 0
1525 1 65.47763378214381 17.17815026162563 1.7885027122228707 -1 0 0
1531 1 69.44572879977582 17.17815026162563 1.7885027122228747 -1 0 0
1391 4 73.41062504844695 12.599486809835213 0.03637806664752848 -1 0 0
1382 1 71.42977630859181 13.741679171725623 1.7885027122228714 -1 0 0
1388 1 75.39787132622382 13.741679171725625 1.7885027122228738 -1 0 0
1386 4 71.42657753963094 16.035957899735216 0.03637806664753068 -1 0 0
1392 4 75.39467255726295 16.035957899735212 0.03637806664752514 -1 0 0
1537 1 73.41382381740779 17.178150261625632 1.7885027122228776 -1 0 0
1397 4 77.37872006607894 12.599486809835218 0.03637806664753266 -1 0 0
1403 4 81.34681508371095 12.599486809835213 0.036378066647527296 -1 0 0
1394 1 79.36596634385579 13.741679171725627 1.7885027122228778 -1 0 0
1398 4 79.36276757489495 16.035957899735212 0.03637806664752607 -1 0 0
1543 1 77.38191883503981 17.17815026162563 1.7885027122228723 -1 0 0
1549 1 81.35001385267182 17.178150261625632 1.788502712222874 -1 0 0
1409 4 85.31491010134295 12.599486809835213 0.03637806664752859 -1 0 0
1400 1 83.33406136148781 13.741679171725623 1.788502712222872 -1 0 0
1406 1 87.30215637911982 13.741679171725625 1.788502712222874 -1 0 0
1404 4 83.33086259252694 16.035957899735216 0.03637806664753068 -1 0 0
1410 4 87.29895761015895 16.035957899735212 0.03637806664752514 -1 0 0
1555 1 85.31810887030379 17.178150261625632 1.788502712222878 -1 0 0
1415 4 89.28300511897494 12.599486809835218 0.03637806664753266 -1 0 0
1421 4 93.25110013660695 12.599486809835213 0.036378066647527296 -1 0 0
1412 1 91.27025139675179 13.741679171725627 1.7885027122228778 -1 0 0
1416 4 91.26705262779095 16.035957899735212 0.036378066647526075 -1 0 0
1561 1 89.28620388793581 17.17815026162563 1.7885027122228723 -1 0 0
1567 1 93.25429890556782 17.178150261625632 1.788502712222874 -1 0 0
1427 4 97.21919515423895 12.599486809835215 0.03637806664752866 -1 0 0
1418 1 95.23834641438381 13.741679171725623 1.7885027122228718 -1 0 0
1422 4 95.23514764542294 16.035957899735216 0.036378066647530585 -1 0 0
1573 1 97.22239392319979 17.178150261625632 1.7885027122228774 -1 0 0
1574 1 0.004065991215816798 20.614621351525628 1.7885027122228765 0 0 0
1583 4 1.9849147310709472 19.472428989635215 0.03637806664752977 0 0 0
1580 1 3.9721610088478125 20.614621351525624 1.7885027122228738 0 0 0
1578 4 0.0008672222549521714 22.90890007953521 0.036378066647525416 0 0 0
1584 4 3.9689622398869466 22.908900079535215 0.03637806664752777 0 0 0
1589 4 5.9530097487029465 19.472428989635215 0.036378066647529746 0 0 0
1586 1 7.940256026479811 20.614621351525624 1.7885027122228738 0 0 0
1595 4 9.921104766334945 19.472428989635215 0.036378066647528816 0 0 0
1590 4 7.937057257518947 22.908900079535215 0.036378066647527796 0 0 0
1592 1 11.908351044111813 20.614621351525624 1.788502712222874 0 0 0
1601 4 13.889199783966948 19.472428989635215 0.036378066647529815 0 0 0
1598 1 15.876446061743811 20.614621351525624 1.7885027122228738 0 0 0
1596 4 11.905152275150947 22.908900079535215 0.0363780666475277 0 0 0
1602 4 15.873247292782947 22.908900079535215 0.03637806664752747 0 0 0
1607 4 17.85729480159895 19.472428989635215 0.036378066647530044 0 0 0
1604 1 19.84454107937581 20.614621351525624 1.788502712222874 0 0 0
1613 4 21.82538981923095 19.472428989635215 0.03637806664752816 0 0 0
1608 4 19.84134231041495 22.908900079535215 0.03637806664752766 0 0 0
1610 1 23.81263609700781 20.614621351525624 1.7885027122228743 0 0 0
1619 4 25.79348483686295 19.472428989635215 0.03637806664752887 0 0 0
1616 1 27.780731114639813 20.614621351525624 1.788502712222874 0 0 0
1614 4 23.80943732804695 22.908900079535215 0.03637806664752873 0 0 0
1620 4 27.77753234567895 22.908900079535215 0.03637806664752664 0 0 0
1625 4 29.76157985449495 19.472428989635215 0.03637806664752991 0 0 0
1622 1 31.74882613227181 20.614621351525624 1.7885027122228732 0 0 0
1631 4 33.72967487212695 19.472428989635215 0.0363780666475264 0 0 0
1626 4 31.745627363310952 22.908900079535215 0.03637806664752716 0 0 0
1628 1 35.71692114990382 20.614621351525624 1.788502712222872 0 0 0
1637 4 37.697769889758945 19.472428989635215 0.03637806664753088 0 0 0
1634 1 39.685016167535814 20.614621351525624 1.7885027122228736 0 0 0
1632 4 35.71372238094295 22.908900079535215 0.03637806664752878 0 0 0
1638 4 39.68181739857495 22.908900079535215 0.03637806664752518 0 0 0
1643 4 41.66586490739095 19.472428989635215 0.03637806664753055 0 0 0
1640 1 43.65311118516781 20.614621351525624 1.788502712222874 0 0 0
1649 4 45.63395992502295 19.472428989635215 0.03637806664752818 0 0 0
1644 4 43.649912416206945 22.908900079535215 0.03637806664752952 0 0 0
1646 1 47.62120620279981 20.614621351525624 1.7885027122228745 0 0 0
1502 1 51.589301220431814 20.614621351525624 1.788502712222871 -1 0 0
1505 4 49.602054942654945 19.472428989635215 0.036378066647529385 -1 0 0
1650 4 47.61800743383895 22.908900079535215 0.03637806664752793 0 0 0
1506 4 51.58610245147094 22.908900079535215 0.036378066647527706 -1 0 0
1511 4 53.57014996028694 19.472428989635215 0.03637806664752927 -1 0 0
1508 1 55.55739623806381 20.614621351525624 1.7885027122228758 -1 0 0
1517 4 57.53824497791894 19.472428989635215 0.0363780666475305 -1 0 0
1512 4 55.554197469102945 22.90890007953521 0.03637806664752604 -1 0 0
1514 1 59.525491255695805 20.614621351525624 1.788502712222871 -1 0 0
1523 4 61.506339995550945 19.472428989635215 0.03637806664752785 -1 0 0
1520 1 63.493586273327814 20.614621351525624 1.7885027122228707 -1 0 0
1518 4 59.52229248673494 22.908900079535215 0.036378066647527685 -1 0 0
1524 4 63.49038750436694 22.908900079535215 0.03637806664752763 -1 0 0
1529 4 65.47443501318294 19.47242898963522 0.03637806664753236 -1 0 0
1526 1 67.46168129095979 20.614621351525628 1.7885027122228774 -1 0 0
1535 4 69.44253003081495 19.472428989635212 0.03637806664752581 -1 0 0
1530 4 67.45848252199895 22.90890007953521 0.036378066647526394 -1 0 0
1532 1 71.42977630859181 20.614621351525628 1.788502712222871 -1 0 0
1538 1 75.39787132622381 20.614621351525624 1.7885027122228738 -1 0 0
1541 4 73.41062504844695 19.472428989635212 0.036378066647527 -1 0 0
1536 4 71.42657753963094 22.908900079535215 0.03637806664753229 -1 0 0
1542 4 75.39467255726295 22.90890007953521 0.03637806664752484 -1 0 0
1547 4 77.37872006607894 19.472428989635215 0.03637806664752715 -1 0 0
1544 1 79.36596634385582 20.614621351525628 1.7885027122228776 -1 0 0
1553 4 81.34681508371094 19.472428989635215 0.03637806664753058 -1 0 0
1548 4 79.36276757489495 22.90890007953521 0.03637806664752614 -1 0 0
1550 1 83.3340613614878 20.61462135152563 1.7885027122228714 -1 0 0
1559 4 85.31491010134295 19.472428989635212 0.03637806664752699 -1 0 0
1556 1 87.30215637911981 20.614621351525624 1.7885027122228743 -1 0 0
1554 4 83.33086259252694 22.908900079535215 0.036378066647532396 -1 0 0
1560 4 87.29895761015895 22.90890007953521 0.03637806664752483 -1 0 0
1565 4 89.28300511897494 19.472428989635215 0.03637806664752716 -1 0 0
1562 1 91.27025139675182 20.614621351525628 1.7885027122228776 -1 0 0
1571 4 93.25110013660694 19.472428989635215 0.036378066647530585 -1 0 0
1566 4 91.26705262779095 22.90890007953521 0.03637806664752614 -1 0 0
1568 1 95.2383464143838 20.614621351525628 1.7885027122228707 -1 0 0
1577 4 97.21919515423895 19.472428989635212 0.03637806664752762 -1 0 0
1572 4 95.23514764542294 22.908900079535215 0.0363780666475324 -1 0 0
1729 1 1.9881135000318146 24.051092441425627 1.788502712222874 0 0 0
1724 1 0.004065991215816821 27.487563531325634 1.788502712222875 0 0 0
1733 4 1.9849147310709472 26.345371169435214 0.036378066647530544 0 0 0
1730 1 3.9721610088478125 27.487563531325627 1.7885027122228747 0 0 0
1735 1 5.9562085176638115 24.051092441425627 1.7885027122228743 0 0 0
1741 1 9.924303535295811 24.051092441425627 1.7885027122228754 0 0 0
1739 4 5.953009748702947 26.345371169435214 0.036378066647529794 0 0 0
1736 1 7.940256026479809 27.48756353132563 1.7885027122228747 0 0 0
1745 4 9.921104766334945 26.345371169435214 0.03637806664752818 0 0 0
1747 1 13.89239855292781 24.051092441425627 1.7885027122228747 0 0 0
1742 1 11.908351044111813 27.487563531325627 1.788502712222876 0 0 0
1751 4 13.889199783966948 26.345371169435214 0.03637806664752894 0 0 0
1748 1 15.876446061743813 27.48756353132563 1.7885027122228747 0 0 0
1753 1 17.86049357055981 24.051092441425627 1.7885027122228745 0 0 0
1759 1 21.828588588191813 24.051092441425627 1.788502712222875 0 0 0
1757 4 17.85729480159895 26.345371169435214 0.03637806664753035 0 0 0
1754 1 19.84454107937581 27.487563531325627 1.7885027122228754 0 0 0
1763 4 21.82538981923095 26.345371169435214 0.03637806664752829 0 0 0
1765 1 25.79668360582381 24.051092441425627 1.788502712222874 0 0 0
1760 1 23.81263609700781 27.487563531325627 1.7885027122228754 0 0 0
1769 4 25.793484836862948 26.345371169435214 0.03637806664752903 0 0 0
1766 1 27.780731114639813 27.48756353132563 1.788502712222874 0 0 0
1771 1 29.76477862345581 24.051092441425627 1.7885027122228743 0 0 0
1777 1 33.732873641087814 24.051092441425627 1.7885027122228732 0 0 0
1775 4 29.76157985449495 26.345371169435214 0.036378066647530065 0 0 0
1772 1 31.74882613227181 27.487563531325627 1.7885027122228747 0 0 0
1781 4 33.72967487212695 26.345371169435214 0.03637806664752626 0 0 0
1783 1 37.70096865871981 24.051092441425627 1.7885027122228754 0 0 0
1778 1 35.71692114990382 27.487563531325627 1.788502712222875 0 0 0
1787 4 37.697769889758945 26.345371169435214 0.03637806664752976 0 0 0
1784 1 39.685016167535814 27.48756353132563 1.7885027122228743 0 0 0
1789 1 41.66906367635182 24.051092441425627 1.788502712222873 0 0 0
1795 1 45.637158693983814 24.051092441425627 1.7885027122228772 0 0 0
1793 4 41.66586490739095 26.345371169435214 0.03637806664752958 0 0 0
1790 1 43.65311118516781 27.487563531325627 1.7885027122228765 0 0 0
1799 4 45.63395992502295 26.345371169435214 0.03637806664752753 0 0 0
1651 1 49.605253711615816 24.051092441425627 1.788502712222874 -1 0 0
1796 1 47.62120620279981 27.487563531325627 1.7885027122228774 0 0 0
1652 1 51.589301220431814 27.487563531325627 1.7885027122228718 -1 0 0
1655 4 49.602054942654945 26.345371169435214 0.036378066647528684 -1 0 0
1657 1 53.573348729247805 24.051092441425627 1.7885027122228727 -1 0 0
1663 1 57.541443746879814 24.051092441425627 1.7885027122228738 -1 0 0
1661 4 53.57014996028694 26.345371169435214 0.03637806664752937 -1 0 0
1658 1 55.55739623806381 27.487563531325627 1.7885027122228774 -1 0 0
1667 4 57.53824497791894 26.345371169435214 0.03637806664752971 -1 0 0
1669 1 61.50953876451181 24.051092441425627 1.7885027122228765 -1 0 0
1664 1 59.525491255695805 27.487563531325627 1.7885027122228727 -1 0 0
1673 4 61.506339995550945 26.345371169435214 0.03637806664752693 -1 0 0
1670 1 63.493586273327814 27.487563531325627 1.7885027122228718 -1 0 0
1675 1 65.47763378214381 24.051092441425624 1.7885027122228705 -1 0 0
1681 1 69.44572879977582 24.051092441425627 1.7885027122228743 -1 0 0
1679 4 65.47443501318294 26.345371169435218 0.03637806664753205 -1 0 0
1676 1 67.46168129095979 27.48756353132563 1.7885027122228787 -1 0 0
1685 4 69.44253003081495 26.345371169435214 0.03637806664752621 -1 0 0
1687 1 73.41382381740779 24.051092441425627 1.788502712222877 -1 0 0
1682 1 71.42977630859181 27.487563531325623 1.7885027122228738 -1 0 0
1688 1 75.39787132622382 27.48756353132563 1.7885027122228732 -1 0 0
1691 4 73.41062504844695 26.34537116943521 0.03637806664752772 -1 0 0
1693 1 77.38191883503981 24.051092441425627 1.788502712222871 -1 0 0
1699 1 81.35001385267182 24.051092441425624 1.788502712222875 -1 0 0
1697 4 77.37872006607894 26.345371169435218 0.03637806664753212 -1 0 0
1694 1 79.36596634385579 27.48756353132563 1.788502712222879 -1 0 0
1703 4 81.34681508371095 26.345371169435214 0.03637806664752629 -1 0 0
1705 1 85.31810887030379 24.051092441425627 1.7885027122228774 -1 0 0
1700 1 83.33406136148781 27.487563531325623 1.7885027122228738 -1 0 0
1709 4 85.31491010134295 26.34537116943521 0.03637806664752771 -1 0 0
1706 1 87.30215637911982 27.48756353132563 1.7885027122228732 -1 0 0
1711 1 89.28620388793581 24.051092441425627 1.788502712222871 -1 0 0
1717 1 93.25429890556782 24.051092441425624 1.788502712222875 -1 0 0
1715 4 89.28300511897494 26.345371169435218 0.036378066647532195 -1 0 0
1712 1 91.27025139675179 27.48756353132563 1.788502712222878 -1 0 0
1721 4 93.25110013660695 26.345371169435214 0.03637806664752664 -1 0 0
1723 1 97.22239392319979 24.051092441425627 1.788502712222876 -1 0 0
1718 1 95.23834641438381 27.487563531325623 1.7885027122228732 -1 0 0
1727 4 97.21919515423895 26.34537116943521 0.03637806664752843 -1 0 0
1728 4 0.000867222254945503 29.78184225933521 0.03637806664753199 0 0 0
1734 4 3.9689622398869466 29.781842259335214 0.03637806664752906 0 0 0
1879 1 1.9881135000318124 30.92403462122563 1.788502712222873 0 0 0
1874 1 0.004065991215817004 34.36050571112563 1.7885027122228754 0 0 0
1883 4 1.9849147310709478 33.21831334923522 0.036378066647529475 0 0 0
1880 1 3.9721610088478125 34.360505711125626 1.7885027122228745 0 0 0
1740 4 7.937057257518947 29.78184225933521 0.036378066647527955 0 0 0
1885 1 5.956208517663811 30.92403462122563 1.7885027122228734 0 0 0
1891 1 9.924303535295811 30.92403462122563 1.7885027122228732 0 0 0
1889 4 5.9530097487029465 33.21831334923522 0.03637806664752893 0 0 0
1886 1 7.940256026479812 34.360505711125626 1.788502712222873 0 0 0
1895 4 9.921104766334945 33.21831334923522 0.03637806664752852 0 0 0
1746 4 11.905152275150947 29.781842259335214 0.03637806664752845 0 0 0
1752 4 15.873247292782947 29.781842259335214 0.036378066647528524 0 0 0
1897 1 13.89239855292781 30.92403462122563 1.7885027122228727 0 0 0
1892 1 11.90835104411181 34.360505711125626 1.788502712222875 0 0 0
1901 4 13.889199783966948 33.21831334923522 0.03637806664752901 0 0 0
1898 1 15.876446061743811 34.360505711125626 1.7885027122228727 0 0 0
1758 4 19.841342310414948 29.781842259335214 0.03637806664752801 0 0 0
1903 1 17.86049357055981 30.92403462122563 1.7885027122228727 0 0 0
1909 1 21.828588588191813 30.924034621225633 1.7885027122228707 0 0 0
1907 4 17.85729480159895 33.21831334923522 0.03637806664753029 0 0 0
1904 1 19.84454107937581 34.360505711125626 1.7885027122228747 0 0 0
1913 4 21.82538981923095 33.21831334923521 0.036378066647527865 0 0 0
1764 4 23.80943732804695 29.781842259335214 0.03637806664752884 0 0 0