LAMMPS data file via write_data, version 29 Aug 2024, timestep = 0, units = metal

7872 atoms
4 atom types

0 100.04 xlo xhi
0 101.428895291232 ylo yhi
0 106 zlo zhi

Masses

1 10.81
2 10.81
3 15.999
4 15.999

Atoms # atomic

4105 3 1.2199999999999989 0.7043673284119976 0 0 0 0
4103 1 0 0 0.5709000000000017 0 0 0
4111 1 2.4399999999999977 0 0.5709000000000017 0 0 0
4113 3 3.6599999999999966 0.7043673284119976 0 0 0 0
4119 1 4.8799999999999955 0 0.5709000000000017 0 0 0
4121 3 6.099999999999994 0.7043673284119976 0 0 0 0
4127 1 7.32 0 0.5709000000000017 0 0 0
4129 3 8.54 0.7043673284119976 0 0 0 0
4135 1 9.759999999999998 0 0.5709000000000017 0 0 0
4137 3 10.979999999999997 0.7043673284119976 0 0 0 0
4145 3 13.419999999999995 0.7043673284119976 0 0 0 0
4143 1 12.199999999999996 0 0.5709000000000017 0 0 0
4151 1 14.639999999999993 0 0.5709000000000017 0 0 0
4153 3 15.859999999999992 0.7043673284119976 0 0 0 0
4159 1 17.07999999999999 0 0.5709000000000017 0 0 0
4161 3 18.29999999999999 0.7043673284119976 0 0 0 0
4167 1 19.520000000000003 0 0.5709000000000017 0 0 0
4169 3 20.740000000000002 0.7043673284119976 0 0 0 0
4175 1 21.96 0 0.5709000000000017 0 0 0
4177 3 23.18 0.7043673284119976 0 0 0 0
4185 3 25.619999999999997 0.7043673284119976 0 0 0 0
4183 1 24.4 0 0.5709000000000017 0 0 0
4191 1 26.839999999999996 0 0.5709000000000017 0 0 0
4193 3 28.059999999999995 0.7043673284119976 0 0 0 0
4199 1 29.279999999999994 0 0.5709000000000017 0 0 0
4201 3 30.499999999999993 0.7043673284119976 0 0 0 0
4207 1 31.71999999999999 0 0.5709000000000017 0 0 0
4209 3 32.93999999999999 0.7043673284119976 0 0 0 0
4215 1 34.160000000000004 0 0.5709000000000017 0 0 0
4217 3 35.38 0.7043673284119976 0 0 0 0
4225 3 37.82 0.7043673284119976 0 0 0 0
4223 1 36.6 0 0.5709000000000017 0 0 0
4231 1 39.04 0 0.5709000000000017 0 0 0
4233 3 40.26 0.7043673284119976 0 0 0 0
4239 1 41.48 0 0.5709000000000017 0 0 0
4241 3 42.699999999999996 0.7043673284119976 0 0 0 0
4247 1 43.919999999999995 0 0.5709000000000017 0 0 0
4249 3 45.13999999999999 0.7043673284119976 0 0 0 0
4255 1 46.35999999999999 0 0.5709000000000017 0 0 0
4257 3 47.57999999999999 0.7043673284119976 0 0 0 0
4263 1 48.79999999999999 0 0.5709000000000017 0 0 0
3937 3 50.02 0.7043673284119976 0 -1 0 0
3943 1 51.24 0 0.5709000000000017 -1 0 0
3945 3 52.46 0.7043673284119976 0 -1 0 0
3951 1 53.68000000000001 0 0.5709000000000017 -1 0 0
3953 3 54.900000000000006 0.7043673284119976 0 -1 0 0
3959 1 56.120000000000005 0 0.5709000000000017 -1 0 0
3961 3 57.34 0.7043673284119976 0 -1 0 0
3967 1 58.56 0 0.5709000000000017 -1 0 0
3969 3 59.78 0.7043673284119976 0 -1 0 0
3975 1 61 0 0.5709000000000017 -1 0 0
3977 3 62.22 0.7043673284119976 0 -1 0 0
3983 1 63.440000000000005 0 0.5709000000000017 -1 0 0
3985 3 64.66 0.7043673284119976 0 -1 0 0
3991 1 65.88 0 0.5709000000000017 -1 0 0
3993 3 67.1 0.7043673284119976 0 -1 0 0
3999 1 68.32000000000001 0 0.5709000000000017 -1 0 0
4001 3 69.54 0.7043673284119976 0 -1 0 0
4007 1 70.76 0 0.5709000000000017 -1 0 0
4009 3 71.98 0.7043673284119976 0 -1 0 0
4015 1 73.2 0 0.5709000000000017 -1 0 0
4017 3 74.42 0.7043673284119976 0 -1 0 0
4023 1 75.64 0 0.5709000000000017 -1 0 0
4025 3 76.86 0.7043673284119976 0 -1 0 0
4031 1 78.08 0 0.5709000000000017 -1 0 0
4033 3 79.30000000000001 0.7043673284119976 0 -1 0 0
4039 1 80.52000000000001 0 0.5709000000000017 -1 0 0
4041 3 81.74000000000001 0.7043673284119976 0 -1 0 0
4047 1 82.96000000000001 0 0.5709000000000017 -1 0 0
4049 3 84.18 0.7043673284119976 0 -1 0 0
4055 1 85.4 0 0.5709000000000017 -1 0 0
4057 3 86.62 0.7043673284119976 0 -1 0 0
4063 1 87.84 0 0.5709000000000017 -1 0 0
4065 3 89.06 0.7043673284119976 0 -1 0 0
4071 1 90.28 0 0.5709000000000017 -1 0 0
4073 3 91.5 0.7043673284119976 0 -1 0 0
4079 1 92.72 0 0.5709000000000017 -1 0 0
4081 3 93.94 0.7043673284119976 0 -1 0 0
4087 1 95.16 0 0.5709000000000017 -1 0 0
4089 3 96.38 0.7043673284119976 0 -1 0 0
4095 1 97.6 0 0.5709000000000017 -1 0 0
4097 3 98.82 0.7043673284119976 0 -1 0 0
4112 1 1.2199999999999989 2.113101985233996 0.5709000000000017 0 0 0
4120 1 3.6599999999999966 2.113101985233996 0.5709000000000017 0 0 0
4128 1 6.099999999999994 2.113101985233996 0.5709000000000017 0 0 0
4136 1 8.54 2.113101985233996 0.5709000000000017 0 0 0
4144 1 10.979999999999997 2.113101985233996 0.5709000000000017 0 0 0
4152 1 13.419999999999995 2.113101985233996 0.5709000000000017 0 0 0
4160 1 15.859999999999992 2.113101985233996 0.5709000000000017 0 0 0
4168 1 18.29999999999999 2.113101985233996 0.5709000000000017 0 0 0
4176 1 20.740000000000002 2.113101985233996 0.5709000000000017 0 0 0
4184 1 23.18 2.113101985233996 0.5709000000000017 0 0 0
4192 1 25.619999999999997 2.113101985233996 0.5709000000000017 0 0 0
4200 1 28.059999999999995 2.113101985233996 0.5709000000000017 0 0 0
4208 1 30.499999999999993 2.113101985233996 0.5709000000000017 0 0 0
4216 1 32.93999999999999 2.113101985233996 0.5709000000000017 0 0 0
4224 1 35.38 2.113101985233996 0.5709000000000017 0 0 0
4232 1 37.82 2.113101985233996 0.5709000000000017 0 0 0
4240 1 40.26 2.113101985233996 0.5709000000000017 0 0 0
4248 1 42.699999999999996 2.113101985233996 0.5709000000000017 0 0 0
4256 1 45.13999999999999 2.113101985233996 0.5709000000000017 0 0 0
4264 1 47.57999999999999 2.113101985233996 0.5709000000000017 0 0 0
3944 1 50.02 2.113101985233996 0.5709000000000017 -1 0 0
3952 1 52.46 2.113101985233996 0.5709000000000017 -1 0 0
3960 1 54.900000000000006 2.113101985233996 0.5709000000000017 -1 0 0
3968 1 57.34 2.113101985233996 0.5709000000000017 -1 0 0
3976 1 59.78 2.113101985233996 0.5709000000000017 -1 0 0
3984 1 62.22 2.113101985233996 0.5709000000000017 -1 0 0
3992 1 64.66 2.113101985233996 0.5709000000000017 -1 0 0
4000 1 67.1 2.113101985233996 0.5709000000000017 -1 0 0
4008 1 69.54 2.113101985233996 0.5709000000000017 -1 0 0
4016 1 71.98 2.113101985233996 0.5709000000000017 -1 0 0
4024 1 74.42 2.113101985233996 0.5709000000000017 -1 0 0
4032 1 76.86 2.113101985233996 0.5709000000000017 -1 0 0
4040 1 79.30000000000001 2.113101985233996 0.5709000000000017 -1 0 0
4048 1 81.74000000000001 2.113101985233996 0.5709000000000017 -1 0 0
4056 1 84.18 2.113101985233996 0.5709000000000017 -1 0 0
4064 1 86.62 2.113101985233996 0.5709000000000017 -1 0 0
4072 1 89.06 2.113101985233996 0.5709000000000017 -1 0 0
4080 1 91.5 2.113101985233996 0.5709000000000017 -1 0 0
4088 1 93.94 2.113101985233996 0.5709000000000017 -1 0 0
4096 1 96.38 2.113101985233996 0.5709000000000017 -1 0 0
4104 1 98.82 2.113101985233996 0.5709000000000017 -1 0 0
4098 3 0 2.8174693136460007 0 0 0 0
4106 3 2.4399999999999977 2.8174693136460007 0 0 0 0
4114 3 4.8799999999999955 2.8174693136460007 0 0 0 0
4122 3 7.32 2.8174693136460007 0 0 0 0
4130 3 9.759999999999998 2.8174693136460007 0 0 0 0
4138 3 12.199999999999996 2.8174693136460007 0 0 0 0
4146 3 14.639999999999993 2.8174693136460007 0 0 0 0
4154 3 17.07999999999999 2.8174693136460007 0 0 0 0
4162 3 19.520000000000003 2.8174693136460007 0 0 0 0
4170 3 21.96 2.8174693136460007 0 0 0 0
4178 3 24.4 2.8174693136460007 0 0 0 0
4186 3 26.839999999999996 2.8174693136460007 0 0 0 0
4194 3 29.279999999999994 2.8174693136460007 0 0 0 0
4202 3 31.71999999999999 2.8174693136460007 0 0 0 0
4210 3 34.160000000000004 2.8174693136460007 0 0 0 0
4218 3 36.6 2.8174693136460007 0 0 0 0
4226 3 39.04 2.8174693136460007 0 0 0 0
4234 3 41.48 2.8174693136460007 0 0 0 0
4242 3 43.919999999999995 2.8174693136460007 0 0 0 0
4250 3 46.35999999999999 2.8174693136460007 0 0 0 0
4258 3 48.79999999999999 2.8174693136460007 0 0 0 0
3938 3 51.24 2.8174693136460007 0 -1 0 0
3946 3 53.68000000000001 2.8174693136460007 0 -1 0 0
3954 3 56.120000000000005 2.8174693136460007 0 -1 0 0
3962 3 58.56 2.8174693136460007 0 -1 0 0
3970 3 61 2.8174693136460007 0 -1 0 0
3978 3 63.440000000000005 2.8174693136460007 0 -1 0 0
3986 3 65.88 2.8174693136460007 0 -1 0 0
3994 3 68.32000000000001 2.8174693136460007 0 -1 0 0
4002 3 70.76 2.8174693136460007 0 -1 0 0
4010 3 73.2 2.8174693136460007 0 -1 0 0
4018 3 75.64 2.8174693136460007 0 -1 0 0
4026 3 78.08 2.8174693136460007 0 -1 0 0
4034 3 80.52000000000001 2.8174693136460007 0 -1 0 0
4042 3 82.96000000000001 2.8174693136460007 0 -1 0 0
4050 3 85.4 2.8174693136460007 0 -1 0 0
4058 3 87.84 2.8174693136460007 0 -1 0 0
4066 3 90.28 2.8174693136460007 0 -1 0 0
4074 3 92.72 2.8174693136460007 0 -1 0 0
4082 3 95.16 2.8174693136460007 0 -1 0 0
4090 3 97.6 2.8174693136460007 0 -1 0 0
4433 3 1.2199999999999989 4.930571298879997 0 0 0 0
4431 1 0 4.226203970467999 0.5709000000000017 0 0 0
4439 1 2.4399999999999977 4.226203970467999 0.5709000000000017 0 0 0
4441 3 3.6599999999999966 4.930571298879997 0 0 0 0
4447 1 4.8799999999999955 4.226203970467999 0.5709000000000017 0 0 0
4449 3 6.099999999999994 4.930571298879997 0 0 0 0
4455 1 7.32 4.226203970467999 0.5709000000000017 0 0 0
4457 3 8.54 4.930571298879997 0 0 0 0
4463 1 9.759999999999998 4.226203970467999 0.5709000000000017 0 0 0
4465 3 10.979999999999997 4.930571298879997 0 0 0 0
4473 3 13.419999999999995 4.930571298879997 0 0 0 0
4471 1 12.199999999999996 4.226203970467999 0.5709000000000017 0 0 0
4479 1 14.639999999999993 4.226203970467999 0.5709000000000017 0 0 0
4481 3 15.859999999999992 4.930571298879997 0 0 0 0
4487 1 17.07999999999999 4.226203970467999 0.5709000000000017 0 0 0
4489 3 18.29999999999999 4.930571298879997 0 0 0 0
4495 1 19.520000000000003 4.226203970467999 0.5709000000000017 0 0 0
4497 3 20.740000000000002 4.930571298879997 0 0 0 0
4503 1 21.96 4.226203970467999 0.5709000000000017 0 0 0
4505 3 23.18 4.930571298879997 0 0 0 0
4513 3 25.619999999999997 4.930571298879997 0 0 0 0
4511 1 24.4 4.226203970467999 0.5709000000000017 0 0 0
4519 1 26.839999999999996 4.226203970467999 0.5709000000000017 0 0 0
4521 3 28.059999999999995 4.930571298879997 0 0 0 0
4527 1 29.279999999999994 4.226203970467999 0.5709000000000017 0 0 0
4529 3 30.499999999999993 4.930571298879997 0 0 0 0
4535 1 31.71999999999999 4.226203970467999 0.5709000000000017 0 0 0
4537 3 32.93999999999999 4.930571298879997 0 0 0 0
4543 1 34.160000000000004 4.226203970467999 0.5709000000000017 0 0 0
4545 3 35.38 4.930571298879997 0 0 0 0
4553 3 37.82 4.930571298879997 0 0 0 0
4551 1 36.6 4.226203970467999 0.5709000000000017 0 0 0
4559 1 39.04 4.226203970467999 0.5709000000000017 0 0 0
4561 3 40.26 4.930571298879997 0 0 0 0
4567 1 41.48 4.226203970467999 0.5709000000000017 0 0 0
4569 3 42.699999999999996 4.930571298879997 0 0 0 0
4575 1 43.919999999999995 4.226203970467999 0.5709000000000017 0 0 0
4577 3 45.13999999999999 4.930571298879997 0 0 0 0
4583 1 46.35999999999999 4.226203970467999 0.5709000000000017 0 0 0
4585 3 47.57999999999999 4.930571298879997 0 0 0 0
4591 1 48.79999999999999 4.226203970467999 0.5709000000000017 0 0 0
4265 3 50.02 4.930571298879997 0 -1 0 0
4271 1 51.24 4.226203970467999 0.5709000000000017 -1 0 0
4273 3 52.46 4.930571298879997 0 -1 0 0
4279 1 53.68000000000001 4.226203970467999 0.5709000000000017 -1 0 0
4281 3 54.900000000000006 4.930571298879997 0 -1 0 0
4287 1 56.120000000000005 4.226203970467999 0.5709000000000017 -1 0 0
4289 3 57.34 4.930571298879997 0 -1 0 0
4295 1 58.56 4.226203970467999 0.5709000000000017 -1 0 0
4297 3 59.78 4.930571298879997 0 -1 0 0
4303 1 61 4.226203970467999 0.5709000000000017 -1 0 0
4305 3 62.22 4.930571298879997 0 -1 0 0
4311 1 63.440000000000005 4.226203970467999 0.5709000000000017 -1 0 0
4313 3 64.66 4.930571298879997 0 -1 0 0
4319 1 65.88 4.226203970467999 0.5709000000000017 -1 0 0
4321 3 67.1 4.930571298879997 0 -1 0 0
4327 1 68.32000000000001 4.226203970467999 0.5709000000000017 -1 0 0
4329 3 69.54 4.930571298879997 0 -1 0 0
4335 1 70.76 4.226203970467999 0.5709000000000017 -1 0 0
4337 3 71.98 4.930571298879997 0 -1 0 0
4343 1 73.2 4.226203970467999 0.5709000000000017 -1 0 0
4345 3 74.42 4.930571298879997 0 -1 0 0
4351 1 75.64 4.226203970467999 0.5709000000000017 -1 0 0
4353 3 76.86 4.930571298879997 0 -1 0 0
4359 1 78.08 4.226203970467999 0.5709000000000017 -1 0 0
4361 3 79.30000000000001 4.930571298879997 0 -1 0 0
4367 1 80.52000000000001 4.226203970467999 0.5709000000000017 -1 0 0
4369 3 81.74000000000001 4.930571298879997 0 -1 0 0
4375 1 82.96000000000001 4.226203970467999 0.5709000000000017 -1 0 0
4377 3 84.18 4.930571298879997 0 -1 0 0
4383 1 85.4 4.226203970467999 0.5709000000000017 -1 0 0
4385 3 86.62 4.930571298879997 0 -1 0 0
4391 1 87.84 4.226203970467999 0.5709000000000017 -1 0 0
4393 3 89.06 4.930571298879997 0 -1 0 0
4399 1 90.28 4.226203970467999 0.5709000000000017 -1 0 0
4401 3 91.5 4.930571298879997 0 -1 0 0
4407 1 92.72 4.226203970467999 0.5709000000000017 -1 0 0
4409 3 93.94 4.930571298879997 0 -1 0 0
4415 1 95.16 4.226203970467999 0.5709000000000017 -1 0 0
4417 3 96.38 4.930571298879997 0 -1 0 0
4423 1 97.6 4.226203970467999 0.5709000000000017 -1 0 0
4425 3 98.82 4.930571298879997 0 -1 0 0
4440 1 1.2199999999999989 6.339305955702002 0.5709000000000017 0 0 0
4448 1 3.6599999999999966 6.339305955702002 0.5709000000000017 0 0 0
4456 1 6.099999999999994 6.339305955702002 0.5709000000000017 0 0 0
4464 1 8.54 6.339305955702002 0.5709000000000017 0 0 0
4472 1 10.979999999999997 6.339305955702002 0.5709000000000017 0 0 0
4480 1 13.419999999999995 6.339305955702002 0.5709000000000017 0 0 0
4488 1 15.859999999999992 6.339305955702002 0.5709000000000017 0 0 0
4496 1 18.29999999999999 6.339305955702002 0.5709000000000017 0 0 0
4504 1 20.740000000000002 6.339305955702002 0.5709000000000017 0 0 0
4512 1 23.18 6.339305955702002 0.5709000000000017 0 0 0
4520 1 25.619999999999997 6.339305955702002 0.5709000000000017 0 0 0
4528 1 28.059999999999995 6.339305955702002 0.5709000000000017 0 0 0
4536 1 30.499999999999993 6.339305955702002 0.5709000000000017 0 0 0
4544 1 32.93999999999999 6.339305955702002 0.5709000000000017 0 0 0
4552 1 35.38 6.339305955702002 0.5709000000000017 0 0 0
4560 1 37.82 6.339305955702002 0.5709000000000017 0 0 0
4568 1 40.26 6.339305955702002 0.5709000000000017 0 0 0
4576 1 42.699999999999996 6.339305955702002 0.5709000000000017 0 0 0
4584 1 45.13999999999999 6.339305955702002 0.5709000000000017 0 0 0
4592 1 47.57999999999999 6.339305955702002 0.5709000000000017 0 0 0
4272 1 50.02 6.339305955702002 0.5709000000000017 -1 0 0
4280 1 52.46 6.339305955702002 0.5709000000000017 -1 0 0
4288 1 54.900000000000006 6.339305955702002 0.5709000000000017 -1 0 0
4296 1 57.34 6.339305955702002 0.5709000000000017 -1 0 0
4304 1 59.78 6.339305955702002 0.5709000000000017 -1 0 0
4312 1 62.22 6.339305955702002 0.5709000000000017 -1 0 0
4320 1 64.66 6.339305955702002 0.5709000000000017 -1 0 0
4328 1 67.1 6.339305955702002 0.5709000000000017 -1 0 0
4336 1 69.54 6.339305955702002 0.5709000000000017 -1 0 0
4344 1 71.98 6.339305955702002 0.5709000000000017 -1 0 0
4352 1 74.42 6.339305955702002 0.5709000000000017 -1 0 0
4360 1 76.86 6.339305955702002 0.5709000000000017 -1 0 0
4368 1 79.30000000000001 6.339305955702002 0.5709000000000017 -1 0 0
4376 1 81.74000000000001 6.339305955702002 0.5709000000000017 -1 0 0
4384 1 84.18 6.339305955702002 0.5709000000000017 -1 0 0
4392 1 86.62 6.339305955702002 0.5709000000000017 -1 0 0
4400 1 89.06 6.339305955702002 0.5709000000000017 -1 0 0
4408 1 91.5 6.339305955702002 0.5709000000000017 -1 0 0
4416 1 93.94 6.339305955702002 0.5709000000000017 -1 0 0
4424 1 96.38 6.339305955702002 0.5709000000000017 -1 0 0
4432 1 98.82 6.339305955702002 0.5709000000000017 -1 0 0
4426 3 0 7.043673284114 0 0 0 0
4434 3 2.4399999999999977 7.043673284114 0 0 0 0
4442 3 4.8799999999999955 7.043673284114 0 0 0 0
4450 3 7.32 7.043673284114 0 0 0 0
4458 3 9.759999999999998 7.043673284114 0 0 0 0
4466 3 12.199999999999996 7.043673284114 0 0 0 0
4474 3 14.639999999999993 7.043673284114 0 0 0 0
4482 3 17.07999999999999 7.043673284114 0 0 0 0
4490 3 19.520000000000003 7.043673284114 0 0 0 0
4498 3 21.96 7.043673284114 0 0 0 0
4506 3 24.4 7.043673284114 0 0 0 0
4514 3 26.839999999999996 7.043673284114 0 0 0 0
4522 3 29.279999999999994 7.043673284114 0 0 0 0
4530 3 31.71999999999999 7.043673284114 0 0 0 0
4538 3 34.160000000000004 7.043673284114 0 0 0 0
4546 3 36.6 7.043673284114 0 0 0 0
4554 3 39.04 7.043673284114 0 0 0 0
4562 3 41.48 7.043673284114 0 0 0 0
4570 3 43.919999999999995 7.043673284114 0 0 0 0
4578 3 46.35999999999999 7.043673284114 0 0 0 0
4586 3 48.79999999999999 7.043673284114 0 0 0 0
4266 3 51.24 7.043673284114 0 -1 0 0
4274 3 53.68000000000001 7.043673284114 0 -1 0 0
4282 3 56.120000000000005 7.043673284114 0 -1 0 0
4290 3 58.56 7.043673284114 0 -1 0 0
4298 3 61 7.043673284114 0 -1 0 0
4306 3 63.440000000000005 7.043673284114 0 -1 0 0
4314 3 65.88 7.043673284114 0 -1 0 0
4322 3 68.32000000000001 7.043673284114 0 -1 0 0
4330 3 70.76 7.043673284114 0 -1 0 0
4338 3 73.2 7.043673284114 0 -1 0 0
4346 3 75.64 7.043673284114 0 -1 0 0
4354 3 78.08 7.043673284114 0 -1 0 0
4362 3 80.52000000000001 7.043673284114 0 -1 0 0
4370 3 82.96000000000001 7.043673284114 0 -1 0 0
4378 3 85.4 7.043673284114 0 -1 0 0
4386 3 87.84 7.043673284114 0 -1 0 0
4394 3 90.28 7.043673284114 0 -1 0 0
4402 3 92.72 7.043673284114 0 -1 0 0
4410 3 95.16 7.043673284114 0 -1 0 0
4418 3 97.6 7.043673284114 0 -1 0 0
4761 3 1.2199999999999989 9.156775269347996 0 0 0 0
4759 1 0 8.452407940935998 0.5709000000000017 0 0 0
4767 1 2.4399999999999977 8.452407940935998 0.5709000000000017 0 0 0
4769 3 3.6599999999999966 9.156775269347996 0 0 0 0
4775 1 4.8799999999999955 8.452407940935998 0.5709000000000017 0 0 0
4777 3 6.099999999999994 9.156775269347996 0 0 0 0
4783 1 7.32 8.452407940935998 0.5709000000000017 0 0 0
4785 3 8.54 9.156775269347996 0 0 0 0
4791 1 9.759999999999998 8.452407940935998 0.5709000000000017 0 0 0
4793 3 10.979999999999997 9.156775269347996 0 0 0 0
4801 3 13.419999999999995 9.156775269347996 0 0 0 0
4799 1 12.199999999999996 8.452407940935998 0.5709000000000017 0 0 0
4807 1 14.639999999999993 8.452407940935998 0.5709000000000017 0 0 0
4809 3 15.859999999999992 9.156775269347996 0 0 0 0
4815 1 17.07999999999999 8.452407940935998 0.5709000000000017 0 0 0
4817 3 18.29999999999999 9.156775269347996 0 0 0 0
4823 1 19.520000000000003 8.452407940935998 0.5709000000000017 0 0 0
4825 3 20.740000000000002 9.156775269347996 0 0 0 0
4831 1 21.96 8.452407940935998 0.5709000000000017 0 0 0
4833 3 23.18 9.156775269347996 0 0 0 0
4841 3 25.619999999999997 9.156775269347996 0 0 0 0
4839 1 24.4 8.452407940935998 0.5709000000000017 0 0 0
4847 1 26.839999999999996 8.452407940935998 0.5709000000000017 0 0 0
4849 3 28.059999999999995 9.156775269347996 0 0 0 0
4855 1 29.279999999999994 8.452407940935998 0.5709000000000017 0 0 0
4857 3 30.499999999999993 9.156775269347996 0 0 0 0
4863 1 31.71999999999999 8.452407940935998 0.5709000000000017 0 0 0
4865 3 32.93999999999999 9.156775269347996 0 0 0 0
4871 1 34.160000000000004 8.452407940935998 0.5709000000000017 0 0 0
4873 3 35.38 9.156775269347996 0 0 0 0
4881 3 37.82 9.156775269347996 0 0 0 0
4879 1 36.6 8.452407940935998 0.5709000000000017 0 0 0
4887 1 39.04 8.452407940935998 0.5709000000000017 0 0 0
4889 3 40.26 9.156775269347996 0 0 0 0
4895 1 41.48 8.452407940935998 0.5709000000000017 0 0 0
4897 3 42.699999999999996 9.156775269347996 0 0 0 0
4903 1 43.919999999999995 8.452407940935998 0.5709000000000017 0 0 0
4905 3 45.13999999999999 9.156775269347996 0 0 0 0
4911 1 46.35999999999999 8.452407940935998 0.5709000000000017 0 0 0
4913 3 47.57999999999999 9.156775269347996 0 0 0 0
4919 1 48.79999999999999 8.452407940935998 0.5709000000000017 0 0 0
4593 3 50.02 9.156775269347996 0 -1 0 0
4599 1 51.24 8.452407940935998 0.5709000000000017 -1 0 0
4601 3 52.46 9.156775269347996 0 -1 0 0
4607 1 53.68000000000001 8.452407940935998 0.5709000000000017 -1 0 0
4609 3 54.900000000000006 9.156775269347996 0 -1 0 0
4615 1 56.120000000000005 8.452407940935998 0.5709000000000017 -1 0 0
4617 3 57.34 9.156775269347996 0 -1 0 0
4623 1 58.56 8.452407940935998 0.5709000000000017 -1 0 0
4625 3 59.78 9.156775269347996 0 -1 0 0
4631 1 61 8.452407940935998 0.5709000000000017 -1 0 0
4633 3 62.22 9.156775269347996 0 -1 0 0
4639 1 63.440000000000005 8.452407940935998 0.5709000000000017 -1 0 0
4641 3 64.66 9.156775269347996 0 -1 0 0
4647 1 65.88 8.452407940935998 0.5709000000000017 -1 0 0
4649 3 67.1 9.156775269347996 0 -1 0 0
4655 1 68.32000000000001 8.452407940935998 0.5709000000000017 -1 0 0
4657 3 69.54 9.156775269347996 0 -1 0 0
4663 1 70.76 8.452407940935998 0.5709000000000017 -1 0 0
4665 3 71.98 9.156775269347996 0 -1 0 0
4671 1 73.2 8.452407940935998 0.5709000000000017 -1 0 0
4673 3 74.42 9.156775269347996 0 -1 0 0
4679 1 75.64 8.452407940935998 0.5709000000000017 -1 0 0
4681 3 76.86 9.156775269347996 0 -1 0 0
4687 1 78.08 8.452407940935998 0.5709000000000017 -1 0 0
4689 3 79.30000000000001 9.156775269347996 0 -1 0 0
4695 1 80.52000000000001 8.452407940935998 0.5709000000000017 -1 0 0
4697 3 81.74000000000001 9.156775269347996 0 -1 0 0
4703 1 82.96000000000001 8.452407940935998 0.5709000000000017 -1 0 0
4705 3 84.18 9.156775269347996 0 -1 0 0
4711 1 85.4 8.452407940935998 0.5709000000000017 -1 0 0
4713 3 86.62 9.156775269347996 0 -1 0 0
4719 1 87.84 8.452407940935998 0.5709000000000017 -1 0 0
4721 3 89.06 9.156775269347996 0 -1 0 0
4727 1 90.28 8.452407940935998 0.5709000000000017 -1 0 0
4729 3 91.5 9.156775269347996 0 -1 0 0
4735 1 92.72 8.452407940935998 0.5709000000000017 -1 0 0
4737 3 93.94 9.156775269347996 0 -1 0 0
4743 1 95.16 8.452407940935998 0.5709000000000017 -1 0 0
4745 3 96.38 9.156775269347996 0 -1 0 0
4751 1 97.6 8.452407940935998 0.5709000000000017 -1 0 0
4753 3 98.82 9.156775269347996 0 -1 0 0
4768 1 1.2199999999999989 10.565509926170002 0.5709000000000017 0 0 0
4776 1 3.6599999999999966 10.565509926170002 0.5709000000000017 0 0 0
4784 1 6.099999999999994 10.565509926170002 0.5709000000000017 0 0 0
4792 1 8.54 10.565509926170002 0.5709000000000017 0 0 0
4800 1 10.979999999999997 10.565509926170002 0.5709000000000017 0 0 0
4808 1 13.419999999999995 10.565509926170002 0.5709000000000017 0 0 0
4816 1 15.859999999999992 10.565509926170002 0.5709000000000017 0 0 0
4824 1 18.29999999999999 10.565509926170002 0.5709000000000017 0 0 0
4832 1 20.740000000000002 10.565509926170002 0.5709000000000017 0 0 0
4840 1 23.18 10.565509926170002 0.5709000000000017 0 0 0
4848 1 25.619999999999997 10.565509926170002 0.5709000000000017 0 0 0
4856 1 28.059999999999995 10.565509926170002 0.5709000000000017 0 0 0
4864 1 30.499999999999993 10.565509926170002 0.5709000000000017 0 0 0
4872 1 32.93999999999999 10.565509926170002 0.5709000000000017 0 0 0
4880 1 35.38 10.565509926170002 0.5709000000000017 0 0 0
4888 1 37.82 10.565509926170002 0.5709000000000017 0 0 0
4896 1 40.26 10.565509926170002 0.5709000000000017 0 0 0
4904 1 42.699999999999996 10.565509926170002 0.5709000000000017 0 0 0
4912 1 45.13999999999999 10.565509926170002 0.5709000000000017 0 0 0
4920 1 47.57999999999999 10.565509926170002 0.5709000000000017 0 0 0
4600 1 50.02 10.565509926170002 0.5709000000000017 -1 0 0
4608 1 52.46 10.565509926170002 0.5709000000000017 -1 0 0
4616 1 54.900000000000006 10.565509926170002 0.5709000000000017 -1 0 0
4624 1 57.34 10.565509926170002 0.5709000000000017 -1 0 0
4632 1 59.78 10.565509926170002 0.5709000000000017 -1 0 0
4640 1 62.22 10.565509926170002 0.5709000000000017 -1 0 0
4648 1 64.66 10.565509926170002 0.5709000000000017 -1 0 0
4656 1 67.1 10.565509926170002 0.5709000000000017 -1 0 0
4664 1 69.54 10.565509926170002 0.5709000000000017 -1 0 0
4672 1 71.98 10.565509926170002 0.5709000000000017 -1 0 0
4680 1 74.42 10.565509926170002 0.5709000000000017 -1 0 0
4688 1 76.86 10.565509926170002 0.5709000000000017 -1 0 0
4696 1 79.30000000000001 10.565509926170002 0.5709000000000017 -1 0 0
4704 1 81.74000000000001 10.565509926170002 0.5709000000000017 -1 0 0
4712 1 84.18 10.565509926170002 0.5709000000000017 -1 0 0
4720 1 86.62 10.565509926170002 0.5709000000000017 -1 0 0
4728 1 89.06 10.565509926170002 0.5709000000000017 -1 0 0
4736 1 91.5 10.565509926170002 0.5709000000000017 -1 0 0
4744 1 93.94 10.565509926170002 0.5709000000000017 -1 0 0
4752 1 96.38 10.565509926170002 0.5709000000000017 -1 0 0
4760 1 98.82 10.565509926170002 0.5709000000000017 -1 0 0
4754 3 0 11.269877254582 0 0 0 0
4762 3 2.4399999999999977 11.269877254582 0 0 0 0
4770 3 4.8799999999999955 11.269877254582 0 0 0 0
4778 3 7.32 11.269877254582 0 0 0 0
4786 3 9.759999999999998 11.269877254582 0 0 0 0
4794 3 12.199999999999996 11.269877254582 0 0 0 0
4802 3 14.639999999999993 11.269877254582 0 0 0 0
4810 3 17.07999999999999 11.269877254582 0 0 0 0
4818 3 19.520000000000003 11.269877254582 0 0 0 0
4826 3 21.96 11.269877254582 0 0 0 0
4834 3 24.4 11.269877254582 0 0 0 0
4842 3 26.839999999999996 11.269877254582 0 0 0 0
4850 3 29.279999999999994 11.269877254582 0 0 0 0
4858 3 31.71999999999999 11.269877254582 0 0 0 0
4866 3 34.160000000000004 11.269877254582 0 0 0 0
4874 3 36.6 11.269877254582 0 0 0 0
4882 3 39.04 11.269877254582 0 0 0 0
4890 3 41.48 11.269877254582 0 0 0 0
4898 3 43.919999999999995 11.269877254582 0 0 0 0
4906 3 46.35999999999999 11.269877254582 0 0 0 0
4914 3 48.79999999999999 11.269877254582 0 0 0 0
4594 3 51.24 11.269877254582 0 -1 0 0
4602 3 53.68000000000001 11.269877254582 0 -1 0 0
4610 3 56.120000000000005 11.269877254582 0 -1 0 0
4618 3 58.56 11.269877254582 0 -1 0 0
4626 3 61 11.269877254582 0 -1 0 0
4634 3 63.440000000000005 11.269877254582 0 -1 0 0
4642 3 65.88 11.269877254582 0 -1 0 0
4650 3 68.32000000000001 11.269877254582 0 -1 0 0
4658 3 70.76 11.269877254582 0 -1 0 0
4666 3 73.2 11.269877254582 0 -1 0 0
4674 3 75.64 11.269877254582 0 -1 0 0
4682 3 78.08 11.269877254582 0 -1 0 0
4690 3 80.52000000000001 11.269877254582 0 -1 0 0
4698 3 82.96000000000001 11.269877254582 0 -1 0 0
4706 3 85.4 11.269877254582 0 -1 0 0
4714 3 87.84 11.269877254582 0 -1 0 0
4722 3 90.28 11.269877254582 0 -1 0 0
4730 3 92.72 11.269877254582 0 -1 0 0
4738 3 95.16 11.269877254582 0 -1 0 0
4746 3 97.6 11.269877254582 0 -1 0 0
5089 3 1.2199999999999989 13.382979239815995 0 0 0 0
5087 1 0 12.678611911404005 0.5709000000000017 0 0 0
5095 1 2.4399999999999977 12.678611911404005 0.5709000000000017 0 0 0
5097 3 3.6599999999999966 13.382979239815995 0 0 0 0
5103 1 4.8799999999999955 12.678611911404005 0.5709000000000017 0 0 0
5105 3 6.099999999999994 13.382979239815995 0 0 0 0
5111 1 7.32 12.678611911404005 0.5709000000000017 0 0 0
5113 3 8.54 13.382979239815995 0 0 0 0
5119 1 9.759999999999998 12.678611911404005 0.5709000000000017 0 0 0
5121 3 10.979999999999997 13.382979239815995 0 0 0 0
5129 3 13.419999999999995 13.382979239815995 0 0 0 0
5127 1 12.199999999999996 12.678611911404005 0.5709000000000017 0 0 0
5135 1 14.639999999999993 12.678611911404005 0.5709000000000017 0 0 0
5137 3 15.859999999999992 13.382979239815995 0 0 0 0
5143 1 17.07999999999999 12.678611911404005 0.5709000000000017 0 0 0
5145 3 18.29999999999999 13.382979239815995 0 0 0 0
5151 1 19.520000000000003 12.678611911404005 0.5709000000000017 0 0 0
5153 3 20.740000000000002 13.382979239815995 0 0 0 0
5159 1 21.96 12.678611911404005 0.5709000000000017 0 0 0
5161 3 23.18 13.382979239815995 0 0 0 0
5169 3 25.619999999999997 13.382979239815995 0 0 0 0
5167 1 24.4 12.678611911404005 0.5709000000000017 0 0 0
5175 1 26.839999999999996 12.678611911404005 0.5709000000000017 0 0 0
5177 3 28.059999999999995 13.382979239815995 0 0 0 0
5183 1 29.279999999999994 12.678611911404005 0.5709000000000017 0 0 0
5185 3 30.499999999999993 13.382979239815995 0 0 0 0
5191 1 31.71999999999999 12.678611911404005 0.5709000000000017 0 0 0
5193 3 32.93999999999999 13.382979239815995 0 0 0 0
5199 1 34.160000000000004 12.678611911404005 0.5709000000000017 0 0 0
5201 3 35.38 13.382979239815995 0 0 0 0
5209 3 37.82 13.382979239815995 0 0 0 0
5207 1 36.6 12.678611911404005 0.5709000000000017 0 0 0
5215 1 39.04 12.678611911404005 0.5709000000000017 0 0 0
5217 3 40.26 13.382979239815995 0 0 0 0
5223 1 41.48 12.678611911404005 0.5709000000000017 0 0 0
5225 3 42.699999999999996 13.382979239815995 0 0 0 0
5231 1 43.919999999999995 12.678611911404005 0.5709000000000017 0 0 0
5233 3 45.13999999999999 13.382979239815995 0 0 0 0
5239 1 46.35999999999999 12.678611911404005 0.5709000000000017 0 0 0
5241 3 47.57999999999999 13.382979239815995 0 0 0 0
5247 1 48.79999999999999 12.678611911404005 0.5709000000000017 0 0 0
4921 3 50.02 13.382979239815995 0 -1 0 0
4927 1 51.24 12.678611911404005 0.5709000000000017 -1 0 0
4929 3 52.46 13.382979239815995 0 -1 0 0
4935 1 53.68000000000001 12.678611911404005 0.5709000000000017 -1 0 0
4937 3 54.900000000000006 13.382979239815995 0 -1 0 0
4943 1 56.120000000000005 12.678611911404005 0.5709000000000017 -1 0 0
4945 3 57.34 13.382979239815995 0 -1 0 0
4951 1 58.56 12.678611911404005 0.5709000000000017 -1 0 0
4953 3 59.78 13.382979239815995 0 -1 0 0
4959 1 61 12.678611911404005 0.5709000000000017 -1 0 0
4961 3 62.22 13.382979239815995 0 -1 0 0
4967 1 63.440000000000005 12.678611911404005 0.5709000000000017 -1 0 0
4969 3 64.66 13.382979239815995 0 -1 0 0
4975 1 65.88 12.678611911404005 0.5709000000000017 -1 0 0
4977 3 67.1 13.382979239815995 0 -1 0 0
4983 1 68.32000000000001 12.678611911404005 0.5709000000000017 -1 0 0
4985 3 69.54 13.382979239815995 0 -1 0 0
4991 1 70.76 12.678611911404005 0.5709000000000017 -1 0 0
4993 3 71.98 13.382979239815995 0 -1 0 0
4999 1 73.2 12.678611911404005 0.5709000000000017 -1 0 0
5001 3 74.42 13.382979239815995 0 -1 0 0
5007 1 75.64 12.678611911404005 0.5709000000000017 -1 0 0
5009 3 76.86 13.382979239815995 0 -1 0 0
5015 1 78.08 12.678611911404005 0.5709000000000017 -1 0 0
5017 3 79.30000000000001 13.382979239815995 0 -1 0 0
5023 1 80.52000000000001 12.678611911404005 0.5709000000000017 -1 0 0
5025 3 81.74000000000001 13.382979239815995 0 -1 0 0
5031 1 82.96000000000001 12.678611911404005 0.5709000000000017 -1 0 0
5033 3 84.18 13.382979239815995 0 -1 0 0
5039 1 85.4 12.678611911404005 0.5709000000000017 -1 0 0
5041 3 86.62 13.382979239815995 0 -1 0 0
5047 1 87.84 12.678611911404005 0.5709000000000017 -1 0 0
5049 3 89.06 13.382979239815995 0 -1 0 0