LAMMPS data file via write_data, version 29 Aug 2024, timestep = 1, units = metal

15744 atoms
8 atom types

0 100.04 xlo xhi
0 101.428895291232 ylo yhi
-50 112.00077217277148 zlo zhi

Masses

1 10.81
2 10.81
3 10.81
4 10.81
5 15.999
6 15.999
7 15.999
8 15.999

Atoms # atomic

4105 5 1.2199997043191788 0.7043677595786699 0.00014656131238012664 0 0 0
4113 5 3.6599997043191768 0.7043677595786697 0.00014656131238034915 0 0 0
4112 1 1.220000250915415 2.1131019355798815 0.571726400063154 0 0 0
4120 1 3.660000250915413 2.1131019355798815 0.5717264000631538 0 0 0
4106 5 2.439999704319178 2.8174697448126693 0.00014656131238173205 0 0 0
4114 5 4.879999704319176 2.8174697448126693 0.0001465613123816242 0 0 0
4433 5 1.2199997043191788 4.9305717300466725 0.00014656131238137264 0 0 0
4431 1 2.5091541146883687e-07 4.226203920813883 0.5717264000631536 0 0 0
4439 1 2.440000250915414 4.226203920813881 0.5717264000631551 0 0 0
4441 5 3.6599997043191768 4.930571730046672 0.00014656131238159514 0 0 0
4447 1 4.880000250915412 4.226203920813881 0.5717264000631552 0 0 0
4121 5 6.099999704319177 0.7043677595786689 0.00014656131238110267 0 0 0
4129 5 8.539999704319179 0.7043677595786698 0.000146561312380237 0 0 0
4137 5 10.979999704319177 0.7043677595786697 0.00014656131238034953 0 0 0
4128 1 6.100000250915413 2.1131019355798824 0.5717264000631529 0 0 0
4136 1 8.540000250915416 2.1131019355798815 0.5717264000631539 0 0 0
4144 1 10.980000250915413 2.1131019355798815 0.5717264000631538 0 0 0
4122 5 7.319999704319178 2.8174697448126684 0.0001465613123825387 0 0 0
4130 5 9.759999704319178 2.8174697448126693 0.00014656131238173246 0 0 0
4449 5 6.099999704319177 4.930571730046671 0.00014656131238234638 0 0 0
4455 1 7.320000250915414 4.226203920813882 0.5717264000631543 0 0 0
4457 5 8.539999704319179 4.930571730046672 0.00014656131238148303 0 0 0
4463 1 9.760000250915414 4.226203920813881 0.5717264000631551 0 0 0
4465 5 10.979999704319177 4.930571730046672 0.00014656131238159552 0 0 0
4145 5 13.419999704319174 0.7043677595786697 0.00014656131238034953 0 0 0
4153 5 15.859999704319172 0.7043677595786697 0.00014656131238034956 0 0 0
4152 1 13.420000250915411 2.1131019355798815 0.5717264000631538 0 0 0
4160 1 15.860000250915409 2.1131019355798815 0.5717264000631538 0 0 0
4138 5 12.199999704319175 2.8174697448126693 0.00014656131238173246 0 0 0
4146 5 14.639999704319173 2.8174697448126693 0.00014656131238173248 0 0 0
4154 5 17.07999970431917 2.8174697448126698 0.00014656131238151442 0 0 0
4473 5 13.419999704319174 4.930571730046672 0.00014656131238159555 0 0 0
4471 1 12.200000250915412 4.226203920813881 0.5717264000631551 0 0 0
4479 1 14.64000025091541 4.226203920813881 0.5717264000631551 0 0 0
4481 5 15.859999704319172 4.930571730046672 0.00014656131238159552 0 0 0
4487 1 17.080000250915408 4.226203920813881 0.5717264000631553 0 0 0
4161 5 18.299999704319177 0.704367759578668 0.00014656131238189606 0 0 0
4169 5 20.73999970431918 0.7043677595786699 0.00014656131238012683 0 0 0
4177 5 23.17999970431918 0.7043677595786697 0.00014656131238034937 0 0 0
4168 1 18.30000025091541 2.1131019355798832 0.5717264000631522 0 0 0
4176 1 20.74000025091542 2.1131019355798815 0.571726400063154 0 0 0
4184 1 23.180000250915416 2.1131019355798815 0.5717264000631538 0 0 0
4162 5 19.51999970431918 2.817469744812668 0.000146561312383288 0 0 0
4170 5 21.95999970431918 2.8174697448126693 0.00014656131238173227 0 0 0
4489 5 18.299999704319177 4.930571730046671 0.00014656131238314205 0 0 0
4495 1 19.520000250915416 4.226203920813883 0.5717264000631536 0 0 0
4497 5 20.73999970431918 4.9305717300466725 0.00014656131238137285 0 0 0
4503 1 21.960000250915417 4.226203920813881 0.5717264000631551 0 0 0
4505 5 23.17999970431918 4.930571730046672 0.00014656131238159533 0 0 0
4185 5 25.619999704319177 0.7043677595786697 0.00014656131238034934 0 0 0
4193 5 28.059999704319175 0.7043677595786697 0.00014656131238034947 0 0 0
4192 1 25.620000250915414 2.1131019355798815 0.5717264000631538 0 0 0
4200 1 28.06000025091541 2.1131019355798815 0.5717264000631538 0 0 0
4178 5 24.39999970431918 2.8174697448126693 0.00014656131238173218 0 0 0
4186 5 26.839999704319176 2.8174697448126693 0.0001465613123817323 0 0 0
4194 5 29.279999704319174 2.8174697448126693 0.00014656131238173232 0 0 0
4513 5 25.619999704319177 4.930571730046672 0.0001465613123815953 0 0 0
4511 1 24.400000250915415 4.226203920813881 0.5717264000631551 0 0 0
4519 1 26.840000250915413 4.226203920813881 0.5717264000631551 0 0 0
4521 5 28.059999704319175 4.930571730046672 0.0001465613123815955 0 0 0
4527 1 29.28000025091541 4.226203920813881 0.5717264000631551 0 0 0
4201 5 30.499999704319173 0.7043677595786697 0.00014656131238034942 0 0 0
4209 5 32.93999970431918 0.704367759578668 0.00014656131238189603 0 0 0
4208 1 30.50000025091541 2.1131019355798815 0.5717264000631538 0 0 0
4216 1 32.94000025091541 2.1131019355798832 0.5717264000631522 0 0 0
4202 5 31.71999970431917 2.8174697448126698 0.00014656131238151426 0 0 0
4210 5 34.159999704319176 2.817469744812668 0.00014656131238328796 0 0 0
4529 5 30.499999704319173 4.930571730046672 0.00014656131238159544 0 0 0
4535 1 31.720000250915408 4.226203920813881 0.5717264000631553 0 0 0
4537 5 32.93999970431918 4.930571730046671 0.000146561312383142 0 0 0
4543 1 34.16000025091542 4.226203920813883 0.5717264000631536 0 0 0
4217 5 35.37999970431918 0.7043677595786699 0.00014656131238012691 0 0 0
4225 5 37.81999970431918 0.7043677595786697 0.0001465613123803496 0 0 0
4233 5 40.25999970431918 0.7043677595786697 0.00014656131238034942 0 0 0
4224 1 35.380000250915415 2.1131019355798815 0.571726400063154 0 0 0
4232 1 37.82000025091541 2.1131019355798815 0.5717264000631538 0 0 0
4240 1 40.26000025091541 2.1131019355798815 0.5717264000631538 0 0 0
4218 5 36.59999970431918 2.8174697448126693 0.0001465613123817325 0 0 0
4226 5 39.03999970431918 2.8174697448126693 0.00014656131238173246 0 0 0
4545 5 35.37999970431918 4.9305717300466725 0.000146561312381373 0 0 0
4553 5 37.81999970431918 4.930571730046672 0.00014656131238159563 0 0 0
4551 1 36.600000250915414 4.226203920813881 0.5717264000631551 0 0 0
4559 1 39.04000025091541 4.226203920813881 0.5717264000631551 0 0 0
4561 5 40.25999970431918 4.930571730046672 0.0001465613123815955 0 0 0
4241 5 42.699999704319175 0.7043677595786697 0.00014656131238034923 0 0 0
4249 5 45.13999970431917 0.7043677595786697 0.00014656131238034923 0 0 0
4248 1 42.70000025091541 2.1131019355798815 0.5717264000631538 0 0 0
4256 1 45.140000250915406 2.1131019355798815 0.5717264000631538 0 0 0
4234 5 41.47999970431918 2.8174697448126693 0.00014656131238173224 0 0 0
4242 5 43.919999704319174 2.8174697448126693 0.0001465613123817321 0 0 0
4250 5 46.35999970431917 2.8174697448126693 0.0001465613123817322 0 0 0
4567 1 41.48000025091541 4.226203920813881 0.5717264000631551 0 0 0
4569 5 42.699999704319175 4.930571730046672 0.00014656131238159525 0 0 0
4575 1 43.92000025091541 4.226203920813881 0.5717264000631551 0 0 0
4577 5 45.13999970431917 4.930571730046672 0.00014656131238159525 0 0 0
4583 1 46.360000250915405 4.226203920813881 0.5717264000631551 0 0 0
4257 5 47.57999970431917 0.7043677595786699 0.0001465613123801268 0 0 0
3937 5 50.019999704319176 0.704367759578668 0.00014656131238189617 -1 0 0
3945 5 52.45999970431918 0.7043677595786689 0.00014656131238110294 -1 0 0
4264 1 47.58000025091541 2.1131019355798815 0.571726400063154 0 0 0
3944 1 50.020000250915416 2.1131019355798832 0.5717264000631522 -1 0 0
3952 1 52.46000025091542 2.1131019355798824 0.5717264000631529 -1 0 0
4258 5 48.79999970431918 2.817469744812668 0.00014656131238328793 0 0 0
3938 5 51.23999970431918 2.8174697448126698 0.00014656131238140657 -1 0 0
4585 5 47.57999970431917 4.9305717300466725 0.0001465613123813728 0 0 0
4591 1 48.80000025091541 4.226203920813883 0.5717264000631536 0 0 0
4265 5 50.019999704319176 4.930571730046671 0.00014656131238314216 -1 0 0
4271 1 51.240000250915415 4.226203920813881 0.5717264000631554 -1 0 0
4273 5 52.45999970431918 4.930571730046671 0.00014656131238234668 -1 0 0
3953 5 54.899999704319185 0.7043677595786698 0.00014656131238023707 -1 0 0
3961 5 57.33999970431918 0.7043677595786697 0.00014656131238034937 -1 0 0
3960 1 54.90000025091542 2.1131019355798815 0.5717264000631539 -1 0 0
3968 1 57.340000250915416 2.1131019355798815 0.5717264000631538 -1 0 0
3946 5 53.67999970431919 2.8174697448126684 0.0001465613123825388 -1 0 0
3954 5 56.119999704319184 2.8174697448126693 0.00014656131238173227 -1 0 0
3962 5 58.55999970431918 2.8174697448126693 0.0001465613123817321 -1 0 0
4279 1 53.68000025091542 4.226203920813882 0.5717264000631543 -1 0 0
4281 5 54.899999704319185 4.930571730046672 0.0001465613123814831 -1 0 0
4287 1 56.12000025091542 4.226203920813881 0.5717264000631551 -1 0 0
4289 5 57.33999970431918 4.930571730046672 0.00014656131238159536 -1 0 0
4295 1 58.560000250915415 4.226203920813881 0.5717264000631551 -1 0 0
3969 5 59.77999970431918 0.7043677595786697 0.0001465613123803493 -1 0 0
3977 5 62.21999970431918 0.7043677595786687 0.00014656131238121074 -1 0 0
3985 5 64.65999970431918 0.7043677595786706 0.00014656131237943788 -1 0 0
3976 1 59.780000250915414 2.1131019355798815 0.5717264000631538 -1 0 0
3984 1 62.22000025091542 2.113101935579883 0.5717264000631528 -1 0 0
3992 1 64.66000025091542 2.1131019355798806 0.5717264000631547 -1 0 0
3970 5 60.99999970431918 2.8174697448126693 0.0001465613123816244 -1 0 0
3978 5 63.43999970431918 2.8174697448126693 0.00014656131238173386 -1 0 0
4297 5 59.77999970431918 4.930571730046672 0.0001465613123815953 -1 0 0
4303 1 61.00000025091542 4.226203920813881 0.5717264000631552 -1 0 0
4305 5 62.21999970431918 4.930571730046671 0.0001465613123824544 -1 0 0
4311 1 63.44000025091542 4.226203920813881 0.5717264000631551 -1 0 0
4313 5 64.65999970431918 4.9305717300466725 0.0001465613123806839 -1 0 0
3993 5 67.09999970431917 0.704367759578668 0.00014656131238189612 -1 0 0
4001 5 69.53999970431919 0.7043677595786699 0.00014656131238012694 -1 0 0
4000 1 67.10000025091541 2.1131019355798832 0.5717264000631522 -1 0 0
4008 1 69.54000025091543 2.1131019355798815 0.571726400063154 -1 0 0
3986 5 65.87999970431918 2.8174697448126693 0.00014656131238162455 -1 0 0
3994 5 68.31999970431919 2.817469744812668 0.00014656131238328804 -1 0 0
4319 1 65.88000025091542 4.226203920813881 0.5717264000631552 -1 0 0
4321 5 67.09999970431917 4.930571730046671 0.0001465613123831421 -1 0 0
4327 1 68.32000025091541 4.226203920813883 0.5717264000631536 -1 0 0
4329 5 69.53999970431919 4.9305717300466725 0.00014656131238137293 -1 0 0
4009 5 71.97999970431918 0.7043677595786697 0.0001465613123803494 -1 0 0
4017 5 74.41999970431918 0.7043677595786697 0.0001465613123803491 -1 0 0
4016 1 71.98000025091542 2.1131019355798815 0.5717264000631538 -1 0 0
4024 1 74.42000025091542 2.1131019355798815 0.5717264000631538 -1 0 0
4002 5 70.75999970431918 2.8174697448126693 0.0001465613123817324 -1 0 0
4010 5 73.19999970431918 2.8174697448126693 0.00014656131238173213 -1 0 0
4018 5 75.63999970431918 2.8174697448126693 0.00014656131238173183 -1 0 0
4335 1 70.76000025091543 4.226203920813881 0.5717264000631551 -1 0 0
4337 5 71.97999970431918 4.930571730046672 0.00014656131238159536 -1 0 0
4343 1 73.20000025091542 4.226203920813881 0.5717264000631551 -1 0 0
4345 5 74.41999970431918 4.930571730046672 0.00014656131238159511 -1 0 0
4351 1 75.64000025091542 4.226203920813881 0.5717264000631551 -1 0 0
4025 5 76.85999970431918 0.7043677595786699 0.00014656131238012637 -1 0 0
4033 5 79.29999970431919 0.704367759578668 0.0001465613123818958 -1 0 0
4041 5 81.73999970431919 0.7043677595786697 0.0001465613123803495 -1 0 0
4032 1 76.86000025091542 2.1131019355798815 0.571726400063154 -1 0 0
4040 1 79.30000025091542 2.1131019355798832 0.5717264000631522 -1 0 0
4048 1 81.74000025091543 2.1131019355798815 0.5717264000631538 -1 0 0
4026 5 78.07999970431918 2.817469744812668 0.00014656131238328742 -1 0 0
4034 5 80.51999970431919 2.8174697448126698 0.00014656131238151412 -1 0 0
4353 5 76.85999970431918 4.9305717300466725 0.00014656131238137236 -1 0 0
4359 1 78.08000025091542 4.226203920813883 0.5717264000631536 -1 0 0
4361 5 79.29999970431919 4.930571730046671 0.00014656131238314178 -1 0 0
4367 1 80.52000025091543 4.226203920813881 0.5717264000631553 -1 0 0
4369 5 81.73999970431919 4.930571730046672 0.0001465613123815955 -1 0 0
4049 5 84.17999970431919 0.7043677595786697 0.00014656131238034958 -1 0 0
4057 5 86.61999970431918 0.7043677595786697 0.00014656131238034953 -1 0 0
4056 1 84.18000025091543 2.1131019355798815 0.5717264000631538 -1 0 0
4064 1 86.62000025091542 2.1131019355798815 0.5717264000631538 -1 0 0
4042 5 82.95999970431919 2.8174697448126693 0.00014656131238173237 -1 0 0
4050 5 85.39999970431919 2.8174697448126693 0.0001465613123817324 -1 0 0
4058 5 87.83999970431918 2.8174697448126693 0.00014656131238173237 -1 0 0
4375 1 82.96000025091543 4.226203920813881 0.5717264000631551 -1 0 0
4377 5 84.17999970431919 4.930571730046672 0.0001465613123815956 -1 0 0
4383 1 85.40000025091543 4.226203920813881 0.5717264000631551 -1 0 0
4385 5 86.61999970431918 4.930571730046672 0.00014656131238159555 -1 0 0
4391 1 87.84000025091542 4.226203920813881 0.5717264000631551 -1 0 0
4065 5 89.05999970431918 0.7043677595786697 0.00014656131238034942 -1 0 0
4073 5 91.49999970431918 0.7043677595786697 0.00014656131238034923 -1 0 0
4081 5 93.93999970431918 0.7043677595786697 0.00014656131238034918 -1 0 0
4072 1 89.06000025091542 2.1131019355798815 0.5717264000631538 -1 0 0
4080 1 91.50000025091542 2.1131019355798815 0.5717264000631538 -1 0 0
4088 1 93.94000025091542 2.1131019355798815 0.5717264000631538 -1 0 0
4066 5 90.27999970431918 2.8174697448126693 0.00014656131238173218 -1 0 0
4074 5 92.71999970431918 2.8174697448126693 0.00014656131238173202 -1 0 0
4393 5 89.05999970431918 4.930571730046672 0.0001465613123815954 -1 0 0
4399 1 90.28000025091542 4.226203920813881 0.5717264000631551 -1 0 0
4401 5 91.49999970431918 4.930571730046672 0.0001465613123815952 -1 0 0
4407 1 92.72000025091542 4.226203920813881 0.5717264000631551 -1 0 0
4409 5 93.93999970431918 4.930571730046672 0.0001465613123815952 -1 0 0
4098 5 100.03999970431919 2.817469744812668 0.0001465613123832877 -1 0 0
4089 5 96.37999970431918 0.7043677595786697 0.00014656131238034945 -1 0 0
4097 5 98.81999970431917 0.704367759578668 0.00014656131238189606 -1 0 0
4096 1 96.38000025091542 2.1131019355798815 0.5717264000631538 -1 0 0
4104 1 98.82000025091541 2.1131019355798832 0.5717264000631522 -1 0 0
4082 5 95.15999970431918 2.8174697448126693 0.0001465613123817322 -1 0 0
4090 5 97.59999970431917 2.8174697448126698 0.00014656131238151434 -1 0 0
4415 1 95.16000025091542 4.226203920813881 0.5717264000631551 -1 0 0
4417 5 96.37999970431918 4.930571730046672 0.00014656131238159547 -1 0 0
4423 1 97.60000025091541 4.226203920813881 0.5717264000631553 -1 0 0
4425 5 98.81999970431917 4.930571730046671 0.00014656131238314208 -1 0 0
4440 1 1.220000250915415 6.339305906047882 0.5717264000631541 0 0 0
4448 1 3.660000250915413 6.339305906047882 0.5717264000631539 0 0 0
4434 5 2.439999704319178 7.043673715280672 0.00014656131238065722 0 0 0
4442 5 4.879999704319176 7.043673715280672 0.00014656131238054474 0 0 0
4761 5 1.2199997043191788 9.156775700514672 0.0001465613123813727 0 0 0
4759 1 2.5091541146861394e-07 8.452407891281883 0.5717264000631532 0 0 0
4767 1 2.440000250915414 8.452407891281881 0.5717264000631548 0 0 0
4769 5 3.6599997043191768 9.156775700514672 0.0001465613123815952 0 0 0
4775 1 4.880000250915412 8.452407891281881 0.5717264000631549 0 0 0
4768 1 1.220000250915415 10.56550987651588 0.5717264000631542 0 0 0
4776 1 3.660000250915413 10.56550987651588 0.5717264000631539 0 0 0
4762 5 2.439999704319178 11.269877685748675 0.00014656131238182564 0 0 0
4770 5 4.879999704319176 11.269877685748675 0.00014656131238171316 0 0 0
4456 1 6.100000250915413 6.3393059060478825 0.5717264000631531 0 0 0
4464 1 8.540000250915416 6.339305906047882 0.571726400063154 0 0 0
4472 1 10.980000250915413 6.339305906047882 0.5717264000631539 0 0 0
4450 5 7.319999704319178 7.043673715280671 0.00014656131238140852 0 0 0
4458 5 9.759999704319178 7.043673715280672 0.0001465613123806576 0 0 0
4777 5 6.099999704319177 9.15677570051467 0.0001465613123823464 0 0 0
4783 1 7.320000250915414 8.452407891281881 0.5717264000631541 0 0 0
4785 5 8.539999704319179 9.156775700514672 0.000146561312381483 0 0 0
4791 1 9.760000250915414 8.452407891281881 0.5717264000631548 0 0 0
4793 5 10.979999704319177 9.156775700514672 0.00014656131238159552 0 0 0
4784 1 6.100000250915413 10.56550987651588 0.5717264000631532 0 0 0
4792 1 8.540000250915416 10.56550987651588 0.5717264000631541 0 0 0
4800 1 10.980000250915413 10.56550987651588 0.571726400063154 0 0 0
4778 5 7.319999704319178 11.269877685748673 0.00014656131238257933 0 0 0
4786 5 9.759999704319178 11.269877685748675 0.000146561312381826 0 0 0
4480 1 13.420000250915411 6.339305906047882 0.5717264000631539 0 0 0
4488 1 15.860000250915409 6.339305906047882 0.5717264000631539 0 0 0
4466 5 12.199999704319175 7.043673715280672 0.0001465613123806576 0 0 0
4474 5 14.639999704319173 7.043673715280672 0.0001465613123806576 0 0 0
4482 5 17.07999970431917 7.043673715280672 0.0001465613123804349 0 0 0
4801 5 13.419999704319174 9.156775700514672 0.00014656131238159555 0 0 0
4799 1 12.200000250915412 8.452407891281881 0.5717264000631548 0 0 0
4807 1 14.64000025091541 8.452407891281881 0.5717264000631548 0 0 0
4809 5 15.859999704319172 9.156775700514672 0.00014656131238159555 0 0 0
4815 1 17.080000250915408 8.452407891281881 0.571726400063155 0 0 0
4808 1 13.420000250915411 10.56550987651588 0.571726400063154 0 0 0
4816 1 15.860000250915409 10.56550987651588 0.571726400063154 0 0 0
4794 5 12.199999704319175 11.269877685748675 0.00014656131238182602 0 0 0
4802 5 14.639999704319173 11.269877685748675 0.00014656131238182602 0 0 0
4810 5 17.07999970431917 11.269877685748675 0.00014656131238160335 0 0 0
4496 1 18.30000025091541 6.339305906047883 0.5717264000631523 0 0 0
4504 1 20.74000025091542 6.339305906047882 0.5717264000631541 0 0 0
4512 1 23.180000250915416 6.339305906047882 0.5717264000631539 0 0 0
4490 5 19.51999970431918 7.04367371528067 0.00014656131238220416 0 0 0
4498 5 21.95999970431918 7.043673715280672 0.00014656131238065741 0 0 0
4817 5 18.299999704319177 9.15677570051467 0.00014656131238314205 0 0 0
4823 1 19.520000250915416 8.452407891281883 0.5717264000631532 0 0 0
4825 5 20.73999970431918 9.156775700514672 0.00014656131238137285 0 0 0
4831 1 21.960000250915417 8.452407891281881 0.5717264000631548 0 0 0
4833 5 23.17999970431918 9.156775700514672 0.00014656131238159533 0 0 0
4824 1 18.30000025091541 10.565509876515883 0.5717264000631525 0 0 0
4832 1 20.74000025091542 10.56550987651588 0.5717264000631542 0 0 0
4840 1 23.180000250915416 10.56550987651588 0.571726400063154 0 0 0
4818 5 19.51999970431918 11.269877685748673 0.00014656131238337264 0 0 0
4826 5 21.95999970431918 11.269877685748675 0.00014656131238182586 0 0 0
4520 1 25.620000250915414 6.339305906047882 0.5717264000631539 0 0 0
4528 1 28.06000025091541 6.339305906047882 0.5717264000631539 0 0 0
4506 5 24.39999970431918 7.043673715280672 0.0001465613123806573 0 0 0
4514 5 26.839999704319176 7.043673715280672 0.00014656131238065744 0 0 0
4522 5 29.279999704319174 7.043673715280672 0.0001465613123806575 0 0 0
4841 5 25.619999704319177 9.156775700514672 0.00014656131238159533 0 0 0
4839 1 24.400000250915415 8.452407891281881 0.5717264000631548 0 0 0
4847 1 26.840000250915413 8.452407891281881 0.5717264000631548 0 0 0
4849 5 28.059999704319175 9.156775700514672 0.00014656131238159544 0 0 0
4855 1 29.28000025091541 8.452407891281881 0.5717264000631548 0 0 0
4848 1 25.620000250915414 10.56550987651588 0.5717264000631539 0 0 0
4856 1 28.06000025091541 10.56550987651588 0.571726400063154 0 0 0
4834 5 24.39999970431918 11.269877685748675 0.00014656131238182578 0 0 0
4842 5 26.839999704319176 11.269877685748675 0.00014656131238182586 0 0 0
4850 5 29.279999704319174 11.269877685748675 0.00014656131238182591 0 0 0
4536 1 30.50000025091541 6.339305906047882 0.5717264000631539 0 0 0
4544 1 32.94000025091541 6.339305906047883 0.5717264000631523 0 0 0
4530 5 31.71999970431917 7.043673715280672 0.00014656131238043483 0 0 0
4538 5 34.159999704319176 7.04367371528067 0.00014656131238220416 0 0 0
4857 5 30.499999704319173 9.156775700514672 0.00014656131238159544 0 0 0
4863 1 31.720000250915408 8.452407891281881 0.571726400063155 0 0 0
4865 5 32.93999970431918 9.15677570051467 0.000146561312383142 0 0 0
4871 1 34.16000025091542 8.452407891281883 0.5717264000631532 0 0 0
4864 1 30.50000025091541 10.56550987651588 0.571726400063154 0 0 0
4872 1 32.94000025091541 10.565509876515883 0.5717264000631525 0 0 0
4858 5 31.71999970431917 11.269877685748675 0.00014656131238160325 0 0 0
4866 5 34.159999704319176 11.269877685748673 0.00014656131238337264 0 0 0
4552 1 35.380000250915415 6.339305906047882 0.5717264000631541 0 0 0
4560 1 37.82000025091541 6.339305906047882 0.5717264000631539 0 0 0
4568 1 40.26000025091541 6.339305906047882 0.5717264000631539 0 0 0
4546 5 36.59999970431918 7.043673715280672 0.00014656131238065763 0 0 0
4554 5 39.03999970431918 7.043673715280672 0.0001465613123806576 0 0 0
4873 5 35.37999970431918 9.156775700514672 0.00014656131238137293 0 0 0
4881 5 37.81999970431918 9.156775700514672 0.00014656131238159555 0 0 0
4879 1 36.600000250915414 8.452407891281881 0.5717264000631548 0 0 0
4887 1 39.04000025091541 8.452407891281881 0.5717264000631548 0 0 0
4889 5 40.25999970431918 9.156775700514672 0.00014656131238159544 0 0 0
4880 1 35.380000250915415 10.56550987651588 0.5717264000631542 0 0 0
4888 1 37.82000025091541 10.56550987651588 0.571726400063154 0 0 0
4896 1 40.26000025091541 10.56550987651588 0.571726400063154 0 0 0
4874 5 36.59999970431918 11.269877685748675 0.0001465613123818261 0 0 0
4882 5 39.03999970431918 11.269877685748675 0.00014656131238182608 0 0 0
4576 1 42.70000025091541 6.339305906047882 0.5717264000631539 0 0 0
4584 1 45.140000250915406 6.339305906047882 0.5717264000631539 0 0 0
4562 5 41.47999970431918 7.043673715280672 0.00014656131238065736 0 0 0
4570 5 43.919999704319174 7.043673715280672 0.00014656131238065725 0 0 0
4578 5 46.35999970431917 7.043673715280672 0.00014656131238065736 0 0 0
4895 1 41.48000025091541 8.452407891281881 0.5717264000631548 0 0 0
4897 5 42.699999704319175 9.156775700514672 0.00014656131238159525 0 0 0
4903 1 43.92000025091541 8.452407891281881 0.5717264000631548 0 0 0
4905 5 45.13999970431917 9.156775700514672 0.0001465613123815952 0 0 0
4911 1 46.360000250915405 8.452407891281881 0.5717264000631548 0 0 0
4904 1 42.70000025091541 10.56550987651588 0.5717264000631539 0 0 0
4912 1 45.140000250915406 10.56550987651588 0.5717264000631539 0 0 0
4890 5 41.47999970431918 11.269877685748675 0.00014656131238182583 0 0 0
4898 5 43.919999704319174 11.269877685748675 0.00014656131238182567 0 0 0
4906 5 46.35999970431917 11.269877685748675 0.0001465613123818258 0 0 0
4592 1 47.58000025091541 6.339305906047882 0.5717264000631541 0 0 0
4272 1 50.020000250915416 6.339305906047883 0.5717264000631523 -1 0 0
4280 1 52.46000025091542 6.3393059060478825 0.5717264000631531 -1 0 0
4586 5 48.79999970431918 7.04367371528067 0.00014656131238220408 0 0 0
4266 5 51.23999970431918 7.043673715280672 0.00014656131238032253 -1 0 0
4913 5 47.57999970431917 9.156775700514672 0.00014656131238137283 0 0 0
4919 1 48.80000025091541 8.452407891281883 0.5717264000631532 0 0 0
4593 5 50.019999704319176 9.15677570051467 0.0001465613123831421 -1 0 0
4599 1 51.240000250915415 8.452407891281881 0.5717264000631551 -1 0 0
4601 5 52.45999970431918 9.15677570051467 0.0001465613123823467 -1 0 0
4920 1 47.58000025091541 10.56550987651588 0.5717264000631542 0 0 0
4600 1 50.020000250915416 10.565509876515883 0.5717264000631525 -1 0 0
4608 1 52.46000025091542 10.56550987651588 0.5717264000631532 -1 0 0
4914 5 48.79999970431918 11.269877685748673 0.00014656131238337256 0 0 0
4594 5 51.23999970431918 11.269877685748675 0.00014656131238149098 -1 0 0
4288 1 54.90000025091542 6.339305906047882 0.571726400063154 -1 0 0
4296 1 57.340000250915416 6.339305906047882 0.5717264000631539 -1 0 0
4274 5 53.67999970431919 7.043673715280671 0.00014656131238140866 -1 0 0
4282 5 56.119999704319184 7.043673715280672 0.00014656131238065747 -1 0 0
4290 5 58.55999970431918 7.043673715280672 0.0001465613123806573 -1 0 0
4607 1 53.68000025091542 8.452407891281881 0.5717264000631541 -1 0 0
4609 5 54.899999704319185 9.156775700514672 0.00014656131238148306 -1 0 0
4615 1 56.12000025091542 8.452407891281881 0.5717264000631548 -1 0 0
4617 5 57.33999970431918 9.156775700514672 0.00014656131238159533 -1 0 0
4623 1 58.560000250915415 8.452407891281881 0.5717264000631548 -1 0 0
4616 1 54.90000025091542 10.56550987651588 0.5717264000631541 -1 0 0
4624 1 57.340000250915416 10.56550987651588 0.5717264000631539 -1 0 0
4602 5 53.67999970431919 11.269877685748673 0.00014656131238257943 -1 0 0
4610 5 56.119999704319184 11.269877685748675 0.00014656131238182591 -1 0 0
4618 5 58.55999970431918 11.269877685748675 0.00014656131238182572 -1 0 0
4304 1 59.780000250915414 6.339305906047882 0.5717264000631539 -1 0 0
4312 1 62.22000025091542 6.3393059060478825 0.571726400063153 -1 0 0
4320 1 64.66000025091542 6.339305906047881 0.5717264000631548 -1 0 0
4298 5 60.99999970431918 7.043673715280672 0.0001465613123805449 -1 0 0
4306 5 63.43999970431918 7.043673715280672 0.00014656131238060938 -1 0 0
4625 5 59.77999970431918 9.156775700514672 0.0001465613123815953 -1 0 0
4631 1 61.00000025091542 8.452407891281881 0.5717264000631549 -1 0 0
4633 5 62.21999970431918 9.15677570051467 0.00014656131238245443 -1 0 0
4639 1 63.44000025091542 8.452407891281881 0.5717264000631549 -1 0 0
4641 5 64.65999970431918 9.156775700514672 0.0001465613123806839 -1 0 0
4632 1 59.780000250915414 10.56550987651588 0.5717264000631539 -1 0 0
4640 1 62.22000025091542 10.565509876515883 0.5717264000631531 -1 0 0
4648 1 64.66000025091542 10.565509876515879 0.5717264000631549 -1 0 0
4626 5 60.99999970431918 11.269877685748675 0.00014656131238171337 -1 0 0
4634 5 63.43999970431918 11.269877685748675 0.00014656131238178252 -1 0 0
4328 1 67.10000025091541 6.339305906047883 0.5717264000631523 -1 0 0
4336 1 69.54000025091543 6.339305906047882 0.5717264000631541 -1 0 0
4314 5 65.87999970431918 7.043673715280672 0.00014656131238054281 -1 0 0
4322 5 68.31999970431919 7.04367371528067 0.00014656131238220422 -1 0 0
4647 1 65.88000025091542 8.452407891281881 0.5717264000631549 -1 0 0
4649 5 67.09999970431917 9.15677570051467 0.0001465613123831422 -1 0 0
4655 1 68.32000025091541 8.452407891281883 0.5717264000631532 -1 0 0
4657 5 69.53999970431919 9.156775700514672 0.00014656131238137293 -1 0 0
4656 1 67.10000025091541 10.565509876515883 0.5717264000631525 -1 0 0
4664 1 69.54000025091543 10.56550987651588 0.5717264000631542 -1 0 0
4642 5 65.87999970431918 11.269877685748675 0.00014656131238171129 -1 0 0
4650 5 68.31999970431919 11.269877685748673 0.00014656131238337266 -1 0 0
4344 1 71.98000025091542 6.339305906047882 0.5717264000631539 -1 0 0
4352 1 74.42000025091542 6.339305906047882 0.5717264000631539 -1 0 0
4330 5 70.75999970431918 7.043673715280672 0.00014656131238065755 -1 0 0
4338 5 73.19999970431918 7.043673715280672 0.00014656131238065725 -1 0 0
4346 5 75.63999970431918 7.043673715280672 0.000146561312380657 -1 0 0
4663 1 70.76000025091543 8.452407891281881 0.5717264000631548 -1 0 0
4665 5 71.97999970431918 9.156775700514672 0.00014656131238159539 -1 0 0
4671 1 73.20000025091542 8.452407891281881 0.5717264000631548 -1 0 0
4673 5 74.41999970431918 9.156775700514672 0.00014656131238159506 -1 0 0
4679 1 75.64000025091542 8.452407891281881 0.5717264000631548 -1 0 0
4672 1 71.98000025091542 10.56550987651588 0.571726400063154 -1 0 0
4680 1 74.42000025091542 10.56550987651588 0.5717264000631539 -1 0 0
4658 5 70.75999970431918 11.269877685748675 0.000146561312381826 -1 0 0
4666 5 73.19999970431918 11.269877685748675 0.0001465613123818257 -1 0 0
4674 5 75.63999970431918 11.269877685748675 0.00014656131238182545 -1 0 0
4360 1 76.86000025091542 6.339305906047882 0.5717264000631541 -1 0 0
4368 1 79.30000025091542 6.339305906047883 0.5717264000631523 -1 0 0
4376 1 81.74000025091543 6.339305906047882 0.5717264000631539 -1 0 0
4354 5 78.07999970431918 7.04367371528067 0.00014656131238220365 -1 0 0
4362 5 80.51999970431919 7.043673715280672 0.00014656131238043475 -1 0 0
4681 5 76.85999970431918 9.156775700514672 0.00014656131238137236 -1 0 0
4687 1 78.08000025091542 8.452407891281883 0.5717264000631532 -1 0 0
4689 5 79.29999970431919 9.15677570051467 0.0001465613123831418 -1 0 0
4695 1 80.52000025091543 8.452407891281881 0.571726400063155 -1 0 0
4697 5 81.73999970431919 9.156775700514672 0.00014656131238159552 -1 0 0
4688 1 76.86000025091542 10.56550987651588 0.5717264000631541 -1 0 0
4696 1 79.30000025091542 10.565509876515883 0.5717264000631525 -1 0 0
4704 1 81.74000025091543 10.56550987651588 0.571726400063154 -1 0 0
4682 5 78.07999970431918 11.269877685748673 0.00014656131238337204 -1 0 0
4690 5 80.51999970431919 11.269877685748675 0.00014656131238160316 -1 0 0
4384 1 84.18000025091543 6.339305906047882 0.5717264000631539 -1 0 0
4392 1 86.62000025091542 6.339305906047882 0.5717264000631539 -1 0 0
4370 5 82.95999970431919 7.043673715280672 0.00014656131238065755 -1 0 0
4378 5 85.39999970431919 7.043673715280672 0.0001465613123806576 -1 0 0
4386 5 87.83999970431918 7.043673715280672 0.00014656131238065758 -1 0 0
4703 1 82.96000025091543 8.452407891281881 0.5717264000631548 -1 0 0
4705 5 84.17999970431919 9.156775700514672 0.0001465613123815956 -1 0 0
4711 1 85.40000025091543 8.452407891281881 0.5717264000631548 -1 0 0
4713 5 86.61999970431918 9.156775700514672 0.0001465613123815956 -1 0 0
4719 1 87.84000025091542 8.452407891281881 0.5717264000631548 -1 0 0
4712 1 84.18000025091543 10.56550987651588 0.571726400063154 -1 0 0