LAMMPS data file via write_data, version 29 Aug 2024, timestep = 1, units = metal

23616 atoms
12 atom types

0 100.04 xlo xhi
0 101.428895291232 ylo yhi
-50 118.00154434554295 zlo zhi

Masses

1 10.81
2 10.81
3 10.81
4 10.81
5 10.81
6 10.81
7 15.999
8 15.999
9 15.999
10 15.999
11 15.999
12 15.999

Atoms # atomic

4105 7 1.2199996309848393 0.704367866516019 0.0001829112420756795 0 0 0
4113 7 3.6599996309848373 0.7043678665160187 0.0001829112420759572 0 0 0
4112 1 1.220000313147102 2.113101923264738 0.5719313626396221 0 0 0
4120 1 3.6600003131471 2.1131019232647383 0.5719313626396219 0 0 0
4106 7 2.4399996309848384 2.8174698517500176 0.00018291124207768308 0 0 0
4114 7 4.879999630984837 2.8174698517500176 0.0001829112420775485 0 0 0
4433 7 1.2199996309848393 4.930571836984022 0.00018291124207723452 0 0 0
4431 1 3.13147097432231e-07 4.226203908498739 0.5719313626396216 0 0 0
4439 1 2.440000313147101 4.2262039084987375 0.5719313626396235 0 0 0
4441 7 3.6599996309848373 4.930571836984022 0.00018291124207751224 0 0 0
4447 1 4.880000313147099 4.226203908498737 0.5719313626396237 0 0 0
4121 7 6.099999630984838 0.7043678665160178 0.0001829112420768976 0 0 0
4129 7 8.53999963098484 0.7043678665160189 0.00018291124207581722 0 0 0
4137 7 10.979999630984837 0.7043678665160187 0.00018291124207595768 0 0 0
4128 1 6.100000313147101 2.1131019232647392 0.5719313626396209 0 0 0
4136 1 8.540000313147102 2.1131019232647383 0.571931362639622 0 0 0
4144 1 10.9800003131471 2.1131019232647383 0.5719313626396219 0 0 0
4122 7 7.319999630984838 2.8174698517500167 0.0001829112420786898 0 0 0
4130 7 9.759999630984838 2.8174698517500176 0.00018291124207768357 0 0 0
4449 7 6.099999630984838 4.93057183698402 0.00018291124207844977 0 0 0
4455 1 7.3200003131471005 4.226203908498738 0.5719313626396226 0 0 0
4457 7 8.53999963098484 4.930571836984022 0.00018291124207737232 0 0 0
4463 1 9.760000313147101 4.2262039084987375 0.5719313626396235 0 0 0
4465 7 10.979999630984837 4.930571836984022 0.0001829112420775127 0 0 0
4145 7 13.419999630984835 0.7043678665160187 0.00018291124207595768 0 0 0
4153 7 15.859999630984833 0.7043678665160187 0.0001829112420759577 0 0 0
4152 1 13.420000313147098 2.1131019232647383 0.5719313626396219 0 0 0
4160 1 15.860000313147095 2.1131019232647383 0.5719313626396219 0 0 0
4138 7 12.199999630984836 2.8174698517500176 0.0001829112420776836 0 0 0
4146 7 14.639999630984834 2.8174698517500176 0.00018291124207768362 0 0 0
4154 7 17.079999630984833 2.817469851750018 0.00018291124207741149 0 0 0
4473 7 13.419999630984835 4.930571836984022 0.00018291124207751275 0 0 0
4471 1 12.200000313147099 4.2262039084987375 0.5719313626396235 0 0 0
4479 1 14.640000313147096 4.2262039084987375 0.5719313626396235 0 0 0
4481 7 15.859999630984833 4.930571836984022 0.0001829112420775127 0 0 0
4487 1 17.080000313147096 4.226203908498737 0.5719313626396239 0 0 0
4161 7 18.299999630984836 0.7043678665160167 0.00018291124207788775 0 0 0
4169 7 20.739999630984844 0.704367866516019 0.00018291124207567974 0 0 0
4177 7 23.17999963098484 0.7043678665160187 0.00018291124207595746 0 0 0
4168 1 18.3000003131471 2.11310192326474 0.5719313626396199 0 0 0
4176 1 20.740000313147107 2.113101923264738 0.5719313626396221 0 0 0
4184 1 23.180000313147104 2.1131019232647383 0.5719313626396219 0 0 0
4162 7 19.519999630984838 2.8174698517500154 0.0001829112420796249 0 0 0
4170 7 21.959999630984843 2.8174698517500176 0.00018291124207768338 0 0 0
4489 7 18.299999630984836 4.9305718369840195 0.0001829112420794428 0 0 0
4495 1 19.5200003131471 4.226203908498739 0.5719313626396216 0 0 0
4497 7 20.739999630984844 4.930571836984022 0.00018291124207723482 0 0 0
4503 1 21.960000313147106 4.2262039084987375 0.5719313626396235 0 0 0
4505 7 23.17999963098484 4.930571836984022 0.00018291124207751245 0 0 0
4185 7 25.61999963098484 0.7043678665160187 0.00018291124207595744 0 0 0
4193 7 28.059999630984837 0.7043678665160187 0.0001829112420759576 0 0 0
4192 1 25.620000313147102 2.1131019232647383 0.5719313626396219 0 0 0
4200 1 28.0600003131471 2.1131019232647383 0.5719313626396219 0 0 0
4178 7 24.39999963098484 2.8174698517500176 0.00018291124207768324 0 0 0
4186 7 26.83999963098484 2.8174698517500176 0.0001829112420776834 0 0 0
4194 7 29.279999630984836 2.8174698517500176 0.00018291124207768343 0 0 0
4513 7 25.61999963098484 4.930571836984022 0.00018291124207751245 0 0 0
4511 1 24.400000313147103 4.2262039084987375 0.5719313626396235 0 0 0
4519 1 26.8400003131471 4.2262039084987375 0.5719313626396235 0 0 0
4521 7 28.059999630984837 4.930571836984022 0.00018291124207751264 0 0 0
4527 1 29.2800003131471 4.2262039084987375 0.5719313626396235 0 0 0
4201 7 30.499999630984835 0.7043678665160187 0.00018291124207595754 0 0 0
4209 7 32.939999630984836 0.7043678665160167 0.00018291124207788775 0 0 0
4208 1 30.500000313147098 2.1131019232647383 0.5719313626396219 0 0 0
4216 1 32.9400003131471 2.11310192326474 0.5719313626396199 0 0 0
4202 7 31.719999630984834 2.817469851750018 0.0001829112420774113 0 0 0
4210 7 34.159999630984835 2.8174698517500154 0.00018291124207962488 0 0 0
4529 7 30.499999630984835 4.930571836984022 0.00018291124207751261 0 0 0
4535 1 31.720000313147096 4.226203908498737 0.5719313626396239 0 0 0
4537 7 32.939999630984836 4.9305718369840195 0.0001829112420794427 0 0 0
4543 1 34.1600003131471 4.226203908498739 0.5719313626396216 0 0 0
4217 7 35.37999963098484 0.704367866516019 0.00018291124207567985 0 0 0
4225 7 37.81999963098484 0.7043678665160187 0.0001829112420759578 0 0 0
4233 7 40.25999963098484 0.7043678665160187 0.00018291124207595754 0 0 0
4224 1 35.38000031314711 2.113101923264738 0.5719313626396221 0 0 0
4232 1 37.820000313147105 2.1131019232647383 0.5719313626396219 0 0 0
4240 1 40.2600003131471 2.1131019232647383 0.5719313626396219 0 0 0
4218 7 36.59999963098484 2.8174698517500176 0.00018291124207768365 0 0 0
4226 7 39.03999963098484 2.8174698517500176 0.0001829112420776836 0 0 0
4545 7 35.37999963098484 4.930571836984022 0.00018291124207723495 0 0 0
4553 7 37.81999963098484 4.930571836984022 0.00018291124207751283 0 0 0
4551 1 36.600000313147106 4.2262039084987375 0.5719313626396235 0 0 0
4559 1 39.040000313147104 4.2262039084987375 0.5719313626396235 0 0 0
4561 7 40.25999963098484 4.930571836984022 0.00018291124207751267 0 0 0
4241 7 42.699999630984834 0.7043678665160187 0.00018291124207595733 0 0 0
4249 7 45.13999963098483 0.7043678665160187 0.0001829112420759573 0 0 0
4248 1 42.7000003131471 2.1131019232647383 0.5719313626396219 0 0 0
4256 1 45.1400003131471 2.1131019232647383 0.5719313626396219 0 0 0
4234 7 41.479999630984835 2.8174698517500176 0.00018291124207768332 0 0 0
4242 7 43.91999963098483 2.8174698517500176 0.00018291124207768313 0 0 0
4250 7 46.35999963098483 2.8174698517500176 0.0001829112420776833 0 0 0
4567 1 41.4800003131471 4.2262039084987375 0.5719313626396235 0 0 0
4569 7 42.699999630984834 4.930571836984022 0.00018291124207751234 0 0 0
4575 1 43.9200003131471 4.2262039084987375 0.5719313626396235 0 0 0
4577 7 45.13999963098483 4.930571836984022 0.00018291124207751234 0 0 0
4583 1 46.3600003131471 4.2262039084987375 0.5719313626396235 0 0 0
4257 7 47.57999963098483 0.704367866516019 0.0001829112420756797 0 0 0
3937 7 50.019999630984834 0.7043678665160167 0.0001829112420778879 -1 0 0
3945 7 52.459999630984846 0.7043678665160178 0.00018291124207689795 -1 0 0
4264 1 47.580000313147096 2.113101923264738 0.5719313626396221 0 0 0
3944 1 50.0200003131471 2.11310192326474 0.5719313626396199 -1 0 0
3952 1 52.460000313147106 2.1131019232647392 0.5719313626396209 -1 0 0
4258 7 48.799999630984836 2.8174698517500154 0.00018291124207962486 0 0 0
3938 7 51.23999963098484 2.817469851750018 0.00018291124207727688 -1 0 0
4585 7 47.57999963098483 4.930571836984022 0.00018291124207723476 0 0 0
4591 1 48.8000003131471 4.226203908498739 0.5719313626396216 0 0 0
4265 7 50.019999630984834 4.9305718369840195 0.00018291124207944293 -1 0 0
4271 1 51.24000031314711 4.226203908498737 0.571931362639624 -1 0 0
4273 7 52.459999630984846 4.93057183698402 0.00018291124207845015 -1 0 0
3953 7 54.899999630984844 0.7043678665160189 0.00018291124207581733 -1 0 0
3961 7 57.33999963098484 0.7043678665160187 0.00018291124207595746 -1 0 0
3960 1 54.90000031314711 2.1131019232647383 0.571931362639622 -1 0 0
3968 1 57.34000031314711 2.1131019232647383 0.5719313626396219 -1 0 0
3946 7 53.679999630984845 2.8174698517500167 0.00018291124207868992 -1 0 0
3954 7 56.11999963098484 2.8174698517500176 0.00018291124207768335 -1 0 0
3962 7 58.55999963098484 2.8174698517500176 0.00018291124207768316 -1 0 0
4279 1 53.680000313147104 4.226203908498738 0.5719313626396226 -1 0 0
4281 7 54.899999630984844 4.930571836984022 0.00018291124207737237 -1 0 0
4287 1 56.12000031314711 4.2262039084987375 0.5719313626396235 -1 0 0
4289 7 57.33999963098484 4.930571836984022 0.00018291124207751248 -1 0 0
4295 1 58.56000031314711 4.2262039084987375 0.5719313626396235 -1 0 0
3969 7 59.77999963098484 0.7043678665160187 0.00018291124207595738 -1 0 0
3977 7 62.219999630984844 0.7043678665160176 0.00018291124207703248 -1 0 0
3985 7 64.65999963098484 0.7043678665160199 0.00018291124207481992 -1 0 0
3976 1 59.780000313147106 2.1131019232647383 0.5719313626396219 -1 0 0
3984 1 62.220000313147104 2.1131019232647397 0.5719313626396207 -1 0 0
3992 1 64.66000031314711 2.113101923264737 0.571931362639623 -1 0 0
3970 7 60.99999963098484 2.8174698517500176 0.00018291124207754875 -1 0 0
3978 7 63.439999630984836 2.8174698517500176 0.00018291124207768533 -1 0 0
4297 7 59.77999963098484 4.930571836984022 0.00018291124207751243 -1 0 0
4303 1 61.000000313147105 4.226203908498737 0.5719313626396237 -1 0 0
4305 7 62.219999630984844 4.93057183698402 0.0001829112420785846 -1 0 0
4311 1 63.4400003131471 4.2262039084987375 0.5719313626396236 -1 0 0
4313 7 64.65999963098484 4.930571836984023 0.00018291124207637496 -1 0 0
3993 7 67.09999963098484 0.7043678665160167 0.00018291124207788786 -1 0 0
4001 7 69.53999963098485 0.704367866516019 0.00018291124207567988 -1 0 0
4000 1 67.1000003131471 2.11310192326474 0.5719313626396199 -1 0 0
4008 1 69.5400003131471 2.113101923264738 0.5719313626396221 -1 0 0
3986 7 65.87999963098484 2.8174698517500176 0.0001829112420775489 -1 0 0
3994 7 68.31999963098484 2.8174698517500154 0.000182911242079625 -1 0 0
4319 1 65.8800003131471 4.226203908498737 0.5719313626396237 -1 0 0
4321 7 67.09999963098484 4.9305718369840195 0.00018291124207944287 -1 0 0
4327 1 68.3200003131471 4.226203908498739 0.5719313626396216 -1 0 0
4329 7 69.53999963098485 4.930571836984022 0.0001829112420772349 -1 0 0
4009 7 71.97999963098485 0.7043678665160187 0.00018291124207595752 -1 0 0
4017 7 74.41999963098485 0.7043678665160187 0.00018291124207595714 -1 0 0
4016 1 71.9800003131471 2.1131019232647383 0.5719313626396219 -1 0 0
4024 1 74.4200003131471 2.1131019232647383 0.5719313626396219 -1 0 0
4002 7 70.75999963098485 2.8174698517500176 0.00018291124207768354 -1 0 0
4010 7 73.19999963098485 2.8174698517500176 0.0001829112420776832 -1 0 0
4018 7 75.63999963098485 2.8174698517500176 0.0001829112420776828 -1 0 0
4335 1 70.7600003131471 4.2262039084987375 0.5719313626396235 -1 0 0
4337 7 71.97999963098485 4.930571836984022 0.00018291124207751248 -1 0 0
4343 1 73.2000003131471 4.2262039084987375 0.5719313626396235 -1 0 0
4345 7 74.41999963098485 4.930571836984022 0.00018291124207751218 -1 0 0
4351 1 75.6400003131471 4.2262039084987375 0.5719313626396235 -1 0 0
4025 7 76.85999963098484 0.704367866516019 0.00018291124207567917 -1 0 0
4033 7 79.29999963098484 0.7043678665160167 0.00018291124207788742 -1 0 0
4041 7 81.73999963098485 0.7043678665160187 0.00018291124207595765 -1 0 0
4032 1 76.8600003131471 2.113101923264738 0.5719313626396221 -1 0 0
4040 1 79.30000031314711 2.11310192326474 0.5719313626396199 -1 0 0
4048 1 81.7400003131471 2.1131019232647383 0.5719313626396219 -1 0 0
4026 7 78.07999963098484 2.8174698517500154 0.0001829112420796242 -1 0 0
4034 7 80.51999963098486 2.817469851750018 0.00018291124207741113 -1 0 0
4353 7 76.85999963098484 4.930571836984022 0.0001829112420772342 -1 0 0
4359 1 78.08000031314711 4.226203908498739 0.5719313626396216 -1 0 0
4361 7 79.29999963098484 4.9305718369840195 0.00018291124207944247 -1 0 0
4367 1 80.52000031314711 4.226203908498737 0.5719313626396239 -1 0 0
4369 7 81.73999963098485 4.930571836984022 0.00018291124207751267 -1 0 0
4049 7 84.17999963098485 0.7043678665160187 0.00018291124207595773 -1 0 0
4057 7 86.61999963098485 0.7043678665160187 0.00018291124207595768 -1 0 0
4056 1 84.1800003131471 2.1131019232647383 0.5719313626396219 -1 0 0
4064 1 86.6200003131471 2.1131019232647383 0.5719313626396219 -1 0 0
4042 7 82.95999963098485 2.8174698517500176 0.00018291124207768349 -1 0 0
4050 7 85.39999963098485 2.8174698517500176 0.00018291124207768354 -1 0 0
4058 7 87.83999963098485 2.8174698517500176 0.0001829112420776835 -1 0 0
4375 1 82.9600003131471 4.2262039084987375 0.5719313626396235 -1 0 0
4377 7 84.17999963098485 4.930571836984022 0.00018291124207751278 -1 0 0
4383 1 85.4000003131471 4.2262039084987375 0.5719313626396235 -1 0 0
4385 7 86.61999963098485 4.930571836984022 0.00018291124207751275 -1 0 0
4391 1 87.8400003131471 4.2262039084987375 0.5719313626396235 -1 0 0
4065 7 89.05999963098485 0.7043678665160187 0.00018291124207595754 -1 0 0
4073 7 91.49999963098485 0.7043678665160187 0.0001829112420759573 -1 0 0
4081 7 93.93999963098484 0.7043678665160187 0.00018291124207595725 -1 0 0
4072 1 89.0600003131471 2.1131019232647383 0.5719313626396219 -1 0 0
4080 1 91.5000003131471 2.1131019232647383 0.5719313626396219 -1 0 0
4088 1 93.9400003131471 2.1131019232647383 0.5719313626396219 -1 0 0
4066 7 90.27999963098485 2.8174698517500176 0.00018291124207768324 -1 0 0
4074 7 92.71999963098484 2.8174698517500176 0.00018291124207768308 -1 0 0
4393 7 89.05999963098485 4.930571836984022 0.00018291124207751256 -1 0 0
4399 1 90.2800003131471 4.2262039084987375 0.5719313626396235 -1 0 0
4401 7 91.49999963098485 4.930571836984022 0.0001829112420775123 -1 0 0
4407 1 92.7200003131471 4.2262039084987375 0.5719313626396235 -1 0 0
4409 7 93.93999963098484 4.930571836984022 0.0001829112420775123 -1 0 0
4098 7 100.03999963098484 2.8174698517500154 0.00018291124207962456 -1 0 0
4089 7 96.37999963098484 0.7043678665160187 0.00018291124207595757 -1 0 0
4097 7 98.81999963098484 0.7043678665160167 0.00018291124207788778 -1 0 0
4096 1 96.3800003131471 2.1131019232647383 0.5719313626396219 -1 0 0
4104 1 98.8200003131471 2.11310192326474 0.5719313626396199 -1 0 0
4082 7 95.15999963098484 2.8174698517500176 0.0001829112420776833 -1 0 0
4090 7 97.59999963098484 2.817469851750018 0.00018291124207741138 -1 0 0
4415 1 95.1600003131471 4.2262039084987375 0.5719313626396235 -1 0 0
4417 7 96.37999963098484 4.930571836984022 0.00018291124207751261 -1 0 0
4423 1 97.60000031314709 4.226203908498737 0.5719313626396239 -1 0 0
4425 7 98.81999963098484 4.9305718369840195 0.00018291124207944285 -1 0 0
4440 1 1.220000313147102 6.339305893732736 0.5719313626396223 0 0 0
4448 1 3.6600003131471 6.339305893732736 0.571931362639622 0 0 0
4434 7 2.4399996309848384 7.043673822218021 0.00018291124207634168 0 0 0
4442 7 4.879999630984837 7.043673822218021 0.00018291124207620133 0 0 0
4761 7 1.2199996309848393 9.156775807452021 0.0001829112420772346 0 0 0
4759 1 3.131470974319527e-07 8.452407878966739 0.5719313626396212 0 0 0
4767 1 2.440000313147101 8.452407878966737 0.5719313626396232 0 0 0
4769 7 3.6599996309848373 9.156775807452021 0.0001829112420775123 0 0 0
4775 1 4.880000313147099 8.452407878966737 0.5719313626396233 0 0 0
4768 1 1.220000313147102 10.565509864200736 0.5719313626396224 0 0 0
4776 1 3.6600003131471 10.565509864200736 0.5719313626396221 0 0 0
4762 7 2.4399996309848384 11.269877792686025 0.0001829112420777999 0 0 0
4770 7 4.879999630984837 11.269877792686025 0.0001829112420776595 0 0 0
4456 1 6.100000313147101 6.339305893732737 0.5719313626396211 0 0 0
4464 1 8.540000313147102 6.339305893732736 0.5719313626396222 0 0 0
4472 1 10.9800003131471 6.339305893732736 0.571931362639622 0 0 0
4450 7 7.319999630984838 7.04367382221802 0.00018291124207727932 0 0 0
4458 7 9.759999630984838 7.043673822218021 0.00018291124207634216 0 0 0
4777 7 6.099999630984838 9.15677580745202 0.00018291124207844983 0 0 0
4783 1 7.3200003131471005 8.452407878966737 0.5719313626396222 0 0 0
4785 7 8.53999963098484 9.156775807452021 0.00018291124207737226 0 0 0
4791 1 9.760000313147101 8.452407878966737 0.5719313626396232 0 0 0
4793 7 10.979999630984837 9.156775807452021 0.0001829112420775127 0 0 0
4784 1 6.100000313147101 10.565509864200736 0.5719313626396212 0 0 0
4792 1 8.540000313147102 10.565509864200736 0.5719313626396222 0 0 0
4800 1 10.9800003131471 10.565509864200736 0.5719313626396221 0 0 0
4778 7 7.319999630984838 11.269877792686023 0.0001829112420787405 0 0 0
4786 7 9.759999630984838 11.269877792686025 0.00018291124207780033 0 0 0
4480 1 13.420000313147098 6.339305893732736 0.571931362639622 0 0 0
4488 1 15.860000313147095 6.339305893732736 0.571931362639622 0 0 0
4466 7 12.199999630984836 7.043673822218021 0.00018291124207634214 0 0 0
4474 7 14.639999630984834 7.043673822218021 0.00018291124207634216 0 0 0
4482 7 17.079999630984833 7.043673822218021 0.00018291124207606423 0 0 0
4801 7 13.419999630984835 9.156775807452021 0.00018291124207751272 0 0 0
4799 1 12.200000313147099 8.452407878966737 0.5719313626396232 0 0 0
4807 1 14.640000313147096 8.452407878966737 0.5719313626396232 0 0 0
4809 7 15.859999630984833 9.156775807452021 0.00018291124207751272 0 0 0
4815 1 17.080000313147096 8.452407878966737 0.5719313626396234 0 0 0
4808 1 13.420000313147098 10.565509864200736 0.5719313626396221 0 0 0
4816 1 15.860000313147095 10.565509864200736 0.5719313626396221 0 0 0
4794 7 12.199999630984836 11.269877792686025 0.00018291124207780036 0 0 0
4802 7 14.639999630984834 11.269877792686025 0.00018291124207780036 0 0 0
4810 7 17.079999630984833 11.269877792686025 0.00018291124207752245 0 0 0
4496 1 18.3000003131471 6.339305893732739 0.5719313626396201 0 0 0
4504 1 20.740000313147107 6.339305893732736 0.5719313626396223 0 0 0
4512 1 23.180000313147104 6.339305893732736 0.571931362639622 0 0 0
4490 7 19.519999630984838 7.043673822218019 0.0001829112420782723 0 0 0
4498 7 21.959999630984843 7.043673822218021 0.00018291124207634195 0 0 0
4817 7 18.299999630984836 9.15677580745202 0.0001829112420794428 0 0 0
4823 1 19.5200003131471 8.452407878966739 0.5719313626396213 0 0 0
4825 7 20.739999630984844 9.156775807452021 0.0001829112420772348 0 0 0
4831 1 21.960000313147106 8.452407878966737 0.5719313626396232 0 0 0
4833 7 23.17999963098484 9.156775807452021 0.00018291124207751245 0 0 0
4824 1 18.3000003131471 10.565509864200738 0.5719313626396202 0 0 0
4832 1 20.740000313147107 10.565509864200736 0.5719313626396224 0 0 0
4840 1 23.180000313147104 10.565509864200736 0.5719313626396221 0 0 0
4818 7 19.519999630984838 11.269877792686021 0.00018291124207973057 0 0 0
4826 7 21.959999630984843 11.269877792686025 0.00018291124207780017 0 0 0
4520 1 25.620000313147102 6.339305893732736 0.571931362639622 0 0 0
4528 1 28.0600003131471 6.339305893732736 0.571931362639622 0 0 0
4506 7 24.39999963098484 7.043673822218021 0.0001829112420763418 0 0 0
4514 7 26.83999963098484 7.043673822218021 0.00018291124207634197 0 0 0
4522 7 29.279999630984836 7.043673822218021 0.00018291124207634203 0 0 0
4841 7 25.61999963098484 9.156775807452021 0.00018291124207751245 0 0 0
4839 1 24.400000313147103 8.452407878966737 0.5719313626396232 0 0 0
4847 1 26.8400003131471 8.452407878966737 0.5719313626396232 0 0 0
4849 7 28.059999630984837 9.156775807452021 0.0001829112420775126 0 0 0
4855 1 29.2800003131471 8.452407878966737 0.5719313626396232 0 0 0
4848 1 25.620000313147102 10.565509864200736 0.5719313626396221 0 0 0
4856 1 28.0600003131471 10.565509864200736 0.5719313626396221 0 0 0
4834 7 24.39999963098484 11.269877792686025 0.00018291124207780006 0 0 0
4842 7 26.83999963098484 11.269877792686025 0.00018291124207780017 0 0 0
4850 7 29.279999630984836 11.269877792686025 0.00018291124207780025 0 0 0
4536 1 30.500000313147098 6.339305893732736 0.571931362639622 0 0 0
4544 1 32.9400003131471 6.339305893732739 0.5719313626396201 0 0 0
4530 7 31.719999630984834 7.043673822218021 0.00018291124207606412 0 0 0
4538 7 34.159999630984835 7.043673822218019 0.00018291124207827232 0 0 0
4857 7 30.499999630984835 9.156775807452021 0.00018291124207751261 0 0 0
4863 1 31.720000313147096 8.452407878966737 0.5719313626396234 0 0 0
4865 7 32.939999630984836 9.15677580745202 0.0001829112420794427 0 0 0
4871 1 34.1600003131471 8.452407878966739 0.5719313626396213 0 0 0
4864 1 30.500000313147098 10.565509864200736 0.5719313626396221 0 0 0
4872 1 32.9400003131471 10.565509864200738 0.5719313626396202 0 0 0
4858 7 31.719999630984834 11.269877792686025 0.00018291124207752235 0 0 0
4866 7 34.159999630984835 11.269877792686021 0.00018291124207973057 0 0 0
4552 1 35.38000031314711 6.339305893732736 0.5719313626396223 0 0 0
4560 1 37.820000313147105 6.339305893732736 0.571931362639622 0 0 0
4568 1 40.2600003131471 6.339305893732736 0.571931362639622 0 0 0
4546 7 36.59999963098484 7.043673822218021 0.0001829112420763422 0 0 0
4554 7 39.03999963098484 7.043673822218021 0.00018291124207634216 0 0 0
4873 7 35.37999963098484 9.156775807452021 0.0001829112420772349 0 0 0
4881 7 37.81999963098484 9.156775807452021 0.00018291124207751275 0 0 0
4879 1 36.600000313147106 8.452407878966737 0.5719313626396232 0 0 0
4887 1 39.040000313147104 8.452407878966737 0.5719313626396232 0 0 0
4889 7 40.25999963098484 9.156775807452021 0.00018291124207751261 0 0 0
4880 1 35.38000031314711 10.565509864200736 0.5719313626396224 0 0 0
4888 1 37.820000313147105 10.565509864200736 0.5719313626396221 0 0 0
4896 1 40.2600003131471 10.565509864200736 0.5719313626396221 0 0 0
4874 7 36.59999963098484 11.269877792686025 0.00018291124207780044 0 0 0
4882 7 39.03999963098484 11.269877792686025 0.00018291124207780044 0 0 0
4576 1 42.7000003131471 6.339305893732736 0.571931362639622 0 0 0
4584 1 45.1400003131471 6.339305893732736 0.571931362639622 0 0 0
4562 7 41.479999630984835 7.043673822218021 0.00018291124207634187 0 0 0
4570 7 43.91999963098483 7.043673822218021 0.0001829112420763417 0 0 0
4578 7 46.35999963098483 7.043673822218021 0.00018291124207634187 0 0 0
4895 1 41.4800003131471 8.452407878966737 0.5719313626396232 0 0 0
4897 7 42.699999630984834 9.156775807452021 0.00018291124207751234 0 0 0
4903 1 43.9200003131471 8.452407878966737 0.5719313626396232 0 0 0
4905 7 45.13999963098483 9.156775807452021 0.0001829112420775123 0 0 0
4911 1 46.3600003131471 8.452407878966737 0.5719313626396232 0 0 0
4904 1 42.7000003131471 10.565509864200736 0.5719313626396221 0 0 0
4912 1 45.1400003131471 10.565509864200736 0.5719313626396221 0 0 0
4890 7 41.479999630984835 11.269877792686025 0.00018291124207780012 0 0 0
4898 7 43.91999963098483 11.269877792686025 0.00018291124207779996 0 0 0
4906 7 46.35999963098483 11.269877792686025 0.00018291124207780012 0 0 0
4592 1 47.580000313147096 6.339305893732736 0.5719313626396223 0 0 0
4272 1 50.0200003131471 6.339305893732739 0.5719313626396201 -1 0 0
4280 1 52.460000313147106 6.339305893732737 0.5719313626396211 -1 0 0
4586 7 48.799999630984836 7.043673822218019 0.00018291124207827218 0 0 0
4266 7 51.23999963098484 7.043673822218022 0.00018291124207592396 -1 0 0
4913 7 47.57999963098483 9.156775807452021 0.00018291124207723476 0 0 0
4919 1 48.8000003131471 8.452407878966739 0.5719313626396213 0 0 0
4593 7 50.019999630984834 9.15677580745202 0.00018291124207944287 -1 0 0
4599 1 51.24000031314711 8.452407878966737 0.5719313626396236 -1 0 0
4601 7 52.459999630984846 9.15677580745202 0.0001829112420784502 -1 0 0
4920 1 47.580000313147096 10.565509864200736 0.5719313626396224 0 0 0
4600 1 50.0200003131471 10.565509864200738 0.5719313626396202 -1 0 0
4608 1 52.460000313147106 10.565509864200736 0.5719313626396212 -1 0 0
4914 7 48.799999630984836 11.269877792686021 0.00018291124207973046 0 0 0
4594 7 51.23999963098484 11.269877792686025 0.00018291124207738224 -1 0 0
4288 1 54.90000031314711 6.339305893732736 0.5719313626396222 -1 0 0
4296 1 57.34000031314711 6.339305893732736 0.571931362639622 -1 0 0
4274 7 53.679999630984845 7.04367382221802 0.0001829112420772795 -1 0 0
4282 7 56.11999963098484 7.043673822218021 0.00018291124207634197 -1 0 0
4290 7 58.55999963098484 7.043673822218021 0.00018291124207634178 -1 0 0
4607 1 53.680000313147104 8.452407878966737 0.5719313626396222 -1 0 0
4609 7 54.899999630984844 9.156775807452021 0.00018291124207737232 -1 0 0
4615 1 56.12000031314711 8.452407878966737 0.5719313626396232 -1 0 0
4617 7 57.33999963098484 9.156775807452021 0.00018291124207751245 -1 0 0
4623 1 58.56000031314711 8.452407878966737 0.5719313626396232 -1 0 0
4616 1 54.90000031314711 10.565509864200736 0.5719313626396222 -1 0 0
4624 1 57.34000031314711 10.565509864200736 0.5719313626396221 -1 0 0
4602 7 53.679999630984845 11.269877792686023 0.00018291124207874064 -1 0 0
4610 7 56.11999963098484 11.269877792686025 0.00018291124207780023 -1 0 0
4618 7 58.55999963098484 11.269877792686025 0.00018291124207779998 -1 0 0
4304 1 59.780000313147106 6.339305893732736 0.571931362639622 -1 0 0
4312 1 62.220000313147104 6.339305893732738 0.571931362639621 -1 0 0
4320 1 64.66000031314711 6.339305893732735 0.5719313626396232 -1 0 0
4298 7 60.99999963098484 7.043673822218021 0.00018291124207620152 -1 0 0
4306 7 63.439999630984836 7.043673822218021 0.000182911242076282 -1 0 0
4625 7 59.77999963098484 9.156775807452021 0.00018291124207751245 -1 0 0
4631 1 61.000000313147105 8.452407878966737 0.5719313626396233 -1 0 0
4633 7 62.219999630984844 9.15677580745202 0.00018291124207858462 -1 0 0
4639 1 63.4400003131471 8.452407878966737 0.5719313626396232 -1 0 0
4641 7 64.65999963098484 9.156775807452021 0.000182911242076375 -1 0 0
4632 1 59.780000313147106 10.565509864200736 0.5719313626396221 -1 0 0
4640 1 62.220000313147104 10.565509864200736 0.5719313626396211 -1 0 0
4648 1 64.66000031314711 10.565509864200735 0.5719313626396232 -1 0 0
4626 7 60.99999963098484 11.269877792686025 0.0001829112420776598 -1 0 0
4634 7 63.439999630984836 11.269877792686025 0.00018291124207774607 -1 0 0
4328 1 67.1000003131471 6.339305893732739 0.5719313626396201 -1 0 0
4336 1 69.5400003131471 6.339305893732736 0.5719313626396223 -1 0 0
4314 7 65.87999963098484 7.043673822218021 0.00018291124207619891 -1 0 0
4322 7 68.31999963098484 7.043673822218019 0.00018291124207827234 -1 0 0
4647 1 65.8800003131471 8.452407878966737 0.5719313626396233 -1 0 0
4649 7 67.09999963098484 9.15677580745202 0.00018291124207944298 -1 0 0
4655 1 68.3200003131471 8.452407878966739 0.5719313626396213 -1 0 0
4657 7 69.53999963098485 9.156775807452021 0.00018291124207723492 -1 0 0
4656 1 67.1000003131471 10.565509864200738 0.5719313626396202 -1 0 0
4664 1 69.5400003131471 10.565509864200736 0.5719313626396224 -1 0 0
4642 7 65.87999963098484 11.269877792686025 0.00018291124207765717 -1 0 0
4650 7 68.31999963098484 11.269877792686021 0.00018291124207973062 -1 0 0
4344 1 71.9800003131471 6.339305893732736 0.571931362639622 -1 0 0
4352 1 74.4200003131471 6.339305893732736 0.571931362639622 -1 0 0
4330 7 70.75999963098485 7.043673822218021 0.0001829112420763421 -1 0 0
4338 7 73.19999963098485 7.043673822218021 0.00018291124207634173 -1 0 0
4346 7 75.63999963098485 7.043673822218021 0.00018291124207634143 -1 0 0
4663 1 70.7600003131471 8.452407878966737 0.5719313626396232 -1 0 0
4665 7 71.97999963098485 9.156775807452021 0.0001829112420775125 -1 0 0
4671 1 73.2000003131471 8.452407878966737 0.5719313626396232 -1 0 0
4673 7 74.41999963098485 9.156775807452021 0.00018291124207751213 -1 0 0
4679 1 75.6400003131471 8.452407878966737 0.5719313626396232 -1 0 0
4672 1 71.9800003131471 10.565509864200736 0.5719313626396221 -1 0 0
4680 1 74.4200003131471 10.565509864200736 0.5719313626396221 -1 0 0
4658 7 70.75999963098485 11.269877792686025 0.00018291124207780033 -1 0 0
4666 7 73.19999963098485 11.269877792686025 0.00018291124207779996 -1 0 0
4674 7 75.63999963098485 11.269877792686025 0.00018291124207779963 -1 0 0
4360 1 76.8600003131471 6.339305893732736 0.5719313626396223 -1 0 0
4368 1 79.30000031314711 6.339305893732739 0.5719313626396201 -1 0 0
4376 1 81.7400003131471 6.339305893732736 0.571931362639622 -1 0 0
4354 7 78.07999963098484 7.043673822218019 0.00018291124207827166 -1 0 0
4362 7 80.51999963098486 7.043673822218021 0.00018291124207606404 -1 0 0
4681 7 76.85999963098484 9.156775807452021 0.0001829112420772342 -1 0 0
4687 1 78.08000031314711 8.452407878966739 0.5719313626396212 -1 0 0
4689 7 79.29999963098484 9.15677580745202 0.00018291124207944252 -1 0 0
4695 1 80.52000031314711 8.452407878966737 0.5719313626396234 -1 0 0
4697 7 81.73999963098485 9.156775807452021 0.0001829112420775127 -1 0 0
4688 1 76.8600003131471 10.565509864200736 0.5719313626396224 -1 0 0
4696 1 79.30000031314711 10.565509864200738 0.5719313626396202 -1 0 0
4704 1 81.7400003131471 10.565509864200736 0.5719313626396221 -1 0 0
4682 7 78.07999963098484 11.269877792686021 0.00018291124207972984 -1 0 0
4690 7 80.51999963098486 11.269877792686025 0.00018291124207752224 -1 0 0
4384 1 84.1800003131471 6.339305893732736 0.571931362639622 -1 0 0
4392 1 86.6200003131471 6.339305893732736 0.571931362639622 -1 0 0
4370 7 82.95999963098485 7.043673822218021 0.0001829112420763421 -1 0 0
4378 7 85.39999963098485 7.043673822218021 0.00018291124207634214 -1 0 0
4386 7 87.83999963098485 7.043673822218021 0.0001829112420763421 -1 0 0
4703 1 82.9600003131471 8.452407878966737 0.5719313626396232 -1 0 0
4705 7 84.17999963098485 9.156775807452021 0.0001829112420775128 -1 0 0
4711 1 85.4000003131471 8.452407878966737 0.5719313626396232 -1 0 0
4713 7 86.61999963098485 9.156775807452021 0.0001829112420775128 -1 0 0
4719 1 87.8400003131471 8.452407878966737 0.5719313626396232 -1 0 0
4712 1 84.1800003131471 10.565509864200736 0.5719313626396221 -1 0 0