LAMMPS data file via write_data, version 29 Aug 2024, timestep = 8, units = metal

9768 atoms
12 atom types

0 99.596420110374 xlo xhi
0 99.822774822517 ylo yhi
-50 50 zlo zhi

Masses

1 28.085
2 28.085
3 28.085
4 28.085
5 28.085
6 28.085
7 15.999
8 15.999
9 15.999
10 15.999
11 15.999
12 15.999

Atoms # atomic

1720 8 1.010008443118059 1.348947625508581 1.3734212227730764 0 0 0
1718 2 2.245627634229156 1.3489579982695588 -0.009493712658630795 0 0 0
1724 8 5.537118448135062 1.3489476255085806 1.3734212227730782 0 0 0
1719 7 3.2659281070256503 2.697915033274366 0.6914003689484177 0 0 0
1808 8 1.010008443118057 4.04686045854958 1.3734212227730773 0 0 0
1806 2 2.2456276342291543 4.046870831310562 -0.009493712658628637 0 0 0
1812 8 5.537118448135061 4.04686045854958 1.3734212227730775 0 0 0
1807 7 3.26592810702565 5.39582786631537 0.6914003689484168 0 0 0
1721 1 4.511619448425635 2.697904670169793 2.064485649784936 0 0 0
1809 1 4.511619448425634 5.3958175032107905 2.064485649784936 0 0 0
1631 7 3.2659281070256503 2.200233367943838e-06 0.6914003689484176 0 0 0
1722 2 6.772737639246156 1.34895799826956 -0.009493712658630171 0 0 0
1728 8 10.06422845315206 1.3489476255085808 1.373421222773076 0 0 0
1726 2 11.29984764426316 1.3489579982695608 -0.00949371265862806 0 0 0
1723 7 7.793038112042651 2.6979150332743664 0.6914003689484176 0 0 0
1810 2 6.772737639246155 4.046870831310562 -0.009493712658628285 0 0 0
1816 8 10.06422845315206 4.04686045854958 1.3734212227730762 0 0 0
1814 2 11.299847644263158 4.046870831310561 -0.009493712658626753 0 0 0
1811 7 7.79303811204265 5.39582786631537 0.6914003689484173 0 0 0
1725 1 9.038729453442635 2.6979046701697933 2.064485649784936 0 0 0
1813 1 9.038729453442633 5.3958175032107905 2.064485649784936 0 0 0
1635 7 7.793038112042652 2.200233367943838e-06 0.6914003689484188 0 0 0
1732 8 14.59133845816906 1.348947625508578 1.3734212227730729 0 0 0
1730 2 15.826957649280157 1.3489579982695579 -0.009493712658631808 0 0 0
1727 7 12.320148117059652 2.6979150332743664 0.6914003689484186 0 0 0
1731 7 16.84725812207665 2.697915033274364 0.6914003689484165 0 0 0
1820 8 14.591338458169059 4.04686045854958 1.3734212227730735 0 0 0
1818 2 15.826957649280155 4.04687083131056 -0.009493712658630235 0 0 0
1815 7 12.320148117059652 5.395827866315369 0.6914003689484177 0 0 0
1819 7 16.84725812207665 5.395827866315369 0.6914003689484158 0 0 0
1729 1 13.565839458459637 2.6979046701697924 2.0644856497849373 0 0 0
1817 1 13.565839458459635 5.395817503210791 2.064485649784938 0 0 0
1639 7 12.320148117059656 2.200233367943838e-06 0.6914003689484197 0 0 0
1643 7 16.84725812207665 2.200233367943838e-06 0.6914003689484179 0 0 0
1736 8 19.118448463186066 1.3489476255085777 1.3734212227730818 0 0 0
1734 2 20.35406765429716 1.3489579982695585 -0.009493712658630136 0 0 0
1735 7 21.374368127093653 2.6979150332743655 0.691400368948418 0 0 0
1824 8 19.118448463186066 4.04686045854958 1.3734212227730813 0 0 0
1822 2 20.354067654297157 4.046870831310561 -0.009493712658626207 0 0 0
1823 7 21.374368127093653 5.395827866315369 0.691400368948417 0 0 0
1733 1 18.092949463476636 2.6979046701697915 2.064485649784934 0 0 0
1737 1 22.620059468493636 2.6979046701697924 2.0644856497849373 0 0 0
1821 1 18.092949463476636 5.395817503210791 2.0644856497849347 0 0 0
1825 1 22.620059468493636 5.395817503210791 2.064485649784937 0 0 0
1647 7 21.374368127093653 2.200233367943838e-06 0.6914003689484197 0 0 0
1740 8 23.64555846820306 1.34894762550858 1.373421222773073 0 0 0
1738 2 24.881177659314158 1.348957998269559 -0.009493712658633144 0 0 0
1744 8 28.172668473220067 1.3489476255085808 1.3734212227730827 0 0 0
1739 7 25.90147813211065 2.697915033274365 0.6914003689484177 0 0 0
1828 8 23.645558468203056 4.04686045854958 1.373421222773073 0 0 0
1826 2 24.881177659314158 4.046870831310561 -0.009493712658630296 0 0 0
1832 8 28.172668473220064 4.04686045854958 1.3734212227730787 0 0 0
1827 7 25.90147813211065 5.395827866315369 0.6914003689484167 0 0 0
1741 1 27.147169473510633 2.6979046701697915 2.064485649784934 0 0 0
1829 1 27.147169473510637 5.395817503210792 2.0644856497849355 0 0 0
1651 7 25.901478132110647 2.200233367943838e-06 0.6914003689484179 0 0 0
1742 2 29.408287664331162 1.3489579982695594 -0.009493712658630258 0 0 0
1746 2 33.93539766934815 1.3489579982695592 -0.00949371265863179 0 0 0
1748 8 32.69977847823706 1.3489476255085804 1.373421222773078 0 0 0
1743 7 30.42858813712765 2.697915033274367 0.6914003689484194 0 0 0
1747 7 34.955698142144655 2.697915033274365 0.691400368948414 0 0 0
1830 2 29.40828766433116 4.046870831310561 -0.00949371265862677 0 0 0
1834 2 33.935397669348156 4.046870831310563 -0.00949371265862951 0 0 0
1836 8 32.69977847823706 4.04686045854958 1.3734212227730762 0 0 0
1831 7 30.42858813712765 5.395827866315369 0.691400368948419 0 0 0
1835 7 34.955698142144655 5.395827866315371 0.691400368948414 0 0 0
1745 1 31.674279478527634 2.6979046701697946 2.0644856497849386 0 0 0
1833 1 31.674279478527634 5.3958175032107905 2.064485649784938 0 0 0
1655 7 30.428588137127655 2.200233367943838e-06 0.6914003689484178 0 0 0
1659 7 34.955698142144655 2.200233367943838e-06 0.691400368948416 0 0 0
1752 8 37.226888483254065 1.3489476255085786 1.3734212227730775 0 0 0
1750 2 38.462507674365156 1.3489579982695588 -0.00949371265862814 0 0 0
1751 7 39.48280814716165 2.697915033274364 0.6914003689484202 0 0 0
1840 8 37.22688848325406 4.04686045854958 1.3734212227730758 0 0 0
1838 2 38.462507674365156 4.04687083131056 -0.009493712658629527 0 0 0
1839 7 39.48280814716165 5.39582786631537 0.6914003689484187 0 0 0
1749 1 36.20138948354463 2.6979046701697924 2.0644856497849333 0 0 0
1753 1 40.72849948856163 2.697904670169791 2.0644856497849373 0 0 0
1837 1 36.20138948354464 5.395817503210791 2.064485649784936 0 0 0
1841 1 40.72849948856163 5.3958175032107905 2.064485649784938 0 0 0
1663 7 39.48280814716165 2.2002333537329832e-06 0.6914003689484207 0 0 0
1756 8 41.75399848827105 1.3489476255085764 1.3734212227730753 0 0 0
1754 2 42.98961767938216 1.3489579982695599 -0.009493712658626587 0 0 0
1760 8 46.28110849328805 1.3489476255085786 1.3734212227730742 0 0 0
1755 7 44.009918152178656 2.6979150332743655 0.6914003689484104 0 0 0
1844 8 41.75399848827105 4.046860458549579 1.373421222773075 0 0 0
1842 2 42.98961767938215 4.046870831310559 -0.009493712658626056 0 0 0
1848 8 46.28110849328805 4.04686045854958 1.3734212227730773 0 0 0
1843 7 44.009918152178656 5.395827866315369 0.6914003689484107 0 0 0
1757 1 45.25560949357863 2.697904670169793 2.0644856497849373 0 0 0
1845 1 45.255609493578625 5.395817503210791 2.064485649784936 0 0 0
1667 7 44.009918152178656 2.200233367943838e-06 0.6914003689484168 0 0 0
1758 2 47.51672768439916 1.348957998269556 -0.009493712658633061 0 0 0
1676 8 50.80821849830506 1.348947625508576 1.3734212227730787 -1 0 0
1674 2 52.04383768941615 1.3489579982695583 -0.009493712658629251 -1 0 0
1759 7 48.53702815719564 2.6979150332743638 0.6914003689484178 0 0 0
1846 2 47.51672768439915 4.04687083131056 -0.009493712658631423 0 0 0
1764 8 50.80821849830506 4.04686045854958 1.373421222773079 -1 0 0
1762 2 52.04383768941615 4.046870831310562 -0.00949371265862659 -1 0 0
1847 7 48.53702815719564 5.39582786631537 0.6914003689484175 0 0 0
1673 1 49.782719498595625 2.6979046701697915 2.0644856497849338 -1 0 0
1761 1 49.782719498595625 5.395817503210791 2.0644856497849347 -1 0 0
1671 7 48.53702815719564 2.2002333537329832e-06 0.6914003689484189 0 0 0
1680 8 55.33532850332205 1.3489476255085773 1.3734212227730738 -1 0 0
1678 2 56.57094769443315 1.3489579982695594 -0.009493712658627175 -1 0 0
1675 7 53.06413816221265 2.6979150332743655 0.6914003689484204 -1 0 0
1679 7 57.59124816722965 2.6979150332743647 0.6914003689484165 -1 0 0
1768 8 55.33532850332205 4.04686045854958 1.3734212227730718 -1 0 0
1766 2 56.57094769443315 4.046870831310561 -0.009493712658627182 -1 0 0
1763 7 53.06413816221265 5.395827866315369 0.6914003689484178 -1 0 0
1767 7 57.59124816722965 5.39582786631537 0.6914003689484172 -1 0 0
1677 1 54.309829503612626 2.6979046701697915 2.0644856497849364 -1 0 0
1765 1 54.309829503612626 5.3958175032107905 2.064485649784939 -1 0 0
1587 7 53.06413816221265 2.200233367943838e-06 0.6914003689484188 -1 0 0
1591 7 57.591248167229644 2.2002333537329832e-06 0.6914003689484193 -1 0 0
1684 8 59.862438508339054 1.348947625508577 1.3734212227730722 -1 0 0
1682 2 61.09805769945015 1.34895799826956 -0.009493712658628965 -1 0 0
1688 8 64.38954851335606 1.34894762550858 1.3734212227730802 -1 0 0
1683 7 62.118358172246644 2.697915033274364 0.6914003689484169 -1 0 0
1772 8 59.862438508339054 4.046860458549579 1.373421222773071 -1 0 0
1770 2 61.09805769945015 4.04687083131056 -0.009493712658628275 -1 0 0
1776 8 64.38954851335605 4.046860458549579 1.373421222773068 -1 0 0
1771 7 62.118358172246644 5.39582786631537 0.6914003689484167 -1 0 0
1681 1 58.836939508629634 2.6979046701697915 2.0644856497849373 -1 0 0
1685 1 63.36404951364663 2.6979046701697906 2.064485649784939 -1 0 0
1769 1 58.836939508629634 5.395817503210791 2.064485649784938 -1 0 0
1773 1 63.36404951364663 5.395817503210791 2.0644856497849395 -1 0 0
1595 7 62.118358172246644 2.200233367943838e-06 0.6914003689484185 -1 0 0
1686 2 65.62516770446715 1.3489579982695628 -0.009493712658635004 -1 0 0
1692 8 68.91665851837305 1.3489476255085788 1.3734212227730818 -1 0 0
1690 2 70.15227770948417 1.3489579982695572 -0.009493712658632162 -1 0 0
1687 7 66.64546817726364 2.6979150332743664 0.6914003689484172 -1 0 0
1774 2 65.62516770446716 4.046870831310559 -0.009493712658628604 -1 0 0
1780 8 68.91665851837305 4.046860458549581 1.3734212227730862 -1 0 0
1778 2 70.15227770948415 4.046870831310564 -0.009493712658628644 -1 0 0
1775 7 66.64546817726364 5.395827866315369 0.6914003689484144 -1 0 0
1689 1 67.89115951866364 2.697904670169793 2.06448564978493 -1 0 0
1777 1 67.89115951866363 5.3958175032107905 2.0644856497849315 -1 0 0
1599 7 66.64546817726364 2.2002333537329832e-06 0.6914003689484166 -1 0 0
1696 8 73.44376852339006 1.3489476255085777 1.373421222773069 -1 0 0
1694 2 74.67938771450116 1.348957998269558 -0.009493712658626939 -1 0 0
1691 7 71.17257818228065 2.6979150332743655 0.691400368948415 -1 0 0
1695 7 75.69968818729765 2.697915033274364 0.691400368948423 -1 0 0
1784 8 73.44376852339006 4.046860458549579 1.3734212227730642 -1 0 0
1782 2 74.67938771450116 4.04687083131056 -0.009493712658628887 -1 0 0
1779 7 71.17257818228065 5.395827866315369 0.6914003689484204 -1 0 0
1783 7 75.69968818729764 5.395827866315371 0.6914003689484218 -1 0 0
1693 1 72.41826952368064 2.6979046701697933 2.064485649784939 -1 0 0
1781 1 72.41826952368064 5.395817503210791 2.0644856497849386 -1 0 0
1603 7 71.17257818228065 2.2002333537329832e-06 0.691400368948412 -1 0 0
1607 7 75.69968818729765 2.200233367943838e-06 0.6914003689484239 -1 0 0
1700 8 77.97087852840706 1.3489476255085793 1.373421222773074 -1 0 0
1698 2 79.20649771951815 1.3489579982695576 -0.009493712658629123 -1 0 0
1699 7 80.22679819231465 2.697915033274367 0.691400368948416 -1 0 0
1788 8 77.97087852840706 4.04686045854958 1.3734212227730753 -1 0 0
1786 2 79.20649771951814 4.046870831310562 -0.009493712658629602 -1 0 0
1787 7 80.22679819231465 5.395827866315371 0.6914003689484138 -1 0 0
1697 1 76.94537952869763 2.697904670169792 2.064485649784939 -1 0 0
1701 1 81.47248953371464 2.697904670169793 2.064485649784934 -1 0 0
1785 1 76.94537952869763 5.395817503210791 2.0644856497849404 -1 0 0
1789 1 81.47248953371464 5.395817503210791 2.0644856497849338 -1 0 0
1611 7 80.22679819231466 2.200233367943838e-06 0.6914003689484074 -1 0 0
1704 8 82.49798853342406 1.3489476255085802 1.3734212227730762 -1 0 0
1702 2 83.73360772453515 1.3489579982695596 -0.009493712658629458 -1 0 0
1708 8 87.02509853844106 1.3489476255085784 1.3734212227730809 -1 0 0
1703 7 84.75390819733165 2.6979150332743655 0.6914003689484137 -1 0 0
1792 8 82.49798853342406 4.04686045854958 1.373421222773075 -1 0 0
1790 2 83.73360772453516 4.046870831310561 -0.009493712658628223 -1 0 0
1796 8 87.02509853844106 4.04686045854958 1.3734212227730818 -1 0 0
1791 7 84.75390819733165 5.39582786631537 0.691400368948414 -1 0 0
1705 1 85.99959953873163 2.697904670169793 2.064485649784935 -1 0 0
1793 1 85.99959953873163 5.395817503210791 2.0644856497849347 -1 0 0
1615 7 84.75390819733164 2.200233367943838e-06 0.6914003689484124 -1 0 0
1706 2 88.26071772955217 1.348957998269556 -0.00949371265862967 -1 0 0
1710 2 92.78782773456916 1.3489579982695588 -0.009493712658627015 -1 0 0
1712 8 91.55220854345806 1.3489476255085768 1.373421222773068 -1 0 0
1707 7 89.28101820234865 2.6979150332743647 0.6914003689484243 -1 0 0
1794 2 88.26071772955216 4.046870831310561 -0.009493712658629675 -1 0 0
1798 2 92.78782773456916 4.04687083131056 -0.009493712658628101 -1 0 0
1800 8 91.55220854345806 4.046860458549579 1.373421222773064 -1 0 0
1795 7 89.28101820234865 5.39582786631537 0.6914003689484272 -1 0 0
1709 1 90.52670954374864 2.6979046701697933 2.064485649784936 -1 0 0
1797 1 90.52670954374864 5.3958175032107905 2.0644856497849364 -1 0 0
1619 7 89.28101820234865 2.2002333537329832e-06 0.6914003689484252 -1 0 0
1717 1 99.58092955378264 2.697904670169793 2.0644856497849378 -1 0 0
1805 1 99.58092955378262 5.395817503210791 2.064485649784939 -1 0 0
1716 8 96.07931854847506 1.3489476255085793 1.3734212227730698 -1 0 0
1714 2 97.31493773958616 1.3489579982695585 -0.009493712658628778 -1 0 0
1711 7 93.80812820736564 2.6979150332743655 0.6914003689484259 -1 0 0
1715 7 98.33523821238265 2.697915033274366 0.6914003689484127 -1 0 0
1804 8 96.07931854847506 4.046860458549581 1.3734212227730729 -1 0 0
1802 2 97.31493773958616 4.046870831310561 -0.009493712658628304 -1 0 0
1799 7 93.80812820736564 5.395827866315372 0.6914003689484228 -1 0 0
1803 7 98.33523821238266 5.39582786631537 0.6914003689484088 -1 0 0
1713 1 95.05381954876563 2.697904670169793 2.064485649784941 -1 0 0
1801 1 95.05381954876563 5.395817503210791 2.064485649784939 -1 0 0
1623 7 93.80812820736564 2.200233367943838e-06 0.6914003689484269 -1 0 0
1627 7 98.33523821238265 2.200233367943838e-06 0.6914003689484142 -1 0 0
1896 8 1.010008443118058 6.74477329159058 1.373421222773077 0 0 0
1894 2 2.2456276342291552 6.744783664351565 -0.009493712658629827 0 0 0
1895 7 3.2659281070256507 8.09374069935637 0.6914003689484169 0 0 0
1900 8 5.537118448135062 6.74477329159058 1.3734212227730775 0 0 0
1984 8 1.0100084431180594 9.442686124631582 1.3734212227730755 0 0 0
1982 2 2.2456276342291557 9.442696497392564 -0.009493712658631314 0 0 0
1988 8 5.537118448135063 9.44268612463158 1.3734212227730784 0 0 0
1983 7 3.2659281070256507 10.79165353239737 0.6914003689484165 0 0 0
1897 1 4.511619448425635 8.09373033625179 2.064485649784935 0 0 0
1985 1 4.511619448425635 10.79164316929279 2.064485649784936 0 0 0
1898 2 6.772737639246156 6.744783664351565 -0.009493712658629657 0 0 0
1899 7 7.793038112042651 8.09374069935637 0.6914003689484165 0 0 0
1904 8 10.06422845315206 6.744773291590579 1.3734212227730755 0 0 0
1902 2 11.299847644263158 6.744783664351564 -0.009493712658628126 0 0 0
1986 2 6.772737639246155 9.442696497392564 -0.009493712658630696 0 0 0
1992 8 10.06422845315206 9.442686124631578 1.373421222773076 0 0 0
1990 2 11.299847644263158 9.442696497392564 -0.009493712658628067 0 0 0
1987 7 7.79303811204265 10.79165353239737 0.6914003689484168 0 0 0
1901 1 9.038729453442633 8.09373033625179 2.0644856497849347 0 0 0
1989 1 9.038729453442633 10.79164316929279 2.0644856497849364 0 0 0
1903 7 12.320148117059654 8.09374069935637 0.6914003689484184 0 0 0
1908 8 14.591338458169059 6.744773291590579 1.3734212227730738 0 0 0
1906 2 15.826957649280155 6.744783664351564 -0.009493712658632062 0 0 0
1907 7 16.84725812207665 8.09374069935637 0.6914003689484169 0 0 0
1996 8 14.59133845816906 9.44268612463158 1.3734212227730742 0 0 0
1994 2 15.826957649280157 9.442696497392564 -0.009493712658632528 0 0 0
1991 7 12.320148117059654 10.791653532397369 0.6914003689484178 0 0 0
1995 7 16.84725812207665 10.79165353239737 0.6914003689484167 0 0 0
1905 1 13.565839458459637 8.093730336251792 2.064485649784936 0 0 0
1993 1 13.565839458459637 10.79164316929279 2.0644856497849373 0 0 0
1912 8 19.118448463186066 6.744773291590579 1.37342122277308 0 0 0
1910 2 20.354067654297157 6.744783664351564 -0.009493712658628462 0 0 0
1911 7 21.374368127093653 8.09374069935637 0.6914003689484185 0 0 0
2000 8 19.118448463186066 9.44268612463158 1.3734212227730815 0 0 0
1998 2 20.35406765429716 9.442696497392564 -0.009493712658628672 0 0 0
1999 7 21.374368127093653 10.79165353239737 0.6914003689484176 0 0 0
1909 1 18.09294946347664 8.09373033625179 2.064485649784933 0 0 0
1913 1 22.62005946849364 8.09373033625179 2.064485649784936 0 0 0
1997 1 18.092949463476636 10.79164316929279 2.064485649784935 0 0 0
2001 1 22.62005946849364 10.79164316929279 2.064485649784936 0 0 0
1916 8 23.645558468203063 6.744773291590579 1.3734212227730733 0 0 0
1914 2 24.881177659314158 6.744783664351563 -0.009493712658633177 0 0 0
1915 7 25.90147813211065 8.093740699356369 0.6914003689484175 0 0 0
1920 8 28.172668473220067 6.74477329159058 1.3734212227730807 0 0 0
2004 8 23.645558468203063 9.442686124631578 1.3734212227730713 0 0 0
2002 2 24.881177659314158 9.442696497392562 -0.009493712658632717 0 0 0
2008 8 28.172668473220067 9.44268612463158 1.3734212227730818 0 0 0
2003 7 25.901478132110654 10.791653532397369 0.6914003689484182 0 0 0
1917 1 27.147169473510637 8.093730336251792 2.0644856497849333 0 0 0
2005 1 27.147169473510637 10.79164316929279 2.0644856497849364 0 0 0
1918 2 29.40828766433116 6.744783664351564 -0.00949371265862896 0 0 0
1919 7 30.428588137127655 8.09374069935637 0.6914003689484183 0 0 0
1922 2 33.935397669348156 6.744783664351564 -0.00949371265863033 0 0 0
1924 8 32.69977847823706 6.74477329159058 1.3734212227730769 0 0 0
1923 7 34.955698142144655 8.09374069935637 0.6914003689484096 0 0 0
2006 2 29.40828766433116 9.442696497392562 -0.009493712658629175 0 0 0
2010 2 33.935397669348156 9.442696497392564 -0.009493712658630318 0 0 0
2012 8 32.69977847823706 9.44268612463158 1.3734212227730789 0 0 0
2007 7 30.428588137127655 10.791653532397369 0.6914003689484173 0 0 0
2011 7 34.955698142144655 10.791653532397369 0.6914003689484135 0 0 0
1921 1 31.674279478527637 8.09373033625179 2.0644856497849386 0 0 0
2009 1 31.674279478527634 10.79164316929279 2.0644856497849386 0 0 0
1928 8 37.22688848325406 6.74477329159058 1.3734212227730767 0 0 0
1926 2 38.462507674365156 6.744783664351564 -0.009493712658630514 0 0 0
1927 7 39.48280814716165 8.093740699356369 0.691400368948419 0 0 0
2016 8 37.22688848325406 9.442686124631578 1.3734212227730778 0 0 0
2014 2 38.462507674365156 9.442696497392562 -0.009493712658629581 0 0 0
2015 7 39.48280814716165 10.791653532397369 0.6914003689484178 0 0 0
1925 1 36.20138948354463 8.09373033625179 2.064485649784935 0 0 0
1929 1 40.72849948856163 8.09373033625179 2.0644856497849373 0 0 0
2013 1 36.20138948354464 10.79164316929279 2.0644856497849364 0 0 0
2017 1 40.72849948856163 10.79164316929279 2.0644856497849386 0 0 0
1932 8 41.75399848827105 6.74477329159058 1.3734212227730775 0 0 0
1930 2 42.98961767938215 6.744783664351563 -0.009493712658627246 0 0 0
1931 7 44.009918152178656 8.09374069935637 0.6914003689484114 0 0 0
1936 8 46.28110849328805 6.74477329159058 1.3734212227730769 0 0 0
2020 8 41.75399848827105 9.44268612463158 1.3734212227730738 0 0 0
2018 2 42.98961767938215 9.442696497392564 -0.009493712658626235 0 0 0
2024 8 46.28110849328805 9.44268612463158 1.373421222773075 0 0 0
2019 7 44.009918152178656 10.791653532397369 0.691400368948413 0 0 0
1933 1 45.255609493578625 8.09373033625179 2.064485649784936 0 0 0
2021 1 45.255609493578625 10.79164316929279 2.0644856497849364 0 0 0
1934 2 47.51672768439915 6.744783664351565 -0.009493712658632485 0 0 0
1935 7 48.53702815719564 8.09374069935637 0.691400368948416 0 0 0
1852 8 50.80821849830506 6.744773291590579 1.373421222773078 -1 0 0
1850 2 52.04383768941615 6.744783664351564 -0.00949371265862686 -1 0 0
2022 2 47.51672768439915 9.442696497392564 -0.009493712658634197 0 0 0
1940 8 50.80821849830506 9.44268612463158 1.3734212227730784 -1 0 0
1938 2 52.04383768941615 9.442696497392562 -0.009493712658626871 -1 0 0
2023 7 48.53702815719564 10.79165353239737 0.6914003689484172 0 0 0
1849 1 49.782719498595625 8.093730336251792 2.0644856497849333 -1 0 0
1937 1 49.782719498595625 10.79164316929279 2.0644856497849347 -1 0 0
1851 7 53.06413816221265 8.09374069935637 0.6914003689484185 -1 0 0
1856 8 55.33532850332205 6.744773291590579 1.3734212227730738 -1 0 0
1854 2 56.57094769443315 6.744783664351564 -0.009493712658627654 -1 0 0
1855 7 57.59124816722965 8.09374069935637 0.6914003689484172 -1 0 0
1944 8 55.33532850332205 9.44268612463158 1.373421222773073 -1 0 0
1942 2 56.570947694433144 9.442696497392562 -0.009493712658629487 -1 0 0
1939 7 53.06413816221265 10.791653532397369 0.691400368948419 -1 0 0
1943 7 57.591248167229644 10.791653532397369 0.6914003689484182 -1 0 0
1853 1 54.30982950361263 8.093730336251792 2.0644856497849378 -1 0 0
1941 1 54.30982950361263 10.791643169292792 2.064485649784938 -1 0 0
1860 8 59.86243850833906 6.744773291590579 1.3734212227730715 -1 0 0
1858 2 61.09805769945015 6.744783664351564 -0.009493712658629253 -1 0 0
1859 7 62.118358172246644 8.09374069935637 0.6914003689484148 -1 0 0
1864 8 64.38954851335605 6.74477329159058 1.3734212227730695 -1 0 0
1948 8 59.862438508339054 9.44268612463158 1.3734212227730722 -1 0 0
1946 2 61.09805769945015 9.442696497392564 -0.009493712658629132 -1 0 0
1952 8 64.38954851335605 9.44268612463158 1.3734212227730698 -1 0 0
1947 7 62.118358172246644 10.79165353239737 0.6914003689484156 -1 0 0
1857 1 58.836939508629634 8.09373033625179 2.0644856497849373 -1 0 0
1861 1 63.36404951364663 8.093730336251792 2.0644856497849386 -1 0 0
1945 1 58.83693950862963 10.79164316929279 2.0644856497849364 -1 0 0
1949 1 63.36404951364663 10.791643169292792 2.0644856497849395 -1 0 0
1862 2 65.62516770446715 6.744783664351564 -0.009493712658629512 -1 0 0
1863 7 66.64546817726364 8.09374069935637 0.6914003689484163 -1 0 0
1868 8 68.91665851837307 6.744773291590579 1.3734212227730835 -1 0 0
1866 2 70.15227770948417 6.744783664351566 -0.009493712658627656 -1 0 0
1950 2 65.62516770446715 9.442696497392562 -0.00949371265862959 -1 0 0
1956 8 68.91665851837307 9.44268612463158 1.373421222773084 -1 0 0
1954 2 70.15227770948417 9.44269649739256 -0.009493712658628934 -1 0 0
1951 7 66.64546817726364 10.791653532397369 0.6914003689484126 -1 0 0
1865 1 67.89115951866364 8.093730336251792 2.0644856497849324 -1 0 0
1953 1 67.89115951866363 10.791643169292788 2.064485649784934 -1 0 0
1867 7 71.17257818228066 8.09374069935637 0.6914003689484148 -1 0 0
1872 8 73.44376852339006 6.74477329159058 1.373421222773072 -1 0 0
1870 2 74.67938771450116 6.744783664351565 -0.009493712658630766 -1 0 0
1871 7 75.69968818729764 8.09374069935637 0.6914003689484178 -1 0 0
1960 8 73.44376852339006 9.44268612463158 1.3734212227730722 -1 0 0
1958 2 74.67938771450116 9.442696497392564 -0.009493712658631647 -1 0 0
1955 7 71.17257818228065 10.79165353239737 0.6914003689484174 -1 0 0
1959 7 75.69968818729764 10.79165353239737 0.6914003689484184 -1 0 0
1869 1 72.41826952368064 8.093730336251792 2.064485649784941 -1 0 0
1957 1 72.41826952368064 10.791643169292792 2.0644856497849378 -1 0 0
1876 8 77.97087852840706 6.74477329159058 1.373421222773076 -1 0 0
1874 2 79.20649771951814 6.744783664351564 -0.009493712658630672 -1 0 0
1875 7 80.22679819231465 8.09374069935637 0.6914003689484133 -1 0 0
1964 8 77.97087852840706 9.44268612463158 1.3734212227730747 -1 0 0
1962 2 79.20649771951814 9.442696497392564 -0.009493712658631196 -1 0 0
1963 7 80.22679819231465 10.79165353239737 0.6914003689484135 -1 0 0
1873 1 76.94537952869763 8.093730336251792 2.0644856497849373 -1 0 0
1877 1 81.47248953371464 8.09373033625179 2.0644856497849333 -1 0 0
1961 1 76.94537952869763 10.791643169292792 2.0644856497849386 -1 0 0
1965 1 81.47248953371464 10.79164316929279 2.064485649784934 -1 0 0
1880 8 82.49798853342406 6.744773291590579 1.3734212227730744 -1 0 0
1878 2 83.73360772453516 6.744783664351564 -0.009493712658629765 -1 0 0
1879 7 84.75390819733165 8.09374069935637 0.6914003689484133 -1 0 0
1884 8 87.02509853844106 6.74477329159058 1.3734212227730809 -1 0 0
1968 8 82.49798853342406 9.44268612463158 1.3734212227730747 -1 0 0
1966 2 83.73360772453515 9.442696497392564 -0.009493712658630095 -1 0 0
1972 8 87.02509853844106 9.44268612463158 1.373421222773082 -1 0 0
1967 7 84.75390819733165 10.791653532397369 0.6914003689484137 -1 0 0
1881 1 85.99959953873163 8.09373033625179 2.0644856497849338 -1 0 0
1969 1 85.99959953873163 10.79164316929279 2.064485649784935 -1 0 0
1882 2 88.26071772955217 6.744783664351567 -0.009493712658628566 -1 0 0
1883 7 89.28101820234865 8.093740699356372 0.6914003689484198 -1 0 0
1886 2 92.78782773456916 6.744783664351565 -0.009493712658629926 -1 0 0
1888 8 91.55220854345806 6.74477329159058 1.373421222773072 -1 0 0
1970 2 88.26071772955217 9.442696497392564 -0.00949371265862659 -1 0 0
1974 2 92.78782773456916 9.442696497392564 -0.0094937126586344 -1 0 0
1976 8 91.55220854345806 9.44268612463158 1.373421222773079 -1 0 0
1971 7 89.28101820234865 10.791653532397369 0.69140036894842 -1 0 0
1885 1 90.52670954374864 8.093730336251792 2.0644856497849364 -1 0 0
1973 1 90.52670954374864 10.791643169292788 2.0644856497849373 -1 0 0
1893 1 99.58092955378264 8.093730336251792 2.0644856497849364 -1 0 0
1981 1 99.58092955378264 10.79164316929279 2.0644856497849386 -1 0 0
1887 7 93.80812820736564 8.09374069935637 0.69140036894842 -1 0 0
1892 8 96.07931854847506 6.744773291590578 1.3734212227730718 -1 0 0
1890 2 97.31493773958616 6.744783664351564 -0.009493712658629418 -1 0 0
1891 7 98.33523821238265 8.09374069935637 0.6914003689484104 -1 0 0
1980 8 96.07931854847506 9.442686124631582 1.3734212227730744 -1 0 0
1978 2 97.31493773958616 9.442696497392566 -0.009493712658627267 -1 0 0
1975 7 93.80812820736564 10.79165353239737 0.6914003689484189 -1 0 0
1979 7 98.33523821238266 10.791653532397369 0.6914003689484045 -1 0 0
1889 1 95.05381954876563 8.09373033625179 2.0644856497849386 -1 0 0
1977 1 95.05381954876563 10.79164316929279 2.064485649784941 -1 0 0
2072 8 1.0100084431180585 12.14059895767258 1.3734212227730749 0 0 0
2070 2 2.245627634229155 12.140609330433564 -0.009493712658629475 0 0 0
2076 8 5.537118448135062 12.140598957672578 1.3734212227730775 0 0 0
2071 7 3.26592810702565 13.489566365438373 0.6914003689484159 0 0 0
2160 8 1.0100084431180587 14.83851179071358 1.373421222773076 0 0 0
2158 2 2.245627634229156 14.838522163474567 -0.009493712658630611 0 0 0
2159 7 3.2659281070256503 16.187479198479373 0.6914003689484168 0 0 0
2164 8 5.537118448135062 14.83851179071358 1.373421222773078 0 0 0
2248 8 1.0100084431180583 17.53642462375458 1.3734212227730755 0 0 0
2246 2 2.245627634229155 17.536434996515567 -0.009493712658629888 0 0 0
2252 8 5.537118448135061 17.53642462375458 1.373421222773077 0 0 0
2073 1 4.511619448425634 13.489556002333789 2.064485649784935 0 0 0
2161 1 4.511619448425635 16.18746883537479 2.064485649784935 0 0 0
2074 2 6.772737639246155 12.140609330433564 -0.009493712658628842 0 0 0
2080 8 10.06422845315206 12.140598957672578 1.3734212227730758 0 0 0
2078 2 11.299847644263158 12.140609330433566 -0.009493712658626578 0 0 0
2075 7 7.79303811204265 13.489566365438371 0.6914003689484167 0 0 0
2162 2 6.772737639246156 14.838522163474567 -0.009493712658630646 0 0 0
2163 7 7.793038112042649 16.187479198479373 0.6914003689484159 0 0 0
2168 8 10.064228453152062 14.83851179071358 1.3734212227730767 0 0 0
2166 2 11.29984764426316 14.838522163474568 -0.00949371265862828 0 0 0
2250 2 6.772737639246155 17.536434996515567 -0.009493712658629123 0 0 0
2256 8 10.06422845315206 17.53642462375458 1.3734212227730755 0 0 0
2254 2 11.299847644263158 17.536434996515567 -0.009493712658627952 0 0 0
2077 1 9.038729453442635 13.489556002333789 2.0644856497849347 0 0 0
2165 1 9.038729453442635 16.18746883537479 2.0644856497849355 0 0 0
2084 8 14.59133845816906 12.14059895767258 1.373421222773074 0 0 0
2082 2 15.826957649280155 12.140609330433564 -0.009493712658631248 0 0 0
2079 7 12.320148117059654 13.489566365438373 0.691400368948417 0 0 0
2083 7 16.84725812207665 13.489566365438371 0.691400368948416 0 0 0
2167 7 12.320148117059652 16.187479198479377 0.6914003689484179 0 0 0
2172 8 14.591338458169059 14.838511790713582 1.3734212227730729 0 0 0
2170 2 15.826957649280157 14.838522163474568 -0.009493712658632454 0 0 0
2171 7 16.847258122076653 16.187479198479373 0.6914003689484141 0 0 0
2260 8 14.591338458169059 17.53642462375458 1.373421222773073 0 0 0
2258 2 15.826957649280155 17.536434996515567 -0.009493712658631583 0 0 0
2081 1 13.565839458459637 13.48955600233379 2.0644856497849364 0 0 0
2169 1 13.565839458459637 16.18746883537479 2.0644856497849373 0 0 0
2088 8 19.118448463186066 12.14059895767258 1.3734212227730793 0 0 0
2086 2 20.354067654297157 12.140609330433566 -0.009493712658627819 0 0 0
2087 7 21.374368127093653 13.489566365438373 0.6914003689484184 0 0 0
2176 8 19.118448463186066 14.838511790713579 1.3734212227730802 0 0 0
2174 2 20.354067654297157 14.838522163474567 -0.009493712658627055 0 0 0
2175 7 21.374368127093653 16.187479198479373 0.6914003689484167 0 0 0
2264 8 19.11844846318607 17.53642462375458 1.373421222773081 0 0 0
2262 2 20.35406765429716 17.536434996515567 -0.009493712658628658 0 0 0
2085 1 18.092949463476632 13.489556002333789 2.0644856497849338 0 0 0
2089 1 22.62005946849364 13.489556002333789 2.064485649784934 0 0 0
2173 1 18.092949463476636 16.18746883537479 2.064485649784935 0 0 0
2177 1 22.62005946849364 16.18746883537479 2.064485649784936 0 0 0
2092 8 23.645558468203063 12.14059895767258 1.373421222773072 0 0 0
2090 2 24.881177659314158 12.140609330433563 -0.009493712658632603 0 0 0
2096 8 28.172668473220067 12.14059895767258 1.3734212227730793 0 0 0