LAMMPS data file via write_data, version 29 Aug 2024, timestep = 7, units = metal

6512 atoms
8 atom types

0 99.596420110374 xlo xhi
0 99.822774822517 ylo yhi
-50 50 zlo zhi

Masses

1 28.085
2 28.085
3 28.085
4 28.085
5 15.999
6 15.999
7 15.999
8 15.999

Atoms # atomic

1720 6 1.0127437235572252 1.3489369059825767 1.3716427156511273 0 0 0
1718 2 2.2432630728666525 1.3489509239186548 -0.011166415246246102 0 0 0
1724 6 5.539853728574216 1.3489369059825764 1.3716427156511262 0 0 0
1719 5 3.267403855558335 2.697925662726012 0.6926585400442619 0 0 0
1808 6 1.012743723557228 4.046849739023577 1.3716427156511255 0 0 0
1806 2 2.243263072866654 4.046863756959657 -0.011166415246248248 0 0 0
1812 6 5.539853728574221 4.046849739023581 1.3716427156511202 0 0 0
1807 5 3.2674038555583302 5.3958384957670065 0.6926585400442594 0 0 0
1721 1 4.509731095041567 2.6979118283926895 2.066669485898783 0 0 0
1809 1 4.509731095041569 5.395824661433697 2.0666694858987826 0 0 0
1631 5 3.2674038555583227 1.2829684986957457e-05 0.6926585400442561 0 0 0
1722 2 6.770373077883651 1.3489509239186561 -0.011166415246247697 0 0 0
1728 6 10.06696373359122 1.3489369059825747 1.3716427156511204 0 0 0
1726 2 11.297483082900657 1.3489509239186481 -0.011166415246239918 0 0 0
1723 5 7.794513860575332 2.6979256627260106 0.6926585400442632 0 0 0
1810 2 6.7703730778836535 4.046863756959659 -0.01116641524624534 0 0 0
1816 6 10.066963733591223 4.046849739023582 1.3716427156511157 0 0 0
1814 2 11.297483082900653 4.046863756959655 -0.011166415246245339 0 0 0
1811 5 7.794513860575325 5.395838495767001 0.6926585400442599 0 0 0
1725 1 9.036841100058563 2.6979118283926913 2.0666694858987853 0 0 0
1813 1 9.036841100058567 5.395824661433698 2.066669485898784 0 0 0
1635 5 7.794513860575322 1.2829684986535892e-05 0.6926585400442595 0 0 0
1732 6 14.594073738608218 1.3489369059825755 1.3716427156511182 0 0 0
1730 2 15.82459308791765 1.348950923918656 -0.011166415246247797 0 0 0
1727 5 12.321623865592336 2.6979256627260098 0.6926585400442655 0 0 0
1731 5 16.848733870609326 2.697925662726011 0.6926585400442614 0 0 0
1820 6 14.594073738608218 4.0468497390235765 1.3716427156511175 0 0 0
1818 2 15.824593087917654 4.046863756959658 -0.011166415246249718 0 0 0
1815 5 12.321623865592333 5.395838495767003 0.6926585400442663 0 0 0
1819 5 16.848733870609323 5.395838495767003 0.6926585400442602 0 0 0
1729 1 13.56395110507557 2.6979118283926926 2.066669485898785 0 0 0
1817 1 13.56395110507557 5.395824661433701 2.066669485898783 0 0 0
1639 5 12.321623865592322 1.2829684996987072e-05 0.6926585400442568 0 0 0
1643 5 16.84873387060932 1.2829684986447696e-05 0.6926585400442573 0 0 0
1736 6 19.121183743625224 1.3489369059825749 1.3716427156511275 0 0 0
1734 2 20.351703092934656 1.3489509239186506 -0.011166415246243669 0 0 0
1735 5 21.375843875626337 2.6979256627260093 0.6926585400442654 0 0 0
1824 6 19.121183743625227 4.046849739023577 1.371642715651122 0 0 0
1822 2 20.35170309293465 4.046863756959656 -0.011166415246246281 0 0 0
1823 5 21.375843875626334 5.395838495767003 0.6926585400442689 0 0 0
1733 1 18.091061110092568 2.6979118283926917 2.0666694858987835 0 0 0
1737 1 22.618171115109572 2.697911828392694 2.066669485898788 0 0 0
1821 1 18.091061110092564 5.3958246614337 2.066669485898783 0 0 0
1825 1 22.618171115109565 5.395824661433696 2.0666694858987826 0 0 0
1647 5 21.37584387562633 1.2829684996675744e-05 0.6926585400442643 0 0 0
1740 6 23.648293748642217 1.3489369059825742 1.3716427156511142 0 0 0
1738 2 24.878813097951653 1.348950923918649 -0.011166415246243625 0 0 0
1744 6 28.175403753659225 1.3489369059825747 1.371642715651126 0 0 0
1739 5 25.902953880643327 2.697925662726011 0.6926585400442596 0 0 0
1828 6 23.64829374864222 4.046849739023578 1.3716427156511117 0 0 0
1826 2 24.878813097951657 4.046863756959657 -0.011166415246246422 0 0 0
1832 6 28.175403753659232 4.04684973902358 1.3716427156511217 0 0 0
1827 5 25.902953880643324 5.395838495767 0.6926585400442612 0 0 0
1741 1 27.14528112012657 2.6979118283926904 2.0666694858987866 0 0 0
1829 1 27.145281120126565 5.395824661433699 2.066669485898784 0 0 0
1651 5 25.90295388064332 1.2829684996558689e-05 0.6926585400442593 0 0 0
1742 2 29.405923102968647 1.348950923918654 -0.011166415246246772 0 0 0
1746 2 33.93303310798565 1.3489509239186435 -0.011166415246248257 0 0 0
1748 6 32.702513758676204 1.3489369059825735 1.3716427156511293 0 0 0
1743 5 30.43006388566034 2.697925662726012 0.6926585400442714 0 0 0
1747 5 34.957173890677346 2.697925662726013 0.6926585400442676 0 0 0
1830 2 29.405923102968643 4.046863756959657 -0.011166415246250627 0 0 0
1834 2 33.93303310798565 4.046863756959657 -0.011166415246245572 0 0 0
1836 6 32.70251375867621 4.046849739023579 1.3716427156511204 0 0 0
1831 5 30.43006388566034 5.395838495767003 0.69265854004427 0 0 0
1835 5 34.95717389067734 5.395838495766999 0.6926585400442581 0 0 0
1745 1 31.672391125143562 2.6979118283926917 2.0666694858987826 0 0 0
1833 1 31.67239112514356 5.395824661433698 2.0666694858987844 0 0 0
1655 5 30.430063885660324 1.282968498930674e-05 0.6926585400442584 0 0 0
1659 5 34.95717389067732 1.2829684992506883e-05 0.6926585400442431 0 0 0
1752 6 37.229623763693226 1.34893690598257 1.37164271565111 0 0 0
1750 2 38.460143113002644 1.3489509239186486 -0.011166415246242931 0 0 0
1751 5 39.48428389569435 2.697925662726018 0.6926585400442784 0 0 0
1840 6 37.22962376369323 4.046849739023581 1.3716427156511077 0 0 0
1838 2 38.46014311300264 4.0468637569596515 -0.011166415246253482 0 0 0
1839 5 39.48428389569434 5.3958384957670065 0.6926585400442782 0 0 0
1749 1 36.19950113016055 2.6979118283926935 2.0666694858987857 0 0 0
1753 1 40.72661113517756 2.6979118283926913 2.0666694858987817 0 0 0
1837 1 36.199501130160556 5.395824661433696 2.066669485898786 0 0 0
1841 1 40.726611135177556 5.395824661433697 2.066669485898782 0 0 0
1663 5 39.484283895694304 1.2829684982329936e-05 0.6926585400442515 0 0 0
1756 6 41.75673376871022 1.348936905982577 1.37164271565112 0 0 0
1754 2 42.98725311801965 1.3489509239186488 -0.011166415246241596 0 0 0
1760 6 46.28384377372722 1.3489369059825695 1.3716427156511175 0 0 0
1755 5 44.01139390071134 2.6979256627260177 0.6926585400442657 0 0 0
1844 6 41.75673376871021 4.046849739023577 1.3716427156511197 0 0 0
1842 2 42.98725311801965 4.046863756959657 -0.011166415246247563 0 0 0
1848 6 46.28384377372723 4.046849739023577 1.371642715651108 0 0 0
1843 5 44.01139390071134 5.395838495766996 0.6926585400442673 0 0 0
1757 1 45.25372114019455 2.697911828392692 2.0666694858987853 0 0 0
1845 1 45.25372114019455 5.395824661433696 2.0666694858987884 0 0 0
1667 5 44.011393900711305 1.282968499039185e-05 0.6926585400442392 0 0 0
1758 2 47.514363123036645 1.3489509239186555 -0.011166415246246439 0 0 0
1676 6 50.810953778744214 1.348936905982583 1.371642715651124 -1 0 0
1674 2 52.041473128053646 1.3489509239186444 -0.011166415246247289 -1 0 0
1759 5 48.53850390572833 2.6979256627260138 0.6926585400442655 0 0 0
1846 2 47.51436312303665 4.046863756959652 -0.01116641524624891 0 0 0
1764 6 50.810953778744214 4.046849739023573 1.371642715651127 -1 0 0
1762 2 52.04147312805364 4.046863756959654 -0.011166415246257715 -1 0 0
1847 5 48.538503905728334 5.395838495767003 0.6926585400442739 0 0 0
1673 1 49.780831145211565 2.6979118283926926 2.066669485898781 -1 0 0
1761 1 49.78083114521156 5.3958246614337 2.066669485898775 -1 0 0
1671 5 48.53850390572833 1.2829684990048616e-05 0.6926585400442686 0 0 0
1680 6 55.33806378376123 1.3489369059825735 1.3716427156511124 -1 0 0
1678 2 56.568583133070646 1.3489509239186497 -0.011166415246236575 -1 0 0
1675 5 53.06561391074535 2.6979256627260075 0.6926585400442785 -1 0 0
1679 5 57.59272391576233 2.6979256627260053 0.692658540044266 -1 0 0
1768 6 55.338063783761214 4.046849739023578 1.3716427156511235 -1 0 0
1766 2 56.56858313307064 4.04686375695965 -0.011166415246258157 -1 0 0
1763 5 53.06561391074534 5.39583849576701 0.6926585400442773 -1 0 0
1767 5 57.59272391576234 5.39583849576701 0.6926585400442818 -1 0 0
1677 1 54.30794115022856 2.697911828392696 2.066669485898781 -1 0 0
1765 1 54.30794115022856 5.395824661433697 2.0666694858987804 -1 0 0
1587 5 53.06561391074531 1.2829684997718418e-05 0.6926585400442518 -1 0 0
1591 5 57.592723915762306 1.28296850003258e-05 0.692658540044255 -1 0 0
1684 6 59.86517378877821 1.348936905982578 1.3716427156511268 -1 0 0
1682 2 61.09569313808766 1.3489509239186401 -0.011166415246248361 -1 0 0
1688 6 64.39228379379522 1.3489369059825653 1.3716427156511226 -1 0 0
1683 5 62.11983392077935 2.697925662726008 0.692658540044282 -1 0 0
1772 6 59.86517378877823 4.046849739023574 1.3716427156511073 -1 0 0
1770 2 61.09569313808764 4.046863756959659 -0.011166415246248656 -1 0 0
1776 6 64.39228379379522 4.046849739023583 1.3716427156511235 -1 0 0
1771 5 62.11983392077934 5.395838495767007 0.6926585400442742 -1 0 0
1681 1 58.835051155245566 2.6979118283926855 2.0666694858987835 -1 0 0
1685 1 63.36216116026256 2.6979118283926957 2.0666694858987764 -1 0 0
1769 1 58.83505115524555 5.3958246614337035 2.066669485898779 -1 0 0
1773 1 63.362161160262566 5.395824661433697 2.066669485898776 -1 0 0
1595 5 62.1198339207793 1.2829684997274457e-05 0.692658540044243 -1 0 0
1686 2 65.62280314310463 1.3489509239186535 -0.011166415246240523 -1 0 0
1692 6 68.91939379881222 1.3489369059825715 1.3716427156510973 -1 0 0
1690 2 70.14991314812167 1.348950923918647 -0.01116641524621231 -1 0 0
1687 5 66.64694392579635 2.6979256627260146 0.6926585400442598 -1 0 0
1774 2 65.62280314310465 4.046863756959654 -0.011166415246247497 -1 0 0
1780 6 68.91939379881224 4.0468497390235765 1.3716427156510906 -1 0 0
1778 2 70.14991314812167 4.046863756959656 -0.01116641524621693 -1 0 0
1775 5 66.64694392579631 5.395838495767009 0.6926585400442419 -1 0 0
1689 1 67.88927116527957 2.6979118283926926 2.0666694858988 -1 0 0
1777 1 67.88927116527957 5.395824661433703 2.0666694858988044 -1 0 0
1599 5 66.64694392579632 1.2829684987366586e-05 0.6926585400442548 -1 0 0
1696 6 73.44650380382923 1.3489369059825764 1.3716427156511137 -1 0 0
1694 2 74.67702315313865 1.3489509239186472 -0.011166415246250477 -1 0 0
1691 5 71.17405393081332 2.697925662726012 0.692658540044233 -1 0 0
1695 5 75.70116393583034 2.697925662726014 0.6926585400442775 -1 0 0
1784 6 73.44650380382924 4.046849739023579 1.3716427156511084 -1 0 0
1782 2 74.67702315313863 4.046863756959655 -0.011166415246250937 -1 0 0
1779 5 71.1740539308133 5.395838495767006 0.6926585400442293 -1 0 0
1783 5 75.70116393583034 5.395838495767002 0.6926585400442807 -1 0 0
1693 1 72.41638117029656 2.69791182839269 2.0666694858988057 -1 0 0
1781 1 72.41638117029656 5.3958246614337 2.0666694858988053 -1 0 0
1603 5 71.1740539308133 1.282968499818954e-05 0.692658540044224 -1 0 0
1607 5 75.70116393583034 1.2829685002925522e-05 0.692658540044276 -1 0 0
1700 6 77.97361380884624 1.3489369059825789 1.3716427156511237 -1 0 0
1698 2 79.20413315815566 1.3489509239186508 -0.011166415246249782 -1 0 0
1699 5 80.22827394084734 2.6979256627260133 0.6926585400442676 -1 0 0
1788 6 77.97361380884625 4.046849739023579 1.371642715651118 -1 0 0
1786 2 79.20413315815566 4.046863756959658 -0.011166415246248652 -1 0 0
1787 5 80.22827394084733 5.395838495767004 0.6926585400442578 -1 0 0
1697 1 76.94349117531355 2.6979118283926895 2.066669485898778 -1 0 0
1701 1 81.47060118033056 2.6979118283926966 2.0666694858987777 -1 0 0
1785 1 76.94349117531355 5.395824661433697 2.0666694858987795 -1 0 0
1789 1 81.47060118033058 5.395824661433697 2.066669485898776 -1 0 0
1611 5 80.22827394084732 1.2829684990018968e-05 0.6926585400442495 -1 0 0
1704 6 82.50072381386322 1.3489369059825722 1.3716427156511226 -1 0 0
1702 2 83.73124316317265 1.348950923918661 -0.011166415246232691 -1 0 0
1708 6 87.02783381888023 1.3489369059825724 1.3716427156511162 -1 0 0
1703 5 84.75538394586432 2.697925662726011 0.6926585400442452 -1 0 0
1792 6 82.5007238138632 4.046849739023579 1.371642715651131 -1 0 0
1790 2 83.73124316317266 4.046863756959653 -0.011166415246241203 -1 0 0
1796 6 87.0278338188802 4.046849739023598 1.3716427156511268 -1 0 0
1791 5 84.75538394586431 5.395838495767003 0.69265854004424 -1 0 0
1705 1 85.99771118534755 2.697911828392688 2.0666694858987924 -1 0 0
1793 1 85.9977111853476 5.395824661433698 2.0666694858987777 -1 0 0
1615 5 84.75538394586434 1.2829684985661862e-05 0.6926585400442535 -1 0 0
1706 2 88.25835316818969 1.3489509239186444 -0.011166415246224606 -1 0 0
1710 2 92.78546317320665 1.3489509239186472 -0.011166415246250734 -1 0 0
1712 6 91.55494382389723 1.3489369059825762 1.3716427156511137 -1 0 0
1707 5 89.2824939508813 2.6979256627260115 0.6926585400442424 -1 0 0
1794 2 88.25835316818969 4.046863756959654 -0.011166415246237746 -1 0 0
1798 2 92.78546317320664 4.046863756959655 -0.011166415246251546 -1 0 0
1800 6 91.55494382389725 4.046849739023579 1.3716427156511077 -1 0 0
1795 5 89.28249395088129 5.3958384957670065 0.692658540044245 -1 0 0
1709 1 90.52482119036456 2.6979118283926895 2.0666694858988004 -1 0 0
1797 1 90.52482119036456 5.395824661433699 2.0666694858988004 -1 0 0
1619 5 89.28249395088127 1.2829684998722968e-05 0.6926585400442251 -1 0 0
1717 1 99.57904120039856 2.697911828392693 2.0666694858987795 -1 0 0
1805 1 99.57904120039856 5.3958246614337 2.0666694858987795 -1 0 0
1716 6 96.08205382891424 1.3489369059825789 1.371642715651125 -1 0 0
1714 2 97.31257317822366 1.3489509239186497 -0.01116641524624841 -1 0 0
1711 5 93.80960395589834 2.697925662726014 0.6926585400442791 -1 0 0
1715 5 98.33671396091535 2.6979256627260124 0.6926585400442616 -1 0 0
1804 6 96.08205382891424 4.0468497390235765 1.3716427156511213 -1 0 0
1802 2 97.31257317822364 4.046863756959653 -0.011166415246250486 -1 0 0
1799 5 93.80960395589834 5.395838495767001 0.6926585400442824 -1 0 0
1803 5 98.33671396091533 5.395838495767005 0.69265854004426 -1 0 0
1713 1 95.05193119538156 2.6979118283926904 2.066669485898779 -1 0 0
1801 1 95.05193119538156 5.395824661433699 2.0666694858987804 -1 0 0
1623 5 93.80960395589834 1.2829685002467626e-05 0.692658540044277 -1 0 0
1627 5 98.33671396091533 1.2829685002383431e-05 0.6926585400442575 -1 0 0
1896 6 1.0127437235572279 6.744762572064572 1.3716427156511264 0 0 0
1894 2 2.2432630728666574 6.744776590000653 -0.011166415246246229 0 0 0
1895 5 3.267403855558331 8.093751328807997 0.6926585400442612 0 0 0
1900 6 5.539853728574219 6.744762572064576 1.3716427156511237 0 0 0
1984 6 1.0127437235572274 9.442675405105572 1.371642715651127 0 0 0
1982 2 2.243263072866651 9.442689423041651 -0.01116641524624964 0 0 0
1988 6 5.5398537285742195 9.442675405105575 1.371642715651125 0 0 0
1983 5 3.267403855558333 10.791664161849008 0.6926585400442619 0 0 0
1897 1 4.509731095041569 8.093737494474695 2.0666694858987813 0 0 0
1985 1 4.509731095041567 10.791650327515693 2.066669485898782 0 0 0
1898 2 6.7703730778836535 6.7447765900006535 -0.011166415246247095 0 0 0
1899 5 7.794513860575328 8.093751328807997 0.6926585400442626 0 0 0
1904 6 10.06696373359122 6.744762572064571 1.3716427156511204 0 0 0
1902 2 11.297483082900657 6.744776590000656 -0.011166415246245242 0 0 0
1986 2 6.770373077883651 9.442689423041648 -0.01116641524624915 0 0 0
1992 6 10.06696373359122 9.442675405105572 1.37164271565112 0 0 0
1990 2 11.297483082900651 9.442689423041646 -0.011166415246246153 0 0 0
1987 5 7.794513860575328 10.791664161849008 0.6926585400442627 0 0 0
1901 1 9.036841100058567 8.093737494474698 2.0666694858987826 0 0 0
1989 1 9.036841100058567 10.791650327515693 2.0666694858987826 0 0 0
1903 5 12.321623865592327 8.093751328807997 0.6926585400442625 0 0 0
1908 6 14.59407373860822 6.744762572064571 1.3716427156511182 0 0 0
1906 2 15.824593087917656 6.744776590000653 -0.011166415246248059 0 0 0
1907 5 16.848733870609326 8.093751328807999 0.6926585400442622 0 0 0
1996 6 14.594073738608213 9.442675405105573 1.3716427156511244 0 0 0
1994 2 15.824593087917656 9.442689423041653 -0.011166415246251192 0 0 0
1991 5 12.321623865592338 10.791664161849011 0.692658540044271 0 0 0
1995 5 16.848733870609323 10.791664161849003 0.6926585400442618 0 0 0
1905 1 13.563951105075573 8.093737494474698 2.066669485898784 0 0 0
1993 1 13.563951105075569 10.79165032751569 2.0666694858987804 0 0 0
1912 6 19.121183743625227 6.744762572064574 1.3716427156511266 0 0 0
1910 2 20.351703092934653 6.744776590000652 -0.011166415246247341 0 0 0
1911 5 21.375843875626334 8.093751328808002 0.6926585400442643 0 0 0
2000 6 19.121183743625227 9.442675405105573 1.3716427156511253 0 0 0
1998 2 20.351703092934656 9.442689423041648 -0.011166415246244041 0 0 0
1999 5 21.37584387562633 10.791664161849006 0.6926585400442618 0 0 0
1909 1 18.091061110092568 8.093737494474697 2.066669485898782 0 0 0
1913 1 22.618171115109572 8.093737494474691 2.066669485898785 0 0 0
1997 1 18.091061110092564 10.791650327515692 2.0666694858987844 0 0 0
2001 1 22.618171115109572 10.791650327515695 2.0666694858987844 0 0 0
1916 6 23.648293748642217 6.744762572064578 1.371642715651115 0 0 0
1914 2 24.87881309795165 6.744776590000649 -0.011166415246249055 0 0 0
1915 5 25.902953880643327 8.093751328808004 0.6926585400442625 0 0 0
1920 6 28.17540375365923 6.744762572064572 1.3716427156511233 0 0 0
2004 6 23.648293748642214 9.442675405105575 1.3716427156511193 0 0 0
2002 2 24.878813097951657 9.442689423041646 -0.011166415246249707 0 0 0
2008 6 28.175403753659225 9.442675405105573 1.3716427156511273 0 0 0
2003 5 25.902953880643324 10.791664161849004 0.6926585400442618 0 0 0
1917 1 27.145281120126565 8.093737494474697 2.0666694858987826 0 0 0
2005 1 27.145281120126565 10.791650327515692 2.066669485898784 0 0 0
1918 2 29.405923102968647 6.744776590000649 -0.011166415246249946 0 0 0
1919 5 30.430063885660335 8.093751328808006 0.6926585400442694 0 0 0
1922 2 33.93303310798566 6.744776590000659 -0.011166415246241835 0 0 0
1924 6 32.70251375867621 6.744762572064574 1.3716427156511217 0 0 0
1923 5 34.95717389067731 8.093751328807997 0.6926585400442428 0 0 0
2006 2 29.40592310296865 9.442689423041648 -0.011166415246249287 0 0 0
2010 2 33.93303310798565 9.442689423041646 -0.01116641524624487 0 0 0
2012 6 32.70251375867621 9.442675405105577 1.3716427156511248 0 0 0
2007 5 30.43006388566033 10.791664161849003 0.6926585400442681 0 0 0
2011 5 34.95717389067734 10.791664161849004 0.6926585400442586 0 0 0
1921 1 31.672391125143566 8.093737494474693 2.0666694858987817 0 0 0
2009 1 31.672391125143566 10.791650327515692 2.0666694858987835 0 0 0
1928 6 37.22962376369321 6.744762572064579 1.371642715651119 0 0 0
1926 2 38.46014311300265 6.744776590000663 -0.01116641524624586 0 0 0
1927 5 39.48428389569431 8.093751328807988 0.6926585400442608 0 0 0
2016 6 37.229623763693226 9.44267540510557 1.3716427156511153 0 0 0
2014 2 38.460143113002644 9.44268942304164 -0.011166415246250706 0 0 0
2015 5 39.48428389569433 10.791664161849013 0.6926585400442783 0 0 0
1925 1 36.19950113016057 8.093737494474695 2.0666694858987875 0 0 0
1929 1 40.726611135177556 8.093737494474697 2.066669485898794 0 0 0
2013 1 36.199501130160556 10.791650327515692 2.0666694858987875 0 0 0
2017 1 40.726611135177556 10.791650327515692 2.066669485898785 0 0 0
1932 6 41.756733768710234 6.744762572064571 1.371642715651109 0 0 0
1930 2 42.98725311801965 6.74477659000066 -0.011166415246241315 0 0 0
1931 5 44.01139390071132 8.093751328808 0.6926585400442528 0 0 0
1936 6 46.283843773727234 6.744762572064581 1.3716427156511055 0 0 0
2020 6 41.75673376871023 9.442675405105575 1.3716427156511148 0 0 0
2018 2 42.98725311801965 9.442689423041648 -0.011166415246242494 0 0 0
2024 6 46.283843773727234 9.44267540510557 1.3716427156511024 0 0 0
2019 5 44.01139390071135 10.791664161849004 0.692658540044267 0 0 0
1933 1 45.25372114019456 8.093737494474695 2.066669485898793 0 0 0
2021 1 45.25372114019455 10.791650327515693 2.0666694858987893 0 0 0
1934 2 47.51436312303664 6.744776590000652 -0.011166415246250493 0 0 0
1935 5 48.538503905728334 8.093751328807997 0.6926585400442761 0 0 0
1852 6 50.81095377874422 6.7447625720645705 1.3716427156511242 -1 0 0
1850 2 52.041473128053646 6.744776590000656 -0.01116641524625267 -1 0 0
2022 2 47.51436312303663 9.442689423041648 -0.01116641524625277 0 0 0
1940 6 50.81095377874423 9.44267540510556 1.3716427156511197 -1 0 0
1938 2 52.041473128053646 9.44268942304165 -0.011166415246247627 -1 0 0
2023 5 48.53850390572834 10.791664161849006 0.6926585400442792 0 0 0
1849 1 49.780831145211565 8.093737494474706 2.0666694858987764 -1 0 0
1937 1 49.78083114521155 10.791650327515704 2.066669485898778 -1 0 0
1851 5 53.06561391074531 8.093751328808 0.6926585400442627 -1 0 0
1856 6 55.33806378376123 6.74476257206457 1.3716427156511135 -1 0 0
1854 2 56.56858313307064 6.744776590000655 -0.011166415246250786 -1 0 0
1855 5 57.59272391576231 8.093751328807997 0.6926585400442675 -1 0 0
1944 6 55.33806378376123 9.442675405105573 1.3716427156511155 -1 0 0
1942 2 56.568583133070646 9.442689423041648 -0.01116641524624659 -1 0 0
1939 5 53.065613910745334 10.791664161849003 0.6926585400442743 -1 0 0
1943 5 57.59272391576233 10.791664161849006 0.6926585400442643 -1 0 0
1853 1 54.30794115022855 8.0937374944747 2.0666694858987875 -1 0 0
1941 1 54.30794115022856 10.791650327515697 2.0666694858987817 -1 0 0
1860 6 59.86517378877823 6.744762572064575 1.371642715651118 -1 0 0
1858 2 61.095693138087654 6.744776590000658 -0.011166415246248066 -1 0 0
1859 5 62.11983392077932 8.093751328807988 0.692658540044264 -1 0 0
1864 6 64.3922837937952 6.74476257206458 1.3716427156511322 -1 0 0
1948 6 59.86517378877825 9.44267540510557 1.3716427156510997 -1 0 0
1946 2 61.09569313808763 9.442689423041648 -0.01116641524624694 -1 0 0
1952 6 64.39228379379522 9.44267540510557 1.3716427156511286 -1 0 0
1947 5 62.11983392077935 10.791664161849017 0.692658540044285 -1 0 0
1857 1 58.83505115524556 8.093737494474693 2.0666694858987853 -1 0 0
1861 1 63.36216116026258 8.093737494474698 2.066669485898775 -1 0 0
1945 1 58.83505115524556 10.791650327515702 2.0666694858987875 -1 0 0
1949 1 63.36216116026255 10.791650327515685 2.0666694858987786 -1 0 0
1862 2 65.62280314310466 6.744776590000653 -0.011166415246238627 -1 0 0
1863 5 66.64694392579631 8.093751328807992 0.6926585400442478 -1 0 0
1868 6 68.91939379881224 6.74476257206457 1.3716427156511006 -1 0 0
1866 2 70.14991314812168 6.744776590000654 -0.011166415246214865 -1 0 0
1950 2 65.62280314310463 9.442689423041632 -0.011166415246268387 -1 0 0
1956 6 68.91939379881224 9.442675405105561 1.3716427156511144 -1 0 0
1954 2 70.14991314812168 9.442689423041655 -0.011166415246228916 -1 0 0
1951 5 66.64694392579638 10.791664161849019 0.6926585400443137 -1 0 0
1865 1 67.88927116527957 8.093737494474704 2.0666694858987973 -1 0 0
1953 1 67.88927116527952 10.791650327515692 2.066669485898763 -1 0 0
1867 5 71.1740539308133 8.093751328807999 0.6926585400442304 -1 0 0
1872 6 73.44650380382924 6.744762572064575 1.3716427156511102 -1 0 0
1870 2 74.67702315313865 6.744776590000653 -0.011166415246251421 -1 0 0
1871 5 75.70116393583034 8.093751328807999 0.6926585400442827 -1 0 0
1960 6 73.44650380382924 9.442675405105575 1.371642715651111 -1 0 0
1958 2 74.67702315313865 9.442689423041653 -0.01116641524625159 -1 0 0
1955 5 71.17405393081332 10.791664161849003 0.6926585400442333 -1 0 0
1959 5 75.70116393583034 10.791664161849 0.6926585400442776 -1 0 0
1869 1 72.41638117029656 8.093737494474693 2.0666694858988053 -1 0 0
1957 1 72.41638117029656 10.791650327515693 2.0666694858988035 -1 0 0
1876 6 77.97361380884625 6.744762572064574 1.371642715651115 -1 0 0
1874 2 79.20413315815566 6.7447765900006535 -0.011166415246245343 -1 0 0
1875 5 80.22827394084733 8.093751328807999 0.6926585400442525 -1 0 0
1964 6 77.97361380884624 9.442675405105575 1.3716427156511197 -1 0 0
1962 2 79.20413315815566 9.442689423041651 -0.011166415246245915 -1 0 0
1963 5 80.22827394084733 10.791664161849006 0.6926585400442554 -1 0 0
1873 1 76.94349117531354 8.093737494474697 2.06666948589878 -1 0 0
1877 1 81.47060118033056 8.093737494474693 2.0666694858987817 -1 0 0
1961 1 76.94349117531355 10.791650327515695 2.06666948589878 -1 0 0
1965 1 81.47060118033055 10.791650327515695 2.066669485898793 -1 0 0
1880 6 82.5007238138632 6.744762572064573 1.3716427156511326 -1 0 0
1878 2 83.73124316317266 6.744776590000656 -0.011166415246239944 -1 0 0
1879 5 84.75538394586431 8.093751328808 0.6926585400442395 -1 0 0
1884 6 87.0278338188802 6.744762572064558 1.3716427156511284 -1 0 0
1968 6 82.50072381386323 9.442675405105568 1.3716427156511195 -1 0 0
1966 2 83.73124316317266 9.442689423041648 -0.011166415246226559 -1 0 0
1972 6 87.02783381888023 9.442675405105575 1.3716427156511144 -1 0 0
1967 5 84.75538394586431 10.791664161849004 0.6926585400442343 -1 0 0
1881 1 85.99771118534755 8.093737494474698 2.0666694858987924 -1 0 0
1969 1 85.99771118534755 10.791650327515695 2.0666694858987973 -1 0 0
1882 2 88.25835316818969 6.744776590000651 -0.011166415246236964 -1 0 0
1883 5 89.28249395088129 8.093751328808002 0.6926585400442423 -1 0 0
1886 2 92.78546317320665 6.7447765900006535 -0.01116641524625119 -1 0 0
1888 6 91.55494382389725 6.744762572064575 1.3716427156511086 -1 0 0
1970 2 88.25835316818967 9.442689423041656 -0.01116641524622536 -1 0 0
1974 2 92.78546317320665 9.442689423041656 -0.01116641524625116 -1 0 0
1976 6 91.55494382389725 9.442675405105575 1.3716427156511106 -1 0 0
1971 5 89.28249395088127 10.791664161849003 0.6926585400442278 -1 0 0
1885 1 90.52482119036456 8.093737494474695 2.0666694858987995 -1 0 0
1973 1 90.52482119036456 10.791650327515693 2.0666694858988035 -1 0 0
1893 1 99.57904120039856 8.093737494474697 2.0666694858987795 -1 0 0
1981 1 99.57904120039856 10.791650327515692 2.066669485898776 -1 0 0
1887 5 93.80960395589834 8.093751328807997 0.6926585400442843 -1 0 0
1892 6 96.08205382891425 6.744762572064576 1.371642715651119 -1 0 0
1890 2 97.31257317822364 6.744776590000651 -0.011166415246250932 -1 0 0
1891 5 98.33671396091533 8.093751328808 0.6926585400442599 -1 0 0
1980 6 96.08205382891425 9.442675405105573 1.3716427156511193 -1 0 0
1978 2 97.31257317822364 9.442689423041653 -0.011166415246248913 -1 0 0
1975 5 93.80960395589834 10.791664161848999 0.6926585400442827 -1 0 0
1979 5 98.33671396091533 10.791664161849 0.6926585400442622 -1 0 0
1889 1 95.05193119538156 8.093737494474693 2.066669485898781 -1 0 0
1977 1 95.05193119538156 10.791650327515693 2.066669485898782 -1 0 0
2072 6 1.0127437235572274 12.140588238146577 1.3716427156511268 0 0 0
2070 2 2.2432630728666574 12.140602256082646 -0.011166415246245181 0 0 0
2076 6 5.5398537285742195 12.140588238146577 1.371642715651124 0 0 0
2071 5 3.267403855558331 13.48957699489 0.6926585400442608 0 0 0
2160 6 1.0127437235572276 14.838501071187569 1.371642715651126 0 0 0
2158 2 2.2432630728666565 14.838515089123666 -0.011166415246245284 0 0 0
2159 5 3.267403855558331 16.187489827931 0.6926585400442603 0 0 0
2164 6 5.539853728574221 14.838501071187578 1.371642715651122 0 0 0
2248 6 1.0127437235572299 17.536413904228574 1.3716427156511253 0 0 0
2246 2 2.243263072866651 17.536427922164656 -0.011166415246249782 0 0 0
2252 6 5.539853728574222 17.536413904228578 1.3716427156511217 0 0 0
2073 1 4.509731095041566 13.489563160556692 2.066669485898783 0 0 0
2161 1 4.509731095041567 16.187475993597694 2.066669485898783 0 0 0
2074 2 6.770373077883654 12.140602256082648 -0.011166415246245221 0 0 0
2080 6 10.066963733591216 12.140588238146572 1.3716427156511248 0 0 0
2078 2 11.297483082900659 12.14060225608265 -0.01116641524624693 0 0 0
2075 5 7.794513860575329 13.489576994889998 0.692658540044263 0 0 0
2162 2 6.7703730778836535 14.838515089123662 -0.01116641524624432 0 0 0
2163 5 7.794513860575327 16.187489827931 0.692658540044262 0 0 0
2168 6 10.066963733591214 14.838501071187567 1.3716427156511233 0 0 0
2166 2 11.297483082900659 14.838515089123664 -0.01116641524624495 0 0 0
2250 2 6.770373077883649 17.536427922164656 -0.0111664152462481 0 0 0
2256 6 10.066963733591216 17.536413904228574 1.3716427156511224 0 0 0
2254 2 11.297483082900651 17.536427922164656 -0.011166415246248245 0 0 0
2077 1 9.036841100058572 13.4895631605567 2.0666694858987786 0 0 0
2165 1 9.036841100058567 16.1874759935977 2.066669485898783 0 0 0
2084 6 14.594073738608216 12.140588238146579 1.37164271565112 0 0 0
2082 2 15.824593087917652 12.140602256082651 -0.011166415246249055 0 0 0
2079 5 12.321623865592333 13.48957699489 0.6926585400442649 0 0 0
2083 5 16.84873387060933 13.48957699489 0.6926585400442641 0 0 0
2167 5 12.321623865592331 16.187489827931 0.6926585400442637 0 0 0
2172 6 14.594073738608222 14.83850107118758 1.3716427156511155 0 0 0
2170 2 15.82459308791765 14.83851508912366 -0.01116641524624734 0 0 0
2171 5 16.848733870609323 16.187489827931 0.6926585400442609 0 0 0
2260 6 14.594073738608222 17.536413904228574 1.3716427156511166 0 0 0
2258 2 15.82459308791765 17.536427922164652 -0.011166415246248807 0 0 0
2081 1 13.563951105075569 13.489563160556688 2.066669485898785 0 0 0
2169 1 13.563951105075569 16.187475993597694 2.066669485898785 0 0 0
2088 6 19.121183743625227 12.140588238146579 1.3716427156511235 0 0 0
2086 2 20.35170309293466 12.14060225608265 -0.011166415246240468 0 0 0
2087 5 21.37584387562633 13.489576994889998 0.6926585400442614 0 0 0
2176 6 19.121183743625224 14.838501071187576 1.3716427156511284 0 0 0
2174 2 20.35170309293466 14.838515089123659 -0.011166415246244198 0 0 0
2175 5 21.37584387562633 16.187489827931 0.6926585400442627 0 0 0
2264 6 19.121183743625227 17.536413904228574 1.3716427156511228 0 0 0
2262 2 20.35170309293465 17.53642792216466 -0.011166415246245152 0 0 0
2085 1 18.091061110092564 13.489563160556695 2.066669485898781 0 0 0
2089 1 22.61817111510957 13.489563160556704 2.0666694858987875 0 0 0
2173 1 18.09106111009257 16.187475993597698 2.0666694858987826 0 0 0
2177 1 22.61817111510957 16.187475993597698 2.0666694858987906 0 0 0
2092 6 23.64829374864222 12.140588238146567 1.3716427156511128 0 0 0
2090 2 24.87881309795165 12.140602256082651 -0.011166415246244933 0 0 0