LAMMPS data file via write_data, version 29 Aug 2024, timestep = 2, units = metal

11832 atoms
12 atom types

0 99.813746347425 xlo xhi
0 101.339064660098 ylo yhi
-50 50 zlo zhi

Masses

1 114.818
2 114.818
3 114.818
4 114.818
5 114.818
6 114.818
7 15.999
8 15.999
9 15.999
10 15.999
11 15.999
12 15.999

Atoms # atomic

1972 7 1.720480737549351 0.9939679536484045 -0.02685493842438404 0 0 0
1984 1 3.4416694880027743 1.9868414708408613 0.7997290982461004 0 0 0
1980 7 5.162334059874337 0.9939679536484105 -0.026854938424378985 0 0 0
2211 7 3.441512553958714 3.974528671255692 -0.026854932414758205 0 0 0
2207 1 1.7208069382085105 4.9674021687296115 0.799729089625745 0 0 0
2215 1 5.162660260533516 4.967402168729612 0.7997290896257442 0 0 0
1992 1 6.883522810327778 1.9868414708408624 0.7997290982461017 0 0 0
1988 7 8.604187382199335 0.9939679536484072 -0.026854938424380432 0 0 0
2000 1 10.325376132652787 1.9868414708408566 0.7997290982461011 0 0 0
2219 7 6.883365876283709 3.974528671255692 -0.026854932414758025 0 0 0
2227 7 10.325219198608702 3.9745286712556984 -0.026854932414757813 0 0 0
2223 1 8.604513582858525 4.967402168729609 0.7997290896257437 0 0 0
1996 7 12.046040704524327 0.9939679536484093 -0.02685493842437904 0 0 0
2008 1 13.767229454977786 1.986841470840856 0.7997290982461027 0 0 0
2004 7 15.48789402684932 0.9939679536484087 -0.026854938424380675 0 0 0
2016 1 17.209082777302793 1.9868414708408617 0.7997290982461017 0 0 0
2235 7 13.76707252093372 3.974528671255701 -0.026854932414756578 0 0 0
2243 7 17.20892584325873 3.9745286712556935 -0.02685493241475663 0 0 0
2231 1 12.046366905183515 4.967402168729612 0.7997290896257468 0 0 0
2239 1 15.488220227508494 4.967402168729613 0.7997290896257441 0 0 0
2012 7 18.92974734917432 0.9939679536484106 -0.026854938424378937 0 0 0
2024 1 20.650936099627796 1.986841470840862 0.7997290982461015 0 0 0
2020 7 22.37160067149932 0.993967953648411 -0.026854938424378624 0 0 0
2251 7 20.65077916558373 3.9745286712556935 -0.02685493241475661 0 0 0
2247 1 18.930073549833494 4.967402168729612 0.7997290896257438 0 0 0
2255 1 22.371926872158497 4.9674021687296115 0.7997290896257436 0 0 0
2028 7 25.81345399382434 0.9939679536484094 -0.026854938424372934 0 0 0
2032 1 24.09278942195279 1.986841470840865 0.7997290982461042 0 0 0
2040 1 27.534642744277757 1.9868414708408648 0.7997290982461023 0 0 0
2036 7 29.255307316149356 0.9939679536484081 -0.026854938424381657 0 0 0
2259 7 24.092632487908727 3.9745286712556904 -0.026854932414759003 0 0 0
2267 7 27.534485810233697 3.9745286712556895 -0.02685493241475989 0 0 0
2263 1 25.813780194483513 4.967402168729596 0.7997290896257433 0 0 0
2271 1 29.255633516808537 4.967402168729612 0.799729089625744 0 0 0
2048 1 30.976496066602767 1.9868414708408584 0.7997290982460985 0 0 0
2044 7 32.69716063847434 0.9939679536484075 -0.026854938424382052 0 0 0
2056 1 34.418349388927794 1.9868414708408535 0.7997290982460985 0 0 0
2275 7 30.976339132558696 3.9745286712556966 -0.02685493241475406 0 0 0
2283 7 34.4181924548837 3.9745286712556975 -0.026854932414758115 0 0 0
2279 1 32.697486839133525 4.967402168729613 0.7997290896257441 0 0 0
2052 7 36.1390139607993 0.9939679536484071 -0.026854938424381965 0 0 0
2064 1 37.8602027112528 1.986841470840863 0.7997290982461093 0 0 0
2060 7 39.58086728312433 0.9939679536484163 -0.026854938424373302 0 0 0
2291 7 37.86004577720871 3.974528671255696 -0.026854932414761577 0 0 0
2287 1 36.13934016145852 4.967402168729615 0.7997290896257447 0 0 0
2295 1 39.58119348378351 4.967402168729615 0.799729089625747 0 0 0
2072 1 41.30205603357777 1.986841470840862 0.7997290982461016 0 0 0
2068 7 43.02272060544933 0.9939679536484044 -0.026854938424384456 0 0 0
2080 1 44.7439093559028 1.9868414708408584 0.7997290982460987 0 0 0
2076 7 46.46457392777432 0.9939679536484086 -0.026854938424373552 0 0 0
2299 7 41.30189909953372 3.974528671255694 -0.02685493241475632 0 0 0
2307 7 44.74375242185873 3.974528671255697 -0.026854932414753466 0 0 0
2303 1 43.0230468061085 4.967402168729612 0.7997290896257436 0 0 0
2311 1 46.464900128433506 4.967402168729596 0.7997290896257431 0 0 0
2084 7 49.90642725009934 0.9939679536484123 -0.026854938424377563 0 0 0
2088 1 48.18576267822778 1.9868414708408653 0.7997290982461027 0 0 0
1864 1 51.62761600055277 1.9868414708408555 0.799729098246101 -1 0 0
2315 7 48.185605744183704 3.97452867125569 -0.026854932414759614 0 0 0
2091 7 51.62745906650872 3.9745286712556993 -0.026854932414757275 -1 0 0
2319 1 49.906753450758515 4.967402168729618 0.7997290896257484 0 0 0
1860 7 53.34828057242433 0.9939679536484072 -0.026854938424382573 -1 0 0
1872 1 55.06946932287779 1.9868414708408586 0.7997290982461047 -1 0 0
1868 7 56.790133894749324 0.9939679536484055 -0.02685493842438022 -1 0 0
1880 1 58.51132264520279 1.9868414708408597 0.7997290982460992 -1 0 0
2099 7 55.06931238883371 3.974528671255696 -0.026854932414760536 -1 0 0
2107 7 58.51116571115872 3.9745286712556958 -0.02685493241475495 -1 0 0
2095 1 53.3486067730835 4.96740216872961 0.7997290896257407 -1 0 0
2103 1 56.790460095408505 4.967402168729608 0.7997290896257466 -1 0 0
1876 7 60.23198721707431 0.993967953648411 -0.02685493842437886 -1 0 0
1884 7 63.67384053939934 0.9939679536484166 -0.02685493842437063 -1 0 0
1888 1 61.953175967527784 1.986841470840867 0.7997290982461062 -1 0 0
2115 7 61.953019033483706 3.9745286712556886 -0.026854932414760654 -1 0 0
2111 1 60.2323134177335 4.9674021687296115 0.7997290896257436 -1 0 0
2119 1 63.67416674005852 4.9674021687296035 0.7997290896257441 -1 0 0
1896 1 65.39502928985274 1.9868414708408602 0.7997290982460996 -1 0 0
1892 7 67.11569386172437 0.9939679536484101 -0.026854938424378454 -1 0 0
1904 1 68.83688261217775 1.9868414708408555 0.7997290982461024 -1 0 0
2123 7 65.3948723558087 3.974528671255695 -0.02685493241475527 -1 0 0
2131 7 68.83672567813375 3.9745286712557024 -0.02685493241475623 -1 0 0
2127 1 67.1160200623835 4.967402168729622 0.7997290896257532 -1 0 0
1900 7 70.55754718404934 0.9939679536484023 -0.026854938424388023 -1 0 0
1912 1 72.27873593450279 1.9868414708408577 0.7997290982460973 -1 0 0
1908 7 73.99940050637431 0.9939679536484128 -0.026854938424376345 -1 0 0
1920 1 75.7205892568278 1.9868414708408577 0.799729098246102 -1 0 0
2139 7 72.27857900045869 3.974528671255689 -0.026854932414760026 -1 0 0
2147 7 75.72043232278372 3.974528671255693 -0.026854932414763673 -1 0 0
2135 1 70.55787338470849 4.967402168729601 0.7997290896257322 -1 0 0
2143 1 73.99972670703352 4.967402168729625 0.7997290896257537 -1 0 0
1916 7 77.44125382869932 0.9939679536484091 -0.026854938424376945 -1 0 0
1928 1 79.16244257915277 1.986841470840871 0.7997290982461106 -1 0 0
1924 7 80.88310715102436 0.993967953648382 -0.026854938424363713 -1 0 0
2155 7 79.16228564510868 3.9745286712556926 -0.02685493241475624 -1 0 0
2151 1 77.44158002935852 4.967402168729598 0.7997290896257384 -1 0 0
2159 1 80.88343335168352 4.967402168729616 0.7997290896257485 -1 0 0
1936 1 82.60429590147774 1.9868414708408617 0.799729098246102 -1 0 0
1932 7 84.32496047334936 0.9939679536484067 -0.026854938424381494 -1 0 0
1940 7 87.76681379567434 0.9939679536484034 -0.026854938424383308 -1 0 0
1944 1 86.04614922380276 1.9868414708408613 0.7997290982460994 -1 0 0
2163 7 82.60413896743371 3.9745286712556935 -0.026854932414756748 -1 0 0
2171 7 86.04599228975869 3.9745286712556975 -0.026854932414753785 -1 0 0
2167 1 84.32528667400852 4.967402168729606 0.7997290896257403 -1 0 0
2175 1 87.76713999633353 4.967402168729606 0.7997290896257458 -1 0 0
1952 1 89.48800254612779 1.9868414708408497 0.7997290982460954 -1 0 0
1948 7 91.2086671179993 0.9939679536484088 -0.02685493842437943 -1 0 0
1960 1 92.92985586845279 1.9868414708408662 0.799729098246106 -1 0 0
2179 7 89.48784561208369 3.9745286712556984 -0.026854932414757678 -1 0 0
2187 7 92.92969893440873 3.974528671255697 -0.02685493241475459 -1 0 0
2183 1 91.2089933186585 4.967402168729621 0.799729089625751 -1 0 0
1956 7 94.65052044032433 0.9939679536484116 -0.0268549384243794 -1 0 0
1968 1 96.37170919077778 1.9868414708408673 0.7997290982461062 -1 0 0
1964 7 98.09237376264936 0.9939679536484151 -0.026854938424372206 -1 0 0
1976 1 99.81356251310274 1.9868414708408548 0.7997290982460994 -1 0 0
2195 7 96.37155225673371 3.9745286712556886 -0.026854932414758843 -1 0 0
2203 7 99.81340557905872 3.9745286712556913 -0.026854932414764852 -1 0 0
2191 1 94.65084664098349 4.9674021687296 0.7997290896257344 -1 0 0
2199 1 98.0926999633085 4.967402168729617 0.7997290896257555 -1 0 0
2204 7 1.7204807375493516 6.955089404242385 -0.02685493842437657 0 0 0
2216 1 3.4416694880027743 7.9479629214348595 0.799729098246101 0 0 0
2212 7 5.162334059874336 6.955089404242389 -0.02685493842437153 0 0 0
2443 7 3.4415125539587152 9.935650121849694 -0.026854932414758087 0 0 0
2439 1 1.7208069382085116 10.928523619323608 0.7997290896257473 0 0 0
2447 1 5.162660260533516 10.928523619323604 0.7997290896257458 0 0 0
2224 1 6.883522810327779 7.947962921434862 0.7997290982461027 0 0 0
2220 7 8.604187382199335 6.955089404242391 -0.02685493842437372 0 0 0
2232 1 10.325376132652787 7.947962921434854 0.7997290982461017 0 0 0
2451 7 6.883365876283708 9.935650121849692 -0.0268549324147579 0 0 0
2459 7 10.325219198608703 9.935650121849699 -0.02685493241475826 0 0 0
2455 1 8.604513582858525 10.928523619323602 0.799729089625747 0 0 0
2228 7 12.046040704524327 6.9550894042423925 -0.026854938424371963 0 0 0
2240 1 13.767229454977786 7.947962921434855 0.7997290982461033 0 0 0
2236 7 15.487894026849322 6.955089404242388 -0.02685493842437225 0 0 0
2248 1 17.209082777302793 7.94796292143486 0.7997290982461019 0 0 0
2467 7 13.76707252093372 9.9356501218497 -0.02685493241475692 0 0 0
2475 7 17.208925843258733 9.935650121849694 -0.026854932414756436 0 0 0
2463 1 12.046366905183515 10.92852361932361 0.7997290896257478 0 0 0
2471 1 15.488220227508494 10.928523619323606 0.7997290896257473 0 0 0
2244 7 18.92974734917432 6.95508940424239 -0.02685493842437102 0 0 0
2256 1 20.650936099627796 7.94796292143486 0.799729098246102 0 0 0
2252 7 22.37160067149932 6.95508940424239 -0.026854938424370714 0 0 0
2483 7 20.650779165583735 9.935650121849694 -0.026854932414756418 0 0 0
2479 1 18.93007354983349 10.928523619323604 0.7997290896257461 0 0 0
2487 1 22.371926872158493 10.928523619323604 0.7997290896257457 0 0 0
2260 7 25.81345399382434 6.955089404242406 -0.026854938424371963 0 0 0
2264 1 24.09278942195279 7.947962921434864 0.7997290982461047 0 0 0
2272 1 27.534642744277757 7.947962921434863 0.7997290982461038 0 0 0
2268 7 29.255307316149356 6.955089404242386 -0.026854938424374156 0 0 0
2491 7 24.092632487908727 9.935650121849692 -0.02685493241475886 0 0 0
2499 7 27.534485810233697 9.935650121849692 -0.026854932414759877 0 0 0
2495 1 25.813780194483513 10.928523619323592 0.7997290896257433 0 0 0
2503 1 29.255633516808537 10.928523619323606 0.7997290896257465 0 0 0
2280 1 30.976496066602767 7.947962921434857 0.7997290982460991 0 0 0
2276 7 32.69716063847434 6.955089404242386 -0.0268549384243741 0 0 0
2288 1 34.418349388927794 7.947962921434853 0.7997290982460986 0 0 0
2507 7 30.976339132558696 9.935650121849697 -0.02685493241475436 0 0 0
2515 7 34.4181924548837 9.935650121849697 -0.02685493241475807 0 0 0
2511 1 32.697486839133525 10.928523619323606 0.7997290896257467 0 0 0
2284 7 36.1390139607993 6.955089404242386 -0.026854938424373545 0 0 0
2296 1 37.8602027112528 7.947962921434865 0.7997290982461083 0 0 0
2292 7 39.58086728312433 6.955089404242395 -0.026854938424365447 0 0 0
2523 7 37.86004577720871 9.935650121849694 -0.026854932414760994 0 0 0
2519 1 36.13934016145852 10.92852361932361 0.7997290896257481 0 0 0
2527 1 39.58119348378351 10.928523619323608 0.7997290896257496 0 0 0
2304 1 41.30205603357777 7.947962921434861 0.7997290982461025 0 0 0
2300 7 43.02272060544933 6.955089404242384 -0.026854938424376546 0 0 0
2312 1 44.7439093559028 7.947962921434857 0.7997290982460987 0 0 0
2308 7 46.46457392777432 6.955089404242406 -0.026854938424372084 0 0 0
2531 7 41.30189909953372 9.935650121849694 -0.026854932414756692 0 0 0
2539 7 44.74375242185873 9.935650121849697 -0.026854932414753792 0 0 0
2535 1 43.0230468061085 10.928523619323606 0.7997290896257462 0 0 0
2543 1 46.464900128433506 10.928523619323594 0.7997290896257434 0 0 0
2316 7 49.90642725009934 6.955089404242392 -0.026854938424369153 0 0 0
2320 1 48.18576267822778 7.947962921434863 0.7997290982461038 0 0 0
2096 1 51.62761600055277 7.947962921434852 0.7997290982461012 -1 0 0
2547 7 48.185605744183704 9.935650121849692 -0.02685493241475949 0 0 0
2323 7 51.62745906650872 9.9356501218497 -0.026854932414757036 -1 0 0
2551 1 49.906753450758515 10.92852361932361 0.7997290896257501 0 0 0
2092 7 53.34828057242433 6.955089404242387 -0.026854938424373323 -1 0 0
2104 1 55.06946932287779 7.947962921434858 0.7997290982461052 -1 0 0
2100 7 56.790133894749324 6.955089404242393 -0.026854938424375308 -1 0 0
2112 1 58.51132264520279 7.947962921434859 0.7997290982460994 -1 0 0
2331 7 55.06931238883371 9.935650121849697 -0.026854932414760887 -1 0 0
2339 7 58.51116571115872 9.935650121849696 -0.026854932414755284 -1 0 0
2327 1 53.3486067730835 10.928523619323602 0.799729089625743 -1 0 0
2335 1 56.790460095408505 10.928523619323606 0.7997290896257474 -1 0 0
2108 7 60.23198721707431 6.95508940424239 -0.026854938424370874 -1 0 0
2116 7 63.67384053939934 6.955089404242404 -0.02685493842436608 -1 0 0
2120 1 61.953175967527784 7.947962921434866 0.7997290982461063 -1 0 0
2347 7 61.953019033483706 9.935650121849688 -0.02685493241476096 -1 0 0
2343 1 60.2323134177335 10.928523619323604 0.7997290896257462 -1 0 0
2351 1 63.674166740058524 10.928523619323595 0.799729089625747 -1 0 0
2128 1 65.39502928985274 7.947962921434859 0.799729098246101 -1 0 0
2124 7 67.11569386172437 6.955089404242388 -0.026854938424371165 -1 0 0
2136 1 68.83688261217775 7.947962921434859 0.7997290982461027 -1 0 0
2355 7 65.3948723558087 9.935650121849697 -0.026854932414755298 -1 0 0
2363 7 68.83672567813375 9.935650121849699 -0.026854932414756182 -1 0 0
2359 1 67.1160200623835 10.928523619323615 0.7997290896257562 -1 0 0
2132 7 70.55754718404934 6.955089404242381 -0.026854938424380106 -1 0 0
2144 1 72.27873593450279 7.947962921434859 0.7997290982460968 -1 0 0
2140 7 73.99940050637431 6.955089404242392 -0.026854938424367814 -1 0 0
2152 1 75.7205892568278 7.947962921434859 0.7997290982461022 -1 0 0
2371 7 72.27857900045869 9.935650121849687 -0.02685493241475946 -1 0 0
2379 7 75.72043232278372 9.93565012184969 -0.026854932414764082 -1 0 0
2367 1 70.55787338470849 10.928523619323595 0.7997290896257354 -1 0 0
2375 1 73.99972670703352 10.928523619323618 0.7997290896257568 -1 0 0
2148 7 77.44125382869932 6.955089404242396 -0.02685493842437304 -1 0 0
2160 1 79.16244257915278 7.947962921434869 0.799729098246112 -1 0 0
2156 7 80.88310715102436 6.955089404242393 -0.026854938424368854 -1 0 0
2387 7 79.16228564510868 9.935650121849696 -0.0268549324147562 -1 0 0
2383 1 77.44158002935852 10.928523619323592 0.7997290896257412 -1 0 0
2391 1 80.88343335168352 10.928523619323608 0.7997290896257498 -1 0 0
2168 1 82.60429590147774 7.94796292143486 0.7997290982461025 -1 0 0
2164 7 84.32496047334936 6.955089404242387 -0.026854938424374326 -1 0 0
2172 7 87.76681379567434 6.955089404242392 -0.02685493842437918 -1 0 0
2176 1 86.04614922380276 7.947962921434859 0.7997290982461004 -1 0 0
2395 7 82.6041389674337 9.935650121849696 -0.026854932414756137 -1 0 0
2403 7 86.04599228975869 9.935650121849699 -0.026854932414754187 -1 0 0
2399 1 84.32528667400852 10.9285236193236 0.7997290896257416 -1 0 0
2407 1 87.76713999633353 10.928523619323604 0.7997290896257471 -1 0 0
2184 1 89.48800254612779 7.947962921434849 0.7997290982460955 -1 0 0
2180 7 91.2086671179993 6.955089404242388 -0.026854938424371 -1 0 0
2192 1 92.92985586845279 7.9479629214348675 0.7997290982461057 -1 0 0
2411 7 89.4878456120837 9.935650121849697 -0.02685493241475806 -1 0 0
2419 7 92.92969893440873 9.935650121849694 -0.02685493241475486 -1 0 0
2415 1 91.2089933186585 10.928523619323615 0.7997290896257543 -1 0 0
2188 7 94.65052044032433 6.955089404242391 -0.026854938424371085 -1 0 0
2200 1 96.37170919077778 7.947962921434867 0.7997290982461064 -1 0 0
2196 7 98.09237376264936 6.955089404242404 -0.026854938424367612 -1 0 0
2208 1 99.81356251310274 7.947962921434855 0.7997290982460987 -1 0 0
2427 7 96.37155225673371 9.935650121849688 -0.026854932414759204 -1 0 0
2435 7 99.81340557905872 9.935650121849688 -0.02685493241476586 -1 0 0
2423 1 94.65084664098349 10.928523619323595 0.7997290896257375 -1 0 0
2431 1 98.0926999633085 10.928523619323617 0.7997290896257575 -1 0 0
2436 7 1.7204807375493516 12.916210854836399 -0.026854938424372497 0 0 0
2448 1 3.441669488002775 13.909084372028838 0.7997290982460995 0 0 0
2444 7 5.162334059874335 12.916210854836406 -0.026854938424367557 0 0 0
2675 7 3.441512553958716 15.896771572443717 -0.02685493241475798 0 0 0
2671 1 1.7208069382085098 16.889645069917606 0.7997290896257399 0 0 0
2679 1 5.1626602605335155 16.8896450699176 0.7997290896257415 0 0 0
2456 1 6.883522810327778 13.90908437202884 0.7997290982461016 0 0 0
2452 7 8.604187382199338 12.916210854836407 -0.02685493842436909 0 0 0
2464 1 10.325376132652782 13.909084372028833 0.7997290982461008 0 0 0
2683 7 6.883365876283708 15.896771572443717 -0.026854932414757816 0 0 0
2691 7 10.325219198608705 15.896771572443724 -0.0268549324147577 0 0 0
2687 1 8.604513582858525 16.8896450699176 0.7997290896257414 0 0 0
2460 7 12.046040704524328 12.916210854836402 -0.026854938424369125 0 0 0
2472 1 13.767229454977787 13.909084372028833 0.7997290982461023 0 0 0
2468 7 15.48789402684932 12.916210854836404 -0.026854938424368754 0 0 0
2480 1 17.209082777302793 13.909084372028838 0.7997290982461012 0 0 0
2699 7 13.76707252093372 15.896771572443727 -0.0268549324147554 0 0 0
2707 7 17.208925843258733 15.896771572443718 -0.026854932414756064 0 0 0
2695 1 12.046366905183515 16.889645069917602 0.7997290896257424 0 0 0
2703 1 15.488220227508492 16.8896450699176 0.7997290896257422 0 0 0
2476 7 18.92974734917432 12.916210854836404 -0.026854938424367935 0 0 0
2488 1 20.650936099627796 13.909084372028838 0.7997290982461018 0 0 0
2484 7 22.37160067149932 12.916210854836404 -0.026854938424367678 0 0 0
2715 7 20.650779165583735 15.89677157244372 -0.026854932414756595 0 0 0
2711 1 18.93007354983349 16.8896450699176 0.799729089625742 0 0 0
2719 1 22.371926872158493 16.8896450699176 0.7997290896257415 0 0 0
2492 7 25.81345399382434 12.916210854836416 -0.026854938424367973 0 0 0
2496 1 24.09278942195279 13.909084372028842 0.7997290982461046 0 0 0
2504 1 27.534642744277757 13.909084372028842 0.7997290982461028 0 0 0
2500 7 29.255307316149356 12.916210854836402 -0.026854938424370325 0 0 0
2723 7 24.092632487908727 15.896771572443715 -0.026854932414760176 0 0 0
2731 7 27.534485810233697 15.896771572443713 -0.02685493241476054 0 0 0
2727 1 25.813780194483513 16.88964506991759 0.7997290896257399 0 0 0
2735 1 29.255633516808537 16.8896450699176 0.7997290896257423 0 0 0
2512 1 30.976496066602767 13.909084372028833 0.7997290982460981 0 0 0
2508 7 32.69716063847433 12.9162108548364 -0.026854938424371005 0 0 0
2520 1 34.418349388927794 13.909084372028833 0.7997290982460977 0 0 0
2739 7 30.976339132558696 15.896771572443724 -0.026854932414753632 0 0 0
2747 7 34.4181924548837 15.896771572443718 -0.026854932414758025 0 0 0
2743 1 32.69748683913353 16.8896450699176 0.7997290896257416 0 0 0
2516 7 36.13901396079932 12.916210854836407 -0.02685493842436468 0 0 0
2528 1 37.86020271125278 13.90908437202884 0.7997290982461082 0 0 0
2524 7 39.58086728312434 12.916210854836404 -0.02685493842436705 0 0 0
2755 7 37.86004577720872 15.89677157244372 -0.026854932414761293 0 0 0
2751 1 36.13934016145852 16.88964506991761 0.7997290896257426 0 0 0
2759 1 39.58119348378351 16.8896450699176 0.7997290896257437 0 0 0
2536 1 41.30205603357777 13.909084372028836 0.7997290982461013 0 0 0
2532 7 43.022720605449344 12.916210854836406 -0.026854938424367376 0 0 0
2544 1 44.74390935590278 13.909084372028834 0.7997290982460987 0 0 0
2540 7 46.46457392777433 12.91621085483641 -0.026854938424373788 0 0 0
2763 7 41.30189909953372 15.89677157244372 -0.026854932414755853 0 0 0
2771 7 44.74375242185872 15.89677157244372 -0.026854932414754656 0 0 0
2767 1 43.0230468061085 16.8896450699176 0.7997290896257412 0 0 0
2775 1 46.464900128433506 16.88964506991759 0.79972908962574 0 0 0
2548 7 49.90642725009934 12.916210854836407 -0.026854938424365704 0 0 0
2552 1 48.18576267822778 13.909084372028842 0.7997290982461025 0 0 0
2328 1 51.62761600055277 13.909084372028829 0.7997290982460996 -1 0 0
2779 7 48.185605744183704 15.896771572443711 -0.02685493241476155 0 0 0
2555 7 51.62745906650873 15.896771572443724 -0.026854932414757324 -1 0 0
2783 1 49.906753450758515 16.889645069917613 0.7997290896257452 0 0 0
2324 7 53.34828057242433 12.916210854836404 -0.026854938424369278 -1 0 0
2336 1 55.06946932287778 13.909084372028836 0.7997290982461042 -1 0 0
2332 7 56.790133894749324 12.916210854836404 -0.026854938424371137 -1 0 0
2344 1 58.51132264520279 13.909084372028836 0.7997290982460985 -1 0 0
2563 7 55.06931238883371 15.89677157244372 -0.026854932414760217 -1 0 0
2571 7 58.51116571115872 15.89677157244372 -0.026854932414754736 -1 0 0
2559 1 53.3486067730835 16.889645069917595 0.7997290896257377 -1 0 0
2567 1 56.790460095408505 16.889645069917602 0.7997290896257421 -1 0 0
2340 7 60.23198721707431 12.916210854836406 -0.026854938424367526 -1 0 0
2348 7 63.67384053939934 12.91621085483642 -0.026854938424362245 -1 0 0
2352 1 61.953175967527784 13.909084372028843 0.799729098246105 -1 0 0
2579 7 61.953019033483706 15.896771572443713 -0.026854932414760446 -1 0 0
2575 1 60.2323134177335 16.889645069917595 0.7997290896257413 -1 0 0
2583 1 63.674166740058524 16.8896450699176 0.7997290896257394 -1 0 0
2360 1 65.39502928985274 13.909084372028834 0.7997290982460988 -1 0 0
2356 7 67.11569386172437 12.916210854836404 -0.0268549384243671 -1 0 0
2368 1 68.83688261217775 13.909084372028833 0.7997290982461022 -1 0 0
2587 7 65.39487235580869 15.896771572443718 -0.02685493241475648 -1 0 0
2595 7 68.83672567813375 15.896771572443726 -0.026854932414756366 -1 0 0
2591 1 67.1160200623835 16.889645069917616 0.7997290896257505 -1 0 0
2364 7 70.55754718404934 12.916210854836397 -0.026854938424376452 -1 0 0
2376 1 72.27873593450279 13.909084372028834 0.7997290982460967 -1 0 0
2372 7 73.99940050637431 12.916210854836407 -0.026854938424364677 -1 0 0
2384 1 75.7205892568278 13.909084372028834 0.7997290982461026 -1 0 0
2603 7 72.2785790004587 15.896771572443715 -0.026854932414757643 -1 0 0
2611 7 75.72043232278372 15.896771572443717 -0.026854932414763916 -1 0 0
2599 1 70.55787338470849 16.889645069917584 0.7997290896257293 -1 0 0
2607 1 73.99972670703352 16.88964506991761 0.7997290896257497 -1 0 0
2380 7 77.44125382869932 12.916210854836411 -0.02685493842436959 -1 0 0
2392 1 79.16244257915278 13.909084372028847 0.7997290982461106 -1 0 0
2388 7 80.88310715102436 12.91621085483641 -0.02685493842436625 -1 0 0
2619 7 79.16228564510868 15.896771572443717 -0.026854932414757317 -1 0 0
2615 1 77.44158002935852 16.88964506991759 0.7997290896257353 -1 0 0
2623 1 80.88343335168352 16.889645069917602 0.799729089625747 -1 0 0
2400 1 82.60429590147774 13.90908437202884 0.7997290982461025 -1 0 0
2396 7 84.32496047334936 12.9162108548364 -0.02685493842437096 -1 0 0
2404 7 87.76681379567434 12.9162108548364 -0.026854938424375197 -1 0 0
2408 1 86.04614922380276 13.909084372028838 0.7997290982460998 -1 0 0
2627 7 82.6041389674337 15.896771572443715 -0.026854932414757785 -1 0 0
2635 7 86.0459922897587 15.896771572443722 -0.026854932414754475 -1 0 0
2631 1 84.32528667400852 16.889645069917602 0.7997290896257367 -1 0 0
2639 1 87.76713999633353 16.88964506991759 0.799729089625744 -1 0 0
2416 1 89.48800254612779 13.909084372028829 0.7997290982460948 -1 0 0
2412 7 91.2086671179993 12.916210854836402 -0.026854938424367793 -1 0 0
2424 1 92.92985586845279 13.909084372028842 0.7997290982461069 -1 0 0
2643 7 89.48784561208369 15.896771572443718 -0.02685493241475797 -1 0 0
2651 7 92.92969893440875 15.89677157244372 -0.026854932414755277 -1 0 0
2647 1 91.2089933186585 16.889645069917616 0.7997290896257486 -1 0 0
2420 7 94.65052044032433 12.916210854836404 -0.026854938424368438 -1 0 0
2432 1 96.37170919077778 13.909084372028843 0.7997290982461073 -1 0 0
2428 7 98.09237376264936 12.916210854836413 -0.026854938424363692 -1 0 0
2440 1 99.81356251310274 13.90908437202883 0.7997290982460996 -1 0 0
2659 7 96.37155225673371 15.896771572443715 -0.026854932414757296 -1 0 0
2667 7 99.81340557905872 15.896771572443717 -0.02685493241476468 -1 0 0
2655 1 94.65084664098349 16.889645069917584 0.7997290896257317 -1 0 0
2663 1 98.0926999633085 16.889645069917602 0.799729089625752 -1 0 0
2668 7 1.7204807375493516 18.87733230543039 -0.026854938424378284 0 0 0
2680 1 3.4416694880027765 19.870205822622857 0.7997290982461034 0 0 0
2676 7 5.162334059874335 18.877332305430404 -0.026854938424374614 0 0 0
2907 7 3.441512553958717 21.8578930230377 -0.026854932414758066 0 0 0
2903 1 1.7208069382085098 22.85076652051161 0.7997290896257437 0 0 0
2911 1 5.1626602605335155 22.8507665205116 0.7997290896257446 0 0 0
2688 1 6.883522810327778 19.870205822622857 0.7997290982461045 0 0 0
2684 7 8.60418738219934 18.877332305430404 -0.0268549384243734 0 0 0
2696 1 10.325376132652782 19.87020582262285 0.7997290982461024 0 0 0
2915 7 6.883365876283707 21.857893023037697 -0.02685493241475803 0 0 0
2923 7 10.325219198608705 21.857893023037704 -0.02685493241476051 0 0 0
2919 1 8.604513582858523 22.850766520511602 0.7997290896257461 0 0 0
2692 7 12.046040704524328 18.877332305430404 -0.02685493842437453 0 0 0
2704 1 13.767229454977787 19.87020582262285 0.7997290982461037 0 0 0
2700 7 15.487894026849318 18.877332305430404 -0.02685493842437485 0 0 0
2712 1 17.209082777302793 19.870205822622857 0.7997290982461039 0 0 0
2931 7 13.76707252093372 21.857893023037708 -0.026854932414758243 0 0 0
2939 7 17.208925843258733 21.8578930230377 -0.026854932414755756 0 0 0
2927 1 12.046366905183515 22.850766520511606 0.7997290896257481 0 0 0
2935 1 15.488220227508496 22.850766520511602 0.7997290896257463 0 0 0
2708 7 18.92974734917432 18.877332305430404 -0.026854938424373958 0 0 0
2720 1 20.650936099627796 19.870205822622857 0.7997290982461034 0 0 0
2716 7 22.37160067149932 18.877332305430404 -0.026854938424374152 0 0 0
2947 7 20.650779165583735 21.8578930230377 -0.02685493241475581 0 0 0
2943 1 18.93007354983349 22.8507665205116 0.7997290896257448 0 0 0
2951 1 22.371926872158493 22.8507665205116 0.7997290896257446 0 0 0
2724 7 25.81345399382434 18.877332305430414 -0.026854938424371394 0 0 0
2728 1 24.09278942195279 19.870205822622857 0.799729098246107 0 0 0
2736 1 27.534642744277757 19.870205822622857 0.7997290982461048 0 0 0
2732 7 29.255307316149356 18.877332305430404 -0.026854938424377115 0 0 0
2955 7 24.092632487908727 21.8578930230377 -0.026854932414758927 0 0 0
2963 7 27.534485810233697 21.8578930230377 -0.026854932414759038 0 0 0
2959 1 25.813780194483517 22.850766520511584 0.7997290896257442 0 0 0
2967 1 29.255633516808537 22.8507665205116 0.7997290896257455 0 0 0
2744 1 30.976496066602767 19.870205822622854 0.7997290982461004 0 0 0
2740 7 32.69716063847434 18.877332305430404 -0.026854938424376588 0 0 0
2752 1 34.418349388927794 19.870205822622847 0.7997290982461004 0 0 0
2971 7 30.976339132558696 21.857893023037704 -0.026854932414753653 0 0 0
2979 7 34.4181924548837 21.857893023037708 -0.026854932414758604 0 0 0
2975 1 32.697486839133525 22.850766520511602 0.7997290896257462 0 0 0
2748 7 36.13901396079931 18.8773323054304 -0.02685493842436793 0 0 0
2760 1 37.86020271125278 19.870205822622857 0.7997290982461118 0 0 0
2756 7 39.58086728312434 18.877332305430404 -0.026854938424374045 0 0 0
2987 7 37.86004577720871 21.857893023037704 -0.02685493241476044 0 0 0
2983 1 36.13934016145852 22.850766520511602 0.7997290896257461 0 0 0
2991 1 39.58119348378351 22.850766520511602 0.7997290896257484 0 0 0
2768 1 41.30205603357777 19.870205822622857 0.7997290982461038 0 0 0
2764 7 43.022720605449344 18.877332305430404 -0.02685493842437428 0 0 0
2776 1 44.74390935590278 19.87020582262285 0.7997290982461012 0 0 0
2772 7 46.46457392777433 18.877332305430407 -0.026854938424377292 0 0 0
2995 7 41.30189909953372 21.8578930230377 -0.026854932414756044 0 0 0
3003 7 44.74375242185873 21.857893023037704 -0.026854932414753487 0 0 0
2999 1 43.0230468061085 22.8507665205116 0.7997290896257453 0 0 0
3007 1 46.464900128433506 22.850766520511584 0.7997290896257435 0 0 0
2780 7 49.90642725009934 18.8773323054304 -0.02685493842436875 0 0 0
2784 1 48.18576267822778 19.870205822622857 0.7997290982461047 0 0 0
2560 1 51.62761600055277 19.870205822622847 0.7997290982461011 -1 0 0
3011 7 48.185605744183704 21.8578930230377 -0.0268549324147586 0 0 0
2787 7 51.62745906650872 21.857893023037708 -0.02685493241475806 -1 0 0
3015 1 49.906753450758515 22.850766520511606 0.7997290896257495 0 0 0
2556 7 53.34828057242433 18.877332305430404 -0.02685493842437514 -1 0 0
2568 1 55.06946932287779 19.870205822622854 0.7997290982461062 -1 0 0
2564 7 56.79013389474932 18.8773323054304 -0.02685493842437568 -1 0 0
2576 1 58.51132264520279 19.870205822622857 0.7997290982461015 -1 0 0
2795 7 55.06931238883371 21.857893023037704 -0.026854932414762608 -1 0 0
2803 7 58.51116571115872 21.8578930230377 -0.026854932414755513 -1 0 0
2791 1 53.3486067730835 22.8507665205116 0.7997290896257442 -1 0 0
2799 1 56.79046009540851 22.850766520511606 0.7997290896257467 -1 0 0
2572 7 60.23198721707431 18.877332305430404 -0.026854938424373996 -1 0 0
2580 7 63.67384053939934 18.87733230543041 -0.026854938424367418 -1 0 0
2584 1 61.95317596752778 19.870205822622864 0.7997290982461085 -1 0 0
2811 7 61.953019033483706 21.857893023037693 -0.026854932414761112 -1 0 0
2807 1 60.2323134177335 22.8507665205116 0.7997290896257452 -1 0 0