LAMMPS data file via write_data, version 29 Aug 2024, timestep = 2, units = metal

7888 atoms
8 atom types

0 99.813746347425 xlo xhi
0 101.339064660098 ylo yhi
-50 50 zlo zhi

Masses

1 114.818
2 114.818
3 114.818
4 114.818
5 15.999
6 15.999
7 15.999
8 15.999

Atoms # atomic

1972 5 1.72045026528341 0.9941008995986682 -0.030647444834356757 0 0 0
1984 1 3.4417442594213106 1.9867195597872667 0.7971447161273503 0 0 0
1980 5 5.1623035876083945 0.994100899598716 -0.03064744483437037 0 0 0
2211 5 3.441464325769158 3.9746616135820134 -0.030647436662145665 0 0 0
2207 1 1.7208490071460139 4.967280247803515 0.7971447032786326 0 0 0
2215 1 5.162702329471033 4.967280247803521 0.7971447032786386 0 0 0
1992 1 6.883597581746313 1.9867195597872702 0.7971447161273536 0 0 0
1988 5 8.604156909933394 0.9941008995987106 -0.030647444834372754 0 0 0
2000 1 10.325450904071326 1.9867195597872627 0.7971447161273508 0 0 0
2219 5 6.88331764809415 3.974661613582012 -0.030647436662146116 0 0 0
2227 5 10.325170970419142 3.9746616135820196 -0.03064743666214484 0 0 0
2223 1 8.604555651796046 4.967280247803518 0.7971447032786382 0 0 0
1996 5 12.046010232258382 0.9941008995987144 -0.030647444834369562 0 0 0
2008 1 13.767304226396325 1.9867195597872611 0.7971447161273525 0 0 0
2004 5 15.487863554583376 0.9941008995987134 -0.03064744483437254 0 0 0
2016 1 17.209157548721336 1.9867195597872696 0.797144716127352 0 0 0
2235 5 13.767024292744166 3.9746616135820236 -0.030647436662143285 0 0 0
2243 5 17.208877615069174 3.974661613582013 -0.03064743666214377 0 0 0
2231 1 12.046408974121034 4.967280247803525 0.7971447032786405 0 0 0
2239 1 15.48826229644601 4.967280247803524 0.7971447032786358 0 0 0
2012 5 18.929716876908373 0.9941008995987154 -0.030647444834370815 0 0 0
2024 1 20.65101087104634 1.9867195597872689 0.7971447161273527 0 0 0
2020 5 22.371570199233375 0.9941008995987158 -0.030647444834370468 0 0 0
2251 5 20.650730937394176 3.9746616135820143 -0.030647436662144225 0 0 0
2247 1 18.930115618771012 4.967280247803521 0.7971447032786388 0 0 0
2255 1 22.371968941096014 4.967280247803521 0.7971447032786385 0 0 0
2028 5 25.813423521558402 0.9941008995987142 -0.030647444834362235 0 0 0
2032 1 24.09286419337133 1.9867195597872747 0.7971447161273562 0 0 0
2040 1 27.534717515696286 1.9867195597872758 0.7971447161273529 0 0 0
2036 5 29.255276843883422 0.9941008995987113 -0.030647444834375044 0 0 0
2259 5 24.092584259719168 3.974661613582009 -0.03064743666214676 0 0 0
2267 5 27.534437582044138 3.9746616135820063 -0.03064743666214731 0 0 0
2263 1 25.813822263421034 4.967280247803507 0.797144703278639 0 0 0
2271 1 29.255675585746054 4.967280247803523 0.7971447032786396 0 0 0
2048 1 30.9765708380213 1.9867195597872653 0.7971447161273484 0 0 0
2044 5 32.6971301662084 0.9941008995987162 -0.03064744483437079 0 0 0
2056 1 34.418424160346326 1.9867195597872558 0.7971447161273464 0 0 0
2275 5 30.97629090436914 3.9746616135820165 -0.030647436662141328 0 0 0
2283 5 34.41814422669412 3.974661613582011 -0.030647436662154033 0 0 0
2279 1 32.69752890807105 4.967280247803522 0.7971447032786343 0 0 0
2052 5 36.13898348853336 0.9941008995987122 -0.03064744483437291 0 0 0
2064 1 37.86027748267134 1.9867195597872713 0.7971447161273609 0 0 0
2060 5 39.580836810858386 0.994100899598716 -0.030647444834369465 0 0 0
2291 5 37.85999754901913 3.9746616135820236 -0.03064743666214157 0 0 0
2287 1 36.13938223039608 4.967280247803529 0.7971447032786393 0 0 0
2295 1 39.58123555272103 4.967280247803527 0.7971447032786436 0 0 0
2072 1 41.302130804996324 1.9867195597872687 0.7971447161273526 0 0 0
2068 5 43.02269013318339 0.994100899598715 -0.030647444834371193 0 0 0
2080 1 44.74398412732133 1.986719559787266 0.7971447161273483 0 0 0
2076 5 46.464543455508384 0.9941008995987148 -0.030647444834361975 0 0 0
2299 5 41.301850871344165 3.974661613582014 -0.030647436662144426 0 0 0
2307 5 44.74370419366915 3.9746616135820094 -0.030647436662147188 0 0 0
2303 1 43.02308887504603 4.967280247803521 0.7971447032786385 0 0 0
2311 1 46.46494219737106 4.967280247803503 0.7971447032786348 0 0 0
2084 5 49.90639677783341 0.9941008995987088 -0.03064744483437646 0 0 0
2088 1 48.1858374496463 1.9867195597872749 0.7971447161273528 0 0 0
1864 1 51.627690771971324 1.9867195597872611 0.7971447161273502 -1 0 0
2315 5 48.18555751599412 3.974661613582015 -0.03064743666213968 0 0 0
2091 5 51.62741083831914 3.974661613582014 -0.03064743666215066 -1 0 0
2319 1 49.90679551969605 4.967280247803532 0.7971447032786425 0 0 0
1860 5 53.34825010015837 0.9941008995987118 -0.03064744483437345 -1 0 0
1872 1 55.06954409429634 1.986719559787266 0.7971447161273548 -1 0 0
1868 5 56.790103422483384 0.9941008995987188 -0.03064744483436414 -1 0 0
1880 1 58.511397416621314 1.9867195597872664 0.7971447161273494 -1 0 0
2099 5 55.06926416064416 3.974661613582023 -0.030647436662141345 -1 0 0
2107 5 58.51111748296914 3.9746616135820076 -0.030647436662150557 -1 0 0
2095 1 53.348648842021035 4.967280247803529 0.7971447032786411 -1 0 0
2103 1 56.790502164346016 4.9672802478035125 0.7971447032786338 -1 0 0
1876 5 60.231956744808386 0.9941008995987161 -0.030647444834370367 -1 0 0
1884 5 63.67381006713342 0.9941008995987157 -0.030647444834366957 -1 0 0
1888 1 61.95325073894631 1.9867195597872744 0.7971447161273583 -1 0 0
2115 5 61.95297080529413 3.974661613582016 -0.030647436662141897 -1 0 0
2111 1 60.232355486671054 4.967280247803523 0.7971447032786377 -1 0 0
2119 1 63.67420880899605 4.967280247803513 0.7971447032786365 -1 0 0
1896 1 65.39510406127128 1.9867195597872678 0.797144716127349 -1 0 0
1892 5 67.11566338945842 0.9941008995987144 -0.030647444834370124 -1 0 0
1904 1 68.83695738359629 1.9867195597872618 0.7971447161273538 -1 0 0
2123 5 65.3948241276191 3.9746616135820063 -0.030647436662149835 -1 0 0
2131 5 68.83667744994415 3.9746616135820263 -0.030647436662141748 -1 0 0
2127 1 67.11606213132106 4.967280247803535 0.7971447032786512 -1 0 0
1900 5 70.55751671178339 0.9941008995987037 -0.030647444834381726 -1 0 0
1912 1 72.27881070592134 1.9867195597872624 0.7971447161273443 -1 0 0
1908 5 73.99937003410834 0.9941008995987209 -0.03064744483436599 -1 0 0
1920 1 75.72066402824635 1.9867195597872638 0.7971447161273539 -1 0 0
2139 5 72.27853077226915 3.9746616135820063 -0.03064743666214865 -1 0 0
2147 5 75.72038409459417 3.974661613582028 -0.03064743666213901 -1 0 0
2135 1 70.557915453646 4.967280247803527 0.7971447032786375 -1 0 0
2143 1 73.99976877597103 4.967280247803526 0.7971447032786361 -1 0 0
1916 5 77.44122335643335 0.9941008995987132 -0.030647444834368064 -1 0 0
1928 1 79.16251735057132 1.986719559787283 0.7971447161273628 -1 0 0
1924 5 80.88307667875841 0.9941008995987224 -0.030647444834365836 -1 0 0
2155 5 79.16223741691914 3.97466161358201 -0.030647436662143174 -1 0 0
2151 1 77.44162209829602 4.9672802478035045 0.7971447032786312 -1 0 0
2159 1 80.88347542062102 4.9672802478035285 0.7971447032786462 -1 0 0
1936 1 82.60437067289628 1.9867195597872687 0.7971447161273526 -1 0 0
1932 5 84.32493000108342 0.9941008995986664 -0.030647444834358318 -1 0 0
1940 5 87.76678332340839 0.994100899598707 -0.03064744483437551 -1 0 0
1944 1 86.0462239952213 1.9867195597872698 0.7971447161273486 -1 0 0
2163 5 82.60409073924417 3.9746616135820134 -0.0306474366621449 -1 0 0
2171 5 86.04594406156912 3.974661613581999 -0.030647436662156455 -1 0 0
2167 1 84.32532874294601 4.96728024780352 0.797144703278631 -1 0 0
2175 1 87.76718206527109 4.967280247803519 0.7971447032786401 -1 0 0
1952 1 89.48807731754634 1.986719559787252 0.7971447161273422 -1 0 0
1948 5 91.20863664573334 0.9941008995987146 -0.03064744483436954 -1 0 0
1960 1 92.92993063987134 1.9867195597872762 0.7971447161273593 -1 0 0
2179 5 89.48779738389409 3.9746616135820183 -0.0306474366621453 -1 0 0
2187 5 92.92965070621915 3.9746616135820183 -0.030647436662140155 -1 0 0
2183 1 91.20903538759606 4.967280247803535 0.7971447032786488 -1 0 0
1956 5 94.65048996805837 0.9941008995987163 -0.03064744483437011 -1 0 0
1968 1 96.37178396219632 1.9867195597872758 0.7971447161273567 -1 0 0
1964 5 98.09234329038341 0.994100899598724 -0.030647444834359695 -1 0 0
1976 1 99.81363728452128 1.9867195597872596 0.7971447161273493 -1 0 0
2195 5 96.37150402854415 3.974661613582005 -0.030647436662148097 -1 0 0
2203 5 99.81335735086915 3.9746616135820263 -0.03064743666214025 -1 0 0
2191 1 94.650888709921 4.967280247803523 0.7971447032786418 -1 0 0
2199 1 98.09274203224604 4.967280247803519 0.7971447032786382 -1 0 0
2204 5 1.7204502652834097 6.955222350192682 -0.03064744483436179 0 0 0
2216 1 3.4417442594213115 7.947841010381267 0.7971447161273494 0 0 0
2212 5 5.1623035876083945 6.955222350192688 -0.03064744483435703 0 0 0
2443 5 3.4414643257691604 9.935783064176011 -0.03064743666214622 0 0 0
2439 1 1.7208490071460127 10.928401698397511 0.797144703278637 0 0 0
2447 1 5.162702329471033 10.928401698397517 0.797144703278641 0 0 0
2224 1 6.883597581746313 7.9478410103812696 0.7971447161273519 0 0 0
2220 5 8.604156909933394 6.955222350192687 -0.03064744483436118 0 0 0
2232 1 10.325450904071326 7.94784101038126 0.7971447161273504 0 0 0
2451 5 6.883317648094149 9.93578306417601 -0.030647436662146275 0 0 0
2459 5 10.325170970419144 9.93578306417602 -0.03064743666214604 0 0 0
2455 1 8.604555651796046 10.928401698397519 0.7971447032786398 0 0 0
2228 5 12.046010232258382 6.955222350192688 -0.03064744483435695 0 0 0
2240 1 13.767304226396325 7.947841010381261 0.797144716127352 0 0 0
2236 5 15.487863554583376 6.955222350192681 -0.0306474448343592 0 0 0
2248 1 17.20915754872134 7.947841010381269 0.7971447161273515 0 0 0
2467 5 13.767024292744166 9.935783064176023 -0.030647436662143243 0 0 0
2475 5 17.208877615069174 9.935783064176013 -0.030647436662143812 0 0 0
2463 1 12.046408974121034 10.928401698397517 0.7971447032786441 0 0 0
2471 1 15.48826229644601 10.928401698397515 0.7971447032786395 0 0 0
2244 5 18.929716876908373 6.955222350192687 -0.03064744483435739 0 0 0
2256 1 20.65101087104634 7.947841010381268 0.797144716127351 0 0 0
2252 5 22.37157019923337 6.955222350192687 -0.030647444834357725 0 0 0
2483 5 20.650730937394176 9.935783064176013 -0.030647436662143805 0 0 0
2479 1 18.930115618771012 10.928401698397517 0.7971447032786411 0 0 0
2487 1 22.371968941096014 10.928401698397515 0.7971447032786407 0 0 0
2260 5 25.813423521558402 6.955222350192704 -0.03064744483435755 0 0 0
2264 1 24.09286419337133 7.947841010381275 0.7971447161273563 0 0 0
2272 1 27.534717515696286 7.947841010381274 0.7971447161273536 0 0 0
2268 5 29.255276843883426 6.955222350192683 -0.0306474448343623 0 0 0
2491 5 24.092584259719168 9.935783064176007 -0.030647436662147313 0 0 0
2499 5 27.53443758204414 9.935783064176007 -0.030647436662147927 0 0 0
2495 1 25.813822263421034 10.928401698397504 0.7971447032786418 0 0 0
2503 1 29.255675585746054 10.928401698397517 0.7971447032786407 0 0 0
2280 1 30.9765708380213 7.947841010381264 0.7971447161273479 0 0 0
2276 5 32.6971301662084 6.955222350192683 -0.03064744483435796 0 0 0
2288 1 34.418424160346326 7.94784101038126 0.7971447161273465 0 0 0
2507 5 30.97629090436914 9.935783064176018 -0.030647436662139968 0 0 0
2515 5 34.41814422669411 9.935783064176007 -0.030647436662153256 0 0 0
2511 1 32.69752890807105 10.928401698397511 0.7971447032786366 0 0 0
2284 5 36.13898348853336 6.9552223501926775 -0.030647444834361333 0 0 0
2296 1 37.86027748267134 7.94784101038127 0.797144716127362 0 0 0
2292 5 39.580836810858386 6.955222350192686 -0.030647444834357523 0 0 0
2523 5 37.859997549019134 9.935783064176025 -0.03064743666214153 0 0 0
2519 1 36.13938223039608 10.928401698397527 0.7971447032786417 0 0 0
2527 1 39.58123555272103 10.92840169839752 0.7971447032786447 0 0 0
2304 1 41.302130804996324 7.947841010381269 0.7971447161273517 0 0 0
2300 5 43.02269013318339 6.955222350192687 -0.030647444834357884 0 0 0
2312 1 44.74398412732133 7.947841010381265 0.7971447161273477 0 0 0
2308 5 46.464543455508384 6.955222350192704 -0.03064744483435732 0 0 0
2531 5 41.30185087134416 9.935783064176013 -0.030647436662143396 0 0 0
2539 5 44.74370419366915 9.935783064176007 -0.030647436662148326 0 0 0
2535 1 43.02308887504603 10.928401698397515 0.7971447032786408 0 0 0
2543 1 46.46494219737106 10.9284016983975 0.7971447032786384 0 0 0
2316 5 49.90639677783341 6.955222350192677 -0.03064744483436309 0 0 0
2320 1 48.1858374496463 7.947841010381273 0.7971447161273536 0 0 0
2096 1 51.627690771971324 7.94784101038126 0.7971447161273502 -1 0 0
2547 5 48.18555751599413 9.935783064176016 -0.030647436662140256 0 0 0
2323 5 51.62741083831914 9.935783064176015 -0.030647436662151313 -1 0 0
2551 1 49.90679551969604 10.928401698397522 0.7971447032786456 0 0 0
2092 5 53.34825010015837 6.955222350192679 -0.030647444834360174 -1 0 0
2104 1 55.06954409429634 7.947841010381264 0.7971447161273557 -1 0 0
2100 5 56.79010342248338 6.955222350192696 -0.03064744483435554 -1 0 0
2112 1 58.511397416621314 7.947841010381268 0.7971447161273482 -1 0 0
2331 5 55.06926416064416 9.935783064176025 -0.03064743666214084 -1 0 0
2339 5 58.511117482969134 9.935783064176007 -0.03064743666214948 -1 0 0
2327 1 53.348648842021035 10.92840169839752 0.7971447032786442 -1 0 0
2335 1 56.790502164346016 10.928401698397503 0.7971447032786362 -1 0 0
2108 5 60.23195674480838 6.9552223501926855 -0.030647444834356906 -1 0 0
2116 5 63.67381006713342 6.955222350192694 -0.03064744483435765 -1 0 0
2120 1 61.95325073894631 7.947841010381276 0.7971447161273578 -1 0 0
2347 5 61.95297080529413 9.935783064176015 -0.030647436662141897 -1 0 0
2343 1 60.232355486671054 10.928401698397515 0.7971447032786407 -1 0 0
2351 1 63.67420880899605 10.928401698397511 0.7971447032786388 -1 0 0
2128 1 65.39510406127128 7.947841010381268 0.7971447161273482 -1 0 0
2124 5 67.11566338945842 6.9552223501926855 -0.030647444834357628 -1 0 0
2136 1 68.83695738359629 7.947841010381262 0.7971447161273539 -1 0 0
2355 5 65.3948241276191 9.935783064176004 -0.030647436662150928 -1 0 0
2363 5 68.83667744994416 9.935783064176025 -0.03064743666214172 -1 0 0
2359 1 67.11606213132106 10.928401698397536 0.7971447032786523 -1 0 0
2132 5 70.55751671178339 6.95522235019267 -0.030647444834368816 -1 0 0
2144 1 72.27881070592134 7.947841010381261 0.7971447161273463 -1 0 0
2140 5 73.99937003410834 6.955222350192687 -0.03064744483435424 -1 0 0
2152 1 75.72066402824635 7.9478410103812624 0.7971447161273544 -1 0 0
2371 5 72.27853077226915 9.935783064176011 -0.030647436662147885 -1 0 0
2379 5 75.72038409459415 9.93578306417603 -0.030647436662138317 -1 0 0
2367 1 70.557915453646 10.928401698397517 0.7971447032786401 -1 0 0
2375 1 73.99976877597103 10.928401698397515 0.7971447032786372 -1 0 0
2148 5 77.44122335643335 6.955222350192694 -0.030647444834359536 -1 0 0
2160 1 79.16251735057132 7.947841010381281 0.7971447161273636 -1 0 0
2156 5 80.88307667875841 6.9552223501926935 -0.03064744483435381 -1 0 0
2387 5 79.16223741691914 9.93578306417601 -0.03064743666214431 -1 0 0
2383 1 77.44162209829601 10.928401698397504 0.7971447032786316 -1 0 0
2391 1 80.88347542062102 10.928401698397524 0.7971447032786485 -1 0 0
2168 1 82.60437067289628 7.9478410103812696 0.7971447161273523 -1 0 0
2164 5 84.32493000108342 6.9552223501926775 -0.030647444834362048 -1 0 0
2172 5 87.76678332340839 6.955222350192685 -0.030647444834366343 -1 0 0
2176 1 86.0462239952213 7.9478410103812696 0.7971447161273488 -1 0 0
2395 5 82.60409073924417 9.935783064176011 -0.030647436662144888 -1 0 0
2403 5 86.04594406156912 9.935783064176 -0.030647436662155712 -1 0 0
2399 1 84.32532874294603 10.928401698397511 0.7971447032786356 -1 0 0
2407 1 87.76718206527109 10.92840169839751 0.7971447032786424 -1 0 0
2184 1 89.48807731754634 7.947841010381253 0.7971447161273414 -1 0 0
2180 5 91.20863664573334 6.955222350192685 -0.030647444834358044 -1 0 0
2192 1 92.92993063987134 7.947841010381276 0.7971447161273592 -1 0 0
2411 5 89.48779738389409 9.935783064176016 -0.030647436662145318 -1 0 0
2419 5 92.92965070621915 9.935783064176018 -0.03064743666213955 -1 0 0
2415 1 91.20903538759606 10.928401698397536 0.7971447032786501 -1 0 0
2188 5 94.65048996805837 6.955222350192686 -0.030647444834358124 -1 0 0
2200 1 96.37178396219632 7.947841010381272 0.7971447161273583 -1 0 0
2196 5 98.09234329038341 6.955222350192702 -0.030647444834350942 -1 0 0
2208 1 99.81363728452128 7.947841010381258 0.7971447161273496 -1 0 0
2427 5 96.37150402854415 9.93578306417601 -0.030647436662147382 -1 0 0
2435 5 99.81335735086915 9.935783064176029 -0.030647436662140124 -1 0 0
2423 1 94.650888709921 10.928401698397515 0.797144703278643 -1 0 0
2431 1 98.09274203224604 10.928401698397506 0.7971447032786392 -1 0 0
2436 5 1.720450265283411 12.9163438007867 -0.030647444834355643 0 0 0
2448 1 3.4417442594213075 13.908962460975236 0.7971447161273507 0 0 0
2444 5 5.162303587608395 12.916343800786702 -0.030647444834354595 0 0 0
2675 5 3.4414643257691604 15.896904514770045 -0.030647436662146393 0 0 0
2671 1 1.720849007146015 16.889523148991504 0.7971447032786287 0 0 0
2679 1 5.162702329471033 16.889523148991508 0.7971447032786316 0 0 0
2456 1 6.883597581746315 13.90896246097524 0.7971447161273548 0 0 0
2452 5 8.604156909933398 12.9163438007867 -0.030647444834354158 0 0 0
2464 1 10.32545090407132 13.908962460975228 0.7971447161273532 0 0 0
2683 5 6.883317648094148 15.896904514770045 -0.03064743666214675 0 0 0
2691 5 10.325170970419144 15.896904514770055 -0.030647436662146157 0 0 0
2687 1 8.604555651796046 16.889523148991508 0.7971447032786313 0 0 0
2460 5 12.046010232258388 12.916343800786704 -0.0306474448343564 0 0 0
2472 1 13.767304226396325 13.90896246097523 0.7971447161273553 0 0 0
2468 5 15.487863554583376 12.9163438007867 -0.0306474448343569 0 0 0
2480 1 17.209157548721336 13.90896246097524 0.7971447161273548 0 0 0
2699 5 13.767024292744168 15.896904514770059 -0.030647436662143805 0 0 0
2707 5 17.208877615069174 15.896904514770048 -0.030647436662144464 0 0 0
2695 1 12.046408974121032 16.8895231489915 0.7971447032786383 0 0 0
2703 1 15.488262296446008 16.889523148991508 0.7971447032786307 0 0 0
2476 5 18.929716876908373 12.916343800786702 -0.030647444834355164 0 0 0
2488 1 20.65101087104634 13.90896246097524 0.797144716127355 0 0 0
2484 5 22.371570199233375 12.916343800786702 -0.030647444834354796 0 0 0
2715 5 20.650730937394176 15.896904514770048 -0.030647436662144343 0 0 0
2711 1 18.93011561877101 16.889523148991508 0.7971447032786324 0 0 0
2719 1 22.37196894109601 16.889523148991508 0.7971447032786321 0 0 0
2492 5 25.813423521558402 12.91634380078672 -0.030647444834352427 0 0 0
2496 1 24.09286419337133 13.908962460975243 0.7971447161273584 0 0 0
2504 1 27.534717515696286 13.908962460975243 0.7971447161273552 0 0 0
2500 5 29.255276843883426 12.916343800786699 -0.030647444834358092 0 0 0
2723 5 24.09258425971917 15.896904514770043 -0.030647436662147566 0 0 0
2731 5 27.53443758204414 15.896904514770043 -0.03064743666214738 0 0 0
2727 1 25.813822263421034 16.88952314899149 0.7971447032786334 0 0 0
2735 1 29.255675585746054 16.889523148991508 0.797144703278632 0 0 0
2512 1 30.9765708380213 13.908962460975234 0.7971447161273497 0 0 0
2508 5 32.6971301662084 12.916343800786704 -0.030647444834354644 0 0 0
2520 1 34.418424160346326 13.908962460975223 0.7971447161273482 0 0 0
2739 5 30.97629090436914 15.896904514770052 -0.030647436662141106 0 0 0
2747 5 34.41814422669412 15.896904514770046 -0.030647436662153985 0 0 0
2743 1 32.69752890807105 16.889523148991504 0.7971447032786285 0 0 0
2516 5 36.13898348853336 12.916343800786693 -0.030647444834355213 0 0 0
2528 1 37.86027748267134 13.908962460975244 0.7971447161273619 0 0 0
2524 5 39.580836810858386 12.916343800786702 -0.03064744483435411 0 0 0
2755 5 37.85999754901913 15.896904514770053 -0.030647436662141293 0 0 0
2751 1 36.13938223039608 16.88952314899151 0.7971447032786348 0 0 0
2759 1 39.58123555272103 16.88952314899151 0.7971447032786365 0 0 0
2536 1 41.302130804996324 13.90896246097524 0.7971447161273545 0 0 0
2532 5 43.02269013318339 12.916343800786702 -0.030647444834354415 0 0 0
2544 1 44.74398412732133 13.908962460975234 0.7971447161273498 0 0 0
2540 5 46.464543455508384 12.91634380078672 -0.03064744483435218 0 0 0
2763 5 41.30185087134416 15.896904514770048 -0.03064743666214336 0 0 0
2771 5 44.74370419366915 15.896904514770045 -0.030647436662147122 0 0 0
2767 1 43.02308887504603 16.889523148991508 0.7971447032786314 0 0 0
2775 1 46.46494219737106 16.889523148991486 0.7971447032786293 0 0 0
2548 5 49.90639677783341 12.916343800786697 -0.03064744483435972 0 0 0
2552 1 48.1858374496463 13.908962460975241 0.7971447161273554 0 0 0
2328 1 51.627690771971324 13.908962460975227 0.7971447161273522 -1 0 0
2779 5 48.18555751599413 15.896904514770052 -0.030647436662139593 0 0 0
2555 5 51.62741083831914 15.89690451477005 -0.03064743666215137 -1 0 0
2783 1 49.90679551969604 16.88952314899151 0.7971447032786362 0 0 0
2324 5 53.34825010015837 12.916343800786699 -0.030647444834357395 -1 0 0
2336 1 55.06954409429634 13.908962460975232 0.7971447161273582 -1 0 0
2332 5 56.79010342248338 12.916343800786716 -0.030647444834351875 -1 0 0
2344 1 58.511397416621314 13.908962460975236 0.7971447161273507 -1 0 0
2563 5 55.06926416064416 15.896904514770059 -0.030647436662142532 -1 0 0
2571 5 58.51111748296914 15.896904514770041 -0.03064743666215057 -1 0 0
2559 1 53.348648842021035 16.88952314899151 0.7971447032786356 -1 0 0
2567 1 56.790502164346016 16.889523148991493 0.7971447032786291 -1 0 0
2340 5 60.23195674480838 12.916343800786702 -0.03064744483435425 -1 0 0
2348 5 63.67381006713342 12.916343800786708 -0.030647444834351896 -1 0 0
2352 1 61.95325073894631 13.908962460975244 0.7971447161273596 -1 0 0
2579 5 61.95297080529413 15.896904514770048 -0.030647436662142553 -1 0 0
2575 1 60.232355486671054 16.889523148991508 0.7971447032786314 -1 0 0
2583 1 63.67420880899605 16.889523148991497 0.7971447032786324 -1 0 0
2360 1 65.39510406127128 13.908962460975236 0.7971447161273509 -1 0 0
2356 5 67.11566338945842 12.916343800786695 -0.03064744483435176 -1 0 0
2368 1 68.83695738359629 13.908962460975236 0.7971447161273537 -1 0 0
2587 5 65.3948241276191 15.896904514770041 -0.030647436662149787 -1 0 0
2595 5 68.83667744994416 15.896904514770053 -0.030647436662141085 -1 0 0
2591 1 67.11606213132106 16.889523148991522 0.7971447032786447 -1 0 0
2364 5 70.55751671178339 12.916343800786692 -0.030647444834365795 -1 0 0
2376 1 72.27881070592134 13.90896246097523 0.7971447161273459 -1 0 0
2372 5 73.99937003410834 12.916343800786708 -0.030647444834350487 -1 0 0
2384 1 75.72066402824635 13.908962460975237 0.7971447161273549 -1 0 0
2603 5 72.27853077226915 15.896904514770041 -0.0306474366621493 -1 0 0
2611 5 75.72038409459417 15.896904514770059 -0.03064743666213728 -1 0 0
2599 1 70.557915453646 16.88952314899151 0.7971447032786325 -1 0 0
2607 1 73.99976877597103 16.889523148991508 0.7971447032786309 -1 0 0
2380 5 77.44122335643335 12.916343800786704 -0.030647444834354713 -1 0 0
2392 1 79.16251735057132 13.90896246097525 0.7971447161273659 -1 0 0
2388 5 80.88307667875841 12.91634380078671 -0.03064744483434924 -1 0 0
2619 5 79.16223741691914 15.896904514770046 -0.030647436662143673 -1 0 0
2615 1 77.44162209829602 16.88952314899149 0.7971447032786235 -1 0 0
2623 1 80.88347542062102 16.889523148991515 0.7971447032786397 -1 0 0
2400 1 82.60437067289628 13.908962460975236 0.7971447161273537 -1 0 0
2396 5 84.32493000108342 12.916343800786697 -0.030647444834358037 -1 0 0
2404 5 87.76678332340839 12.916343800786706 -0.030647444834362852 -1 0 0
2408 1 86.0462239952213 13.908962460975237 0.7971447161273504 -1 0 0
2627 5 82.60409073924417 15.896904514770048 -0.03064743666214378 -1 0 0
2635 5 86.04594406156912 15.896904514770036 -0.030647436662154696 -1 0 0
2631 1 84.32532874294603 16.8895231489915 0.7971447032786237 -1 0 0
2639 1 87.76718206527109 16.8895231489915 0.7971447032786336 -1 0 0
2416 1 89.48807731754634 13.908962460975218 0.7971447161273442 -1 0 0
2412 5 91.20863664573334 12.916343800786695 -0.030647444834351528 -1 0 0
2424 1 92.92993063987134 13.908962460975252 0.7971447161273593 -1 0 0
2643 5 89.48779738389409 15.896904514770055 -0.030647436662146005 -1 0 0
2651 5 92.92965070621915 15.896904514770048 -0.030647436662138178 -1 0 0
2647 1 91.20903538759606 16.88952314899152 0.7971447032786417 -1 0 0
2420 5 94.65048996805837 12.916343800786704 -0.03064744483435414 -1 0 0
2432 1 96.37178396219632 13.908962460975243 0.7971447161273579 -1 0 0
2428 5 98.0923432903834 12.916343800786722 -0.030647444834347 -1 0 0
2440 1 99.81363728452128 13.90896246097523 0.7971447161273483 -1 0 0
2659 5 96.37150402854415 15.89690451477004 -0.03064743666214939 -1 0 0
2667 5 99.81335735086915 15.896904514770053 -0.03064743666214098 -1 0 0
2655 1 94.650888709921 16.88952314899151 0.7971447032786361 -1 0 0
2663 1 98.09274203224604 16.8895231489915 0.797144703278634 -1 0 0
2668 5 1.7204502652834113 18.87746525138069 -0.030647444834362728 0 0 0
2680 1 3.4417442594213075 19.87008391156926 0.7971447161273534 0 0 0
2676 5 5.162303587608396 18.877465251380695 -0.0306474448343613 0 0 0
2907 5 3.4414643257691604 21.85802596536402 -0.030647436662146206 0 0 0
2903 1 1.7208490071460172 22.85064459958551 0.7971447032786355 0 0 0
2911 1 5.162702329471033 22.85064459958551 0.7971447032786368 0 0 0
2688 1 6.883597581746313 19.870083911569264 0.7971447161273574 0 0 0
2684 5 8.6041569099334 18.877465251380695 -0.03064744483436033 0 0 0
2696 1 10.325450904071321 19.87008391156925 0.7971447161273525 0 0 0
2915 5 6.883317648094148 21.85802596536402 -0.03064743666214646 0 0 0
2923 5 10.325170970419144 21.85802596536403 -0.030647436662148392 0 0 0
2919 1 8.604555651796044 22.850644599585518 0.7971447032786375 0 0 0
2692 5 12.046010232258388 18.87746525138071 -0.030647444834361395 0 0 0
2704 1 13.767304226396323 19.87008391156925 0.7971447161273534 0 0 0
2700 5 15.487863554583372 18.877465251380695 -0.030647444834362294 0 0 0
2712 1 17.20915754872134 19.870083911569264 0.7971447161273572 0 0 0
2931 5 13.767024292744166 21.858025965364032 -0.030647436662145575 0 0 0
2939 5 17.208877615069174 21.858025965364025 -0.030647436662144187 0 0 0
2927 1 12.046408974121034 22.85064459958551 0.7971447032786445 0 0 0
2935 1 15.488262296446011 22.850644599585515 0.7971447032786371 0 0 0
2708 5 18.929716876908373 18.877465251380695 -0.030647444834361923 0 0 0
2720 1 20.65101087104634 19.870083911569264 0.7971447161273575 0 0 0
2716 5 22.37157019923337 18.877465251380695 -0.030647444834361534 0 0 0
2947 5 20.650730937394176 21.858025965364025 -0.030647436662144093 0 0 0
2943 1 18.93011561877101 22.850644599585515 0.7971447032786376 0 0 0
2951 1 22.37196894109601 22.850644599585515 0.7971447032786371 0 0 0
2724 5 25.813423521558402 18.877465251380716 -0.03064744483436143 0 0 0
2728 1 24.09286419337133 19.870083911569267 0.7971447161273613 0 0 0
2736 1 27.534717515696286 19.870083911569267 0.7971447161273582 0 0 0
2732 5 29.255276843883422 18.87746525138069 -0.030647444834365378 0 0 0
2955 5 24.09258425971917 21.858025965364018 -0.030647436662147122 0 0 0
2963 5 27.534437582044138 21.85802596536402 -0.030647436662146574 0 0 0
2959 1 25.813822263421034 22.850644599585493 0.7971447032786378 0 0 0
2967 1 29.255675585746054 22.85064459958551 0.7971447032786367 0 0 0
2744 1 30.9765708380213 19.87008391156926 0.7971447161273529 0 0 0
2740 5 32.6971301662084 18.877465251380695 -0.030647444834361295 0 0 0
2752 1 34.418424160346326 19.87008391156925 0.797144716127351 0 0 0
2971 5 30.976290904369137 21.85802596536403 -0.030647436662140447 0 0 0
2979 5 34.41814422669412 21.85802596536402 -0.0306474366621532 0 0 0
2975 1 32.69752890807105 22.85064459958551 0.7971447032786332 0 0 0
2748 5 36.13898348853336 18.87746525138069 -0.030647444834365305 0 0 0
2760 1 37.86027748267134 19.870083911569274 0.7971447161273629 0 0 0
2756 5 39.580836810858386 18.877465251380695 -0.03064744483436132 0 0 0
2987 5 37.85999754901913 21.858025965364025 -0.03064743666214098 0 0 0
2983 1 36.13938223039608 22.85064459958552 0.79714470327864 0 0 0
2991 1 39.58123555272104 22.85064459958552 0.7971447032786432 0 0 0
2768 1 41.302130804996324 19.870083911569264 0.7971447161273574 0 0 0
2764 5 43.02269013318339 18.877465251380695 -0.030647444834361645 0 0 0
2776 1 44.74398412732133 19.87008391156926 0.7971447161273528 0 0 0
2772 5 46.464543455508384 18.877465251380716 -0.03064744483436118 0 0 0
2995 5 41.30185087134416 21.858025965364025 -0.03064743666214329 0 0 0
3003 5 44.74370419366915 21.85802596536402 -0.030647436662146928 0 0 0
2999 1 43.02308887504602 22.85064459958551 0.7971447032786367 0 0 0
3007 1 46.46494219737106 22.85064459958549 0.7971447032786344 0 0 0
2780 5 49.90639677783341 18.87746525138069 -0.030647444834365635 0 0 0
2784 1 48.1858374496463 19.870083911569267 0.797144716127358 0 0 0
2560 1 51.627690771971324 19.87008391156925 0.7971447161273527 -1 0 0
3011 5 48.18555751599413 21.85802596536403 -0.030647436662139413 0 0 0
2787 5 51.62741083831914 21.858025965364025 -0.030647436662153547 -1 0 0
3015 1 49.90679551969604 22.85064459958552 0.7971447032786426 0 0 0
2556 5 53.34825010015837 18.877465251380695 -0.030647444834362443 -1 0 0
2568 1 55.06954409429634 19.870083911569253 0.7971447161273576 -1 0 0
2564 5 56.79010342248338 18.877465251380713 -0.030647444834355615 -1 0 0
2576 1 58.511397416621314 19.87008391156926 0.7971447161273524 -1 0 0
2795 5 55.06926416064416 21.858025965364032 -0.03064743666214484 -1 0 0
2803 5 58.51111748296914 21.858025965364014 -0.030647436662150578 -1 0 0
2791 1 53.348648842021035 22.85064459958552 0.7971447032786431 -1 0 0
2799 1 56.790502164346016 22.850644599585504 0.7971447032786356 -1 0 0
2572 5 60.23195674480838 18.877465251380695 -0.03064744483436136 -1 0 0
2580 5 63.67381006713342 18.877465251380706 -0.03064744483435903 -1 0 0
2584 1 61.95325073894631 19.870083911569267 0.7971447161273617 -1 0 0
2811 5 61.95297080529413 21.858025965364025 -0.03064743666214238 -1 0 0
2807 1 60.232355486671054 22.85064459958551 0.7971447032786368 -1 0 0
2815 1 63.67420880899605 22.850644599585504 0.7971447032786375 -1 0 0