LAMMPS data file via write_data, version 29 Aug 2024, timestep = 0, units = metal

3944 atoms
4 atom types

0 99.813746347425 xlo xhi
0 101.339064660098 ylo yhi
0 20.277747412157 zlo zhi

Masses

1 114.818
2 114.818
3 15.999
4 15.999

Atoms # atomic

1972 3 1.7205060415135023 0.9937092056469936 0 0 0 0
1984 1 3.4414830926515023 1.9870676607679982 0.7907875585910009 0 0 0
1980 3 5.162359363838505 0.9937092056469936 0 0 0 0
1992 1 6.883336414976505 1.9870676607679982 0.7907875585910009 0 0 0
1988 3 8.604212686163507 0.9937092056469936 0 0 0 0
2000 1 10.325189737301507 1.9870676607679982 0.7907875585910009 0 0 0
1996 3 12.046066008488502 0.9937092056469936 0 0 0 0
2008 1 13.767043059626502 1.9870676607679982 0.7907875585910009 0 0 0
2004 3 15.487919330813497 0.9937092056469936 0 0 0 0
2016 1 17.208896381951504 1.9870676607679982 0.7907875585910009 0 0 0
2012 3 18.9297726531385 0.9937092056469936 0 0 0 0
2024 1 20.650749704276507 1.9870676607679982 0.7907875585910009 0 0 0
2020 3 22.371625975463502 0.9937092056469936 0 0 0 0
2028 3 25.813479297788504 0.9937092056469936 0 0 0 0
2032 1 24.09260302660151 1.9870676607679982 0.7907875585910009 0 0 0
2040 1 27.534456348926497 1.9870676607679982 0.7907875585910009 0 0 0
2036 3 29.255332620113506 0.9937092056469936 0 0 0 0
2048 1 30.9763096712515 1.9870676607679982 0.7907875585910009 0 0 0
2044 3 32.69718594243851 0.9937092056469936 0 0 0 0
2056 1 34.4181629935765 1.9870676607679982 0.7907875585910009 0 0 0
2052 3 36.1390392647635 0.9937092056469936 0 0 0 0
2064 1 37.860016315901504 1.9870676607679982 0.7907875585910009 0 0 0
2060 3 39.5808925870885 0.9937092056469936 0 0 0 0
2072 1 41.301869638226506 1.9870676607679982 0.7907875585910009 0 0 0
2068 3 43.0227459094135 0.9937092056469936 0 0 0 0
2080 1 44.74372296055151 1.9870676607679982 0.7907875585910009 0 0 0
2076 3 46.464599231738504 0.9937092056469936 0 0 0 0
2084 3 49.906452554063506 0.9937092056469936 0 0 0 0
2088 1 48.1855762828765 1.9870676607679982 0.7907875585910009 0 0 0
1864 1 51.6274296052015 1.9870676607679982 0.7907875585910009 -1 0 0
1860 3 53.3483058763885 0.9937092056469936 0 -1 0 0
1872 1 55.0692829275265 1.9870676607679982 0.7907875585910009 -1 0 0
1868 3 56.790159198713496 0.9937092056469936 0 -1 0 0
1880 1 58.511136249851496 1.9870676607679982 0.7907875585910009 -1 0 0
1876 3 60.2320125210385 0.9937092056469936 0 -1 0 0
1884 3 63.6738658433635 0.9937092056469936 0 -1 0 0
1888 1 61.9529895721765 1.9870676607679982 0.7907875585910009 -1 0 0
1896 1 65.3948428945015 1.9870676607679982 0.7907875585910009 -1 0 0
1892 3 67.1157191656885 0.9937092056469936 0 -1 0 0
1904 1 68.8366962168265 1.9870676607679982 0.7907875585910009 -1 0 0
1900 3 70.5575724880135 0.9937092056469936 0 -1 0 0
1912 1 72.2785495391515 1.9870676607679982 0.7907875585910009 -1 0 0
1908 3 73.9994258103385 0.9937092056469936 0 -1 0 0
1920 1 75.7204028614765 1.9870676607679982 0.7907875585910009 -1 0 0
1916 3 77.4412791326635 0.9937092056469936 0 -1 0 0
1928 1 79.1622561838015 1.9870676607679982 0.7907875585910009 -1 0 0
1924 3 80.8831324549885 0.9937092056469936 0 -1 0 0
1936 1 82.60410950612649 1.9870676607679982 0.7907875585910009 -1 0 0
1932 3 84.3249857773135 0.9937092056469936 0 -1 0 0
1940 3 87.7668390996385 0.9937092056469936 0 -1 0 0
1944 1 86.04596282845151 1.9870676607679982 0.7907875585910009 -1 0 0
1952 1 89.4878161507765 1.9870676607679982 0.7907875585910009 -1 0 0
1948 3 91.20869242196349 0.9937092056469936 0 -1 0 0
1960 1 92.9296694731015 1.9870676607679982 0.7907875585910009 -1 0 0
1956 3 94.65054574428851 0.9937092056469936 0 -1 0 0
1968 1 96.3715227954265 1.9870676607679982 0.7907875585910009 -1 0 0
1964 3 98.0923990666135 0.9937092056469936 0 -1 0 0
1976 1 99.81337611775149 1.9870676607679982 0.7907875585910009 -1 0 0
2211 3 3.4416071567525037 3.974269930943997 0 0 0 0
2219 3 6.883460479077506 3.974269930943997 0 0 0 0
2227 3 10.325313801402501 3.974269930943997 0 0 0 0
2235 3 13.767167123727504 3.974269930943997 0 0 0 0
2243 3 17.209020446052506 3.974269930943997 0 0 0 0
2251 3 20.650873768377508 3.974269930943997 0 0 0 0
2259 3 24.09272709070251 3.974269930943997 0 0 0 0
2267 3 27.5345804130275 3.974269930943997 0 0 0 0
2275 3 30.9764337353525 3.974269930943997 0 0 0 0
2283 3 34.4182870576775 3.974269930943997 0 0 0 0
2291 3 37.860140380002505 3.974269930943997 0 0 0 0
2299 3 41.30199370232751 3.974269930943997 0 0 0 0
2307 3 44.74384702465251 3.974269930943997 0 0 0 0
2315 3 48.1857003469775 3.974269930943997 0 0 0 0
2091 3 51.6275536693025 3.974269930943997 0 -1 0 0
2099 3 55.0694069916275 3.974269930943997 0 -1 0 0
2107 3 58.5112603139525 3.974269930943997 0 -1 0 0
2115 3 61.9531136362775 3.974269930943997 0 -1 0 0
2123 3 65.3949669586025 3.974269930943997 0 -1 0 0
2131 3 68.8368202809275 3.974269930943997 0 -1 0 0
2139 3 72.2786736032525 3.974269930943997 0 -1 0 0
2147 3 75.7205269255775 3.974269930943997 0 -1 0 0
2155 3 79.16238024790249 3.974269930943997 0 -1 0 0
2163 3 82.6042335702275 3.974269930943997 0 -1 0 0
2171 3 86.0460868925525 3.974269930943997 0 -1 0 0
2179 3 89.4879402148775 3.974269930943997 0 -1 0 0
2187 3 92.9297935372025 3.974269930943997 0 -1 0 0
2195 3 96.3716468595275 3.974269930943997 0 -1 0 0
2203 3 99.8135001818525 3.974269930943997 0 -1 0 0
2207 1 1.7207308855655015 4.967628386064995 0.7907875585910009 0 0 0
2215 1 5.162584207890504 4.967628386064995 0.7907875585910009 0 0 0
2223 1 8.604437530215506 4.967628386064995 0.7907875585910009 0 0 0
2231 1 12.046290852540501 4.967628386064995 0.7907875585910009 0 0 0
2239 1 15.488144174865496 4.967628386064995 0.7907875585910009 0 0 0
2247 1 18.9299974971905 4.967628386064995 0.7907875585910009 0 0 0
2255 1 22.3718508195155 4.967628386064995 0.7907875585910009 0 0 0
2263 1 25.813704141840503 4.967628386064995 0.7907875585910009 0 0 0
2271 1 29.255557464165506 4.967628386064995 0.7907875585910009 0 0 0
2279 1 32.69741078649051 4.967628386064995 0.7907875585910009 0 0 0
2287 1 36.13926410881551 4.967628386064995 0.7907875585910009 0 0 0
2295 1 39.5811174311405 4.967628386064995 0.7907875585910009 0 0 0
2303 1 43.0229707534655 4.967628386064995 0.7907875585910009 0 0 0
2311 1 46.4648240757905 4.967628386064995 0.7907875585910009 0 0 0
2319 1 49.906677398115505 4.967628386064995 0.7907875585910009 0 0 0
2095 1 53.3485307204405 4.967628386064995 0.7907875585910009 -1 0 0
2103 1 56.790384042765496 4.967628386064995 0.7907875585910009 -1 0 0
2111 1 60.2322373650905 4.967628386064995 0.7907875585910009 -1 0 0
2119 1 63.6740906874155 4.967628386064995 0.7907875585910009 -1 0 0
2127 1 67.1159440097405 4.967628386064995 0.7907875585910009 -1 0 0
2135 1 70.55779733206549 4.967628386064995 0.7907875585910009 -1 0 0
2143 1 73.9996506543905 4.967628386064995 0.7907875585910009 -1 0 0
2151 1 77.4415039767155 4.967628386064995 0.7907875585910009 -1 0 0
2159 1 80.8833572990405 4.967628386064995 0.7907875585910009 -1 0 0
2167 1 84.3252106213655 4.967628386064995 0.7907875585910009 -1 0 0
2175 1 87.7670639436905 4.967628386064995 0.7907875585910009 -1 0 0
2183 1 91.2089172660155 4.967628386064995 0.7907875585910009 -1 0 0
2191 1 94.65077058834049 4.967628386064995 0.7907875585910009 -1 0 0
2199 1 98.09262391066551 4.967628386064995 0.7907875585910009 -1 0 0
2204 3 1.7205060415135023 6.954830656240993 0 0 0 0
2216 1 3.4414830926515023 7.948189111361998 0.7907875585910009 0 0 0
2212 3 5.162359363838505 6.954830656240993 0 0 0 0
2224 1 6.883336414976505 7.948189111361998 0.7907875585910009 0 0 0
2220 3 8.604212686163507 6.954830656240993 0 0 0 0
2232 1 10.325189737301507 7.948189111361998 0.7907875585910009 0 0 0
2228 3 12.046066008488502 6.954830656240993 0 0 0 0
2240 1 13.767043059626502 7.948189111361998 0.7907875585910009 0 0 0
2236 3 15.487919330813497 6.954830656240993 0 0 0 0
2248 1 17.208896381951504 7.948189111361998 0.7907875585910009 0 0 0
2244 3 18.9297726531385 6.954830656240993 0 0 0 0
2256 1 20.650749704276507 7.948189111361998 0.7907875585910009 0 0 0
2252 3 22.371625975463502 6.954830656240993 0 0 0 0
2260 3 25.813479297788504 6.954830656240993 0 0 0 0
2264 1 24.09260302660151 7.948189111361998 0.7907875585910009 0 0 0
2272 1 27.534456348926497 7.948189111361998 0.7907875585910009 0 0 0
2268 3 29.255332620113506 6.954830656240993 0 0 0 0
2280 1 30.9763096712515 7.948189111361998 0.7907875585910009 0 0 0
2276 3 32.69718594243851 6.954830656240993 0 0 0 0
2288 1 34.4181629935765 7.948189111361998 0.7907875585910009 0 0 0
2284 3 36.1390392647635 6.954830656240993 0 0 0 0
2296 1 37.860016315901504 7.948189111361998 0.7907875585910009 0 0 0
2292 3 39.5808925870885 6.954830656240993 0 0 0 0
2304 1 41.301869638226506 7.948189111361998 0.7907875585910009 0 0 0
2300 3 43.0227459094135 6.954830656240993 0 0 0 0
2312 1 44.74372296055151 7.948189111361998 0.7907875585910009 0 0 0
2308 3 46.464599231738504 6.954830656240993 0 0 0 0
2316 3 49.906452554063506 6.954830656240993 0 0 0 0
2320 1 48.1855762828765 7.948189111361998 0.7907875585910009 0 0 0
2096 1 51.6274296052015 7.948189111361998 0.7907875585910009 -1 0 0
2092 3 53.3483058763885 6.954830656240993 0 -1 0 0
2104 1 55.0692829275265 7.948189111361998 0.7907875585910009 -1 0 0
2100 3 56.790159198713496 6.954830656240993 0 -1 0 0
2112 1 58.511136249851496 7.948189111361998 0.7907875585910009 -1 0 0
2108 3 60.2320125210385 6.954830656240993 0 -1 0 0
2116 3 63.6738658433635 6.954830656240993 0 -1 0 0
2120 1 61.9529895721765 7.948189111361998 0.7907875585910009 -1 0 0
2128 1 65.3948428945015 7.948189111361998 0.7907875585910009 -1 0 0
2124 3 67.1157191656885 6.954830656240993 0 -1 0 0
2136 1 68.8366962168265 7.948189111361998 0.7907875585910009 -1 0 0
2132 3 70.5575724880135 6.954830656240993 0 -1 0 0
2144 1 72.2785495391515 7.948189111361998 0.7907875585910009 -1 0 0
2140 3 73.9994258103385 6.954830656240993 0 -1 0 0
2152 1 75.7204028614765 7.948189111361998 0.7907875585910009 -1 0 0
2148 3 77.4412791326635 6.954830656240993 0 -1 0 0
2160 1 79.1622561838015 7.948189111361998 0.7907875585910009 -1 0 0
2156 3 80.8831324549885 6.954830656240993 0 -1 0 0
2168 1 82.60410950612649 7.948189111361998 0.7907875585910009 -1 0 0
2164 3 84.3249857773135 6.954830656240993 0 -1 0 0
2172 3 87.7668390996385 6.954830656240993 0 -1 0 0
2176 1 86.04596282845151 7.948189111361998 0.7907875585910009 -1 0 0
2184 1 89.4878161507765 7.948189111361998 0.7907875585910009 -1 0 0
2180 3 91.20869242196349 6.954830656240993 0 -1 0 0
2192 1 92.9296694731015 7.948189111361998 0.7907875585910009 -1 0 0
2188 3 94.65054574428851 6.954830656240993 0 -1 0 0
2200 1 96.3715227954265 7.948189111361998 0.7907875585910009 -1 0 0
2196 3 98.0923990666135 6.954830656240993 0 -1 0 0
2208 1 99.81337611775149 7.948189111361998 0.7907875585910009 -1 0 0
2443 3 3.4416071567525037 9.935391381537997 0 0 0 0
2451 3 6.883460479077506 9.935391381537997 0 0 0 0
2459 3 10.325313801402501 9.935391381537997 0 0 0 0
2467 3 13.767167123727504 9.935391381537997 0 0 0 0
2475 3 17.209020446052506 9.935391381537997 0 0 0 0
2483 3 20.650873768377508 9.935391381537997 0 0 0 0
2491 3 24.09272709070251 9.935391381537997 0 0 0 0
2499 3 27.5345804130275 9.935391381537997 0 0 0 0
2507 3 30.9764337353525 9.935391381537997 0 0 0 0
2515 3 34.4182870576775 9.935391381537997 0 0 0 0
2523 3 37.860140380002505 9.935391381537997 0 0 0 0
2531 3 41.30199370232751 9.935391381537997 0 0 0 0
2539 3 44.74384702465251 9.935391381537997 0 0 0 0
2547 3 48.1857003469775 9.935391381537997 0 0 0 0
2323 3 51.6275536693025 9.935391381537997 0 -1 0 0
2331 3 55.0694069916275 9.935391381537997 0 -1 0 0
2339 3 58.5112603139525 9.935391381537997 0 -1 0 0
2347 3 61.9531136362775 9.935391381537997 0 -1 0 0
2355 3 65.3949669586025 9.935391381537997 0 -1 0 0
2363 3 68.8368202809275 9.935391381537997 0 -1 0 0
2371 3 72.2786736032525 9.935391381537997 0 -1 0 0
2379 3 75.7205269255775 9.935391381537997 0 -1 0 0
2387 3 79.16238024790249 9.935391381537997 0 -1 0 0
2395 3 82.6042335702275 9.935391381537997 0 -1 0 0
2403 3 86.0460868925525 9.935391381537997 0 -1 0 0
2411 3 89.4879402148775 9.935391381537997 0 -1 0 0
2419 3 92.9297935372025 9.935391381537997 0 -1 0 0
2427 3 96.3716468595275 9.935391381537997 0 -1 0 0
2435 3 99.8135001818525 9.935391381537997 0 -1 0 0
2439 1 1.7207308855655015 10.928749836658994 0.7907875585910009 0 0 0
2447 1 5.162584207890504 10.928749836658994 0.7907875585910009 0 0 0
2455 1 8.604437530215506 10.928749836658994 0.7907875585910009 0 0 0
2463 1 12.046290852540501 10.928749836658994 0.7907875585910009 0 0 0
2471 1 15.488144174865496 10.928749836658994 0.7907875585910009 0 0 0
2479 1 18.9299974971905 10.928749836658994 0.7907875585910009 0 0 0
2487 1 22.3718508195155 10.928749836658994 0.7907875585910009 0 0 0
2495 1 25.813704141840503 10.928749836658994 0.7907875585910009 0 0 0
2503 1 29.255557464165506 10.928749836658994 0.7907875585910009 0 0 0
2511 1 32.69741078649051 10.928749836658994 0.7907875585910009 0 0 0
2519 1 36.13926410881551 10.928749836658994 0.7907875585910009 0 0 0
2527 1 39.5811174311405 10.928749836658994 0.7907875585910009 0 0 0
2535 1 43.0229707534655 10.928749836658994 0.7907875585910009 0 0 0
2543 1 46.4648240757905 10.928749836658994 0.7907875585910009 0 0 0
2551 1 49.906677398115505 10.928749836658994 0.7907875585910009 0 0 0
2327 1 53.3485307204405 10.928749836658994 0.7907875585910009 -1 0 0
2335 1 56.790384042765496 10.928749836658994 0.7907875585910009 -1 0 0
2343 1 60.2322373650905 10.928749836658994 0.7907875585910009 -1 0 0
2351 1 63.6740906874155 10.928749836658994 0.7907875585910009 -1 0 0
2359 1 67.1159440097405 10.928749836658994 0.7907875585910009 -1 0 0
2367 1 70.55779733206549 10.928749836658994 0.7907875585910009 -1 0 0
2375 1 73.9996506543905 10.928749836658994 0.7907875585910009 -1 0 0
2383 1 77.4415039767155 10.928749836658994 0.7907875585910009 -1 0 0
2391 1 80.8833572990405 10.928749836658994 0.7907875585910009 -1 0 0
2399 1 84.3252106213655 10.928749836658994 0.7907875585910009 -1 0 0
2407 1 87.7670639436905 10.928749836658994 0.7907875585910009 -1 0 0
2415 1 91.2089172660155 10.928749836658994 0.7907875585910009 -1 0 0
2423 1 94.65077058834049 10.928749836658994 0.7907875585910009 -1 0 0
2431 1 98.09262391066551 10.928749836658994 0.7907875585910009 -1 0 0
2436 3 1.7205060415135023 12.915952106834993 0 0 0 0
2448 1 3.4414830926515023 13.90931056195599 0.7907875585910009 0 0 0
2444 3 5.162359363838505 12.915952106834993 0 0 0 0
2456 1 6.883336414976505 13.90931056195599 0.7907875585910009 0 0 0
2452 3 8.604212686163507 12.915952106834993 0 0 0 0
2464 1 10.325189737301507 13.90931056195599 0.7907875585910009 0 0 0
2460 3 12.046066008488502 12.915952106834993 0 0 0 0
2472 1 13.767043059626502 13.90931056195599 0.7907875585910009 0 0 0
2468 3 15.487919330813497 12.915952106834993 0 0 0 0
2480 1 17.208896381951504 13.90931056195599 0.7907875585910009 0 0 0
2476 3 18.9297726531385 12.915952106834993 0 0 0 0
2488 1 20.650749704276507 13.90931056195599 0.7907875585910009 0 0 0
2484 3 22.371625975463502 12.915952106834993 0 0 0 0
2492 3 25.813479297788504 12.915952106834993 0 0 0 0
2496 1 24.09260302660151 13.90931056195599 0.7907875585910009 0 0 0
2504 1 27.534456348926497 13.90931056195599 0.7907875585910009 0 0 0
2500 3 29.255332620113506 12.915952106834993 0 0 0 0
2512 1 30.9763096712515 13.90931056195599 0.7907875585910009 0 0 0
2508 3 32.69718594243851 12.915952106834993 0 0 0 0
2520 1 34.4181629935765 13.90931056195599 0.7907875585910009 0 0 0
2516 3 36.1390392647635 12.915952106834993 0 0 0 0
2528 1 37.860016315901504 13.90931056195599 0.7907875585910009 0 0 0
2524 3 39.5808925870885 12.915952106834993 0 0 0 0
2536 1 41.301869638226506 13.90931056195599 0.7907875585910009 0 0 0
2532 3 43.0227459094135 12.915952106834993 0 0 0 0
2544 1 44.74372296055151 13.90931056195599 0.7907875585910009 0 0 0
2540 3 46.464599231738504 12.915952106834993 0 0 0 0
2548 3 49.906452554063506 12.915952106834993 0 0 0 0
2552 1 48.1855762828765 13.90931056195599 0.7907875585910009 0 0 0
2328 1 51.6274296052015 13.90931056195599 0.7907875585910009 -1 0 0
2324 3 53.3483058763885 12.915952106834993 0 -1 0 0
2336 1 55.0692829275265 13.90931056195599 0.7907875585910009 -1 0 0
2332 3 56.790159198713496 12.915952106834993 0 -1 0 0
2344 1 58.511136249851496 13.90931056195599 0.7907875585910009 -1 0 0
2340 3 60.2320125210385 12.915952106834993 0 -1 0 0
2348 3 63.6738658433635 12.915952106834993 0 -1 0 0
2352 1 61.9529895721765 13.90931056195599 0.7907875585910009 -1 0 0
2360 1 65.3948428945015 13.90931056195599 0.7907875585910009 -1 0 0
2356 3 67.1157191656885 12.915952106834993 0 -1 0 0
2368 1 68.8366962168265 13.90931056195599 0.7907875585910009 -1 0 0
2364 3 70.5575724880135 12.915952106834993 0 -1 0 0
2376 1 72.2785495391515 13.90931056195599 0.7907875585910009 -1 0 0
2372 3 73.9994258103385 12.915952106834993 0 -1 0 0
2384 1 75.7204028614765 13.90931056195599 0.7907875585910009 -1 0 0
2380 3 77.4412791326635 12.915952106834993 0 -1 0 0
2392 1 79.1622561838015 13.90931056195599 0.7907875585910009 -1 0 0
2388 3 80.8831324549885 12.915952106834993 0 -1 0 0
2400 1 82.60410950612649 13.90931056195599 0.7907875585910009 -1 0 0
2396 3 84.3249857773135 12.915952106834993 0 -1 0 0
2404 3 87.7668390996385 12.915952106834993 0 -1 0 0
2408 1 86.04596282845151 13.90931056195599 0.7907875585910009 -1 0 0
2416 1 89.4878161507765 13.90931056195599 0.7907875585910009 -1 0 0
2412 3 91.20869242196349 12.915952106834993 0 -1 0 0
2424 1 92.9296694731015 13.90931056195599 0.7907875585910009 -1 0 0
2420 3 94.65054574428851 12.915952106834993 0 -1 0 0
2432 1 96.3715227954265 13.90931056195599 0.7907875585910009 -1 0 0
2428 3 98.0923990666135 12.915952106834993 0 -1 0 0
2440 1 99.81337611775149 13.90931056195599 0.7907875585910009 -1 0 0
2675 3 3.4416071567525037 15.896512832132004 0 0 0 0
2683 3 6.883460479077506 15.896512832132004 0 0 0 0
2691 3 10.325313801402501 15.896512832132004 0 0 0 0
2699 3 13.767167123727504 15.896512832132004 0 0 0 0
2707 3 17.209020446052506 15.896512832132004 0 0 0 0
2715 3 20.650873768377508 15.896512832132004 0 0 0 0
2723 3 24.09272709070251 15.896512832132004 0 0 0 0
2731 3 27.5345804130275 15.896512832132004 0 0 0 0
2739 3 30.9764337353525 15.896512832132004 0 0 0 0
2747 3 34.4182870576775 15.896512832132004 0 0 0 0
2755 3 37.860140380002505 15.896512832132004 0 0 0 0
2763 3 41.30199370232751 15.896512832132004 0 0 0 0
2771 3 44.74384702465251 15.896512832132004 0 0 0 0
2779 3 48.1857003469775 15.896512832132004 0 0 0 0
2555 3 51.6275536693025 15.896512832132004 0 -1 0 0
2563 3 55.0694069916275 15.896512832132004 0 -1 0 0
2571 3 58.5112603139525 15.896512832132004 0 -1 0 0
2579 3 61.9531136362775 15.896512832132004 0 -1 0 0
2587 3 65.3949669586025 15.896512832132004 0 -1 0 0
2595 3 68.8368202809275 15.896512832132004 0 -1 0 0
2603 3 72.2786736032525 15.896512832132004 0 -1 0 0
2611 3 75.7205269255775 15.896512832132004 0 -1 0 0
2619 3 79.16238024790249 15.896512832132004 0 -1 0 0
2627 3 82.6042335702275 15.896512832132004 0 -1 0 0
2635 3 86.0460868925525 15.896512832132004 0 -1 0 0
2643 3 89.4879402148775 15.896512832132004 0 -1 0 0
2651 3 92.9297935372025 15.896512832132004 0 -1 0 0
2659 3 96.3716468595275 15.896512832132004 0 -1 0 0
2667 3 99.8135001818525 15.896512832132004 0 -1 0 0
2671 1 1.7207308855655015 16.889871287253 0.7907875585910009 0 0 0
2679 1 5.162584207890504 16.889871287253 0.7907875585910009 0 0 0
2687 1 8.604437530215506 16.889871287253 0.7907875585910009 0 0 0
2695 1 12.046290852540501 16.889871287253 0.7907875585910009 0 0 0
2703 1 15.488144174865496 16.889871287253 0.7907875585910009 0 0 0
2711 1 18.9299974971905 16.889871287253 0.7907875585910009 0 0 0
2719 1 22.3718508195155 16.889871287253 0.7907875585910009 0 0 0
2727 1 25.813704141840503 16.889871287253 0.7907875585910009 0 0 0
2735 1 29.255557464165506 16.889871287253 0.7907875585910009 0 0 0
2743 1 32.69741078649051 16.889871287253 0.7907875585910009 0 0 0
2751 1 36.13926410881551 16.889871287253 0.7907875585910009 0 0 0
2759 1 39.5811174311405 16.889871287253 0.7907875585910009 0 0 0
2767 1 43.0229707534655 16.889871287253 0.7907875585910009 0 0 0
2775 1 46.4648240757905 16.889871287253 0.7907875585910009 0 0 0
2783 1 49.906677398115505 16.889871287253 0.7907875585910009 0 0 0
2559 1 53.3485307204405 16.889871287253 0.7907875585910009 -1 0 0
2567 1 56.790384042765496 16.889871287253 0.7907875585910009 -1 0 0
2575 1 60.2322373650905 16.889871287253 0.7907875585910009 -1 0 0
2583 1 63.6740906874155 16.889871287253 0.7907875585910009 -1 0 0
2591 1 67.1159440097405 16.889871287253 0.7907875585910009 -1 0 0
2599 1 70.55779733206549 16.889871287253 0.7907875585910009 -1 0 0
2607 1 73.9996506543905 16.889871287253 0.7907875585910009 -1 0 0
2615 1 77.4415039767155 16.889871287253 0.7907875585910009 -1 0 0
2623 1 80.8833572990405 16.889871287253 0.7907875585910009 -1 0 0
2631 1 84.3252106213655 16.889871287253 0.7907875585910009 -1 0 0
2639 1 87.7670639436905 16.889871287253 0.7907875585910009 -1 0 0
2647 1 91.2089172660155 16.889871287253 0.7907875585910009 -1 0 0
2655 1 94.65077058834049 16.889871287253 0.7907875585910009 -1 0 0
2663 1 98.09262391066551 16.889871287253 0.7907875585910009 -1 0 0
2668 3 1.7205060415135023 18.877073557429 0 0 0 0
2680 1 3.4414830926515023 19.870432012549998 0.7907875585910009 0 0 0
2676 3 5.162359363838505 18.877073557429 0 0 0 0
2688 1 6.883336414976505 19.870432012549998 0.7907875585910009 0 0 0
2684 3 8.604212686163507 18.877073557429 0 0 0 0
2696 1 10.325189737301507 19.870432012549998 0.7907875585910009 0 0 0
2692 3 12.046066008488502 18.877073557429 0 0 0 0
2704 1 13.767043059626502 19.870432012549998 0.7907875585910009 0 0 0
2700 3 15.487919330813497 18.877073557429 0 0 0 0
2712 1 17.208896381951504 19.870432012549998 0.7907875585910009 0 0 0
2708 3 18.9297726531385 18.877073557429 0 0 0 0
2720 1 20.650749704276507 19.870432012549998 0.7907875585910009 0 0 0
2716 3 22.371625975463502 18.877073557429 0 0 0 0
2724 3 25.813479297788504 18.877073557429 0 0 0 0
2728 1 24.09260302660151 19.870432012549998 0.7907875585910009 0 0 0
2736 1 27.534456348926497 19.870432012549998 0.7907875585910009 0 0 0
2732 3 29.255332620113506 18.877073557429 0 0 0 0
2744 1 30.9763096712515 19.870432012549998 0.7907875585910009 0 0 0
2740 3 32.69718594243851 18.877073557429 0 0 0 0
2752 1 34.4181629935765 19.870432012549998 0.7907875585910009 0 0 0
2748 3 36.1390392647635 18.877073557429 0 0 0 0
2760 1 37.860016315901504 19.870432012549998 0.7907875585910009 0 0 0
2756 3 39.5808925870885 18.877073557429 0 0 0 0
2768 1 41.301869638226506 19.870432012549998 0.7907875585910009 0 0 0
2764 3 43.0227459094135 18.877073557429 0 0 0 0
2776 1 44.74372296055151 19.870432012549998 0.7907875585910009 0 0 0
2772 3 46.464599231738504 18.877073557429 0 0 0 0
2780 3 49.906452554063506 18.877073557429 0 0 0 0
2784 1 48.1855762828765 19.870432012549998 0.7907875585910009 0 0 0
2560 1 51.6274296052015 19.870432012549998 0.7907875585910009 -1 0 0
2556 3 53.3483058763885 18.877073557429 0 -1 0 0
2568 1 55.0692829275265 19.870432012549998 0.7907875585910009 -1 0 0
2564 3 56.790159198713496 18.877073557429 0 -1 0 0
2576 1 58.511136249851496 19.870432012549998 0.7907875585910009 -1 0 0
2572 3 60.2320125210385 18.877073557429 0 -1 0 0
2580 3 63.6738658433635 18.877073557429 0 -1 0 0
2584 1 61.9529895721765 19.870432012549998 0.7907875585910009 -1 0 0
2592 1 65.3948428945015 19.870432012549998 0.7907875585910009 -1 0 0
2588 3 67.1157191656885 18.877073557429 0 -1 0 0
2600 1 68.8366962168265 19.870432012549998 0.7907875585910009 -1 0 0
2596 3 70.5575724880135 18.877073557429 0 -1 0 0
2608 1 72.2785495391515 19.870432012549998 0.7907875585910009 -1 0 0
2604 3 73.9994258103385 18.877073557429 0 -1 0 0
2616 1 75.7204028614765 19.870432012549998 0.7907875585910009 -1 0 0
2612 3 77.4412791326635 18.877073557429 0 -1 0 0
2624 1 79.1622561838015 19.870432012549998 0.7907875585910009 -1 0 0
2620 3 80.8831324549885 18.877073557429 0 -1 0 0
2632 1 82.60410950612649 19.870432012549998 0.7907875585910009 -1 0 0
2628 3 84.3249857773135 18.877073557429 0 -1 0 0
2636 3 87.7668390996385 18.877073557429 0 -1 0 0
2640 1 86.04596282845151 19.870432012549998 0.7907875585910009 -1 0 0
2648 1 89.4878161507765 19.870432012549998 0.7907875585910009 -1 0 0
2644 3 91.20869242196349 18.877073557429 0 -1 0 0
2656 1 92.9296694731015 19.870432012549998 0.7907875585910009 -1 0 0
2652 3 94.65054574428851 18.877073557429 0 -1 0 0
2664 1 96.3715227954265 19.870432012549998 0.7907875585910009 -1 0 0
2660 3 98.0923990666135 18.877073557429 0 -1 0 0
2672 1 99.81337611775149 19.870432012549998 0.7907875585910009 -1 0 0
2907 3 3.4416071567525037 21.857634282725996 0 0 0 0
2915 3 6.883460479077506 21.857634282725996 0 0 0 0
2923 3 10.325313801402501 21.857634282725996 0 0 0 0
2931 3 13.767167123727504 21.857634282725996 0 0 0 0
2939 3 17.209020446052506 21.857634282725996 0 0 0 0
2947 3 20.650873768377508 21.857634282725996 0 0 0 0
2955 3 24.09272709070251 21.857634282725996 0 0 0 0
2963 3 27.5345804130275 21.857634282725996 0 0 0 0
2971 3 30.9764337353525 21.857634282725996 0 0 0 0
2979 3 34.4182870576775 21.857634282725996 0 0 0 0
2987 3 37.860140380002505 21.857634282725996 0 0 0 0
2995 3 41.30199370232751 21.857634282725996 0 0 0 0
3003 3 44.74384702465251 21.857634282725996 0 0 0 0
3011 3 48.1857003469775 21.857634282725996 0 0 0 0
2787 3 51.6275536693025 21.857634282725996 0 -1 0 0
2795 3 55.0694069916275 21.857634282725996 0 -1 0 0
2803 3 58.5112603139525 21.857634282725996 0 -1 0 0
2811 3 61.9531136362775 21.857634282725996 0 -1 0 0
2819 3 65.3949669586025 21.857634282725996 0 -1 0 0
2827 3 68.8368202809275 21.857634282725996 0 -1 0 0
2835 3 72.2786736032525 21.857634282725996 0 -1 0 0
2843 3 75.7205269255775 21.857634282725996 0 -1 0 0
2851 3 79.16238024790249 21.857634282725996 0 -1 0 0
2859 3 82.6042335702275 21.857634282725996 0 -1 0 0
2867 3 86.0460868925525 21.857634282725996 0 -1 0 0
2875 3 89.4879402148775 21.857634282725996 0 -1 0 0
2883 3 92.9297935372025 21.857634282725996 0 -1 0 0
2891 3 96.3716468595275 21.857634282725996 0 -1 0 0
2899 3 99.8135001818525 21.857634282725996 0 -1 0 0
2903 1 1.7207308855655015 22.850992737846994 0.7907875585910009 0 0 0
2911 1 5.162584207890504 22.850992737846994 0.7907875585910009 0 0 0
2919 1 8.604437530215506 22.850992737846994 0.7907875585910009 0 0 0
2927 1 12.046290852540501 22.850992737846994 0.7907875585910009 0 0 0
2935 1 15.488144174865496 22.850992737846994 0.7907875585910009 0 0 0
2943 1 18.9299974971905 22.850992737846994 0.7907875585910009 0 0 0
2951 1 22.3718508195155 22.850992737846994 0.7907875585910009 0 0 0
2959 1 25.813704141840503 22.850992737846994 0.7907875585910009 0 0 0
2967 1 29.255557464165506 22.850992737846994 0.7907875585910009 0 0 0
2975 1 32.69741078649051 22.850992737846994 0.7907875585910009 0 0 0
2983 1 36.13926410881551 22.850992737846994 0.7907875585910009 0 0 0
2991 1 39.5811174311405 22.850992737846994 0.7907875585910009 0 0 0
2999 1 43.0229707534655 22.850992737846994 0.7907875585910009 0 0 0
3007 1 46.4648240757905 22.850992737846994 0.7907875585910009 0 0 0
3015 1 49.906677398115505 22.850992737846994 0.7907875585910009 0 0 0
2791 1 53.3485307204405 22.850992737846994 0.7907875585910009 -1 0 0
2799 1 56.790384042765496 22.850992737846994 0.7907875585910009 -1 0 0
2807 1 60.2322373650905 22.850992737846994 0.7907875585910009 -1 0 0
2815 1 63.6740906874155 22.850992737846994 0.7907875585910009 -1 0 0
2823 1 67.1159440097405 22.850992737846994 0.7907875585910009 -1 0 0
2831 1 70.55779733206549 22.850992737846994 0.7907875585910009 -1 0 0
2839 1 73.9996506543905 22.850992737846994 0.7907875585910009 -1 0 0
2847 1 77.4415039767155 22.850992737846994 0.7907875585910009 -1 0 0
2855 1 80.8833572990405 22.850992737846994 0.7907875585910009 -1 0 0
2863 1 84.3252106213655 22.850992737846994 0.7907875585910009 -1 0 0
2871 1 87.7670639436905 22.850992737846994 0.7907875585910009 -1 0 0
2879 1 91.2089172660155 22.850992737846994 0.7907875585910009 -1 0 0
2887 1 94.65077058834049 22.850992737846994 0.7907875585910009 -1 0 0
2895 1 98.09262391066551 22.850992737846994 0.7907875585910009 -1 0 0
2900 3 1.7205060415135023 24.838195008022993 0 0 0 0
2912 1 3.4414830926515023 25.83155346314399 0.7907875585910009 0 0 0
2908 3 5.162359363838505 24.838195008022993 0 0 0 0
2920 1 6.883336414976505 25.83155346314399 0.7907875585910009 0 0 0
2916 3 8.604212686163507 24.838195008022993 0 0 0 0
2928 1 10.325189737301507 25.83155346314399 0.7907875585910009 0 0 0
2924 3 12.046066008488502 24.838195008022993 0 0 0 0
2936 1 13.767043059626502 25.83155346314399 0.7907875585910009 0 0 0
2932 3 15.487919330813497 24.838195008022993 0 0 0 0
2944 1 17.208896381951504 25.83155346314399 0.7907875585910009 0 0 0
2940 3 18.9297726531385 24.838195008022993 0 0 0 0
2952 1 20.650749704276507 25.83155346314399 0.7907875585910009 0 0 0
2948 3 22.371625975463502 24.838195008022993 0 0 0 0
2956 3 25.813479297788504 24.838195008022993 0 0 0 0
2960 1 24.09260302660151 25.83155346314399 0.7907875585910009 0 0 0
2968 1 27.534456348926497 25.83155346314399 0.7907875585910009 0 0 0
2964 3 29.255332620113506 24.838195008022993 0 0 0 0
2976 1 30.9763096712515 25.83155346314399 0.7907875585910009 0 0 0
2972 3 32.69718594243851 24.838195008022993 0 0 0 0
2984 1 34.4181629935765 25.83155346314399 0.7907875585910009 0 0 0
2980 3 36.1390392647635 24.838195008022993 0 0 0 0
2992 1 37.860016315901504 25.83155346314399 0.7907875585910009 0 0 0
2988 3 39.5808925870885 24.838195008022993 0 0 0 0
3000 1 41.301869638226506 25.83155346314399 0.7907875585910009 0 0 0
2996 3 43.0227459094135 24.838195008022993 0 0 0 0
3008 1 44.74372296055151 25.83155346314399 0.7907875585910009 0 0 0
3004 3 46.464599231738504 24.838195008022993 0 0 0 0
3012 3 49.906452554063506 24.838195008022993 0 0 0 0
3016 1 48.1855762828765 25.83155346314399 0.7907875585910009 0 0 0
2792 1 51.6274296052015 25.83155346314399 0.7907875585910009 -1 0 0
2788 3 53.3483058763885 24.838195008022993 0 -1 0 0