LAMMPS data file via write_data, version 29 Aug 2024, timestep = 2, units = metal

4032 atoms
3 atom types

0 101.76 xlo xhi
0 102.814535937288 ylo yhi
-50 116.63097485393916 zlo zhi

Masses

1 114.818
2 114.818
3 114.818

Atoms # atomic

721 1 0 0 0.009834438083392067 0 0 0
723 1 2.1199999999999974 1.2239825706819967 1.5268145616205029 0 0 0
725 1 4.239999999999997 0 0.00983443808339162 0 0 0
722 1 2.1199999999999974 3.6719477120460002 0.009834438083389633 0 0 0
724 1 0 4.895930282727997 1.5268145616205007 0 0 0
728 1 4.239999999999997 4.895930282727997 1.5268145616205018 0 0 0
727 1 6.359999999999998 1.2239825706819958 1.5268145616205018 0 0 0
729 1 8.479999999999997 0 0.00983443808339057 0 0 0
731 1 10.599999999999996 1.223982570681996 1.5268145616205013 0 0 0
726 1 6.359999999999998 3.671947712046001 0.00983443808339089 0 0 0
730 1 10.599999999999996 3.671947712046001 0.009834438083390795 0 0 0
732 1 8.479999999999997 4.895930282727998 1.5268145616205022 0 0 0
733 1 12.719999999999997 0 0.009834438083391458 0 0 0
735 1 14.839999999999998 1.2239825706819958 1.526814561620502 0 0 0
734 1 14.839999999999998 3.671947712046001 0.009834438083390705 0 0 0
736 1 12.719999999999997 4.895930282727997 1.5268145616205016 0 0 0
737 1 16.959999999999997 0 0.009834438083390653 0 0 0
740 1 16.959999999999997 4.895930282727998 1.5268145616205027 0 0 0
739 1 19.079999999999995 1.2239825706819962 1.5268145616205029 0 0 0
741 1 21.199999999999996 0 0.009834438083392143 0 0 0
738 1 19.079999999999995 3.6719477120460002 0.009834438083389888 0 0 0
744 1 21.199999999999996 4.8959302827279965 1.5268145616205009 0 0 0
743 1 23.319999999999997 1.2239825706819962 1.5268145616205027 0 0 0
745 1 25.439999999999994 0 0.009834438083390734 0 0 0
747 1 27.559999999999995 1.2239825706819953 1.5268145616205007 0 0 0
742 1 23.319999999999997 3.6719477120460007 0.009834438083389746 0 0 0
746 1 27.559999999999995 3.6719477120460016 0.009834438083391493 0 0 0
748 1 25.439999999999994 4.895930282727998 1.5268145616205027 0 0 0
749 1 29.68 0 0.00983443808339233 0 0 0
751 1 31.8 1.2239825706819967 1.526814561620503 0 0 0
753 1 33.919999999999995 0 0.009834438083390686 0 0 0
750 1 31.8 3.6719477120460002 0.00983443808338943 0 0 0
752 1 29.68 4.8959302827279965 1.526814561620501 0 0 0
756 1 33.919999999999995 4.895930282727998 1.526814561620502 0 0 0
755 1 36.04 1.2239825706819947 1.5268145616205 0 0 0
757 1 38.160000000000004 0 0.009834438083390303 0 0 0
754 1 36.04 3.6719477120460025 0.009834438083392717 0 0 0
760 1 38.160000000000004 4.895930282727998 1.526814561620503 0 0 0
759 1 40.279999999999994 1.2239825706819967 1.5268145616205033 0 0 0
761 1 42.4 3.942885230315487e-16 0.009834438083393095 0 0 0
763 1 44.52 1.2239825706819967 1.5268145616205029 0 0 0
758 1 40.279999999999994 3.6719477120460002 0.009834438083389423 0 0 0
762 1 44.52 3.6719477120460002 0.009834438083389309 0 0 0
764 1 42.4 4.8959302827279965 1.5268145616204998 0 0 0
765 1 46.63999999999999 0 0.009834438083390296 0 0 0
767 1 48.76 1.223982570681995 1.5268145616205002 0 0 0
766 1 48.76 3.6719477120460025 0.009834438083392407 0 0 0
768 1 46.63999999999999 4.895930282727998 1.526814561620503 0 0 0
673 1 50.88 0 0.009834438083391146 -1 0 0
675 1 53 1.2239825706819958 1.5268145616205022 -1 0 0
677 1 55.120000000000005 0 0.009834438083391687 -1 0 0
674 1 53 3.671947712046001 0.0098344380833907 -1 0 0
676 1 50.88 4.895930282727998 1.5268145616205018 -1 0 0
680 1 55.120000000000005 4.895930282727997 1.5268145616205016 -1 0 0
679 1 57.24 1.2239825706819967 1.526814561620503 -1 0 0
681 1 59.36 0 0.009834438083391702 -1 0 0
683 1 61.480000000000004 1.2239825706819958 1.5268145616205018 -1 0 0
678 1 57.24 3.6719477120460002 0.009834438083389394 -1 0 0
682 1 61.480000000000004 3.671947712046001 0.00983443808339106 -1 0 0
684 1 59.36 4.895930282727997 1.526814561620501 -1 0 0
685 1 63.6 0 0.009834438083390205 -1 0 0
687 1 65.72 1.2239825706819958 1.5268145616205018 -1 0 0
686 1 65.72 3.671947712046001 0.009834438083390722 -1 0 0
688 1 63.6 4.895930282727999 1.5268145616205027 -1 0 0
689 1 67.84 2.4030485517283143e-16 0.009834438083392827 -1 0 0
691 1 69.96000000000001 1.2239825706819967 1.5268145616205029 -1 0 0
693 1 72.08 0 0.009834438083390299 -1 0 0
690 1 69.96000000000001 3.6719477120460002 0.009834438083389302 -1 0 0
692 1 67.84 4.8959302827279965 1.5268145616205004 -1 0 0
696 1 72.08 4.895930282727998 1.5268145616205024 -1 0 0
695 1 74.2 1.2239825706819947 1.5268145616205004 -1 0 0
697 1 76.32000000000001 0 0.009834438083390303 -1 0 0
699 1 78.44 1.2239825706819967 1.5268145616205029 -1 0 0
694 1 74.2 3.6719477120460025 0.009834438083392754 -1 0 0
698 1 78.44 3.6719477120460002 0.009834438083389291 -1 0 0
700 1 76.32000000000001 4.895930282727998 1.5268145616205024 -1 0 0
701 1 80.56 0 0.009834438083392695 -1 0 0
703 1 82.68 1.223982570681995 1.5268145616205004 -1 0 0
702 1 82.68 3.671947712046002 0.009834438083392075 -1 0 0
704 1 80.56 4.8959302827279965 1.5268145616205007 -1 0 0
705 1 84.80000000000001 0 0.009834438083390707 -1 0 0
707 1 86.92 1.2239825706819982 1.5268145616205053 -1 0 0
709 1 89.03999999999999 0 0.009834438083390707 -1 0 0
706 1 86.92 3.6719477120459985 0.009834438083387383 -1 0 0
708 1 84.80000000000001 4.895930282727998 1.5268145616205022 -1 0 0
712 1 89.03999999999999 4.895930282727998 1.5268145616205022 -1 0 0
711 1 91.16 1.223982570681995 1.5268145616205004 -1 0 0
713 1 93.28 0 0.009834438083392145 -1 0 0
715 1 95.4 1.223982570681995 1.5268145616205004 -1 0 0
710 1 91.16 3.671947712046002 0.009834438083392065 -1 0 0
714 1 95.4 3.671947712046002 0.009834438083392048 -1 0 0
716 1 93.28 4.8959302827279965 1.5268145616205013 -1 0 0
717 1 97.52000000000001 0 0.009834438083390296 -1 0 0
719 1 99.64 1.2239825706819965 1.526814561620503 -1 0 0
718 1 99.64 3.6719477120460002 0.00983443808338978 -1 0 0
720 1 97.52000000000001 4.895930282727998 1.5268145616205027 -1 0 0
817 1 0 7.343895424092002 0.009834438083390042 0 0 0
821 1 4.239999999999997 7.343895424092002 0.009834438083389628 0 0 0
819 1 2.1199999999999974 8.567877994774 1.5268145616205013 0 0 0
818 1 2.1199999999999974 11.015843136138002 0.009834438083388262 0 0 0
825 1 8.479999999999997 7.343895424092001 0.009834438083388753 0 0 0
823 1 6.359999999999998 8.567877994773998 1.5268145616205004 0 0 0
827 1 10.599999999999996 8.567877994773998 1.5268145616205 0 0 0
822 1 6.359999999999998 11.015843136138002 0.009834438083389565 0 0 0
826 1 10.599999999999996 11.015843136138002 0.009834438083389487 0 0 0
829 1 12.719999999999997 7.343895424092002 0.0098344380833895 0 0 0
831 1 14.839999999999998 8.567877994773998 1.5268145616205007 0 0 0
830 1 14.839999999999998 11.015843136138002 0.009834438083389586 0 0 0
833 1 16.959999999999997 7.3438954240920005 0.009834438083388828 0 0 0
837 1 21.199999999999996 7.343895424092002 0.009834438083390268 0 0 0
835 1 19.079999999999995 8.567877994774 1.5268145616205013 0 0 0
834 1 19.079999999999995 11.015843136138002 0.009834438083388814 0 0 0
841 1 25.439999999999994 7.343895424092001 0.009834438083388618 0 0 0
839 1 23.319999999999997 8.567877994774 1.526814561620501 0 0 0
843 1 27.559999999999995 8.567877994773998 1.5268145616204993 0 0 0
838 1 23.319999999999997 11.015843136138002 0.009834438083388772 0 0 0
842 1 27.559999999999995 11.015843136138004 0.009834438083390256 0 0 0
845 1 29.68 7.343895424092002 0.009834438083390434 0 0 0
849 1 33.919999999999995 7.343895424092001 0.009834438083388535 0 0 0
847 1 31.8 8.567877994774 1.5268145616205018 0 0 0
846 1 31.8 11.015843136138002 0.009834438083388245 0 0 0
853 1 38.160000000000004 7.3438954240920005 0.009834438083388046 0 0 0
851 1 36.04 8.567877994773996 1.5268145616204984 0 0 0
850 1 36.04 11.015843136138004 0.009834438083391336 0 0 0
857 1 42.4 7.343895424092003 0.009834438083391404 0 0 0
855 1 40.279999999999994 8.567877994774 1.526814561620502 0 0 0
859 1 44.52 8.567877994774 1.5268145616205013 0 0 0
854 1 40.279999999999994 11.015843136138002 0.009834438083388165 0 0 0
858 1 44.52 11.015843136138002 0.009834438083388162 0 0 0
861 1 46.63999999999999 7.3438954240920005 0.009834438083388143 0 0 0
863 1 48.76 8.567877994773998 1.5268145616204987 0 0 0
862 1 48.76 11.015843136138004 0.009834438083391015 0 0 0
769 1 50.88 7.343895424092002 0.009834438083389371 -1 0 0
773 1 55.120000000000005 7.343895424092002 0.00983443808338978 -1 0 0
771 1 53 8.567877994773998 1.5268145616205009 -1 0 0
770 1 53 11.015843136138002 0.009834438083389449 -1 0 0
777 1 59.36 7.343895424092002 0.009834438083389707 -1 0 0
775 1 57.24 8.567877994774 1.5268145616205013 -1 0 0
779 1 61.480000000000004 8.567877994773998 1.5268145616205004 -1 0 0
774 1 57.24 11.015843136138002 0.00983443808338794 -1 0 0
778 1 61.480000000000004 11.015843136138002 0.00983443808338964 -1 0 0
781 1 63.6 7.3438954240920005 0.009834438083388315 -1 0 0
783 1 65.72 8.567877994773998 1.5268145616205002 -1 0 0
782 1 65.72 11.015843136138002 0.009834438083389463 -1 0 0
785 1 67.84 7.343895424092002 0.00983443808339114 -1 0 0
789 1 72.08 7.3438954240920005 0.009834438083388061 -1 0 0
787 1 69.96000000000001 8.567877994774 1.5268145616205013 -1 0 0
786 1 69.96000000000001 11.015843136138002 0.009834438083388151 -1 0 0
793 1 76.32000000000001 7.3438954240920005 0.00983443808338806 -1 0 0
791 1 74.2 8.567877994773996 1.526814561620499 -1 0 0
795 1 78.44 8.567877994774 1.5268145616205013 -1 0 0
790 1 74.2 11.015843136138004 0.009834438083391482 -1 0 0
794 1 78.44 11.015843136138002 0.009834438083388136 -1 0 0
797 1 80.56 7.343895424092002 0.009834438083390882 -1 0 0
799 1 82.68 8.567877994773998 1.526814561620499 -1 0 0
798 1 82.68 11.015843136138004 0.00983443808339065 -1 0 0
801 1 84.80000000000001 7.343895424092001 0.00983443808338877 -1 0 0
805 1 89.03999999999999 7.343895424092001 0.009834438083388772 -1 0 0
803 1 86.92 8.567877994774001 1.5268145616205038 -1 0 0
802 1 86.92 11.015843136138 0.00983443808338592 -1 0 0
809 1 93.28 7.343895424092002 0.009834438083390552 -1 0 0
807 1 91.16 8.567877994773998 1.526814561620499 -1 0 0
811 1 95.4 8.567877994773998 1.526814561620499 -1 0 0
806 1 91.16 11.015843136138004 0.009834438083390643 -1 0 0
810 1 95.4 11.015843136138004 0.009834438083390632 -1 0 0
813 1 97.52000000000001 7.3438954240920005 0.009834438083388138 -1 0 0
815 1 99.64 8.567877994774 1.5268145616205018 -1 0 0
814 1 99.64 11.015843136138002 0.009834438083388427 -1 0 0
820 1 0 12.239825706819998 1.5268145616205004 0 0 0
824 1 4.239999999999997 12.239825706819998 1.526814561620501 0 0 0
913 1 0 14.687790848184003 0.009834438083390205 0 0 0
917 1 4.239999999999997 14.687790848184003 0.009834438083389725 0 0 0
915 1 2.1199999999999974 15.911773418866 1.5268145616205016 0 0 0
828 1 8.479999999999997 12.23982570682 1.526814561620502 0 0 0
921 1 8.479999999999997 14.687790848184001 0.009834438083388335 0 0 0
919 1 6.359999999999998 15.911773418865998 1.5268145616205004 0 0 0
923 1 10.599999999999996 15.911773418865998 1.5268145616205 0 0 0
832 1 12.719999999999997 12.239825706819998 1.5268145616205009 0 0 0
925 1 12.719999999999997 14.687790848184003 0.00983443808338957 0 0 0
927 1 14.839999999999998 15.911773418865998 1.5268145616205007 0 0 0
836 1 16.959999999999997 12.23982570682 1.5268145616205022 0 0 0
929 1 16.959999999999997 14.687790848184001 0.009834438083388566 0 0 0
840 1 21.199999999999996 12.239825706819998 1.5268145616205002 0 0 0
933 1 21.199999999999996 14.687790848184003 0.009834438083390584 0 0 0
931 1 19.079999999999995 15.911773418866 1.526814561620501 0 0 0
844 1 25.439999999999994 12.23982570682 1.5268145616205022 0 0 0
937 1 25.439999999999994 14.687790848184003 0.009834438083388672 0 0 0
935 1 23.319999999999997 15.911773418866 1.5268145616205009 0 0 0
939 1 27.559999999999995 15.911773418865998 1.5268145616204996 0 0 0
848 1 29.68 12.239825706819998 1.5268145616205004 0 0 0
852 1 33.919999999999995 12.23982570682 1.526814561620502 0 0 0
941 1 29.68 14.687790848184003 0.00983443808339048 0 0 0
945 1 33.919999999999995 14.687790848184001 0.009834438083388485 0 0 0
943 1 31.8 15.911773418866 1.5268145616205016 0 0 0
856 1 38.160000000000004 12.23982570682 1.526814561620503 0 0 0
949 1 38.160000000000004 14.687790848184001 0.00983443808338822 0 0 0
947 1 36.04 15.911773418865998 1.5268145616204987 0 0 0
860 1 42.4 12.239825706819996 1.5268145616204993 0 0 0
953 1 42.4 14.687790848184004 0.00983443808339145 0 0 0
951 1 40.279999999999994 15.911773418866 1.5268145616205018 0 0 0
955 1 44.52 15.911773418866 1.5268145616205016 0 0 0
864 1 46.63999999999999 12.23982570682 1.5268145616205029 0 0 0
957 1 46.63999999999999 14.687790848184001 0.009834438083388136 0 0 0
959 1 48.76 15.911773418865998 1.5268145616204987 0 0 0
772 1 50.88 12.239825706819998 1.5268145616205016 -1 0 0
776 1 55.120000000000005 12.239825706819998 1.526814561620501 -1 0 0
865 1 50.88 14.687790848184003 0.009834438083389 -1 0 0
869 1 55.120000000000005 14.687790848184003 0.009834438083389917 -1 0 0
867 1 53 15.911773418865998 1.5268145616205007 -1 0 0
780 1 59.36 12.239825706819998 1.5268145616205007 -1 0 0
873 1 59.36 14.687790848184003 0.009834438083389808 -1 0 0
871 1 57.24 15.911773418866002 1.5268145616205018 -1 0 0
875 1 61.480000000000004 15.911773418865998 1.5268145616205002 -1 0 0
784 1 63.6 12.23982570682 1.5268145616205024 -1 0 0
877 1 63.6 14.687790848184001 0.009834438083388042 -1 0 0
879 1 65.72 15.911773418865998 1.5268145616205002 -1 0 0
788 1 67.84 12.239825706819998 1.5268145616205 -1 0 0
792 1 72.08 12.23982570682 1.5268145616205024 -1 0 0
881 1 67.84 14.687790848184004 0.009834438083391104 -1 0 0
885 1 72.08 14.687790848184001 0.00983443808338811 -1 0 0
883 1 69.96000000000001 15.911773418866 1.5268145616205016 -1 0 0
796 1 76.32000000000001 12.23982570682 1.5268145616205024 -1 0 0
889 1 76.32000000000001 14.687790848184001 0.009834438083388108 -1 0 0
887 1 74.2 15.911773418865998 1.526814561620499 -1 0 0
891 1 78.44 15.911773418866 1.5268145616205016 -1 0 0
800 1 80.56 12.239825706819998 1.5268145616205002 -1 0 0
893 1 80.56 14.687790848184003 0.009834438083390837 -1 0 0
895 1 82.68 15.911773418865998 1.5268145616204991 -1 0 0
804 1 84.80000000000001 12.23982570682 1.526814561620502 -1 0 0
808 1 89.03999999999999 12.23982570682 1.526814561620502 -1 0 0
897 1 84.80000000000001 14.687790848184001 0.009834438083388458 -1 0 0
901 1 89.03999999999999 14.687790848184001 0.009834438083388457 -1 0 0
899 1 86.92 15.911773418866002 1.5268145616205042 -1 0 0
812 1 93.28 12.239825706819998 1.5268145616205009 -1 0 0
905 1 93.28 14.687790848184003 0.009834438083390365 -1 0 0
903 1 91.16 15.911773418865998 1.5268145616204991 -1 0 0
907 1 95.4 15.911773418865998 1.5268145616204991 -1 0 0
816 1 97.52000000000001 12.23982570682 1.5268145616205024 -1 0 0
909 1 97.52000000000001 14.687790848184001 0.009834438083387987 -1 0 0
911 1 99.64 15.911773418866 1.5268145616205016 -1 0 0
914 1 2.1199999999999974 18.359738560230006 0.009834438083389354 0 0 0
916 1 0 19.583721130912 1.5268145616205016 0 0 0
920 1 4.239999999999997 19.583721130912 1.5268145616205024 0 0 0
1009 1 0 22.031686272276 0.009834438083389081 0 0 0
1013 1 4.239999999999997 22.031686272276 0.009834438083388625 0 0 0
918 1 6.359999999999998 18.359738560230006 0.009834438083390804 0 0 0
922 1 10.599999999999996 18.359738560230006 0.009834438083390535 0 0 0
924 1 8.479999999999997 19.583721130912 1.5268145616205033 0 0 0
1017 1 8.479999999999997 22.031686272275998 0.009834438083387674 0 0 0
926 1 14.839999999999998 18.359738560230006 0.009834438083390587 0 0 0
928 1 12.719999999999997 19.583721130912 1.5268145616205022 0 0 0
1021 1 12.719999999999997 22.031686272276 0.00983443808338855 0 0 0
932 1 16.959999999999997 19.583721130912 1.526814561620503 0 0 0
1025 1 16.959999999999997 22.031686272276 0.009834438083387837 0 0 0
930 1 19.079999999999995 18.359738560230006 0.009834438083389779 0 0 0
936 1 21.199999999999996 19.583721130912 1.5268145616205016 0 0 0
1029 1 21.199999999999996 22.031686272276 0.009834438083389149 0 0 0
934 1 23.319999999999997 18.359738560230006 0.009834438083389775 0 0 0
938 1 27.559999999999995 18.359738560230006 0.009834438083391368 0 0 0
940 1 25.439999999999994 19.583721130912 1.5268145616205029 0 0 0
1033 1 25.439999999999994 22.031686272276 0.009834438083387862 0 0 0
942 1 31.8 18.359738560230003 0.009834438083389154 0 0 0
944 1 29.68 19.583721130912 1.5268145616205016 0 0 0
948 1 33.919999999999995 19.583721130912 1.5268145616205027 0 0 0
1037 1 29.68 22.031686272276 0.00983443808338933 0 0 0
1041 1 33.919999999999995 22.031686272276 0.00983443808338786 0 0 0
946 1 36.04 18.359738560230006 0.009834438083392134 0 0 0
952 1 38.160000000000004 19.583721130912 1.5268145616205036 0 0 0
1045 1 38.160000000000004 22.031686272276 0.009834438083387373 0 0 0
950 1 40.279999999999994 18.359738560230003 0.009834438083389158 0 0 0
954 1 44.52 18.359738560230003 0.009834438083389161 0 0 0
956 1 42.4 19.583721130912 1.5268145616205007 0 0 0
1049 1 42.4 22.031686272276 0.009834438083390086 0 0 0
958 1 48.76 18.359738560230006 0.009834438083392003 0 0 0
960 1 46.63999999999999 19.583721130912 1.5268145616205036 0 0 0
1053 1 46.63999999999999 22.031686272276 0.009834438083387374 0 0 0
866 1 53 18.359738560230006 0.009834438083390733 -1 0 0
868 1 50.88 19.583721130912 1.5268145616205024 -1 0 0
872 1 55.120000000000005 19.583721130912 1.5268145616205022 -1 0 0
961 1 50.88 22.031686272276 0.009834438083388224 -1 0 0
965 1 55.120000000000005 22.031686272276 0.009834438083388778 -1 0 0
870 1 57.24 18.359738560230006 0.00983443808338911 -1 0 0
874 1 61.480000000000004 18.359738560230006 0.009834438083390793 -1 0 0
876 1 59.36 19.583721130912 1.526814561620502 -1 0 0
969 1 59.36 22.031686272276 0.009834438083388802 -1 0 0
878 1 65.72 18.359738560230006 0.009834438083390755 -1 0 0
880 1 63.6 19.583721130912 1.5268145616205038 -1 0 0
973 1 63.6 22.031686272275998 0.009834438083387296 -1 0 0
882 1 69.96000000000001 18.359738560230006 0.009834438083389244 -1 0 0
884 1 67.84 19.583721130912 1.526814561620501 -1 0 0
888 1 72.08 19.583721130912 1.526814561620503 -1 0 0
977 1 67.84 22.031686272276 0.009834438083389936 -1 0 0
981 1 72.08 22.031686272276 0.009834438083387376 -1 0 0
886 1 74.2 18.359738560230006 0.009834438083392178 -1 0 0
890 1 78.44 18.359738560230006 0.009834438083389244 -1 0 0
892 1 76.32000000000001 19.583721130912 1.526814561620503 -1 0 0
985 1 76.32000000000001 22.031686272276 0.00983443808338738 -1 0 0
894 1 82.68 18.359738560230006 0.009834438083391777 -1 0 0
896 1 80.56 19.583721130912 1.5268145616205013 -1 0 0
989 1 80.56 22.031686272276 0.009834438083389768 -1 0 0
898 1 86.92 18.359738560230003 0.009834438083387083 -1 0 0
900 1 84.80000000000001 19.583721130912 1.5268145616205027 -1 0 0
904 1 89.03999999999999 19.583721130912 1.5268145616205027 -1 0 0
993 1 84.80000000000001 22.031686272276 0.009834438083387931 -1 0 0
997 1 89.03999999999999 22.031686272276 0.009834438083387931 -1 0 0
902 1 91.16 18.359738560230006 0.00983443808339178 -1 0 0
906 1 95.4 18.359738560230006 0.009834438083391746 -1 0 0
908 1 93.28 19.583721130912 1.526814561620502 -1 0 0
1001 1 93.28 22.031686272276 0.009834438083389232 -1 0 0
910 1 99.64 18.359738560230006 0.009834438083389295 -1 0 0
912 1 97.52000000000001 19.583721130912 1.5268145616205033 -1 0 0
1005 1 97.52000000000001 22.031686272276 0.009834438083387367 -1 0 0
1011 1 2.1199999999999974 23.255668842958 1.5268145616205013 0 0 0
1012 1 0 26.927616555003997 1.5268145616205024 0 0 0
1010 1 2.1199999999999974 25.703633984322 0.009834438083389846 0 0 0
1016 1 4.239999999999997 26.927616555003997 1.526814561620503 0 0 0
1015 1 6.359999999999998 23.255668842957995 1.5268145616205002 0 0 0
1019 1 10.599999999999996 23.255668842957995 1.5268145616204996 0 0 0
1014 1 6.359999999999998 25.703633984322003 0.00983443808339108 0 0 0
1020 1 8.479999999999997 26.927616555004 1.5268145616205038 0 0 0
1018 1 10.599999999999996 25.703633984322003 0.009834438083390896 0 0 0
1023 1 14.839999999999998 23.255668842957995 1.5268145616205007 0 0 0
1024 1 12.719999999999997 26.927616555003997 1.5268145616205029 0 0 0
1022 1 14.839999999999998 25.703633984322003 0.009834438083390767 0 0 0
1028 1 16.959999999999997 26.927616555003997 1.526814561620504 0 0 0
1027 1 19.079999999999995 23.255668842957995 1.526814561620501 0 0 0
1026 1 19.079999999999995 25.703633984322003 0.009834438083390207 0 0 0
1032 1 21.199999999999996 26.927616555003997 1.5268145616205024 0 0 0
1031 1 23.319999999999997 23.255668842958 1.526814561620501 0 0 0
1035 1 27.559999999999995 23.255668842957995 1.5268145616204996 0 0 0
1030 1 23.319999999999997 25.703633984322 0.009834438083390198 0 0 0
1036 1 25.439999999999994 26.927616555003997 1.5268145616205038 0 0 0
1034 1 27.559999999999995 25.703633984322003 0.00983443808339144 0 0 0
1039 1 31.8 23.255668842958 1.5268145616205016 0 0 0
1040 1 29.68 26.927616555003997 1.5268145616205024 0 0 0
1038 1 31.8 25.703633984322 0.009834438083389942 0 0 0
1044 1 33.919999999999995 26.927616555003997 1.5268145616205033 0 0 0
1043 1 36.04 23.255668842957995 1.5268145616204987 0 0 0
1042 1 36.04 25.703633984322003 0.009834438083392667 0 0 0
1048 1 38.160000000000004 26.927616555003997 1.5268145616205042 0 0 0
1047 1 40.279999999999994 23.255668842958 1.5268145616205018 0 0 0
1051 1 44.52 23.255668842958 1.5268145616205013 0 0 0
1046 1 40.279999999999994 25.703633984322 0.009834438083389666 0 0 0
1052 1 42.4 26.927616555003997 1.5268145616205013 0 0 0
1050 1 44.52 25.703633984322 0.009834438083389572 0 0 0
1055 1 48.76 23.255668842957995 1.526814561620499 0 0 0
1056 1 46.63999999999999 26.927616555003997 1.5268145616205044 0 0 0
1054 1 48.76 25.703633984322003 0.009834438083392195 0 0 0
963 1 53 23.255668842957995 1.5268145616205007 -1 0 0
964 1 50.88 26.927616555003997 1.526814561620503 -1 0 0
962 1 53 25.703633984322003 0.00983443808339079 -1 0 0
968 1 55.120000000000005 26.927616555003997 1.5268145616205029 -1 0 0
967 1 57.24 23.255668842958 1.5268145616205013 -1 0 0
971 1 61.480000000000004 23.255668842957995 1.5268145616205002 -1 0 0
966 1 57.24 25.703633984322 0.009834438083389612 -1 0 0
972 1 59.36 26.927616555003997 1.5268145616205027 -1 0 0
970 1 61.480000000000004 25.703633984322003 0.009834438083391149 -1 0 0
975 1 65.72 23.255668842957995 1.5268145616205 -1 0 0
976 1 63.6 26.927616555004 1.5268145616205042 -1 0 0
974 1 65.72 25.703633984322003 0.009834438083390995 -1 0 0
979 1 69.96000000000001 23.255668842958 1.5268145616205016 -1 0 0
980 1 67.84 26.927616555003997 1.5268145616205018 -1 0 0
978 1 69.96000000000001 25.703633984322003 0.009834438083389832 -1 0 0
984 1 72.08 26.927616555004 1.5268145616205038 -1 0 0
983 1 74.2 23.255668842957995 1.5268145616204991 -1 0 0
987 1 78.44 23.255668842958 1.5268145616205013 -1 0 0
982 1 74.2 25.703633984322003 0.009834438083392943 -1 0 0
988 1 76.32000000000001 26.927616555004 1.5268145616205038 -1 0 0
986 1 78.44 25.703633984322003 0.009834438083389824 -1 0 0
991 1 82.68 23.255668842957995 1.5268145616204991 -1 0 0
992 1 80.56 26.927616555003997 1.5268145616205022 -1 0 0
990 1 82.68 25.703633984322003 0.009834438083391852 -1 0 0
995 1 86.92 23.255668842958 1.5268145616205042 -1 0 0
996 1 84.80000000000001 26.927616555003997 1.5268145616205033 -1 0 0
994 1 86.92 25.703633984322 0.00983443808338693 -1 0 0
1000 1 89.03999999999999 26.927616555003997 1.5268145616205033 -1 0 0
999 1 91.16 23.255668842957995 1.5268145616204991 -1 0 0
1003 1 95.4 23.255668842957995 1.5268145616204991 -1 0 0
998 1 91.16 25.703633984322003 0.00983443808339195 -1 0 0
1004 1 93.28 26.927616555003997 1.5268145616205024 -1 0 0
1002 1 95.4 25.703633984322003 0.009834438083392256 -1 0 0
1007 1 99.64 23.255668842958 1.5268145616205016 -1 0 0
1008 1 97.52000000000001 26.927616555004 1.526814561620504 -1 0 0
1006 1 99.64 25.703633984322003 0.009834438083389978 -1 0 0
1105 1 0 29.375581696368002 0.009834438083391666 0 0 0
1107 1 2.1199999999999974 30.59956426705 1.5268145616205016 0 0 0
1109 1 4.239999999999997 29.375581696368002 0.00983443808339137 0 0 0
1106 1 2.1199999999999974 33.047529408414 0.009834438083386942 0 0 0
1111 1 6.359999999999998 30.59956426705 1.5268145616205007 0 0 0
1113 1 8.479999999999997 29.375581696368002 0.009834438083389633 0 0 0
1115 1 10.599999999999996 30.59956426705 1.5268145616205 0 0 0
1110 1 6.359999999999998 33.047529408414 0.009834438083388061 0 0 0
1114 1 10.599999999999996 33.047529408414 0.009834438083387867 0 0 0
1117 1 12.719999999999997 29.375581696368002 0.009834438083391123 0 0 0
1119 1 14.839999999999998 30.59956426705 1.526814561620501 0 0 0
1118 1 14.839999999999998 33.047529408414 0.009834438083387867 0 0 0
1121 1 16.959999999999997 29.375581696368002 0.009834438083390316 0 0 0
1123 1 19.079999999999995 30.59956426705 1.5268145616205016 0 0 0
1125 1 21.199999999999996 29.375581696368002 0.009834438083391623 0 0 0
1122 1 19.079999999999995 33.047529408414 0.009834438083387182 0 0 0
1127 1 23.319999999999997 30.59956426705 1.5268145616205013 0 0 0
1129 1 25.439999999999994 29.375581696368002 0.009834438083390337 0 0 0
1131 1 27.559999999999995 30.59956426705 1.5268145616204998 0 0 0
1126 1 23.319999999999997 33.047529408414 0.00983443808338718 0 0 0
1130 1 27.559999999999995 33.047529408414 0.009834438083388644 0 0 0
1133 1 29.68 29.375581696368002 0.00983443808339189 0 0 0
1135 1 31.8 30.59956426705 1.526814561620502 0 0 0
1137 1 33.919999999999995 29.375581696368002 0.009834438083389564 0 0 0
1134 1 31.8 33.047529408414 0.009834438083386835 0 0 0
1139 1 36.04 30.599564267049995 1.5268145616204991 0 0 0
1141 1 38.160000000000004 29.375581696368 0.009834438083389591 0 0 0
1138 1 36.04 33.047529408414 0.00983443808338998 0 0 0
1143 1 40.279999999999994 30.59956426705 1.5268145616205022 0 0 0
1145 1 42.4 29.375581696368002 0.009834438083392653 0 0 0
1147 1 44.52 30.59956426705 1.5268145616205018 0 0 0
1142 1 40.279999999999994 33.047529408414 0.009834438083386639 0 0 0
1146 1 44.52 33.047529408414 0.00983443808338654 0 0 0
1149 1 46.63999999999999 29.375581696368 0.009834438083389583 0 0 0
1151 1 48.76 30.599564267049995 1.5268145616204991 0 0 0
1150 1 48.76 33.047529408414 0.009834438083389763 0 0 0
1057 1 50.88 29.375581696368002 0.009834438083390639 -1 0 0
1059 1 53 30.59956426705 1.5268145616205009 -1 0 0
1061 1 55.120000000000005 29.375581696368002 0.00983443808339154 -1 0 0
1058 1 53 33.047529408414 0.009834438083387936 -1 0 0
1063 1 57.24 30.59956426705 1.5268145616205016 -1 0 0
1065 1 59.36 29.375581696368002 0.009834438083391326 -1 0 0
1067 1 61.480000000000004 30.59956426705 1.5268145616205007 -1 0 0
1062 1 57.24 33.047529408414 0.009834438083386576 -1 0 0
1066 1 61.480000000000004 33.047529408414 0.009834438083388028 -1 0 0
1069 1 63.6 29.375581696368002 0.009834438083389402 -1 0 0
1071 1 65.72 30.59956426705 1.5268145616205004 -1 0 0
1070 1 65.72 33.047529408414 0.009834438083387865 -1 0 0
1073 1 67.84 29.375581696368002 0.009834438083392592 -1 0 0
1075 1 69.96000000000001 30.59956426705 1.5268145616205016 -1 0 0
1077 1 72.08 29.375581696368002 0.009834438083388991 -1 0 0
1074 1 69.96000000000001 33.047529408414 0.00983443808338664 -1 0 0
1079 1 74.2 30.599564267049995 1.5268145616204993 -1 0 0
1081 1 76.32000000000001 29.375581696368002 0.009834438083388995 -1 0 0
1083 1 78.44 30.59956426705 1.5268145616205016 -1 0 0
1078 1 74.2 33.047529408414 0.009834438083390016 -1 0 0
1082 1 78.44 33.047529408414 0.009834438083386637 -1 0 0
1085 1 80.56 29.375581696368002 0.00983443808339233 -1 0 0
1087 1 82.68 30.59956426705 1.5268145616204993 -1 0 0
1086 1 82.68 33.047529408414 0.00983443808338902 -1 0 0
1089 1 84.80000000000001 29.375581696368002 0.009834438083390327 -1 0 0
1091 1 86.92 30.599564267050003 1.5268145616205038 -1 0 0
1093 1 89.03999999999999 29.375581696368002 0.009834438083390325 -1 0 0
1090 1 86.92 33.047529408414 0.009834438083384611 -1 0 0
1095 1 91.16 30.59956426705 1.5268145616204993 -1 0 0
1097 1 93.28 29.375581696368002 0.009834438083391987 -1 0 0
1099 1 95.4 30.59956426705 1.5268145616204993 -1 0 0
1094 1 91.16 33.047529408414 0.009834438083389116 -1 0 0
1098 1 95.4 33.047529408414 0.009834438083389107 -1 0 0
1101 1 97.52000000000001 29.375581696368002 0.009834438083389251 -1 0 0
1103 1 99.64 30.59956426705 1.5268145616205018 -1 0 0
1102 1 99.64 33.047529408414 0.009834438083386918 -1 0 0
1108 1 0 34.271511979096 1.5268145616204993 0 0 0
1112 1 4.239999999999997 34.271511979096 1.5268145616205 0 0 0
1201 1 0 36.719477120460006 0.009834438083391753 0 0 0
1205 1 4.239999999999997 36.719477120460006 0.009834438083391342 0 0 0
1203 1 2.1199999999999974 37.943459691142 1.5268145616205036 0 0 0
1116 1 8.479999999999997 34.271511979096 1.5268145616205004 0 0 0
1209 1 8.479999999999997 36.719477120460006 0.009834438083390356 0 0 0
1207 1 6.359999999999998 37.943459691142 1.5268145616205029 0 0 0
1211 1 10.599999999999996 37.943459691142 1.5268145616205022 0 0 0
1120 1 12.719999999999997 34.271511979096 1.5268145616204998 0 0 0
1213 1 12.719999999999997 36.719477120460006 0.009834438083391288 0 0 0
1215 1 14.839999999999998 37.943459691142 1.5268145616205029 0 0 0
1124 1 16.959999999999997 34.271511979096 1.5268145616205009 0 0 0
1217 1 16.959999999999997 36.719477120460006 0.009834438083390403 0 0 0
1128 1 21.199999999999996 34.271511979096 1.5268145616204993 0 0 0
1221 1 21.199999999999996 36.719477120460006 0.009834438083391888 0 0 0
1219 1 19.079999999999995 37.943459691142 1.5268145616205036 0 0 0
1132 1 25.439999999999994 34.271511979096 1.5268145616205004 0 0 0
1225 1 25.439999999999994 36.719477120460006 0.009834438083390526 0 0 0
1223 1 23.319999999999997 37.943459691142 1.5268145616205033 0 0 0
1227 1 27.559999999999995 37.943459691141996 1.5268145616205018 0 0 0
1136 1 29.68 34.271511979096 1.5268145616204993 0 0 0
1140 1 33.919999999999995 34.271511979096 1.5268145616205002 0 0 0
1229 1 29.68 36.719477120460006 0.009834438083391947 0 0 0
1233 1 33.919999999999995 36.719477120460006 0.009834438083390531 0 0 0