LAMMPS data file via write_data, version 29 Aug 2024, timestep = 2, units = metal

2688 atoms
2 atom types

0 101.76 xlo xhi
0 102.814535937288 ylo yhi
-50 111.13048748196958 zlo zhi

Masses

1 114.818
2 114.818

Atoms # atomic

721 1 0 0 0.009509452239380522 0 0 0
723 1 2.1199999999999974 1.2239825706819967 1.5256001087955038 0 0 0
725 1 4.239999999999997 0 0.009509452239380165 0 0 0
722 1 2.1199999999999974 3.6719477120460002 0.009509452239378303 0 0 0
724 1 0 4.895930282727997 1.5256001087955018 0 0 0
728 1 4.239999999999997 4.895930282727997 1.5256001087955027 0 0 0
727 1 6.359999999999998 1.2239825706819958 1.525600108795503 0 0 0
729 1 8.479999999999997 0 0.009509452239379103 0 0 0
731 1 10.599999999999996 1.223982570681996 1.5256001087955022 0 0 0
726 1 6.359999999999998 3.671947712046001 0.0095094522393794 0 0 0
730 1 10.599999999999996 3.671947712046001 0.009509452239379237 0 0 0
732 1 8.479999999999997 4.895930282727998 1.5256001087955036 0 0 0
733 1 12.719999999999997 0 0.009509452239379925 0 0 0
735 1 14.839999999999998 1.2239825706819958 1.5256001087955031 0 0 0
734 1 14.839999999999998 3.671947712046001 0.009509452239379327 0 0 0
736 1 12.719999999999997 4.895930282727997 1.5256001087955025 0 0 0
737 1 16.959999999999997 0 0.009509452239379327 0 0 0
740 1 16.959999999999997 4.895930282727998 1.5256001087955038 0 0 0
739 1 19.079999999999995 1.2239825706819965 1.5256001087955038 0 0 0
741 1 21.199999999999996 0 0.009509452239380769 0 0 0
738 1 19.079999999999995 3.6719477120460007 0.00950945223937837 0 0 0
744 1 21.199999999999996 4.895930282727997 1.5256001087955018 0 0 0
743 1 23.319999999999997 1.2239825706819965 1.5256001087955036 0 0 0
745 1 25.439999999999994 0 0.009509452239379287 0 0 0
747 1 27.559999999999995 1.2239825706819953 1.525600108795502 0 0 0
742 1 23.319999999999997 3.6719477120460007 0.00950945223937835 0 0 0
746 1 27.559999999999995 3.6719477120460016 0.009509452239380009 0 0 0
748 1 25.439999999999994 4.895930282727998 1.5256001087955036 0 0 0
749 1 29.68 0 0.00950945223938072 0 0 0
751 1 31.8 1.223982570681997 1.5256001087955042 0 0 0
753 1 33.919999999999995 0 0.009509452239379306 0 0 0
750 1 31.8 3.6719477120460002 0.00950945223937778 0 0 0
752 1 29.68 4.895930282727997 1.525600108795502 0 0 0
756 1 33.919999999999995 4.895930282727998 1.5256001087955033 0 0 0
755 1 36.04 1.2239825706819947 1.5256001087955011 0 0 0
757 1 38.160000000000004 0 0.009509452239378859 0 0 0
754 1 36.04 3.671947712046002 0.00950945223938095 0 0 0
760 1 38.160000000000004 4.895930282727998 1.5256001087955042 0 0 0
759 1 40.279999999999994 1.223982570681997 1.5256001087955042 0 0 0
761 1 42.4 3.147659353328745e-16 0.00950945223938163 0 0 0
763 1 44.52 1.223982570681997 1.5256001087955038 0 0 0
758 1 40.279999999999994 3.6719477120460002 0.009509452239377873 0 0 0
762 1 44.52 3.6719477120460002 0.009509452239377877 0 0 0
764 1 42.4 4.8959302827279965 1.525600108795501 0 0 0
765 1 46.63999999999999 0 0.009509452239378845 0 0 0
767 1 48.76 1.2239825706819947 1.5256001087955013 0 0 0
766 1 48.76 3.671947712046002 0.009509452239380737 0 0 0
768 1 46.63999999999999 4.895930282727998 1.5256001087955042 0 0 0
673 1 50.88 0 0.009509452239379637 -1 0 0
675 1 53 1.2239825706819958 1.5256001087955031 -1 0 0
677 1 55.120000000000005 0 0.00950945223938024 -1 0 0
674 1 53 3.671947712046001 0.009509452239379131 -1 0 0
676 1 50.88 4.895930282727998 1.525600108795503 -1 0 0
680 1 55.120000000000005 4.895930282727997 1.5256001087955027 -1 0 0
679 1 57.24 1.223982570681997 1.525600108795504 -1 0 0
681 1 59.36 0 0.009509452239380174 -1 0 0
683 1 61.480000000000004 1.2239825706819956 1.525600108795503 -1 0 0
678 1 57.24 3.6719477120460002 0.009509452239378088 -1 0 0
682 1 61.480000000000004 3.671947712046001 0.009509452239379384 -1 0 0
684 1 59.36 4.895930282727997 1.5256001087955022 -1 0 0
685 1 63.6 0 0.00950945223937869 -1 0 0
687 1 65.72 1.223982570681996 1.5256001087955027 -1 0 0
686 1 65.72 3.671947712046001 0.00950945223937906 -1 0 0
688 1 63.6 4.895930282727998 1.525600108795504 -1 0 0
689 1 67.84 1.7001913937541031e-16 0.00950945223938138 -1 0 0
691 1 69.96000000000001 1.223982570681997 1.525600108795504 -1 0 0
693 1 72.08 0 0.009509452239378845 -1 0 0
690 1 69.96000000000001 3.6719477120460002 0.009509452239377863 -1 0 0
692 1 67.84 4.8959302827279965 1.5256001087955016 -1 0 0
696 1 72.08 4.895930282727998 1.525600108795504 -1 0 0
695 1 74.2 1.2239825706819945 1.5256001087955013 -1 0 0
697 1 76.32000000000001 0 0.009509452239378843 -1 0 0
699 1 78.44 1.223982570681997 1.525600108795504 -1 0 0
694 1 74.2 3.671947712046002 0.009509452239380985 -1 0 0
698 1 78.44 3.6719477120460002 0.009509452239377849 -1 0 0
700 1 76.32000000000001 4.895930282727998 1.525600108795504 -1 0 0
701 1 80.56 0 0.009509452239381044 -1 0 0
703 1 82.68 1.223982570681995 1.5256001087955016 -1 0 0
702 1 82.68 3.671947712046002 0.00950945223938049 -1 0 0
704 1 80.56 4.8959302827279965 1.5256001087955018 -1 0 0
705 1 84.80000000000001 0 0.00950945223937916 -1 0 0
707 1 86.92 1.2239825706819982 1.5256001087955064 -1 0 0
709 1 89.03999999999999 0 0.009509452239379164 -1 0 0
706 1 86.92 3.6719477120459985 0.009509452239375908 -1 0 0
708 1 84.80000000000001 4.895930282727998 1.5256001087955031 -1 0 0
712 1 89.03999999999999 4.895930282727998 1.5256001087955031 -1 0 0
711 1 91.16 1.2239825706819951 1.5256001087955016 -1 0 0
713 1 93.28 0 0.009509452239380566 -1 0 0
715 1 95.4 1.223982570681995 1.5256001087955016 -1 0 0
710 1 91.16 3.671947712046002 0.009509452239380486 -1 0 0
714 1 95.4 3.671947712046002 0.009509452239380477 -1 0 0
716 1 93.28 4.895930282727997 1.5256001087955022 -1 0 0
717 1 97.52000000000001 0 0.009509452239378845 -1 0 0
719 1 99.64 1.2239825706819967 1.525600108795504 -1 0 0
718 1 99.64 3.6719477120460002 0.009509452239378217 -1 0 0
720 1 97.52000000000001 4.895930282727998 1.5256001087955038 -1 0 0
817 1 0 7.343895424092002 0.009509452239378567 0 0 0
821 1 4.239999999999997 7.343895424092002 0.009509452239378106 0 0 0
819 1 2.1199999999999974 8.567877994774 1.5256001087955022 0 0 0
818 1 2.1199999999999974 11.015843136138002 0.00950945223937695 0 0 0
825 1 8.479999999999997 7.3438954240920005 0.00950945223937718 0 0 0
823 1 6.359999999999998 8.567877994773998 1.5256001087955018 0 0 0
827 1 10.599999999999996 8.567877994773998 1.5256001087955011 0 0 0
822 1 6.359999999999998 11.015843136138002 0.009509452239378055 0 0 0
826 1 10.599999999999996 11.015843136138002 0.009509452239377969 0 0 0
829 1 12.719999999999997 7.343895424092001 0.009509452239378024 0 0 0
831 1 14.839999999999998 8.567877994773998 1.525600108795502 0 0 0
830 1 14.839999999999998 11.015843136138002 0.009509452239377969 0 0 0
833 1 16.959999999999997 7.3438954240920005 0.009509452239377271 0 0 0
837 1 21.199999999999996 7.343895424092002 0.009509452239378898 0 0 0
835 1 19.079999999999995 8.567877994774 1.5256001087955022 0 0 0
834 1 19.079999999999995 11.015843136138002 0.009509452239377355 0 0 0
841 1 25.439999999999994 7.3438954240920005 0.009509452239377207 0 0 0
839 1 23.319999999999997 8.567877994774 1.5256001087955022 0 0 0
843 1 27.559999999999995 8.567877994773998 1.5256001087955007 0 0 0
838 1 23.319999999999997 11.015843136138002 0.009509452239377323 0 0 0
842 1 27.559999999999995 11.015843136138004 0.009509452239378923 0 0 0
845 1 29.68 7.343895424092002 0.009509452239378876 0 0 0
849 1 33.919999999999995 7.3438954240920005 0.009509452239377124 0 0 0
847 1 31.8 8.567877994774 1.525600108795503 0 0 0
846 1 31.8 11.015843136138002 0.00950945223937676 0 0 0
853 1 38.160000000000004 7.3438954240920005 0.0095094522393767 0 0 0
851 1 36.04 8.567877994773996 1.5256001087954996 0 0 0
850 1 36.04 11.015843136138004 0.009509452239379785 0 0 0
857 1 42.4 7.343895424092003 0.009509452239379775 0 0 0
855 1 40.279999999999994 8.567877994774 1.525600108795503 0 0 0
859 1 44.52 8.567877994774 1.5256001087955025 0 0 0
854 1 40.279999999999994 11.015843136138002 0.009509452239376852 0 0 0
858 1 44.52 11.015843136138002 0.009509452239376853 0 0 0
861 1 46.63999999999999 7.3438954240920005 0.009509452239376687 0 0 0
863 1 48.76 8.567877994773998 1.5256001087954998 0 0 0
862 1 48.76 11.015843136138004 0.009509452239379521 0 0 0
769 1 50.88 7.343895424092001 0.00950945223937761 -1 0 0
773 1 55.120000000000005 7.343895424092002 0.009509452239378248 -1 0 0
771 1 53 8.567877994773998 1.5256001087955018 -1 0 0
770 1 53 11.015843136138002 0.009509452239377776 -1 0 0
777 1 59.36 7.343895424092002 0.00950945223937826 -1 0 0
775 1 57.24 8.567877994774 1.5256001087955025 -1 0 0
779 1 61.480000000000004 8.567877994773998 1.5256001087955016 -1 0 0
774 1 57.24 11.015843136138002 0.009509452239376652 -1 0 0
778 1 61.480000000000004 11.015843136138002 0.009509452239378116 -1 0 0
781 1 63.6 7.3438954240920005 0.009509452239376794 -1 0 0
783 1 65.72 8.567877994773998 1.5256001087955016 -1 0 0
782 1 65.72 11.015843136138002 0.009509452239377868 -1 0 0
785 1 67.84 7.343895424092003 0.009509452239379525 -1 0 0
789 1 72.08 7.3438954240920005 0.009509452239376704 -1 0 0
787 1 69.96000000000001 8.567877994774 1.5256001087955025 -1 0 0
786 1 69.96000000000001 11.015843136138002 0.00950945223937676 -1 0 0
793 1 76.32000000000001 7.3438954240920005 0.009509452239376704 -1 0 0
791 1 74.2 8.567877994773996 1.5256001087955 -1 0 0
795 1 78.44 8.567877994774 1.5256001087955025 -1 0 0
790 1 74.2 11.015843136138004 0.009509452239379908 -1 0 0
794 1 78.44 11.015843136138002 0.009509452239376746 -1 0 0
797 1 80.56 7.343895424092002 0.00950945223937909 -1 0 0
799 1 82.68 8.567877994773998 1.5256001087955002 -1 0 0
798 1 82.68 11.015843136138004 0.00950945223937927 -1 0 0
801 1 84.80000000000001 7.343895424092001 0.009509452239377134 -1 0 0
805 1 89.03999999999999 7.343895424092001 0.009509452239377138 -1 0 0
803 1 86.92 8.567877994774001 1.5256001087955051 -1 0 0
802 1 86.92 11.015843136138 0.009509452239374456 -1 0 0
809 1 93.28 7.343895424092002 0.009509452239378689 -1 0 0
807 1 91.16 8.567877994773998 1.5256001087955002 -1 0 0
811 1 95.4 8.567877994773998 1.5256001087955 -1 0 0
806 1 91.16 11.015843136138004 0.009509452239379346 -1 0 0
810 1 95.4 11.015843136138004 0.00950945223937934 -1 0 0
813 1 97.52000000000001 7.3438954240920005 0.009509452239376692 -1 0 0
815 1 99.64 8.567877994774 1.5256001087955027 -1 0 0
814 1 99.64 11.015843136138002 0.009509452239377015 -1 0 0
820 1 0 12.239825706819998 1.5256001087955013 0 0 0
824 1 4.239999999999997 12.239825706819998 1.5256001087955022 0 0 0
913 1 0 14.687790848184003 0.00950945223937884 0 0 0
917 1 4.239999999999997 14.687790848184003 0.009509452239378229 0 0 0
915 1 2.1199999999999974 15.911773418866 1.5256001087955025 0 0 0
828 1 8.479999999999997 12.23982570682 1.5256001087955031 0 0 0
921 1 8.479999999999997 14.687790848184001 0.009509452239376798 0 0 0
919 1 6.359999999999998 15.911773418865998 1.5256001087955016 0 0 0
923 1 10.599999999999996 15.911773418865998 1.525600108795501 0 0 0
832 1 12.719999999999997 12.239825706819998 1.525600108795502 0 0 0
925 1 12.719999999999997 14.687790848184003 0.009509452239378026 0 0 0
927 1 14.839999999999998 15.911773418865998 1.5256001087955018 0 0 0
836 1 16.959999999999997 12.23982570682 1.5256001087955033 0 0 0
929 1 16.959999999999997 14.687790848184001 0.009509452239377155 0 0 0
840 1 21.199999999999996 12.239825706819998 1.5256001087955016 0 0 0
933 1 21.199999999999996 14.687790848184003 0.009509452239378841 0 0 0
931 1 19.079999999999995 15.911773418866 1.5256001087955022 0 0 0
844 1 25.439999999999994 12.23982570682 1.5256001087955033 0 0 0
937 1 25.439999999999994 14.687790848184001 0.009509452239377075 0 0 0
935 1 23.319999999999997 15.911773418866 1.5256001087955022 0 0 0
939 1 27.559999999999995 15.911773418865998 1.525600108795501 0 0 0
848 1 29.68 12.239825706819998 1.5256001087955018 0 0 0
852 1 33.919999999999995 12.23982570682 1.5256001087955031 0 0 0
941 1 29.68 14.687790848184003 0.009509452239378923 0 0 0
945 1 33.919999999999995 14.687790848184001 0.00950945223937709 0 0 0
943 1 31.8 15.911773418866 1.5256001087955027 0 0 0
856 1 38.160000000000004 12.23982570682 1.525600108795504 0 0 0
949 1 38.160000000000004 14.687790848184001 0.00950945223937676 0 0 0
947 1 36.04 15.911773418865998 1.5256001087954998 0 0 0
860 1 42.4 12.239825706819996 1.5256001087955005 0 0 0
953 1 42.4 14.687790848184004 0.009509452239379894 0 0 0
951 1 40.279999999999994 15.911773418866 1.525600108795503 0 0 0
955 1 44.52 15.911773418866 1.5256001087955027 0 0 0
864 1 46.63999999999999 12.23982570682 1.525600108795504 0 0 0
957 1 46.63999999999999 14.687790848184001 0.009509452239376645 0 0 0
959 1 48.76 15.911773418865998 1.5256001087955 0 0 0
772 1 50.88 12.239825706819998 1.5256001087955025 -1 0 0
776 1 55.120000000000005 12.239825706819998 1.5256001087955022 -1 0 0
865 1 50.88 14.687790848184003 0.009509452239377814 -1 0 0
869 1 55.120000000000005 14.687790848184003 0.009509452239378295 -1 0 0
867 1 53 15.911773418865998 1.5256001087955018 -1 0 0
780 1 59.36 12.239825706819998 1.5256001087955018 -1 0 0
873 1 59.36 14.687790848184003 0.009509452239378305 -1 0 0
871 1 57.24 15.911773418866 1.5256001087955027 -1 0 0
875 1 61.480000000000004 15.911773418865998 1.5256001087955016 -1 0 0
784 1 63.6 12.23982570682 1.5256001087955036 -1 0 0
877 1 63.6 14.687790848184001 0.009509452239376387 -1 0 0
879 1 65.72 15.911773418865998 1.5256001087955013 -1 0 0
788 1 67.84 12.239825706819998 1.5256001087955011 -1 0 0
792 1 72.08 12.23982570682 1.5256001087955036 -1 0 0
881 1 67.84 14.687790848184003 0.009509452239379471 -1 0 0
885 1 72.08 14.687790848184001 0.009509452239376751 -1 0 0
883 1 69.96000000000001 15.911773418866 1.5256001087955027 -1 0 0
796 1 76.32000000000001 12.23982570682 1.5256001087955036 -1 0 0
889 1 76.32000000000001 14.687790848184001 0.009509452239376751 -1 0 0
887 1 74.2 15.911773418865998 1.5256001087955 -1 0 0
891 1 78.44 15.911773418866 1.5256001087955025 -1 0 0
800 1 80.56 12.239825706819998 1.5256001087955016 -1 0 0
893 1 80.56 14.687790848184003 0.009509452239379353 -1 0 0
895 1 82.68 15.911773418865998 1.5256001087955002 -1 0 0
804 1 84.80000000000001 12.23982570682 1.5256001087955031 -1 0 0
808 1 89.03999999999999 12.23982570682 1.5256001087955031 -1 0 0
897 1 84.80000000000001 14.687790848184001 0.009509452239377061 -1 0 0
901 1 89.03999999999999 14.687790848184001 0.009509452239377058 -1 0 0
899 1 86.92 15.911773418866002 1.5256001087955051 -1 0 0
812 1 93.28 12.239825706819998 1.525600108795502 -1 0 0
905 1 93.28 14.687790848184003 0.009509452239378787 -1 0 0
903 1 91.16 15.911773418865998 1.5256001087955005 -1 0 0
907 1 95.4 15.911773418865998 1.5256001087955002 -1 0 0
816 1 97.52000000000001 12.23982570682 1.5256001087955036 -1 0 0
909 1 97.52000000000001 14.687790848184001 0.009509452239376631 -1 0 0
911 1 99.64 15.911773418866 1.5256001087955027 -1 0 0
914 1 2.1199999999999974 18.359738560230006 0.009509452239377977 0 0 0
916 1 0 19.583721130912 1.5256001087955027 0 0 0
920 1 4.239999999999997 19.583721130912 1.5256001087955033 0 0 0
1009 1 0 22.031686272276 0.009509452239377637 0 0 0
1013 1 4.239999999999997 22.031686272276 0.009509452239377249 0 0 0
918 1 6.359999999999998 18.359738560230006 0.009509452239379313 0 0 0
922 1 10.599999999999996 18.359738560230006 0.009509452239379148 0 0 0
924 1 8.479999999999997 19.583721130912 1.525600108795504 0 0 0
1017 1 8.479999999999997 22.031686272276 0.009509452239376145 0 0 0
926 1 14.839999999999998 18.359738560230006 0.009509452239379167 0 0 0
928 1 12.719999999999997 19.583721130912 1.5256001087955033 0 0 0
1021 1 12.719999999999997 22.031686272276 0.009509452239377027 0 0 0
932 1 16.959999999999997 19.583721130912 1.5256001087955045 0 0 0
1025 1 16.959999999999997 22.031686272276 0.009509452239376227 0 0 0
930 1 19.079999999999995 18.359738560230006 0.009509452239378111 0 0 0
936 1 21.199999999999996 19.583721130912 1.5256001087955027 0 0 0
1029 1 21.199999999999996 22.031686272276 0.009509452239377686 0 0 0
934 1 23.319999999999997 18.359738560230006 0.0095094522393781 0 0 0
938 1 27.559999999999995 18.359738560230006 0.009509452239379846 0 0 0
940 1 25.439999999999994 19.583721130912 1.5256001087955042 0 0 0
1033 1 25.439999999999994 22.031686272276 0.009509452239376211 0 0 0
942 1 31.8 18.359738560230006 0.009509452239377715 0 0 0
944 1 29.68 19.583721130912 1.5256001087955027 0 0 0
948 1 33.919999999999995 19.583721130912 1.5256001087955038 0 0 0
1037 1 29.68 22.031686272276 0.009509452239377736 0 0 0
1041 1 33.919999999999995 22.031686272276 0.0095094522393762 0 0 0
946 1 36.04 18.359738560230006 0.00950945223938066 0 0 0
952 1 38.160000000000004 19.583721130912 1.525600108795505 0 0 0
1045 1 38.160000000000004 22.031686272276 0.009509452239375762 0 0 0
950 1 40.279999999999994 18.359738560230006 0.009509452239377799 0 0 0
954 1 44.52 18.359738560230006 0.009509452239377715 0 0 0
956 1 42.4 19.583721130912 1.5256001087955016 0 0 0
1049 1 42.4 22.031686272276 0.009509452239378598 0 0 0
958 1 48.76 18.359738560230006 0.009509452239380548 0 0 0
960 1 46.63999999999999 19.583721130912 1.525600108795505 0 0 0
1053 1 46.63999999999999 22.031686272276 0.009509452239375773 0 0 0
866 1 53 18.359738560230006 0.009509452239379155 -1 0 0
868 1 50.88 19.583721130912 1.5256001087955033 -1 0 0
872 1 55.120000000000005 19.583721130912 1.5256001087955033 -1 0 0
961 1 50.88 22.031686272276 0.009509452239376794 -1 0 0
965 1 55.120000000000005 22.031686272276 0.009509452239377306 -1 0 0
870 1 57.24 18.359738560230006 0.009509452239377646 -1 0 0
874 1 61.480000000000004 18.359738560230006 0.009509452239379294 -1 0 0
876 1 59.36 19.583721130912 1.525600108795503 -1 0 0
969 1 59.36 22.031686272276 0.009509452239377308 -1 0 0
878 1 65.72 18.359738560230006 0.00950945223937914 -1 0 0
880 1 63.6 19.583721130912 1.5256001087955045 -1 0 0
973 1 63.6 22.031686272276 0.009509452239375726 -1 0 0
882 1 69.96000000000001 18.359738560230006 0.009509452239377724 -1 0 0
884 1 67.84 19.583721130912 1.5256001087955022 -1 0 0
888 1 72.08 19.583721130912 1.5256001087955045 -1 0 0
977 1 67.84 22.031686272276 0.009509452239378392 -1 0 0
981 1 72.08 22.031686272276 0.009509452239375762 -1 0 0
886 1 74.2 18.359738560230006 0.009509452239380788 -1 0 0
890 1 78.44 18.359738560230006 0.009509452239377715 -1 0 0
892 1 76.32000000000001 19.583721130912 1.5256001087955045 -1 0 0
985 1 76.32000000000001 22.031686272276 0.009509452239375762 -1 0 0
894 1 82.68 18.359738560230006 0.009509452239380234 -1 0 0
896 1 80.56 19.583721130912 1.5256001087955025 -1 0 0
989 1 80.56 22.031686272276 0.009509452239378132 -1 0 0
898 1 86.92 18.359738560230003 0.009509452239375632 -1 0 0
900 1 84.80000000000001 19.583721130912 1.5256001087955038 -1 0 0
904 1 89.03999999999999 19.583721130912 1.5256001087955038 -1 0 0
993 1 84.80000000000001 22.031686272276 0.00950945223937649 -1 0 0
997 1 89.03999999999999 22.031686272276 0.009509452239376492 -1 0 0
902 1 91.16 18.359738560230006 0.009509452239380236 -1 0 0
906 1 95.4 18.359738560230006 0.009509452239380298 -1 0 0
908 1 93.28 19.583721130912 1.5256001087955031 -1 0 0
1001 1 93.28 22.031686272276 0.009509452239377637 -1 0 0
910 1 99.64 18.359738560230006 0.009509452239377969 -1 0 0
912 1 97.52000000000001 19.583721130912 1.5256001087955045 -1 0 0
1005 1 97.52000000000001 22.031686272276 0.009509452239375766 -1 0 0
1011 1 2.1199999999999974 23.255668842958 1.5256001087955022 0 0 0
1012 1 0 26.927616555003997 1.5256001087955033 0 0 0
1010 1 2.1199999999999974 25.703633984322003 0.009509452239378338 0 0 0
1016 1 4.239999999999997 26.927616555003997 1.525600108795504 0 0 0
1015 1 6.359999999999998 23.255668842957995 1.5256001087955016 0 0 0
1019 1 10.599999999999996 23.255668842957995 1.525600108795501 0 0 0
1014 1 6.359999999999998 25.703633984322003 0.009509452239379485 0 0 0
1020 1 8.479999999999997 26.927616555003997 1.5256001087955047 0 0 0
1018 1 10.599999999999996 25.703633984322003 0.009509452239379207 0 0 0
1023 1 14.839999999999998 23.255668842957995 1.5256001087955018 0 0 0
1024 1 12.719999999999997 26.927616555003997 1.525600108795504 0 0 0
1022 1 14.839999999999998 25.703633984322003 0.009509452239379237 0 0 0
1028 1 16.959999999999997 26.927616555003997 1.525600108795505 0 0 0
1027 1 19.079999999999995 23.255668842957995 1.5256001087955022 0 0 0
1026 1 19.079999999999995 25.703633984322003 0.00950945223937857 0 0 0
1032 1 21.199999999999996 26.927616555003997 1.525600108795503 0 0 0
1031 1 23.319999999999997 23.255668842957995 1.5256001087955022 0 0 0
1035 1 27.559999999999995 23.255668842957995 1.525600108795501 0 0 0
1030 1 23.319999999999997 25.703633984322003 0.009509452239378578 0 0 0
1036 1 25.439999999999994 26.927616555003997 1.525600108795505 0 0 0
1034 1 27.559999999999995 25.703633984322003 0.009509452239379903 0 0 0
1039 1 31.8 23.255668842958 1.5256001087955027 0 0 0
1040 1 29.68 26.927616555003997 1.525600108795503 0 0 0
1038 1 31.8 25.703633984322 0.00950945223937808 0 0 0
1044 1 33.919999999999995 26.927616555003997 1.5256001087955045 0 0 0
1043 1 36.04 23.255668842957995 1.5256001087954998 0 0 0
1042 1 36.04 25.703633984322003 0.0095094522393809 0 0 0
1048 1 38.160000000000004 26.927616555003997 1.5256001087955053 0 0 0
1047 1 40.279999999999994 23.255668842958 1.525600108795503 0 0 0
1051 1 44.52 23.255668842958 1.5256001087955025 0 0 0
1046 1 40.279999999999994 25.703633984322 0.009509452239378073 0 0 0
1052 1 42.4 26.927616555003997 1.5256001087955018 0 0 0
1050 1 44.52 25.703633984322 0.00950945223937807 0 0 0
1055 1 48.76 23.255668842957995 1.5256001087955002 0 0 0
1056 1 46.63999999999999 26.927616555003997 1.5256001087955053 0 0 0
1054 1 48.76 25.703633984322003 0.0095094522393807 0 0 0
963 1 53 23.255668842957995 1.5256001087955016 -1 0 0
964 1 50.88 26.927616555003997 1.525600108795504 -1 0 0
962 1 53 25.703633984322003 0.009509452239379369 -1 0 0
968 1 55.120000000000005 26.927616555003997 1.525600108795504 -1 0 0
967 1 57.24 23.255668842958 1.5256001087955025 -1 0 0
971 1 61.480000000000004 23.255668842957995 1.5256001087955016 -1 0 0
966 1 57.24 25.703633984322 0.009509452239378003 -1 0 0
972 1 59.36 26.927616555003997 1.5256001087955038 -1 0 0
970 1 61.480000000000004 25.703633984322003 0.009509452239379452 -1 0 0
975 1 65.72 23.255668842957995 1.5256001087955013 -1 0 0
976 1 63.6 26.927616555003997 1.5256001087955051 -1 0 0
974 1 65.72 25.703633984322003 0.009509452239379193 -1 0 0
979 1 69.96000000000001 23.255668842958 1.5256001087955025 -1 0 0
980 1 67.84 26.927616555003997 1.5256001087955025 -1 0 0
978 1 69.96000000000001 25.703633984322 0.009509452239378161 -1 0 0
984 1 72.08 26.927616555003997 1.525600108795505 -1 0 0
983 1 74.2 23.255668842957995 1.5256001087955002 -1 0 0
987 1 78.44 23.255668842958 1.5256001087955025 -1 0 0
982 1 74.2 25.703633984322003 0.009509452239380859 -1 0 0
988 1 76.32000000000001 26.927616555003997 1.525600108795505 -1 0 0
986 1 78.44 25.703633984322 0.009509452239378154 -1 0 0
991 1 82.68 23.255668842957995 1.5256001087955002 -1 0 0
992 1 80.56 26.927616555003997 1.5256001087955027 -1 0 0
990 1 82.68 25.703633984322003 0.009509452239380364 -1 0 0
995 1 86.92 23.255668842958 1.5256001087955051 -1 0 0
996 1 84.80000000000001 26.927616555003997 1.5256001087955045 -1 0 0
994 1 86.92 25.703633984322 0.009509452239375396 -1 0 0
1000 1 89.03999999999999 26.927616555003997 1.5256001087955045 -1 0 0
999 1 91.16 23.255668842957995 1.5256001087955002 -1 0 0
1003 1 95.4 23.255668842957995 1.5256001087955002 -1 0 0
998 1 91.16 25.703633984322003 0.009509452239380356 -1 0 0
1004 1 93.28 26.927616555003997 1.5256001087955033 -1 0 0
1002 1 95.4 25.703633984322003 0.00950945223938034 -1 0 0
1007 1 99.64 23.255668842958 1.5256001087955027 -1 0 0
1008 1 97.52000000000001 26.927616555003997 1.525600108795505 -1 0 0
1006 1 99.64 25.703633984322 0.009509452239378354 -1 0 0
1105 1 0 29.375581696368002 0.009509452239380215 0 0 0
1107 1 2.1199999999999974 30.59956426705 1.5256001087955025 0 0 0
1109 1 4.239999999999997 29.375581696368002 0.009509452239379762 0 0 0
1106 1 2.1199999999999974 33.047529408414 0.009509452239375514 0 0 0
1111 1 6.359999999999998 30.59956426705 1.5256001087955018 0 0 0
1113 1 8.479999999999997 29.375581696368 0.009509452239378734 0 0 0
1115 1 10.599999999999996 30.59956426705 1.5256001087955013 0 0 0
1110 1 6.359999999999998 33.047529408414 0.009509452239376546 0 0 0
1114 1 10.599999999999996 33.047529408414 0.009509452239376362 0 0 0
1117 1 12.719999999999997 29.375581696368002 0.009509452239379698 0 0 0
1119 1 14.839999999999998 30.59956426705 1.5256001087955018 0 0 0
1118 1 14.839999999999998 33.047529408414 0.009509452239376458 0 0 0
1121 1 16.959999999999997 29.375581696368 0.009509452239378994 0 0 0
1123 1 19.079999999999995 30.59956426705 1.5256001087955027 0 0 0
1125 1 21.199999999999996 29.375581696368002 0.009509452239380302 0 0 0
1122 1 19.079999999999995 33.047529408414 0.009509452239375877 0 0 0
1127 1 23.319999999999997 30.59956426705 1.5256001087955027 0 0 0
1129 1 25.439999999999994 29.375581696368 0.00950945223937864 0 0 0
1131 1 27.559999999999995 30.59956426705 1.5256001087955013 0 0 0
1126 1 23.319999999999997 33.047529408414 0.009509452239375753 0 0 0
1130 1 27.559999999999995 33.047529408414 0.009509452239377665 0 0 0
1133 1 29.68 29.375581696368002 0.009509452239380089 0 0 0
1135 1 31.8 30.59956426705 1.5256001087955033 0 0 0
1137 1 33.919999999999995 29.375581696368 0.009509452239378552 0 0 0
1134 1 31.8 33.047529408414 0.009509452239375273 0 0 0
1139 1 36.04 30.599564267049995 1.5256001087955 0 0 0
1141 1 38.160000000000004 29.375581696368 0.009509452239378208 0 0 0
1138 1 36.04 33.047529408414 0.009509452239378364 0 0 0
1143 1 40.279999999999994 30.59956426705 1.5256001087955033 0 0 0
1145 1 42.4 29.375581696368002 0.009509452239381233 0 0 0
1147 1 44.52 30.59956426705 1.525600108795503 0 0 0
1142 1 40.279999999999994 33.047529408414 0.009509452239375278 0 0 0
1146 1 44.52 33.047529408414 0.00950945223937517 0 0 0
1149 1 46.63999999999999 29.375581696368 0.00950945223937812 0 0 0
1151 1 48.76 30.599564267049995 1.5256001087955002 0 0 0
1150 1 48.76 33.047529408414 0.009509452239378234 0 0 0
1057 1 50.88 29.375581696368 0.009509452239379086 -1 0 0
1059 1 53 30.59956426705 1.525600108795502 -1 0 0
1061 1 55.120000000000005 29.375581696368002 0.0095094522393799 -1 0 0
1058 1 53 33.047529408414 0.009509452239376253 -1 0 0
1063 1 57.24 30.59956426705 1.5256001087955027 -1 0 0
1065 1 59.36 29.375581696368002 0.009509452239379735 -1 0 0
1067 1 61.480000000000004 30.59956426705 1.5256001087955018 -1 0 0
1062 1 57.24 33.047529408414 0.009509452239375275 -1 0 0
1066 1 61.480000000000004 33.047529408414 0.009509452239376614 -1 0 0
1069 1 63.6 29.375581696368 0.009509452239378375 -1 0 0
1071 1 65.72 30.59956426705 1.5256001087955018 -1 0 0
1070 1 65.72 33.047529408414 0.00950945223937647 -1 0 0
1073 1 67.84 29.375581696368002 0.009509452239380982 -1 0 0
1075 1 69.96000000000001 30.59956426705 1.5256001087955031 -1 0 0
1077 1 72.08 29.375581696368 0.009509452239378114 -1 0 0
1074 1 69.96000000000001 33.047529408414 0.009509452239375094 -1 0 0
1079 1 74.2 30.599564267049995 1.5256001087955005 -1 0 0
1081 1 76.32000000000001 29.375581696368 0.009509452239378114 -1 0 0
1083 1 78.44 30.59956426705 1.5256001087955031 -1 0 0
1078 1 74.2 33.047529408414 0.0095094522393784 -1 0 0
1082 1 78.44 33.047529408414 0.009509452239375087 -1 0 0
1085 1 80.56 29.375581696368002 0.00950945223938049 -1 0 0
1087 1 82.68 30.599564267049995 1.5256001087955007 -1 0 0
1086 1 82.68 33.047529408414 0.009509452239378026 -1 0 0
1089 1 84.80000000000001 29.375581696368 0.009509452239378489 -1 0 0
1091 1 86.92 30.599564267050003 1.5256001087955051 -1 0 0
1093 1 89.03999999999999 29.375581696368 0.009509452239378494 -1 0 0
1090 1 86.92 33.047529408414 0.00950945223937323 -1 0 0
1095 1 91.16 30.599564267049995 1.525600108795501 -1 0 0
1097 1 93.28 29.375581696368002 0.009509452239379781 -1 0 0
1099 1 95.4 30.599564267049995 1.525600108795501 -1 0 0
1094 1 91.16 33.047529408414 0.00950945223937802 -1 0 0
1098 1 95.4 33.047529408414 0.009509452239378017 -1 0 0
1101 1 97.52000000000001 29.375581696368 0.00950945223937822 -1 0 0
1103 1 99.64 30.59956426705 1.525600108795503 -1 0 0
1102 1 99.64 33.047529408414 0.009509452239375313 -1 0 0
1108 1 0 34.271511979096 1.5256001087955005 0 0 0
1112 1 4.239999999999997 34.271511979096 1.5256001087955011 0 0 0
1201 1 0 36.719477120460006 0.009509452239380194 0 0 0
1205 1 4.239999999999997 36.719477120460006 0.009509452239379915 0 0 0
1203 1 2.1199999999999974 37.943459691142 1.5256001087955045 0 0 0
1116 1 8.479999999999997 34.271511979096 1.5256001087955018 0 0 0
1209 1 8.479999999999997 36.719477120460006 0.009509452239378881 0 0 0
1207 1 6.359999999999998 37.943459691142 1.5256001087955038 0 0 0
1211 1 10.599999999999996 37.943459691142 1.5256001087955033 0 0 0
1120 1 12.719999999999997 34.271511979096 1.5256001087955007 0 0 0
1213 1 12.719999999999997 36.719477120460006 0.009509452239379742 0 0 0
1215 1 14.839999999999998 37.943459691142 1.5256001087955038 0 0 0
1124 1 16.959999999999997 34.271511979096 1.525600108795502 0 0 0
1217 1 16.959999999999997 36.719477120460006 0.00950945223937917 0 0 0
1128 1 21.199999999999996 34.271511979096 1.5256001087955002 0 0 0
1221 1 21.199999999999996 36.719477120460006 0.009509452239380422 0 0 0
1219 1 19.079999999999995 37.943459691142 1.5256001087955045 0 0 0
1132 1 25.439999999999994 34.271511979096 1.5256001087955018 0 0 0
1225 1 25.439999999999994 36.719477120460006 0.00950945223937895 0 0 0
1223 1 23.319999999999997 37.943459691142 1.5256001087955045 0 0 0
1227 1 27.559999999999995 37.943459691142 1.5256001087955031 0 0 0
1136 1 29.68 34.271511979096 1.5256001087955005 0 0 0
1140 1 33.919999999999995 34.271511979096 1.5256001087955013 0 0 0
1229 1 29.68 36.719477120460006 0.009509452239380347 0 0 0
1233 1 33.919999999999995 36.719477120460006 0.009509452239378977 0 0 0
1231 1 31.8 37.943459691142 1.5256001087955051 0 0 0