LAMMPS data file via write_data, version 29 Aug 2024, timestep = 2, units = metal

6120 atoms
24 atom types

0 99.57019873404 xlo xhi
0 97.727697772012 ylo yhi
-50 50 zlo zhi

Masses

1 183.84
2 183.84
3 183.84
4 183.84
5 183.84
6 183.84
7 183.84
8 183.84
9 78.971
10 78.971
11 78.971
12 78.971
13 78.971
14 78.971
15 78.971
16 78.971
17 78.971
18 78.971
19 78.971
20 78.971
21 78.971
22 78.971
23 78.971
24 78.971

Atoms # atomic

1536 16 0 0.9581149519925041 0.01082429886216646 0 0 0
1542 12 3.319006624467996 0.9581149519925044 0.010824298862166126 0 0 0
1711 3 0 2.8743434278759303 1.6779053409199582 0 0 0
1717 1 3.319006624467996 2.87434342787593 1.6779053409199587 0 0 0
1713 14 1.6595033122339953 3.832459004110505 0.010824298862165602 0 0 0
1719 10 4.978509936701997 3.8324590041105044 0.010824298862165696 0 0 0
1714 4 1.6595033122339962 5.74868747999393 1.6779053409199587 0 0 0
1720 2 4.978509936701997 5.748687479993931 1.677905340919959 0 0 0
1548 16 6.638013248935998 0.9581149519925044 0.010824298862166178 0 0 0
1554 12 9.957019873403999 0.9581149519925047 0.010824298862165955 0 0 0
1723 3 6.638013248935998 2.87434342787593 1.6779053409199587 0 0 0
1729 1 9.957019873403999 2.8743434278759294 1.6779053409199587 0 0 0
1725 14 8.29751656117 3.8324590041105044 0.010824298862165871 0 0 0
1731 10 11.616523185637996 3.832459004110505 0.010824298862165706 0 0 0
1726 4 8.29751656117 5.74868747999393 1.677905340919959 0 0 0
1732 2 11.616523185637996 5.74868747999393 1.6779053409199587 0 0 0
1560 16 13.276026497871996 0.9581149519925044 0.010824298862166275 0 0 0
1566 12 16.595033122339995 0.9581149519925043 0.010824298862166222 0 0 0
1735 3 13.276026497871996 2.87434342787593 1.6779053409199587 0 0 0
1741 1 16.595033122339995 2.87434342787593 1.6779053409199587 0 0 0
1737 14 14.935529810105995 3.832459004110505 0.010824298862165611 0 0 0
1738 4 14.935529810105995 5.74868747999393 1.6779053409199587 0 0 0
1572 16 19.914039746807997 0.9581149519925044 0.010824298862166133 0 0 0
1578 12 23.233046371275996 0.9581149519925052 0.010824298862165566 0 0 0
1747 3 19.914039746807997 2.87434342787593 1.6779053409199587 0 0 0
1753 1 23.233046371275996 2.874343427875929 1.6779053409199587 0 0 0
1743 10 18.254536434573996 3.8324590041105044 0.010824298862165826 0 0 0
1749 14 21.573543059042 3.8324590041105044 0.01082429886216603 0 0 0
1744 2 18.254536434573996 5.748687479993931 1.6779053409199587 0 0 0
1750 4 21.573543059042 5.74868747999393 1.6779053409199587 0 0 0
1584 16 26.552052995743995 0.9581149519925044 0.010824298862166133 0 0 0
1759 3 26.552052995743995 2.87434342787593 1.6779053409199587 0 0 0
1755 10 24.892549683509994 3.8324590041105044 0.01082429886216603 0 0 0
1761 14 28.211556307977997 3.8324590041105044 0.010824298862165795 0 0 0
1756 2 24.892549683509994 5.74868747999393 1.6779053409199587 0 0 0
1762 4 28.211556307977997 5.748687479993931 1.6779053409199587 0 0 0
1590 12 29.871059620211998 0.9581149519925044 0.010824298862166026 0 0 0
1596 16 33.190066244680004 0.9581149519925044 0.010824298862166203 0 0 0
1765 1 29.871059620211998 2.87434342787593 1.6779053409199587 0 0 0
1771 3 33.19006624468 2.87434342787593 1.6779053409199587 0 0 0
1767 10 31.530562932446 3.8324590041105044 0.010824298862165625 0 0 0
1773 14 34.849569556914 3.8324590041105053 0.010824298862165778 0 0 0
1768 2 31.530562932446 5.748687479993931 1.6779053409199587 0 0 0
1774 4 34.849569556914 5.748687479993929 1.6779053409199587 0 0 0
1602 12 36.50907286914799 0.9581149519925044 0.010824298862166045 0 0 0
1608 16 39.828079493615995 0.9581149519925044 0.010824298862166083 0 0 0
1777 1 36.509072869148 2.8743434278759303 1.6779053409199585 0 0 0
1783 3 39.828079493616 2.87434342787593 1.6779053409199587 0 0 0
1779 10 38.168576181382 3.8324590041105044 0.010824298862165816 0 0 0
1780 2 38.168576181381994 5.748687479993931 1.6779053409199587 0 0 0
1614 12 43.147086118084 0.9581149519925052 0.010824298862165824 0 0 0
1620 16 46.466092742552 0.9581149519925044 0.010824298862166076 0 0 0
1789 1 43.147086118084 2.8743434278759286 1.6779053409199587 0 0 0
1795 3 46.46609274255199 2.87434342787593 1.6779053409199587 0 0 0
1785 14 41.48758280585 3.8324590041105044 0.010824298862165946 0 0 0
1791 10 44.80658943031799 3.8324590041105044 0.010824298862165948 0 0 0
1786 4 41.487582805849996 5.74868747999393 1.6779053409199587 0 0 0
1792 2 44.806589430318 5.74868747999393 1.6779053409199587 0 0 0
1446 12 49.78509936702 0.9581149519925041 0.010824298862166199 -1 0 0
1621 1 49.78509936702 2.874343427875931 1.6779053409199587 -1 0 0
1797 14 48.125596054785994 3.8324590041105044 0.010824298862166024 0 0 0
1623 10 51.444602679254004 3.832459004110505 0.010824298862165654 -1 0 0
1798 4 48.125596054786 5.748687479993931 1.6779053409199587 0 0 0
1624 2 51.444602679254004 5.74868747999393 1.677905340919959 -1 0 0
1452 16 53.104105991488005 0.9581149519925043 0.0108242988621663 -1 0 0
1458 12 56.423112615956 0.9581149519925047 0.010824298862165908 -1 0 0
1627 3 53.104105991488005 2.87434342787593 1.6779053409199587 -1 0 0
1633 1 56.423112615956 2.874343427875929 1.6779053409199587 -1 0 0
1629 14 54.763609303722006 3.832459004110505 0.010824298862165673 -1 0 0
1635 10 58.08261592819 3.8324590041105044 0.010824298862165975 -1 0 0
1630 4 54.763609303722006 5.74868747999393 1.677905340919959 -1 0 0
1636 2 58.08261592819 5.748687479993931 1.677905340919959 -1 0 0
1464 16 59.742119240424 0.9581149519925044 0.010824298862166166 -1 0 0
1470 12 63.061125864892006 0.9581149519925047 0.01082429886216597 -1 0 0
1639 3 59.742119240424 2.87434342787593 1.6779053409199587 -1 0 0
1645 1 63.061125864892006 2.8743434278759294 1.677905340919959 -1 0 0
1641 14 61.401622552658004 3.8324590041105044 0.010824298862165932 -1 0 0
1642 4 61.401622552658004 5.748687479993931 1.6779053409199587 -1 0 0
1476 16 66.38013248936 0.9581149519925044 0.010824298862166059 -1 0 0
1482 12 69.69913911382801 0.9581149519925044 0.010824298862166048 -1 0 0
1651 3 66.38013248936 2.87434342787593 1.6779053409199587 -1 0 0
1657 1 69.69913911382801 2.87434342787593 1.6779053409199587 -1 0 0
1647 10 64.720629177126 3.8324590041105053 0.010824298862165129 -1 0 0
1653 14 68.039635801594 3.8324590041105036 0.010824298862166718 -1 0 0
1648 2 64.720629177126 5.748687479993929 1.6779053409199587 -1 0 0
1654 4 68.039635801594 5.748687479993933 1.6779053409199587 -1 0 0
1488 16 73.018145738296 0.9581149519925042 0.010824298862166385 -1 0 0
1663 3 73.018145738296 2.8743434278759303 1.6779053409199587 -1 0 0
1659 10 71.358642426062 3.8324590041105058 0.010824298862165054 -1 0 0
1665 14 74.67764905053001 3.8324590041105044 0.01082429886216582 -1 0 0
1660 2 71.358642426062 5.7486874799939285 1.6779053409199587 -1 0 0
1666 4 74.67764905053001 5.748687479993931 1.6779053409199587 -1 0 0
1494 12 76.337152362764 0.9581149519925044 0.01082429886216608 -1 0 0
1500 16 79.656158987232 0.9581149519925053 0.010824298862165602 -1 0 0
1669 1 76.337152362764 2.87434342787593 1.6779053409199587 -1 0 0
1675 3 79.656158987232 2.8743434278759286 1.6779053409199587 -1 0 0
1671 10 77.99665567499801 3.8324590041105044 0.010824298862166246 -1 0 0
1677 14 81.315662299466 3.8324590041105053 0.010824298862165349 -1 0 0
1672 2 77.99665567499801 5.748687479993931 1.6779053409199587 -1 0 0
1678 4 81.315662299466 5.748687479993929 1.6779053409199587 -1 0 0
1506 12 82.97516561169999 0.9581149519925044 0.010824298862166072 -1 0 0
1512 16 86.29417223616801 0.9581149519925044 0.010824298862166048 -1 0 0
1681 1 82.97516561169999 2.87434342787593 1.6779053409199587 -1 0 0
1687 3 86.29417223616801 2.87434342787593 1.6779053409199587 -1 0 0
1683 10 84.634668923934 3.8324590041105036 0.010824298862166718 -1 0 0
1684 2 84.634668923934 5.748687479993933 1.6779053409199587 -1 0 0
1518 12 89.613178860636 0.9581149519925042 0.010824298862166385 -1 0 0
1524 16 92.932185485104 0.9581149519925044 0.010824298862166085 -1 0 0
1693 1 89.613178860636 2.8743434278759303 1.6779053409199587 -1 0 0
1699 3 92.932185485104 2.87434342787593 1.6779053409199587 -1 0 0
1689 14 87.953675548402 3.8324590041105058 0.010824298862165054 -1 0 0
1695 10 91.27268217287 3.8324590041105044 0.01082429886216582 -1 0 0
1690 4 87.953675548402 5.7486874799939285 1.6779053409199587 -1 0 0
1696 2 91.27268217287 5.748687479993931 1.6779053409199587 -1 0 0
1530 12 96.251192109572 0.9581149519925056 0.010824298862165248 -1 0 0
1705 1 96.251192109572 2.874343427875928 1.6779053409199587 -1 0 0
1701 14 94.59168879733801 3.8324590041105044 0.010824298862166227 -1 0 0
1707 10 97.910695421806 3.8324590041105044 0.010824298862166315 -1 0 0
1702 4 94.59168879733801 5.748687479993931 1.6779053409199587 -1 0 0
1708 2 97.910695421806 5.748687479993931 1.6779053409199585 -1 0 0
1716 16 0 6.706803056228505 0.010824298862166284 0 0 0
1722 12 3.319006624467996 6.706803056228506 0.010824298862166019 0 0 0
1891 3 0 8.62303153211193 1.6779053409199582 0 0 0
1897 1 3.319006624467996 8.62303153211193 1.6779053409199587 0 0 0
1893 14 1.6595033122339953 9.581147108346505 0.010824298862165965 0 0 0
1899 10 4.978509936701997 9.581147108346507 0.010824298862166164 0 0 0
1894 4 1.6595033122339962 11.49737558422993 1.6779053409199587 0 0 0
1900 2 4.978509936701997 11.49737558422993 1.6779053409199587 0 0 0
1728 16 6.638013248935998 6.706803056228506 0.010824298862165882 0 0 0
1734 12 9.957019873403999 6.706803056228507 0.010824298862165753 0 0 0
1903 3 6.638013248935998 8.62303153211193 1.677905340919959 0 0 0
1909 1 9.957019873403999 8.62303153211193 1.6779053409199587 0 0 0
1905 14 8.29751656117 9.581147108346507 0.010824298862166317 0 0 0
1911 10 11.616523185637996 9.581147108346505 0.010824298862165968 0 0 0
1906 4 8.29751656117 11.49737558422993 1.6779053409199587 0 0 0
1912 2 11.616523185637996 11.49737558422993 1.6779053409199585 0 0 0
1740 16 13.276026497871996 6.706803056228506 0.010824298862166102 0 0 0
1746 12 16.595033122339995 6.706803056228506 0.010824298862165927 0 0 0
1915 3 13.276026497871996 8.62303153211193 1.6779053409199585 0 0 0
1921 1 16.595033122339995 8.62303153211193 1.6779053409199587 0 0 0
1917 14 14.935529810105995 9.581147108346505 0.01082429886216603 0 0 0
1918 4 14.935529810105995 11.49737558422993 1.6779053409199585 0 0 0
1752 16 19.914039746807997 6.706803056228506 0.010824298862166013 0 0 0
1758 12 23.233046371275996 6.706803056228507 0.010824298862165412 0 0 0
1927 3 19.914039746807997 8.62303153211193 1.6779053409199587 0 0 0
1933 1 23.233046371275996 8.62303153211193 1.6779053409199587 0 0 0
1923 10 18.254536434573996 9.581147108346505 0.010824298862166256 0 0 0
1929 14 21.573543059042 9.581147108346507 0.01082429886216636 0 0 0
1924 2 18.254536434573996 11.49737558422993 1.6779053409199587 0 0 0
1930 4 21.573543059042 11.49737558422993 1.6779053409199587 0 0 0
1764 16 26.552052995743995 6.706803056228506 0.010824298862166013 0 0 0
1939 3 26.552052995743995 8.62303153211193 1.6779053409199587 0 0 0
1935 10 24.892549683509994 9.581147108346507 0.010824298862166359 0 0 0
1941 14 28.211556307977997 9.581147108346505 0.010824298862166237 0 0 0
1936 2 24.892549683509994 11.49737558422993 1.6779053409199587 0 0 0
1942 4 28.211556307977997 11.49737558422993 1.6779053409199587 0 0 0
1770 12 29.871059620211998 6.706803056228506 0.010824298862165915 0 0 0
1776 16 33.190066244680004 6.706803056228506 0.010824298862166088 0 0 0
1945 1 29.871059620211998 8.62303153211193 1.6779053409199587 0 0 0
1951 3 33.19006624468 8.62303153211193 1.6779053409199587 0 0 0
1947 10 31.530562932446 9.581147108346505 0.010824298862166107 0 0 0
1953 14 34.849569556914 9.581147108346505 0.010824298862166043 0 0 0
1948 2 31.530562932446 11.49737558422993 1.6779053409199585 0 0 0
1954 4 34.849569556914 11.497375584229928 1.6779053409199585 0 0 0
1782 12 36.50907286914799 6.706803056228506 0.010824298862165915 0 0 0
1788 16 39.828079493615995 6.706803056228506 0.010824298862165961 0 0 0
1957 1 36.509072869148 8.62303153211193 1.6779053409199587 0 0 0
1963 3 39.828079493616 8.62303153211193 1.6779053409199587 0 0 0
1959 10 38.168576181382 9.581147108346505 0.010824298862166234 0 0 0
1960 2 38.168576181381994 11.49737558422993 1.6779053409199587 0 0 0
1794 12 43.147086118084 6.706803056228507 0.010824298862165675 0 0 0
1800 16 46.466092742552 6.706803056228506 0.010824298862165963 0 0 0
1969 1 43.147086118084 8.62303153211193 1.6779053409199587 0 0 0
1975 3 46.46609274255199 8.62303153211193 1.6779053409199587 0 0 0
1965 14 41.48758280585 9.581147108346507 0.010824298862166265 0 0 0
1971 10 44.80658943031799 9.581147108346507 0.010824298862166263 0 0 0
1966 4 41.487582805849996 11.49737558422993 1.6779053409199587 0 0 0
1972 2 44.806589430318 11.49737558422993 1.6779053409199587 0 0 0
1626 12 49.78509936702 6.706803056228506 0.010824298862166098 -1 0 0
1801 1 49.78509936702 8.623031532111932 1.677905340919959 -1 0 0
1977 14 48.125596054785994 9.581147108346505 0.010824298862166308 0 0 0
1803 10 51.444602679254004 9.581147108346507 0.010824298862166105 -1 0 0
1978 4 48.125596054786 11.49737558422993 1.6779053409199587 0 0 0
1804 2 51.444602679254004 11.49737558422993 1.6779053409199587 -1 0 0
1632 16 53.104105991488005 6.706803056228506 0.010824298862166145 -1 0 0
1638 12 56.423112615956 6.706803056228507 0.010824298862165798 -1 0 0
1807 3 53.104105991488005 8.62303153211193 1.6779053409199587 -1 0 0
1813 1 56.423112615956 8.62303153211193 1.677905340919959 -1 0 0
1809 14 54.763609303722006 9.581147108346507 0.010824298862165923 -1 0 0
1815 10 58.08261592819 9.581147108346505 0.010824298862166352 -1 0 0
1810 4 54.763609303722006 11.49737558422993 1.6779053409199587 -1 0 0
1816 2 58.08261592819 11.49737558422993 1.6779053409199587 -1 0 0
1644 16 59.742119240424 6.706803056228506 0.010824298862165863 -1 0 0
1650 12 63.061125864892006 6.706803056228507 0.010824298862165974 -1 0 0
1819 3 59.742119240424 8.62303153211193 1.6779053409199587 -1 0 0
1825 1 63.061125864892006 8.62303153211193 1.6779053409199587 -1 0 0
1821 14 61.401622552658004 9.581147108346505 0.010824298862166352 -1 0 0
1822 4 61.401622552658004 11.49737558422993 1.6779053409199587 -1 0 0
1656 16 66.38013248936 6.706803056228506 0.010824298862165927 -1 0 0
1662 12 69.69913911382801 6.706803056228506 0.010824298862165916 -1 0 0
1831 3 66.38013248936 8.62303153211193 1.6779053409199587 -1 0 0
1837 1 69.69913911382801 8.62303153211193 1.6779053409199587 -1 0 0
1827 10 64.720629177126 9.581147108346507 0.01082429886216553 -1 0 0
1833 14 68.039635801594 9.581147108346505 0.010824298862167027 -1 0 0
1828 2 64.720629177126 11.497375584229928 1.6779053409199585 -1 0 0
1834 4 68.039635801594 11.497375584229932 1.6779053409199585 -1 0 0
1668 16 73.018145738296 6.706803056228506 0.010824298862166284 -1 0 0
1843 3 73.018145738296 8.62303153211193 1.6779053409199587 -1 0 0
1839 10 71.358642426062 9.581147108346507 0.010824298862165299 -1 0 0
1845 14 74.67764905053001 9.581147108346505 0.010824298862166237 -1 0 0
1840 2 71.358642426062 11.497375584229928 1.6779053409199585 -1 0 0
1846 4 74.67764905053001 11.49737558422993 1.6779053409199585 -1 0 0
1674 12 76.337152362764 6.706803056228506 0.010824298862165956 -1 0 0
1680 16 79.656158987232 6.706803056228507 0.010824298862165443 -1 0 0
1849 1 76.337152362764 8.62303153211193 1.6779053409199587 -1 0 0
1855 3 79.656158987232 8.623031532111929 1.6779053409199587 -1 0 0
1851 10 77.99665567499801 9.581147108346505 0.010824298862166617 -1 0 0
1857 14 81.315662299466 9.581147108346507 0.010824298862165793 -1 0 0
1852 2 77.99665567499801 11.49737558422993 1.6779053409199587 -1 0 0
1858 4 81.315662299466 11.497375584229928 1.6779053409199585 -1 0 0
1686 12 82.97516561169999 6.706803056228506 0.010824298862165927 -1 0 0
1692 16 86.29417223616801 6.706803056228506 0.010824298862165916 -1 0 0
1861 1 82.97516561169999 8.62303153211193 1.6779053409199587 -1 0 0
1867 3 86.29417223616801 8.62303153211193 1.6779053409199587 -1 0 0
1863 10 84.634668923934 9.581147108346505 0.010824298862167025 -1 0 0
1864 2 84.634668923934 11.497375584229932 1.6779053409199585 -1 0 0
1698 12 89.613178860636 6.706803056228506 0.010824298862166255 -1 0 0
1704 16 92.932185485104 6.706803056228506 0.010824298862165958 -1 0 0
1873 1 89.613178860636 8.62303153211193 1.6779053409199587 -1 0 0
1879 3 92.932185485104 8.62303153211193 1.6779053409199587 -1 0 0
1869 14 87.953675548402 9.581147108346507 0.010824298862165299 -1 0 0
1875 10 91.27268217287 9.581147108346505 0.010824298862166237 -1 0 0
1870 4 87.953675548402 11.497375584229928 1.6779053409199585 -1 0 0
1876 2 91.27268217287 11.49737558422993 1.6779053409199585 -1 0 0
1710 12 96.251192109572 6.706803056228507 0.0108242988621651 -1 0 0
1885 1 96.251192109572 8.623031532111929 1.6779053409199587 -1 0 0
1881 14 94.59168879733801 9.581147108346505 0.010824298862166612 -1 0 0
1887 10 97.910695421806 9.581147108346505 0.010824298862166681 -1 0 0
1882 4 94.59168879733801 11.49737558422993 1.6779053409199587 -1 0 0
1888 2 97.910695421806 11.49737558422993 1.6779053409199585 -1 0 0
1896 16 0 12.455491160464504 0.01082429886216633 0 0 0
1902 12 3.319006624467996 12.455491160464504 0.010824298862166064 0 0 0
2071 3 0 14.37171963634793 1.6779053409199585 0 0 0
2077 1 3.319006624467996 14.371719636347928 1.6779053409199587 0 0 0
2073 14 1.6595033122339953 15.329835212582504 0.010824298862165621 0 0 0
2079 10 4.978509936701997 15.329835212582504 0.010824298862165635 0 0 0
2074 4 1.6595033122339962 17.246063688465927 1.6779053409199587 0 0 0
2080 2 4.978509936701997 17.246063688465927 1.6779053409199587 0 0 0
1908 16 6.638013248935998 12.455491160464504 0.010824298862165948 0 0 0
1914 12 9.957019873403999 12.455491160464504 0.01082429886216579 0 0 0
2083 3 6.638013248935998 14.371719636347928 1.6779053409199587 0 0 0
2089 1 9.957019873403999 14.371719636347928 1.6779053409199587 0 0 0
2085 14 8.29751656117 15.329835212582504 0.010824298862165802 0 0 0
2091 10 11.616523185637996 15.329835212582504 0.010824298862165672 0 0 0
2086 4 8.29751656117 17.246063688465927 1.677905340919959 0 0 0
2092 2 11.616523185637996 17.246063688465927 1.677905340919959 0 0 0
1920 16 13.276026497871996 12.455491160464504 0.010824298862166114 0 0 0
1926 12 16.595033122339995 12.455491160464504 0.01082429886216604 0 0 0
2095 3 13.276026497871996 14.371719636347928 1.6779053409199587 0 0 0
2101 1 16.595033122339995 14.371719636347928 1.677905340919959 0 0 0
2097 14 14.935529810105995 15.329835212582504 0.010824298862165613 0 0 0
2098 4 14.935529810105995 17.246063688465927 1.6779053409199587 0 0 0
1932 16 19.914039746807997 12.455491160464504 0.01082429886216606 0 0 0
1938 12 23.233046371275996 12.455491160464504 0.010824298862165412 0 0 0
2107 3 19.914039746807997 14.371719636347928 1.6779053409199587 0 0 0
2113 1 23.233046371275996 14.371719636347928 1.6779053409199587 0 0 0
2103 10 18.254536434573996 15.329835212582504 0.010824298862165764 0 0 0
2109 14 21.573543059042 15.329835212582504 0.010824298862165986 0 0 0
2104 2 18.254536434573996 17.246063688465927 1.6779053409199587 0 0 0
2110 4 21.573543059042 17.246063688465927 1.677905340919959 0 0 0
1944 16 26.552052995743995 12.455491160464504 0.010824298862166059 0 0 0
2119 3 26.552052995743995 14.371719636347928 1.6779053409199587 0 0 0
2115 10 24.892549683509994 15.329835212582504 0.010824298862165984 0 0 0
2121 14 28.211556307977997 15.329835212582504 0.010824298862165741 0 0 0
2116 2 24.892549683509994 17.246063688465927 1.677905340919959 0 0 0
2122 4 28.211556307977997 17.246063688465927 1.6779053409199587 0 0 0
1950 12 29.871059620211998 12.455491160464504 0.010824298862165967 0 0 0
1956 16 33.190066244680004 12.455491160464504 0.010824298862166288 0 0 0
2125 1 29.871059620211998 14.37171963634793 1.6779053409199587 0 0 0
2131 3 33.19006624468 14.371719636347928 1.6779053409199587 0 0 0
2127 10 31.530562932446 15.329835212582504 0.010824298862165554 0 0 0
2133 14 34.849569556914 15.329835212582504 0.010824298862165726 0 0 0
2128 2 31.530562932446 17.24606368846593 1.6779053409199587 0 0 0
2134 4 34.849569556914 17.246063688465927 1.677905340919959 0 0 0
1962 12 36.50907286914799 12.455491160464504 0.01082429886216609 0 0 0
1968 16 39.828079493615995 12.455491160464504 0.010824298862166017 0 0 0
2137 1 36.509072869148 14.371719636347928 1.6779053409199587 0 0 0
2143 3 39.828079493616 14.371719636347928 1.6779053409199587 0 0 0
2139 10 38.168576181382 15.329835212582504 0.010824298862165748 0 0 0
2140 2 38.168576181381994 17.246063688465927 1.6779053409199587 0 0 0
1974 12 43.147086118084 12.455491160464504 0.01082429886216582 0 0 0
1980 16 46.466092742552 12.455491160464504 0.010824298862166003 0 0 0
2149 1 43.147086118084 14.371719636347928 1.6779053409199585 0 0 0
2155 3 46.46609274255199 14.371719636347928 1.677905340919959 0 0 0
2145 14 41.48758280585 15.329835212582504 0.010824298862165899 0 0 0
2151 10 44.80658943031799 15.329835212582504 0.010824298862165902 0 0 0
2146 4 41.487582805849996 17.246063688465927 1.677905340919959 0 0 0
2152 2 44.806589430318 17.246063688465927 1.677905340919959 0 0 0
1806 12 49.78509936702 12.455491160464504 0.010824298862166038 -1 0 0
1981 1 49.78509936702 14.37171963634793 1.677905340919959 -1 0 0
2157 14 48.125596054785994 15.329835212582504 0.010824298862165937 0 0 0
1983 10 51.444602679254004 15.329835212582504 0.01082429886216556 -1 0 0
2158 4 48.125596054786 17.24606368846593 1.6779053409199587 0 0 0
1984 2 51.444602679254004 17.246063688465927 1.6779053409199587 -1 0 0
1812 16 53.104105991488005 12.455491160464504 0.010824298862166168 -1 0 0
1818 12 56.423112615956 12.455491160464504 0.010824298862165776 -1 0 0
1987 3 53.104105991488005 14.37171963634793 1.677905340919959 -1 0 0
1993 1 56.423112615956 14.371719636347928 1.6779053409199587 -1 0 0
1989 14 54.763609303722006 15.329835212582504 0.010824298862165582 -1 0 0
1995 10 58.08261592819 15.329835212582504 0.01082429886216589 -1 0 0
1990 4 54.763609303722006 17.246063688465927 1.6779053409199587 -1 0 0
1996 2 58.08261592819 17.246063688465927 1.677905340919959 -1 0 0
1824 16 59.742119240424 12.455491160464504 0.010824298862165923 -1 0 0
1830 12 63.061125864892006 12.455491160464504 0.010824298862165944 -1 0 0
1999 3 59.742119240424 14.371719636347928 1.6779053409199587 -1 0 0
2005 1 63.061125864892006 14.371719636347928 1.6779053409199587 -1 0 0
2001 14 61.401622552658004 15.329835212582504 0.01082429886216589 -1 0 0
2002 4 61.401622552658004 17.246063688465927 1.677905340919959 -1 0 0
1836 16 66.38013248936 12.455491160464504 0.010824298862166024 -1 0 0
1842 12 69.69913911382801 12.455491160464504 0.010824298862166026 -1 0 0
2011 3 66.38013248936 14.371719636347928 1.677905340919959 -1 0 0
2017 1 69.69913911382801 14.371719636347928 1.677905340919959 -1 0 0
2007 10 64.720629177126 15.329835212582504 0.010824298862165141 -1 0 0
2013 14 68.039635801594 15.329835212582502 0.01082429886216667 -1 0 0
2008 2 64.720629177126 17.246063688465927 1.6779053409199587 -1 0 0
2014 4 68.039635801594 17.24606368846593 1.677905340919959 -1 0 0
1848 16 73.018145738296 12.455491160464504 0.01082429886216643 -1 0 0
2023 3 73.018145738296 14.37171963634793 1.6779053409199587 -1 0 0
2019 10 71.358642426062 15.329835212582504 0.010824298862165124 -1 0 0
2025 14 74.67764905053001 15.329835212582504 0.010824298862165748 -1 0 0
2020 2 71.358642426062 17.246063688465927 1.6779053409199587 -1 0 0
2026 4 74.67764905053001 17.246063688465927 1.6779053409199587 -1 0 0
1854 12 76.337152362764 12.455491160464504 0.010824298862165955 -1 0 0
1860 16 79.656158987232 12.455491160464504 0.010824298862165514 -1 0 0
2029 1 76.337152362764 14.371719636347928 1.6779053409199587 -1 0 0
2035 3 79.656158987232 14.371719636347926 1.6779053409199587 -1 0 0
2031 10 77.99665567499801 15.329835212582502 0.010824298862166185 -1 0 0
2037 14 81.315662299466 15.329835212582504 0.010824298862165429 -1 0 0
2032 2 77.99665567499801 17.246063688465927 1.677905340919959 -1 0 0
2038 4 81.315662299466 17.246063688465927 1.6779053409199587 -1 0 0
1866 12 82.97516561169999 12.455491160464504 0.010824298862166029 -1 0 0
1872 16 86.29417223616801 12.455491160464504 0.010824298862166026 -1 0 0
2041 1 82.97516561169999 14.371719636347928 1.677905340919959 -1 0 0
2047 3 86.29417223616801 14.371719636347928 1.677905340919959 -1 0 0
2043 10 84.634668923934 15.329835212582502 0.01082429886216667 -1 0 0
2044 2 84.634668923934 17.24606368846593 1.677905340919959 -1 0 0
1878 12 89.613178860636 12.455491160464504 0.01082429886216643 -1 0 0
1884 16 92.932185485104 12.455491160464504 0.010824298862165956 -1 0 0
2053 1 89.613178860636 14.37171963634793 1.6779053409199587 -1 0 0
2059 3 92.932185485104 14.371719636347928 1.6779053409199587 -1 0 0
2049 14 87.953675548402 15.329835212582504 0.010824298862165124 -1 0 0
2055 10 91.27268217287 15.329835212582504 0.010824298862165748 -1 0 0
2050 4 87.953675548402 17.246063688465927 1.6779053409199587 -1 0 0
2056 2 91.27268217287 17.246063688465927 1.6779053409199587 -1 0 0
1890 12 96.251192109572 12.455491160464506 0.010824298862165117 -1 0 0
2065 1 96.251192109572 14.371719636347926 1.6779053409199585 -1 0 0
2061 14 94.59168879733801 15.329835212582502 0.010824298862166183 -1 0 0
2067 10 97.910695421806 15.329835212582502 0.010824298862166268 -1 0 0
2062 4 94.59168879733801 17.246063688465927 1.677905340919959 -1 0 0
2068 2 97.910695421806 17.246063688465927 1.6779053409199587 -1 0 0
2076 16 0 18.204179264700507 0.010824298862166402 0 0 0
2082 12 3.319006624467996 18.204179264700507 0.010824298862166157 0 0 0
2253 14 1.6595033122339953 21.078523316818508 0.010824298862166046 0 0 0
2251 3 0 20.120407740583932 1.6779053409199582 0 0 0
2257 1 3.319006624467996 20.120407740583932 1.6779053409199587 0 0 0
2259 10 4.978509936701997 21.078523316818508 0.010824298862166504 0 0 0
2254 4 1.6595033122339962 22.99475179270193 1.6779053409199587 0 0 0
2260 2 4.978509936701997 22.994751792701933 1.6779053409199587 0 0 0
2088 16 6.638013248935998 18.204179264700507 0.010824298862166074 0 0 0
2094 12 9.957019873403999 18.204179264700507 0.010824298862165868 0 0 0
2263 3 6.638013248935998 20.120407740583932 1.6779053409199587 0 0 0
2265 14 8.29751656117 21.078523316818508 0.01082429886216649 0 0 0
2269 1 9.957019873403999 20.120407740583932 1.6779053409199587 0 0 0
2271 10 11.616523185637996 21.078523316818508 0.010824298862166152 0 0 0
2266 4 8.29751656117 22.994751792701933 1.6779053409199587 0 0 0
2272 2 11.616523185637996 22.99475179270193 1.6779053409199587 0 0 0
2100 16 13.276026497871996 18.204179264700507 0.010824298862166164 0 0 0
2106 12 16.595033122339995 18.204179264700507 0.010824298862166116 0 0 0
2275 3 13.276026497871996 20.120407740583932 1.677905340919959 0 0 0
2277 14 14.935529810105995 21.078523316818508 0.010824298862165987 0 0 0
2281 1 16.595033122339995 20.120407740583932 1.6779053409199587 0 0 0
2278 4 14.935529810105995 22.99475179270193 1.6779053409199587 0 0 0
2112 16 19.914039746807997 18.204179264700507 0.010824298862166074 0 0 0
2118 12 23.233046371275996 18.204179264700507 0.010824298862165597 0 0 0
2283 10 18.254536434573996 21.078523316818508 0.010824298862166475 0 0 0
2287 3 19.914039746807997 20.120407740583932 1.6779053409199587 0 0 0
2289 14 21.573543059042 21.078523316818508 0.010824298862166558 0 0 0
2293 1 23.233046371275996 20.120407740583932 1.6779053409199587 0 0 0
2284 2 18.254536434573996 22.994751792701933 1.6779053409199587 0 0 0
2290 4 21.573543059042 22.994751792701933 1.677905340919959 0 0 0
2124 16 26.552052995743995 18.204179264700507 0.010824298862166072 0 0 0
2295 10 24.892549683509994 21.078523316818508 0.010824298862166558 0 0 0
2299 3 26.552052995743995 20.120407740583932 1.6779053409199587 0 0 0
2301 14 28.211556307977997 21.078523316818508 0.01082429886216645 0 0 0
2296 2 24.892549683509994 22.994751792701933 1.677905340919959 0 0 0
2302 4 28.211556307977997 22.994751792701933 1.6779053409199587 0 0 0
2130 12 29.871059620211998 18.204179264700507 0.01082429886216598 0 0 0
2136 16 33.190066244680004 18.204179264700507 0.010824298862166112 0 0 0
2305 1 29.871059620211998 20.120407740583932 1.6779053409199587 0 0 0
2307 10 31.530562932446 21.078523316818508 0.010824298862166253 0 0 0
2311 3 33.19006624468 20.120407740583932 1.6779053409199587 0 0 0
2313 14 34.849569556914 21.078523316818508 0.01082429886216613 0 0 0
2308 2 31.530562932446 22.994751792701933 1.6779053409199587 0 0 0
2314 4 34.849569556914 22.99475179270193 1.6779053409199587 0 0 0
2142 12 36.50907286914799 18.204179264700507 0.010824298862165968 0 0 0
2148 16 39.828079493615995 18.204179264700507 0.01082429886216602 0 0 0
2317 1 36.509072869148 20.120407740583932 1.6779053409199587 0 0 0
2319 10 38.168576181382 21.078523316818508 0.010824298862166447 0 0 0
2323 3 39.828079493616 20.120407740583932 1.6779053409199587 0 0 0
2320 2 38.168576181381994 22.994751792701933 1.6779053409199587 0 0 0
2154 12 43.147086118084 18.204179264700507 0.01082429886216588 0 0 0
2160 16 46.466092742552 18.204179264700507 0.010824298862166027 0 0 0
2325 14 41.48758280585 21.078523316818508 0.010824298862166475 0 0 0
2329 1 43.147086118084 20.120407740583932 1.6779053409199587 0 0 0
2331 10 44.80658943031799 21.078523316818508 0.010824298862166473 0 0 0
2335 3 46.46609274255199 20.120407740583932 1.6779053409199587 0 0 0
2326 4 41.487582805849996 22.994751792701933 1.6779053409199587 0 0 0
2332 2 44.806589430318 22.994751792701933 1.6779053409199587 0 0 0
1986 12 49.78509936702 18.204179264700507 0.010824298862166112 -1 0 0
2337 14 48.125596054785994 21.078523316818508 0.010824298862166641 0 0 0
2161 1 49.78509936702 20.120407740583932 1.6779053409199587 -1 0 0
2163 10 51.444602679254004 21.078523316818508 0.01082429886216632 -1 0 0
2338 4 48.125596054786 22.994751792701933 1.6779053409199587 0 0 0
2164 2 51.444602679254004 22.994751792701933 1.6779053409199587 -1 0 0
1992 16 53.104105991488005 18.204179264700507 0.010824298862166258 -1 0 0
1998 12 56.423112615956 18.204179264700507 0.010824298862165783 -1 0 0