LAMMPS data file via write_data, version 29 Aug 2024, timestep = 2, units = metal

9180 atoms
36 atom types

0 99.57019873404 xlo xhi
0 97.727697772012 ylo yhi
-50 50 zlo zhi

Masses

1 183.84
2 183.84
3 183.84
4 183.84
5 183.84
6 183.84
7 183.84
8 183.84
9 183.84
10 183.84
11 183.84
12 183.84
13 78.971
14 78.971
15 78.971
16 78.971
17 78.971
18 78.971
19 78.971
20 78.971
21 78.971
22 78.971
23 78.971
24 78.971
25 78.971
26 78.971
27 78.971
28 78.971
29 78.971
30 78.971
31 78.971
32 78.971
33 78.971
34 78.971
35 78.971
36 78.971

Atoms # atomic

1536 20 0 0.9581149502137313 0.010851976141091735 0 0 0
1542 16 3.3190066244679954 0.9581149502137316 0.010851976141091377 0 0 0
1711 3 0 2.8743434295385315 1.6778175041226375 0 0 0
1717 1 3.319006624467996 2.874343429538531 1.677817504122638 0 0 0
1713 18 1.659503312233995 3.832459002331732 0.01085197614109081 0 0 0
1719 14 4.978509936701997 3.8324590023317318 0.010851976141090833 0 0 0
1714 4 1.6595033122339962 5.748687481656531 1.677817504122638 0 0 0
1720 2 4.978509936701997 5.748687481656532 1.677817504122638 0 0 0
1548 20 6.638013248935998 0.9581149502137316 0.010851976141091367 0 0 0
1554 16 9.957019873403999 0.9581149502137319 0.010851976141091154 0 0 0
1723 3 6.638013248935998 2.874343429538531 1.677817504122638 0 0 0
1729 1 9.957019873403999 2.8743434295385306 1.6778175041226377 0 0 0
1725 18 8.29751656117 3.8324590023317318 0.010851976141090954 0 0 0
1731 14 11.616523185637996 3.8324590023317318 0.010851976141090779 0 0 0
1726 4 8.29751656117 5.748687481656532 1.677817504122638 0 0 0
1732 2 11.616523185637996 5.748687481656531 1.677817504122638 0 0 0
1560 20 13.276026497871996 0.9581149502137315 0.010851976141091636 0 0 0
1566 16 16.595033122339995 0.9581149502137316 0.010851976141091494 0 0 0
1735 3 13.276026497871996 2.874343429538531 1.6778175041226377 0 0 0
1741 1 16.595033122339995 2.874343429538531 1.677817504122638 0 0 0
1737 18 14.935529810105995 3.8324590023317318 0.010851976141090883 0 0 0
1738 4 14.935529810105995 5.748687481656531 1.6778175041226377 0 0 0
1572 20 19.914039746807997 0.9581149502137316 0.010851976141091407 0 0 0
1578 16 23.233046371275996 0.9581149502137324 0.01085197614109085 0 0 0
1747 3 19.914039746807997 2.874343429538531 1.677817504122638 0 0 0
1753 1 23.233046371275996 2.87434342953853 1.677817504122638 0 0 0
1743 14 18.254536434573996 3.8324590023317318 0.010851976141090935 0 0 0
1749 18 21.573543059042 3.8324590023317318 0.010851976141091091 0 0 0
1744 2 18.254536434573996 5.748687481656532 1.677817504122638 0 0 0
1750 4 21.573543059042 5.748687481656532 1.677817504122638 0 0 0
1584 20 26.552052995743995 0.9581149502137316 0.010851976141091407 0 0 0
1759 3 26.552052995743995 2.874343429538531 1.677817504122638 0 0 0
1755 14 24.892549683509994 3.8324590023317318 0.010851976141091091 0 0 0
1761 18 28.211556307977997 3.8324590023317318 0.010851976141090907 0 0 0
1756 2 24.892549683509994 5.748687481656532 1.677817504122638 0 0 0
1762 4 28.211556307977997 5.748687481656532 1.677817504122638 0 0 0
1590 16 29.871059620211998 0.9581149502137317 0.010851976141091343 0 0 0
1596 20 33.190066244680004 0.9581149502137315 0.010851976141091534 0 0 0
1765 1 29.871059620211998 2.874343429538531 1.677817504122638 0 0 0
1771 3 33.19006624468 2.874343429538531 1.677817504122638 0 0 0
1767 14 31.530562932446 3.8324590023317318 0.010851976141090772 0 0 0
1773 18 34.849569556914 3.832459002331732 0.01085197614109087 0 0 0
1768 2 31.530562932446 5.748687481656532 1.677817504122638 0 0 0
1774 4 34.849569556914 5.748687481656531 1.677817504122638 0 0 0
1602 16 36.50907286914799 0.9581149502137315 0.010851976141091397 0 0 0
1608 20 39.828079493615995 0.9581149502137317 0.010851976141091355 0 0 0
1777 1 36.509072869148 2.874343429538531 1.677817504122638 0 0 0
1783 3 39.828079493616 2.8743434295385315 1.677817504122638 0 0 0
1779 14 38.168576181382 3.8324590023317318 0.010851976141090909 0 0 0
1780 2 38.168576181381994 5.748687481656532 1.6778175041226382 0 0 0
1614 16 43.147086118084 0.9581149502137324 0.010851976141091138 0 0 0
1620 20 46.466092742552 0.9581149502137317 0.010851976141091353 0 0 0
1789 1 43.147086118084 2.8743434295385297 1.6778175041226377 0 0 0
1795 3 46.46609274255199 2.874343429538531 1.677817504122638 0 0 0
1785 18 41.48758280585 3.8324590023317318 0.010851976141090982 0 0 0
1791 14 44.80658943031799 3.8324590023317318 0.010851976141090987 0 0 0
1786 4 41.487582805849996 5.748687481656532 1.677817504122638 0 0 0
1792 2 44.806589430318 5.748687481656532 1.677817504122638 0 0 0
1446 16 49.78509936702 0.9581149502137313 0.010851976141091487 -1 0 0
1621 1 49.78509936702 2.874343429538532 1.677817504122638 -1 0 0
1797 18 48.125596054785994 3.8324590023317313 0.010851976141091124 0 0 0
1623 14 51.444602679254004 3.8324590023317318 0.01085197614109064 -1 0 0
1798 4 48.125596054786 5.748687481656532 1.677817504122638 0 0 0
1624 2 51.444602679254004 5.748687481656532 1.677817504122638 -1 0 0
1452 20 53.104105991488005 0.9581149502137315 0.010851976141091482 -1 0 0
1458 16 56.423112615956 0.958114950213732 0.010851976141091126 -1 0 0
1627 3 53.104105991488005 2.8743434295385315 1.677817504122638 -1 0 0
1633 1 56.423112615956 2.8743434295385306 1.677817504122638 -1 0 0
1629 18 54.763609303722006 3.832459002331732 0.01085197614109067 -1 0 0
1635 14 58.08261592819 3.8324590023317313 0.010851976141091057 -1 0 0
1630 4 54.763609303722006 5.748687481656531 1.677817504122638 -1 0 0
1636 2 58.08261592819 5.748687481656532 1.677817504122638 -1 0 0
1464 20 59.742119240424 0.9581149502137316 0.01085197614109135 -1 0 0
1470 16 63.061125864892006 0.9581149502137318 0.010851976141091263 -1 0 0
1639 3 59.742119240424 2.874343429538531 1.6778175041226377 -1 0 0
1645 1 63.061125864892006 2.8743434295385306 1.6778175041226377 -1 0 0
1641 18 61.401622552658004 3.8324590023317313 0.010851976141091055 -1 0 0
1642 4 61.401622552658004 5.748687481656532 1.677817504122638 -1 0 0
1476 20 66.38013248936 0.9581149502137315 0.010851976141091181 -1 0 0
1482 16 69.69913911382801 0.9581149502137315 0.01085197614109118 -1 0 0
1651 3 66.38013248936 2.874343429538531 1.677817504122638 -1 0 0
1657 1 69.69913911382801 2.874343429538531 1.6778175041226377 -1 0 0
1647 14 64.720629177126 3.8324590023317326 0.010851976141090229 -1 0 0
1653 18 68.039635801594 3.8324590023317304 0.010851976141091815 -1 0 0
1648 2 64.720629177126 5.74868748165653 1.677817504122638 -1 0 0
1654 4 68.039635801594 5.748687481656534 1.6778175041226377 -1 0 0
1488 20 73.018145738296 0.9581149502137313 0.010851976141091683 -1 0 0
1663 3 73.018145738296 2.8743434295385315 1.6778175041226377 -1 0 0
1659 14 71.358642426062 3.8324590023317326 0.010851976141090213 -1 0 0
1665 18 74.67764905053001 3.8324590023317318 0.010851976141090958 -1 0 0
1660 2 71.358642426062 5.74868748165653 1.677817504122638 -1 0 0
1666 4 74.67764905053001 5.748687481656532 1.677817504122638 -1 0 0
1494 16 76.337152362764 0.9581149502137317 0.010851976141091277 -1 0 0
1500 20 79.656158987232 0.9581149502137325 0.010851976141090866 -1 0 0
1669 1 76.337152362764 2.874343429538531 1.677817504122638 -1 0 0
1675 3 79.656158987232 2.8743434295385297 1.6778175041226377 -1 0 0
1671 14 77.99665567499801 3.8324590023317313 0.01085197614109129 -1 0 0
1677 18 81.315662299466 3.8324590023317326 0.010851976141090472 -1 0 0
1672 2 77.99665567499801 5.748687481656532 1.677817504122638 -1 0 0
1678 4 81.315662299466 5.74868748165653 1.677817504122638 -1 0 0
1506 16 82.97516561169999 0.9581149502137315 0.010851976141091185 -1 0 0
1512 20 86.29417223616801 0.9581149502137315 0.01085197614109118 -1 0 0
1681 1 82.97516561169999 2.874343429538531 1.677817504122638 -1 0 0
1687 3 86.29417223616801 2.874343429538531 1.6778175041226377 -1 0 0
1683 14 84.634668923934 3.8324590023317304 0.010851976141091815 -1 0 0
1684 2 84.634668923934 5.748687481656534 1.6778175041226377 -1 0 0
1518 16 89.613178860636 0.9581149502137313 0.010851976141091684 -1 0 0
1524 20 92.932185485104 0.9581149502137317 0.010851976141091301 -1 0 0
1693 1 89.613178860636 2.8743434295385315 1.6778175041226377 -1 0 0
1699 3 92.932185485104 2.874343429538531 1.677817504122638 -1 0 0
1689 18 87.953675548402 3.8324590023317326 0.010851976141090213 -1 0 0
1695 14 91.27268217287 3.8324590023317318 0.010851976141090958 -1 0 0
1690 4 87.953675548402 5.74868748165653 1.677817504122638 -1 0 0
1696 2 91.27268217287 5.748687481656532 1.677817504122638 -1 0 0
1530 16 96.251192109572 0.9581149502137327 0.01085197614109049 -1 0 0
1705 1 96.251192109572 2.8743434295385293 1.6778175041226377 -1 0 0
1701 18 94.59168879733801 3.8324590023317313 0.010851976141091282 -1 0 0
1707 14 97.910695421806 3.8324590023317313 0.010851976141091369 -1 0 0
1702 4 94.59168879733801 5.748687481656532 1.677817504122638 -1 0 0
1708 2 97.910695421806 5.748687481656532 1.6778175041226377 -1 0 0
1716 20 0 6.706803054449733 0.010851976141091381 0 0 0
1722 16 3.319006624467996 6.706803054449733 0.01085197614109107 0 0 0
1891 3 0 8.623031533774533 1.6778175041226373 0 0 0
1897 1 3.319006624467996 8.623031533774531 1.6778175041226377 0 0 0
1893 18 1.6595033122339953 9.581147106567734 0.01085197614109106 0 0 0
1899 14 4.978509936701997 9.581147106567732 0.010851976141091232 0 0 0
1894 4 1.6595033122339962 11.49737558589253 1.677817504122638 0 0 0
1900 2 4.978509936701997 11.49737558589253 1.677817504122638 0 0 0
1728 20 6.638013248935998 6.706803054449733 0.010851976141090916 0 0 0
1734 16 9.957019873403999 6.7068030544497335 0.010851976141090782 0 0 0
1903 3 6.638013248935998 8.623031533774531 1.677817504122638 0 0 0
1909 1 9.957019873403999 8.623031533774531 1.6778175041226377 0 0 0
1905 18 8.29751656117 9.581147106567732 0.010851976141091482 0 0 0
1911 14 11.616523185637996 9.581147106567734 0.01085197614109118 0 0 0
1906 4 8.29751656117 11.49737558589253 1.677817504122638 0 0 0
1912 2 11.616523185637996 11.49737558589253 1.677817504122638 0 0 0
1740 20 13.276026497871996 6.706803054449733 0.010851976141091124 0 0 0
1746 16 16.595033122339995 6.706803054449733 0.010851976141091077 0 0 0
1915 3 13.276026497871996 8.623031533774531 1.6778175041226377 0 0 0
1921 1 16.595033122339995 8.623031533774531 1.6778175041226377 0 0 0
1917 18 14.935529810105995 9.581147106567734 0.010851976141091011 0 0 0
1918 4 14.935529810105995 11.49737558589253 1.677817504122638 0 0 0
1752 20 19.914039746807997 6.706803054449733 0.010851976141091155 0 0 0
1758 16 23.233046371275996 6.7068030544497335 0.010851976141090482 0 0 0
1927 3 19.914039746807997 8.623031533774531 1.6778175041226377 0 0 0
1933 1 23.233046371275996 8.623031533774531 1.677817504122638 0 0 0
1923 14 18.254536434573996 9.581147106567732 0.010851976141091433 0 0 0
1929 18 21.573543059042 9.581147106567732 0.010851976141091376 0 0 0
1924 2 18.254536434573996 11.49737558589253 1.677817504122638 0 0 0
1930 4 21.573543059042 11.49737558589253 1.677817504122638 0 0 0
1764 20 26.552052995743995 6.706803054449733 0.010851976141091145 0 0 0
1939 3 26.552052995743995 8.623031533774531 1.6778175041226377 0 0 0
1935 14 24.892549683509994 9.581147106567732 0.010851976141091376 0 0 0
1941 18 28.211556307977997 9.581147106567732 0.010851976141091395 0 0 0
1936 2 24.892549683509994 11.49737558589253 1.677817504122638 0 0 0
1942 4 28.211556307977997 11.49737558589253 1.677817504122638 0 0 0
1770 16 29.871059620211998 6.706803054449733 0.010851976141091051 0 0 0
1776 20 33.190066244680004 6.706803054449733 0.010851976141091142 0 0 0
1945 1 29.871059620211998 8.623031533774531 1.6778175041226377 0 0 0
1951 3 33.19006624468 8.623031533774531 1.677817504122638 0 0 0
1947 14 31.530562932446 9.581147106567732 0.010851976141091195 0 0 0
1953 18 34.849569556914 9.581147106567734 0.010851976141091011 0 0 0
1948 2 31.530562932446 11.49737558589253 1.677817504122638 0 0 0
1954 4 34.849569556914 11.49737558589253 1.6778175041226377 0 0 0
1782 16 36.50907286914799 6.706803054449733 0.010851976141090989 0 0 0
1788 20 39.828079493615995 6.706803054449733 0.010851976141091103 0 0 0
1957 1 36.509072869148 8.623031533774531 1.6778175041226377 0 0 0
1963 3 39.828079493616 8.623031533774531 1.6778175041226377 0 0 0
1959 14 38.168576181382 9.581147106567732 0.010851976141091405 0 0 0
1960 2 38.168576181381994 11.49737558589253 1.6778175041226377 0 0 0
1794 16 43.147086118084 6.7068030544497335 0.010851976141090762 0 0 0
1800 20 46.466092742552 6.706803054449733 0.010851976141091105 0 0 0
1969 1 43.147086118084 8.623031533774531 1.677817504122638 0 0 0
1975 3 46.46609274255199 8.623031533774531 1.6778175041226377 0 0 0
1965 18 41.48758280585 9.581147106567732 0.010851976141091263 0 0 0
1971 14 44.80658943031799 9.581147106567732 0.010851976141091263 0 0 0
1966 4 41.487582805849996 11.49737558589253 1.677817504122638 0 0 0
1972 2 44.806589430318 11.49737558589253 1.677817504122638 0 0 0
1626 16 49.78509936702 6.706803054449733 0.010851976141090994 -1 0 0
1801 1 49.78509936702 8.623031533774533 1.677817504122638 -1 0 0
1977 18 48.125596054785994 9.581147106567732 0.010851976141091452 0 0 0
1803 14 51.444602679254004 9.581147106567732 0.010851976141091095 -1 0 0
1978 4 48.125596054786 11.49737558589253 1.6778175041226377 0 0 0
1804 2 51.444602679254004 11.49737558589253 1.6778175041226377 -1 0 0
1632 20 53.104105991488005 6.706803054449733 0.01085197614109119 -1 0 0
1638 16 56.423112615956 6.7068030544497335 0.010851976141090697 -1 0 0
1807 3 53.104105991488005 8.623031533774533 1.6778175041226377 -1 0 0
1813 1 56.423112615956 8.623031533774531 1.677817504122638 -1 0 0
1809 18 54.763609303722006 9.581147106567734 0.010851976141091055 -1 0 0
1815 14 58.08261592819 9.581147106567732 0.010851976141091586 -1 0 0
1810 4 54.763609303722006 11.49737558589253 1.6778175041226382 -1 0 0
1816 2 58.08261592819 11.49737558589253 1.677817504122638 -1 0 0
1644 20 59.742119240424 6.706803054449733 0.010851976141090902 -1 0 0
1650 16 63.061125864892006 6.7068030544497335 0.010851976141091058 -1 0 0
1819 3 59.742119240424 8.623031533774531 1.677817504122638 -1 0 0
1825 1 63.061125864892006 8.623031533774531 1.677817504122638 -1 0 0
1821 18 61.401622552658004 9.581147106567732 0.010851976141091516 -1 0 0
1822 4 61.401622552658004 11.49737558589253 1.677817504122638 -1 0 0
1656 20 66.38013248936 6.706803054449733 0.010851976141091055 -1 0 0
1662 16 69.69913911382801 6.706803054449733 0.010851976141091046 -1 0 0
1831 3 66.38013248936 8.623031533774533 1.677817504122638 -1 0 0
1837 1 69.69913911382801 8.623031533774533 1.677817504122638 -1 0 0
1827 14 64.720629177126 9.581147106567734 0.010851976141090597 -1 0 0
1833 18 68.039635801594 9.581147106567732 0.01085197614109221 -1 0 0
1828 2 64.720629177126 11.497375585892529 1.6778175041226377 -1 0 0
1834 4 68.039635801594 11.497375585892534 1.677817504122638 -1 0 0
1668 20 73.018145738296 6.706803054449733 0.010851976141091351 -1 0 0
1843 3 73.018145738296 8.623031533774533 1.6778175041226377 -1 0 0
1839 14 71.358642426062 9.581147106567734 0.010851976141090352 -1 0 0
1845 18 74.67764905053001 9.581147106567732 0.010851976141091344 -1 0 0
1840 2 71.358642426062 11.497375585892529 1.6778175041226377 -1 0 0
1846 4 74.67764905053001 11.49737558589253 1.6778175041226377 -1 0 0
1674 16 76.337152362764 6.706803054449733 0.0108519761410911 -1 0 0
1680 20 79.656158987232 6.7068030544497335 0.010851976141090531 -1 0 0
1849 1 76.337152362764 8.623031533774531 1.677817504122638 -1 0 0
1855 3 79.656158987232 8.623031533774531 1.677817504122638 -1 0 0
1851 14 77.99665567499801 9.581147106567732 0.010851976141091572 -1 0 0
1857 18 81.315662299466 9.581147106567734 0.01085197614109076 -1 0 0
1852 2 77.99665567499801 11.49737558589253 1.6778175041226377 -1 0 0
1858 4 81.315662299466 11.49737558589253 1.6778175041226377 -1 0 0
1686 16 82.97516561169999 6.706803054449733 0.010851976141091053 -1 0 0
1692 20 86.29417223616801 6.706803054449733 0.010851976141091046 -1 0 0
1861 1 82.97516561169999 8.623031533774533 1.677817504122638 -1 0 0
1867 3 86.29417223616801 8.623031533774533 1.677817504122638 -1 0 0
1863 14 84.634668923934 9.581147106567732 0.010851976141092207 -1 0 0
1864 2 84.634668923934 11.497375585892534 1.677817504122638 -1 0 0
1698 16 89.613178860636 6.706803054449733 0.010851976141091351 -1 0 0
1704 20 92.932185485104 6.706803054449733 0.0108519761410911 -1 0 0
1873 1 89.613178860636 8.623031533774533 1.6778175041226377 -1 0 0
1879 3 92.932185485104 8.623031533774531 1.677817504122638 -1 0 0
1869 18 87.953675548402 9.581147106567734 0.010851976141090352 -1 0 0
1875 14 91.27268217287 9.581147106567732 0.010851976141091344 -1 0 0
1870 4 87.953675548402 11.497375585892529 1.6778175041226377 -1 0 0
1876 2 91.27268217287 11.49737558589253 1.6778175041226377 -1 0 0
1710 16 96.251192109572 6.706803054449734 0.01085197614109016 -1 0 0
1885 1 96.251192109572 8.62303153377453 1.677817504122638 -1 0 0
1881 18 94.59168879733801 9.581147106567732 0.010851976141091556 -1 0 0
1887 14 97.910695421806 9.581147106567732 0.010851976141091645 -1 0 0
1882 4 94.59168879733801 11.497375585892533 1.6778175041226377 -1 0 0
1888 2 97.910695421806 11.49737558589253 1.6778175041226377 -1 0 0
1896 20 0 12.455491158685732 0.010851976141091409 0 0 0
1902 16 3.3190066244679954 12.455491158685732 0.010851976141091155 0 0 0
2071 3 0 14.37171963801053 1.6778175041226373 0 0 0
2077 1 3.319006624467996 14.37171963801053 1.6778175041226377 0 0 0
2073 18 1.6595033122339953 15.329835210803731 0.010851976141090843 0 0 0
2079 14 4.978509936701997 15.32983521080373 0.010851976141090904 0 0 0
2074 4 1.6595033122339962 17.24606369012853 1.6778175041226382 0 0 0
2080 2 4.978509936701997 17.24606369012853 1.677817504122638 0 0 0
1908 20 6.638013248935998 12.455491158685732 0.010851976141090992 0 0 0
1914 16 9.957019873403999 12.455491158685732 0.010851976141090944 0 0 0
2083 3 6.638013248935998 14.37171963801053 1.6778175041226377 0 0 0
2089 1 9.957019873403999 14.371719638010529 1.6778175041226377 0 0 0
2085 18 8.29751656117 15.32983521080373 0.010851976141091037 0 0 0
2091 14 11.616523185637996 15.32983521080373 0.010851976141090892 0 0 0
2086 4 8.29751656117 17.24606369012853 1.677817504122638 0 0 0
2092 2 11.616523185637996 17.24606369012853 1.677817504122638 0 0 0
1920 20 13.276026497871996 12.455491158685732 0.010851976141091128 0 0 0
1926 16 16.595033122339995 12.455491158685732 0.010851976141091088 0 0 0
2095 3 13.276026497871996 14.37171963801053 1.6778175041226377 0 0 0
2101 1 16.595033122339995 14.37171963801053 1.6778175041226377 0 0 0
2097 18 14.935529810105995 15.329835210803731 0.010851976141090841 0 0 0
2098 4 14.935529810105995 17.24606369012853 1.6778175041226382 0 0 0
1932 20 19.914039746807997 12.455491158685732 0.010851976141091112 0 0 0
1938 16 23.233046371275996 12.455491158685732 0.010851976141090664 0 0 0
2107 3 19.914039746807997 14.37171963801053 1.677817504122638 0 0 0
2113 1 23.233046371275996 14.371719638010529 1.677817504122638 0 0 0
2103 14 18.254536434573996 15.32983521080373 0.010851976141091114 0 0 0
2109 18 21.573543059042 15.32983521080373 0.010851976141091128 0 0 0
2104 2 18.254536434573996 17.24606369012853 1.677817504122638 0 0 0
2110 4 21.573543059042 17.24606369012853 1.677817504122638 0 0 0
1944 20 26.552052995743995 12.455491158685732 0.010851976141091116 0 0 0
2119 3 26.552052995743995 14.37171963801053 1.677817504122638 0 0 0
2115 14 24.892549683509994 15.32983521080373 0.010851976141091126 0 0 0
2121 18 28.211556307977997 15.32983521080373 0.010851976141091079 0 0 0
2116 2 24.892549683509994 17.24606369012853 1.677817504122638 0 0 0
2122 4 28.211556307977997 17.24606369012853 1.677817504122638 0 0 0
1950 16 29.871059620211998 12.455491158685732 0.010851976141090996 0 0 0
1956 20 33.190066244680004 12.455491158685732 0.010851976141091228 0 0 0
2125 1 29.871059620211998 14.37171963801053 1.677817504122638 0 0 0
2131 3 33.19006624468 14.37171963801053 1.677817504122638 0 0 0
2127 14 31.530562932446 15.32983521080373 0.010851976141090899 0 0 0
2133 18 34.849569556914 15.329835210803731 0.010851976141090755 0 0 0
2128 2 31.530562932446 17.24606369012853 1.677817504122638 0 0 0
2134 4 34.849569556914 17.24606369012853 1.677817504122638 0 0 0
1962 16 36.50907286914799 12.455491158685732 0.010851976141091046 0 0 0
1968 20 39.828079493615995 12.455491158685732 0.010851976141091062 0 0 0
2137 1 36.509072869148 14.37171963801053 1.677817504122638 0 0 0
2143 3 39.828079493616 14.37171963801053 1.677817504122638 0 0 0
2139 14 38.168576181382 15.32983521080373 0.010851976141091088 0 0 0
2140 2 38.168576181381994 17.24606369012853 1.677817504122638 0 0 0
1974 16 43.147086118084 12.455491158685732 0.010851976141090933 0 0 0
1980 20 46.466092742552 12.455491158685732 0.010851976141091062 0 0 0
2149 1 43.147086118084 14.371719638010529 1.677817504122638 0 0 0
2155 3 46.46609274255199 14.37171963801053 1.6778175041226377 0 0 0
2145 18 41.48758280585 15.32983521080373 0.010851976141091013 0 0 0
2151 14 44.80658943031799 15.32983521080373 0.010851976141091017 0 0 0
2146 4 41.487582805849996 17.24606369012853 1.677817504122638 0 0 0
2152 2 44.806589430318 17.24606369012853 1.677817504122638 0 0 0
1806 16 49.78509936702 12.455491158685732 0.010851976141091147 -1 0 0
1981 1 49.78509936702 14.37171963801053 1.6778175041226377 -1 0 0
2157 18 48.125596054785994 15.32983521080373 0.010851976141091207 0 0 0
1983 14 51.444602679254004 15.32983521080373 0.0108519761410908 -1 0 0
2158 4 48.125596054786 17.24606369012853 1.677817504122638 0 0 0
1984 2 51.444602679254004 17.24606369012853 1.6778175041226377 -1 0 0
1812 20 53.104105991488005 12.455491158685732 0.010851976141091216 -1 0 0
1818 16 56.423112615956 12.455491158685732 0.010851976141090926 -1 0 0
1987 3 53.104105991488005 14.37171963801053 1.677817504122638 -1 0 0
1993 1 56.423112615956 14.371719638010529 1.6778175041226377 -1 0 0
1989 18 54.763609303722006 15.32983521080373 0.010851976141090834 -1 0 0
1995 14 58.08261592819 15.32983521080373 0.010851976141091143 -1 0 0
1990 4 54.763609303722006 17.24606369012853 1.677817504122638 -1 0 0
1996 2 58.08261592819 17.24606369012853 1.677817504122638 -1 0 0
1824 20 59.742119240424 12.455491158685732 0.010851976141090966 -1 0 0
1830 16 63.061125864892006 12.455491158685732 0.010851976141090921 -1 0 0
1999 3 59.742119240424 14.37171963801053 1.6778175041226377 -1 0 0
2005 1 63.061125864892006 14.37171963801053 1.6778175041226377 -1 0 0
2001 18 61.401622552658004 15.32983521080373 0.01085197614109113 -1 0 0
2002 4 61.401622552658004 17.24606369012853 1.677817504122638 -1 0 0
1836 20 66.38013248936 12.455491158685732 0.010851976141090987 -1 0 0
1842 16 69.69913911382801 12.455491158685732 0.010851976141090985 -1 0 0
2011 3 66.38013248936 14.37171963801053 1.6778175041226377 -1 0 0
2017 1 69.69913911382801 14.37171963801053 1.6778175041226377 -1 0 0
2007 14 64.720629177126 15.329835210803731 0.01085197614109017 -1 0 0
2013 18 68.039635801594 15.32983521080373 0.010851976141091756 -1 0 0
2008 2 64.720629177126 17.24606369012853 1.677817504122638 -1 0 0
2014 4 68.039635801594 17.246063690128533 1.6778175041226377 -1 0 0
1848 20 73.018145738296 12.455491158685732 0.010851976141091383 -1 0 0
2023 3 73.018145738296 14.37171963801053 1.677817504122638 -1 0 0
2019 14 71.358642426062 15.329835210803731 0.010851976141090106 -1 0 0
2025 18 74.67764905053001 15.32983521080373 0.010851976141091032 -1 0 0
2020 2 71.358642426062 17.24606369012853 1.677817504122638 -1 0 0
2026 4 74.67764905053001 17.24606369012853 1.6778175041226377 -1 0 0
1854 16 76.337152362764 12.455491158685732 0.010851976141091095 -1 0 0
1860 20 79.656158987232 12.455491158685733 0.01085197614109059 -1 0 0
2029 1 76.337152362764 14.37171963801053 1.6778175041226377 -1 0 0
2035 3 79.656158987232 14.371719638010529 1.677817504122638 -1 0 0
2031 14 77.99665567499801 15.32983521080373 0.010851976141091376 -1 0 0
2037 18 81.315662299466 15.329835210803731 0.010851976141090472 -1 0 0
2032 2 77.99665567499801 17.24606369012853 1.677817504122638 -1 0 0
2038 4 81.315662299466 17.24606369012853 1.677817504122638 -1 0 0
1866 16 82.97516561169999 12.455491158685732 0.010851976141091006 -1 0 0
1872 20 86.29417223616801 12.455491158685732 0.010851976141090985 -1 0 0
2041 1 82.97516561169999 14.37171963801053 1.6778175041226377 -1 0 0
2047 3 86.29417223616801 14.37171963801053 1.6778175041226377 -1 0 0
2043 14 84.634668923934 15.32983521080373 0.010851976141091756 -1 0 0
2044 2 84.634668923934 17.246063690128533 1.6778175041226377 -1 0 0
1878 16 89.613178860636 12.455491158685732 0.010851976141091353 -1 0 0
1884 20 92.932185485104 12.455491158685732 0.010851976141091095 -1 0 0
2053 1 89.613178860636 14.37171963801053 1.6778175041226377 -1 0 0
2059 3 92.932185485104 14.37171963801053 1.6778175041226377 -1 0 0
2049 18 87.953675548402 15.329835210803731 0.010851976141090106 -1 0 0
2055 14 91.27268217287 15.32983521080373 0.010851976141091032 -1 0 0
2050 4 87.953675548402 17.24606369012853 1.677817504122638 -1 0 0
2056 2 91.27268217287 17.24606369012853 1.6778175041226377 -1 0 0
1890 16 96.251192109572 12.455491158685733 0.010851976141090226 -1 0 0
2065 1 96.251192109572 14.371719638010529 1.677817504122638 -1 0 0
2061 18 94.59168879733801 15.32983521080373 0.01085197614109136 -1 0 0
2067 14 97.910695421806 15.32983521080373 0.01085197614109146 -1 0 0
2062 4 94.59168879733801 17.24606369012853 1.677817504122638 -1 0 0
2068 2 97.910695421806 17.24606369012853 1.6778175041226377 -1 0 0
2076 20 0 18.20417926292173 0.010851976141091521 0 0 0
2082 16 3.319006624467996 18.204179262921734 0.01085197614109122 0 0 0
2253 18 1.6595033122339953 21.078523315039735 0.010851976141091164 0 0 0
2251 3 0 20.120407742246535 1.6778175041226375 0 0 0
2257 1 3.319006624467996 20.120407742246535 1.677817504122638 0 0 0
2259 14 4.978509936701997 21.078523315039735 0.010851976141091233 0 0 0
2254 4 1.6595033122339962 22.994751794364532 1.6778175041226377 0 0 0
2260 2 4.978509936701997 22.994751794364532 1.6778175041226377 0 0 0
2088 20 6.638013248935998 18.204179262921734 0.010851976141091076 0 0 0
2094 16 9.957019873403999 18.20417926292173 0.010851976141090706 0 0 0
2263 3 6.638013248935998 20.120407742246535 1.677817504122638 0 0 0
2265 18 8.29751656117 21.078523315039735 0.010851976141091487 0 0 0
2269 1 9.957019873403999 20.12040774224653 1.6778175041226377 0 0 0
2271 14 11.616523185637996 21.078523315039735 0.010851976141091357 0 0 0
2266 4 8.29751656117 22.994751794364532 1.6778175041226377 0 0 0
2272 2 11.616523185637996 22.994751794364532 1.6778175041226377 0 0 0
2100 20 13.276026497871996 18.204179262921734 0.01085197614109123 0 0 0
2106 16 16.595033122339995 18.204179262921734 0.010851976141091157 0 0 0
2275 3 13.276026497871996 20.120407742246535 1.6778175041226377 0 0 0
2277 18 14.935529810105995 21.078523315039735 0.01085197614109109 0 0 0
2281 1 16.595033122339995 20.120407742246535 1.677817504122638 0 0 0
2278 4 14.935529810105995 22.994751794364532 1.6778175041226377 0 0 0
2112 20 19.914039746807997 18.204179262921734 0.010851976141091147 0 0 0
2118 16 23.233046371275996 18.20417926292173 0.010851976141090496 0 0 0
2283 14 18.254536434573996 21.078523315039735 0.010851976141091364 0 0 0
2287 3 19.914039746807997 20.120407742246535 1.677817504122638 0 0 0
2289 18 21.573543059042 21.078523315039735 0.010851976141091494 0 0 0
2293 1 23.233046371275996 20.12040774224653 1.677817504122638 0 0 0
2284 2 18.254536434573996 22.994751794364532 1.677817504122638 0 0 0
2290 4 21.573543059042 22.994751794364532 1.677817504122638 0 0 0
2124 20 26.552052995743995 18.204179262921734 0.01085197614109115 0 0 0
2295 14 24.892549683509994 21.078523315039735 0.010851976141091494 0 0 0
2299 3 26.552052995743995 20.120407742246535 1.677817504122638 0 0 0
2301 18 28.211556307977997 21.078523315039735 0.01085197614109134 0 0 0
2296 2 24.892549683509994 22.994751794364532 1.6778175041226377 0 0 0
2302 4 28.211556307977997 22.994751794364532 1.6778175041226377 0 0 0
2130 16 29.871059620211998 18.204179262921734 0.010851976141091041 0 0 0
2136 20 33.190066244680004 18.204179262921734 0.010851976141091405 0 0 0
2305 1 29.871059620211998 20.120407742246535 1.677817504122638 0 0 0
2307 14 31.530562932446 21.078523315039735 0.010851976141091148 0 0 0
2311 3 33.19006624468 20.120407742246535 1.677817504122638 0 0 0
2313 18 34.849569556914 21.078523315039735 0.0108519761410912 0 0 0
2308 2 31.530562932446 22.994751794364532 1.677817504122638 0 0 0
2314 4 34.849569556914 22.994751794364532 1.677817504122638 0 0 0
2142 16 36.50907286914799 18.204179262921734 0.010851976141091228 0 0 0
2148 20 39.828079493615995 18.204179262921734 0.010851976141091095 0 0 0
2317 1 36.509072869148 20.120407742246535 1.677817504122638 0 0 0
2319 14 38.168576181382 21.078523315039735 0.010851976141091334 0 0 0
2323 3 39.828079493616 20.120407742246535 1.677817504122638 0 0 0
2320 2 38.168576181381994 22.994751794364532 1.677817504122638 0 0 0
2154 16 43.147086118084 18.20417926292173 0.01085197614109078 0 0 0
2160 20 46.466092742552 18.204179262921734 0.010851976141091098 0 0 0
2325 18 41.48758280585 21.078523315039735 0.010851976141091388 0 0 0
2329 1 43.147086118084 20.12040774224653 1.677817504122638 0 0 0
2331 14 44.80658943031799 21.078523315039735 0.010851976141091391 0 0 0
2335 3 46.46609274255199 20.120407742246535 1.677817504122638 0 0 0
2326 4 41.487582805849996 22.994751794364532 1.677817504122638 0 0 0
2332 2 44.806589430318 22.994751794364532 1.677817504122638 0 0 0
1986 16 49.78509936702 18.20417926292173 0.01085197614109112 -1 0 0
2337 18 48.125596054785994 21.078523315039735 0.010851976141091518 0 0 0
2161 1 49.78509936702 20.120407742246535 1.677817504122638 -1 0 0
2163 14 51.444602679254004 21.078523315039735 0.010851976141091034 -1 0 0
2338 4 48.125596054786 22.994751794364532 1.677817504122638 0 0 0
2164 2 51.444602679254004 22.994751794364532 1.677817504122638 -1 0 0
1992 20 53.104105991488005 18.204179262921734 0.010851976141091312 -1 0 0
1998 16 56.423112615956 18.20417926292173 0.010851976141090642 -1 0 0