LAMMPS data file via write_data, version 29 Aug 2024, timestep = 0, units = metal

4839 atoms
3 atom types

0 99.57019873404 xlo xhi
0 97.727697772012 ylo yhi
0 10 zlo zhi

Masses

1 28.085
2 28.085
3 28.085

Atoms # atomic

1 3 2.5124626455935593 1.2148642445674345 2.751880487108154 0 0 0
2 2 2.6541619800080034 2.7207577083990806 0.7821594525665344 0 1 0
3 3 7.53842501003136 2.5172223693053684 2.0296664279183543 0 0 -1
4 2 6.7624766100664955 0.8999671935685095 0.3690359931287579 0 0 0
5 2 10.845859523723416 1.1863122080516884 1.3959941529799573 0 1 0
6 2 13.290999822550663 1.1895180707704112 1.509589119679938 0 0 2
7 3 16.967480632504014 2.5755205339583016 2.0345403939352016 0 1 0
8 3 20.122955122860546 1.8222423249733524 2.029951322787615 0 0 1
9 2 13.091391830250235 93.24423223312148 0.1085366306357515 0 0 1
10 3 22.57161047058634 1.6362928759063449 2.302349193945209 0 0 0
11 2 23.78402437605379 2.0899675752986955 0.2866620042523781 0 0 0
12 3 27.09903564732878 1.9223332120644154 2.1675187635434052 0 0 0
13 3 29.38297104908543 2.102351860363629 2.8372877078260688 0 0 1
14 2 30.517196849765742 2.6472618639290255 0.8582067807652243 0 0 0
15 2 32.0371878128267 0.4857348951274074 0.24485022893534086 0 0 0
16 2 33.31348268846468 2.7742791847200725 0.7199056086682355 0 0 0
17 3 34.727647886334466 1.3455752511455688 2.140309051172547 0 1 1
18 2 37.85664178894621 2.3155089420020487 1.7426873716983475 0 0 0
19 2 40.696298422866874 1.717884197819829 1.390462238696477 0 0 0
20 3 42.958819531754095 0.8976729657604504 2.09772318191658 0 0 2
21 3 45.150001691392774 0.3678135053676095 3.0398961549867076 0 0 -1
22 2 46.414934225363176 0.48033915195780497 0.9480637737636769 0 0 0
23 2 48.637103830976464 1.1294253756915478 1.4184290075600907 0 0 1
24 3 54.06836067776125 1.9928613701478186 2.048581012487757 0 0 0
25 2 52.690566990019086 1.2720339675684749 0.11392541490099282 0 0 2
26 2 56.41014808998948 1.6266374526077898 1.4500620455340703 0 0 0
27 2 58.68017615048276 0.42199891101320347 0.5359839725072248 0 0 1
28 2 59.78914117454986 2.7103549861548957 0.9059965271866538 0 0 0
29 3 62.62962373638821 1.4199363687199211 2.4802267913783678 0 0 1
30 3 66.41032606534792 1.797927271780261 3.0559737069627255 0 1 -1
31 2 66.91857497661589 2.2187446649386855 0.6904030732145497 0 0 0
32 2 69.2187628859102 1.0272269397651672 1.6365480977147004 0 0 -1
33 3 71.55850036571698 2.9792532534904037 2.2933684497107043 0 0 0
34 2 70.10018250136379 2.9900796036564006 0.2233602150157671 0 0 0
35 3 73.18193634592002 1.2744547928622592 2.2322389464376133 0 0 0
36 2 75.31636409594766 2.619915452160874 0.6186523012155475 0 1 0
37 3 77.68137803594989 2.833044265326477 2.61454354924173 0 1 2
38 3 75.38209645285626 1.7156934968866404 3.1514430992482265 0 0 0
39 2 80.95047494055558 0.40167234930884776 1.8446455462608005 0 0 1
40 3 82.69243488437996 1.5487661803565813 2.9223980424623717 0 0 0
41 2 83.56673333079634 2.906486687861051 0.8117999179481775 0 0 0
42 2 85.45918845361743 1.2606028957640467 0.3309987790734542 0 1 1
43 3 84.87290794358769 0.7167987403546486 2.698359491879583 0 0 0
44 3 88.18344748408501 1.1057579542110338 2.594464533489326 0 0 0
45 2 87.83292965690444 2.0126683474460165 0.41586217227293437 0 0 -1
46 2 92.3419831702835 1.2319997671020642 0.6829965944775238 0 0 1
47 2 96.2741025770601 1.954624223615814 1.024604324074903 0 0 0
48 2 8.543059428925527 91.04115606580253 0.19701690644168823 0 0 1
49 2 35.96753260105649 89.15806889918144 0.11276195683432277 0 0 1
50 2 9.203860684029687 87.1949814169626 0.07897727626580935 0 0 0
51 2 42.442462350693226 86.11032966737599 0.1586452093478359 0 0 2
52 2 65.36575861447045 79.78957545177327 0.021217170510592354 0 0 1
53 2 56.95075676551895 80.62332949456166 0.1123204289972131 0 0 1
54 2 53.18602478262219 78.42484169694353 0.02874996593238148 0 0 1
55 2 41.45528486382864 81.21372598212719 0.2840620629884173 0 0 0
56 2 13.941329540115843 78.20082352427649 0.07517166499357905 0 0 0
57 2 52.533760432602634 71.04360261312948 0.05497839152557089 0 0 1
58 2 62.009060207216706 64.24374987735993 0.005165111644577948 0 0 1
59 2 27.55515548701324 65.52746390805501 0.11081323143017206 0 0 1
60 2 42.69296298944177 61.82374812366325 0.12428941928040405 0 0 1
61 2 27.877102468484516 62.596988955459416 0.14984919068292596 0 0 1
62 2 15.919570417428709 61.61212864066299 0.17695401795594357 0 0 1
63 2 9.485114837614846 61.22441897517646 0.13948970058417534 0 0 0
64 2 8.299823608240695 63.28905071351195 0.052230673061830685 0 0 1
65 2 55.31936173560526 54.970874269462016 0.03263943699576659 0 0 0
66 2 29.909842872557284 56.231936743683306 0.14954806481587293 0 0 1
67 2 12.193686909462876 56.19980090045024 0.11798655983618507 1 0 1
68 2 52.10302418460081 45.125144302681676 0.02431787149094637 0 0 1
69 2 73.2859701639869 43.308724666203524 0.02958235269775323 0 0 0
70 2 52.43168191327443 31.514246598467484 0.24352104746659045 0 0 -1
71 2 7.543428012608006 31.224773801427354 0.0259255235122499 0 0 1
72 2 35.947502551437516 26.484721543887687 0.002631043766291055 0 0 1
73 2 29.79350100188277 27.794278124592985 0.1082050588506544 0 0 0
74 2 87.86570698361325 23.87932940292626 0.028468239444283228 0 0 0
75 2 20.51625928042916 14.047815024532545 0.019340033517440958 0 1 1
76 2 15.54621824012714 13.782325919969246 0.04978039190676477 0 0 0
77 2 70.91431407808645 10.491859861052136 0.10310262159745548 0 0 0
78 2 60.455409826805806 7.76058930405572 0.15571407293296471 0 0 1
79 2 49.107157497101184 6.280804982223685 0.10778875606271045 0 0 0
80 2 65.63170988184366 4.092818979607999 0.03825934938360959 0 0 0
81 1 86.02982069835397 96.27311577682003 9.900589143037053 0 0 0
82 1 82.20413083656118 96.41555864468619 9.38413822293751 0 0 -1
83 1 66.41619482518875 96.36784003174654 9.798902893929423 0 0 -1
84 1 19.137668036668778 96.72807726798675 9.836529084321329 1 0 0
85 1 6.871323546240209 97.50035276651376 9.939320888782582 1 0 -1
86 1 4.591576115151935 96.92492433763123 9.370610331993952 0 0 1
87 1 97.91671858610556 94.75392965683103 9.63346722066355 0 0 1
88 1 95.34306498423744 95.15838927829904 9.580819146040302 0 0 0
89 1 90.76998256878305 95.07636642762374 9.83741149167709 0 0 1
90 1 57.90885983011914 94.26756676000076 9.871627819485578 0 0 0
91 1 50.303726352891566 95.55592504492024 9.629973191677406 0 0 0
92 1 38.75592589084104 95.07340450811719 9.397765603626292 0 0 0
93 1 30.640092644127925 95.00962354426524 9.805102797135719 0 0 0
94 1 20.386272431627468 94.55445838677655 9.66914258570493 0 0 1
95 1 95.17804264668243 90.3824970888125 9.840528726420036 0 0 0
96 1 90.15388146073356 90.2175583344243 9.445772382920023 0 0 0
97 1 88.15420049942936 91.63104963963437 9.663732361156203 0 0 0
98 1 83.95416965968889 92.96110126121958 9.82943456384038 0 0 0
99 1 81.71981625491232 92.62852906752286 9.595011565243041 0 0 -1
100 1 70.23597688631125 90.86660453146452 9.909208705028787 0 0 0
101 3 0.0879249544139786 1.5937284881329035 2.5253061605901133 0 1 1
102 1 63.44411772233108 91.91236142136889 9.964150203187888 0 0 -1
103 1 61.308342902646906 92.64521474451905 9.274173290748097 0 0 -1
104 2 2.0039140462535174 4.859270783816329 1.973153243804966 1 0 0
105 2 5.1622381316453625 5.26982587299521 1.4151685508855985 1 1 -1
106 2 7.586744770633022 5.524824507385365 1.1479002348322858 0 1 2
107 2 9.746793972202086 3.462870259576391 1.2498635364975492 0 1 0
108 2 12.653827470643868 4.845743174128938 1.4356300637845523 0 0 0
109 2 14.482267199577171 3.2035973415822885 1.8806455471741075 0 0 0
110 2 22.72392466905798 5.5309212300162915 0.49361524228012277 0 0 1
111 2 25.875534053394876 3.2369496433253624 0.5924110810318142 0 0 1
112 2 24.469451186904042 4.897933239764691 1.9386537104916635 0 0 0
113 2 30.423079869739457 4.924018228670114 0.24819645029338044 0 0 1
114 3 31.11136356523969 5.030964913238586 2.942866529571509 0 0 1
115 3 33.37939729862995 4.14829621203108 3.096402700615685 0 0 -1
116 3 37.30323795586499 5.318593148330144 2.8119078745081754 0 1 1
117 2 40.74410384733252 4.412169867358798 1.647433994927748 0 0 0
118 3 42.1215326167131 5.421137588779084 3.3208116593377515 0 0 0
119 2 44.20010184589503 2.8712436459741473 1.1324079128291873 0 1 0
120 2 45.734335918976456 5.1269204581417664 1.324690844420497 0 0 1
121 3 49.21425736565583 3.0972327946112244 2.363462640743542 0 1 0
122 3 47.17333632418158 4.256781288201926 2.996749870105815 0 1 0
123 2 50.44374223487122 4.498474995513389 1.0073843958031667 0 0 -1
124 3 51.764081887879165 5.313265068184915 2.89215811882552 0 1 0
125 3 53.915487587759586 4.201408197951856 2.9034624911629745 0 0 1
126 2 56.23634828889292 3.872665621517099 0.43492721935062134 0 0 1
127 3 55.68702665526007 5.5695857050450215 2.104944262723359 0 0 0
128 2 58.49340036385573 4.517046038142144 0.12158341798036626 0 1 0
129 2 62.00650803869925 3.2576059126224948 0.9806508832381324 0 0 0
130 3 62.59549439693913 5.063194035611747 2.323349117888024 0 0 0
131 3 65.18602765241151 4.798758539212355 2.331758704754005 0 0 0
132 2 68.78261560397091 4.809253968508971 1.0105319399031227 0 0 1
133 2 72.63742322202363 4.959638502931812 1.5751034101189654 0 0 0
134 2 78.10521393063482 3.8796787813092575 0.4541851702286727 0 0 -1
135 2 81.85348102879296 5.180321261497206 1.2841188267495958 0 1 0
136 2 85.18707696708906 4.5040894623743 1.3953925002786471 0 1 1
137 2 87.20300260000535 4.287207943335573 0.12603689761067183 0 1 0
138 3 89.82849592716015 5.466598877827213 2.761180577797044 0 0 1
139 3 90.26158806959333 3.229934069600799 2.1993864899868827 0 0 1
140 2 92.84297778035547 5.221097338805633 1.1770270983542017 0 0 1
141 3 92.73927133615038 3.0935457486285274 2.2327115599333522 0 0 0
142 3 95.13108498993047 2.9784661379547184 2.7721406738422925 0 0 0
143 2 97.69655450498279 3.549179563669601 0.17635002152721102 0 1 2
144 2 99.25358507368686 4.160178592199768 1.7574431185329937 0 0 0
145 1 52.20848692060027 90.97693537616689 9.573415092813859 0 0 0
146 1 46.26307081278412 90.51539860837629 9.82896755949498 0 0 1
147 1 21.49408793169438 90.61848856335739 9.869371071623567 0 0 0
148 1 9.142984749958455 92.32539452605081 9.932513813480966 1 0 0
149 1 78.90387408486781 88.77412931000781 9.193707148075967 0 0 0
150 1 69.53638331332844 88.54689327833917 9.686611685185733 0 0 -1
151 1 57.182939663910446 89.19457379258601 9.957563823640458 0 0 -1
152 1 48.41726901300159 89.37871835359716 9.85701382272719 0 0 0
153 1 42.6758798940277 88.57664621460086 9.635967435834267 0 0 -1
154 1 27.675925619940987 89.27918922098964 9.791649377603484 0 0 0
155 1 23.316806857524167 89.06652663462785 9.309490492543055 0 0 0
156 1 16.655784733597798 88.53077864582126 9.812856286271481 0 0 0
157 1 11.370558642114625 87.73159399712723 9.557502579297681 0 0 0
158 1 3.82455837546631 89.38262075627473 9.600220415929112 1 0 0
159 1 82.48283585169351 85.86674891022605 9.944965845941569 0 0 0
160 1 67.87403895596343 85.3021833665172 9.210612712749548 0 0 0
161 1 64.31602932797628 84.35200661555824 9.899048715513741 0 0 0
162 1 57.4042797555002 84.61402664663362 9.61165914465854 0 0 -1
163 1 46.303714465860836 86.38049182324698 9.955940434265841 0 0 0
164 1 42.82507454175754 85.12406773183602 9.321922787304437 0 0 1
165 1 40.35789324740772 85.14959771887524 9.737477254759678 0 0 0
166 1 16.033093670258292 86.15988020793377 9.75290563371559 0 0 0
167 1 97.94686439977278 81.66189102492372 9.63713129676907 0 0 0
168 1 73.5901397735103 81.4920999081273 9.950654733443946 0 0 0
169 1 36.60919711445752 82.50947133765985 9.891840121463556 0 0 -1
170 1 24.16565287956644 82.48306188835676 9.818759358300293 0 0 -1
171 1 21.798256462594154 83.24846375193623 9.568254350747065 0 0 0
172 1 13.678244799894202 82.40210975734095 9.78262647136991 0 0 0
173 1 99.35607990404496 79.76847033811532 9.993000604460494 0 0 0
174 1 83.73790306687242 79.8358560864552 9.49724432824535 0 0 -1
175 1 79.85997675264309 80.6052852951493 9.705523291505456 0 0 -1
176 1 76.29069818336463 78.36469765255714 9.714324798405979 0 0 0
177 1 69.7167601874847 78.76358728948078 9.245062246904471 0 0 -1
178 1 61.81422689934662 81.27159243051155 9.960764802253884 0 0 0
179 1 54.61134420064216 80.30146370524521 9.974740056238975 0 0 0
180 1 39.65177309604213 79.6738721900865 9.532127840909999 0 0 0
181 1 24.16662801319593 80.10606111533018 9.647215980240537 0 0 0
182 1 16.26171916750881 79.37033963569775 9.505845839186952 0 0 0
183 1 87.02972537460248 78.51509778260909 9.690296246447796 0 0 0
184 1 71.3831589589532 77.05465836083569 9.78069198154762 0 0 0
185 1 67.51918026651519 77.9096510628356 9.51281785585462 0 0 0
186 1 59.70817593563353 77.70439099124465 9.67155742924875 0 0 -1
187 1 55.61813512076051 78.15446255430332 9.665360618836328 0 0 1
188 1 52.17971674143459 77.87930900666184 9.739970172065318 0 0 -1
189 1 43.680915698261785 78.24563527168394 9.70930070127706 0 0 0
190 1 93.57254793864527 73.47240631595874 9.603563988190782 0 0 2
191 1 86.91937077831474 74.65108263190601 9.272717172053628 0 0 0
192 1 60.427055504958275 73.41843336769205 9.584686991734184 0 0 -1
193 1 55.45722347719859 73.55997981154421 9.630717265077154 0 0 0
194 1 28.672020921603703 72.96185036141789 9.430938575355574 0 0 0
195 1 22.47737644948746 75.29194641241314 9.4712074093773 0 0 1
196 1 18.150013512109435 74.26633274606638 9.994736422635048 1 0 0
197 1 3.265835718424381 74.30429167619587 9.888038612891098 1 0 0
198 1 0.9518321142249906 74.45231502116984 9.813375406574698 0 0 0
199 2 1.8466894901052102 7.007538321150204 0.9057966061468741 0 0 0
200 2 4.104185597820138 7.510655783499209 1.7352228226690327 1 1 1
201 2 8.468034277872553 7.713311996106651 1.2924961232597276 0 1 -1
202 2 10.589274199759815 7.575456158703269 0.28647659673806447 0 0 0
203 3 12.009513379460964 8.15918810222641 2.043090592100142 0 0 0
204 2 13.923360253544113 6.708753914744153 1.7443859121659715 1 1 0
205 2 17.5700970389641 7.6940202511638685 1.2314594562023449 0 0 0
206 2 15.692781246095153 6.717415462970172 0.2153768171567705 0 0 2
207 2 20.978526945696785 6.651606082634204 1.8142991667398163 0 0 -1
208 2 23.94837613420936 8.573381399426236 1.6781342144535558 0 0 -1
209 3 24.825565016524834 6.939890769352047 3.1418133435020956 0 0 1
210 2 27.758644660230278 7.550681844156104 1.0485463107522581 0 0 0
211 2 30.099913016854842 7.145707071752956 1.5366822613912412 0 1 1
212 2 31.80033602170465 8.543221856711794 0.5634754888075237 0 0 1
213 2 37.15680606418556 5.858712662635165 0.2596592241654029 0 0 0
214 2 35.380622072939865 7.158661512145603 1.162454934737742 0 0 0
215 2 39.5214445425195 6.223123906471197 0.7040541640515124 0 0 1
216 2 39.70730676261578 8.31984102029321 1.978783398395543 0 1 1
217 2 41.988455000000805 8.429411359894477 1.326215717592958 0 0 0
218 2 43.66237923693734 6.4644900705253745 1.9019353855465546 0 1 1
219 3 44.86979383735072 8.407069241478684 2.7037441674440075 0 0 1
220 2 47.44094081006288 7.080750304138113 1.5578646328948957 0 0 1
221 2 54.473384412631866 7.727266422184537 1.2957376225139046 0 1 -1
222 2 58.40969684318337 6.7153583725586685 0.995648233532468 0 0 1
223 2 61.980427669997674 7.340445539381582 1.8819864307166811 0 0 1
224 2 64.11045399653342 8.091375350852527 1.4110321525653216 0 0 0
225 3 65.64190160742383 7.104383557777409 2.8148480170790857 0 0 -1
226 2 67.37698888653858 7.897427484516678 1.20805520836625 0 0 0
227 3 69.4470664077115 7.3532533577193355 2.113903525793964 0 0 0
228 2 71.0228990703477 6.31709887955633 0.5058998689088055 0 0 0
229 2 72.6309611016508 8.249844293697613 0.4113142251194546 0 0 0
230 3 74.19449280335955 8.180678920808163 2.2061394671549155 0 0 0
231 3 74.27610101114719 5.882576193322718 3.1201514466633697 0 0 0
232 2 77.21505407946282 6.082147648353946 0.43212871653786006 0 0 0
233 3 76.64917890641536 6.32501752530599 2.747246985516716 0 1 1
234 3 81.22469818084232 7.154959007155711 2.600155749576216 0 0 1
235 2 84.0691048544176 6.476895350993949 0.7260470587599129 0 0 1
236 3 84.58989841233327 8.156950731282782 2.365124213937662 0 0 0
237 2 87.88182828545987 6.162798379909602 1.5499847002747682 0 0 1
238 2 88.53838763291814 7.99136618638208 0.20658387644434598 0 0 1
239 2 91.42395857986695 6.948857313255645 1.894845787116987 0 1 -1
240 2 95.09132832940347 6.004460631483821 1.3654774656078645 0 0 0
241 2 94.90527216755004 8.408040098108842 1.0710033193402495 0 0 0
242 1 89.89600487727692 72.32364802652813 9.717767792879174 0 0 0
243 1 76.14875574764527 70.26179348109564 9.402235099686896 0 0 1
244 1 74.42490965139957 71.78325277132828 9.693704916619252 0 0 0
245 1 67.81937578890697 70.2892029655532 9.433203228002911 0 0 0
246 1 60.976874439516415 70.90437799778263 9.904585249570907 0 0 1
247 1 32.37511876443262 71.88954427539795 9.454479329692875 0 0 0
248 1 0.7690203188657088 70.13688586071815 9.69176113003406 0 0 0
249 1 96.91329939418067 67.01233131495496 9.50959506366824 0 0 0
250 1 89.92048423692204 68.11251031151102 9.68645779181412 0 0 -1
251 1 80.41940790574563 68.86285496814102 9.260989584339018 0 0 -1
252 1 72.35937172021335 67.10302067285048 9.580672921671571 0 0 -1
253 1 62.81001549416225 69.27567046334362 9.91719482482635 0 0 0
254 1 59.14207590020899 67.00167234745606 9.936011519207817 0 0 0
255 1 55.838610501058646 68.90527472121308 9.774270451618332 0 0 1
256 1 41.90375721766482 68.96739264175633 9.919832539234879 0 0 0
257 1 40.4997942965707 67.06497460439984 9.913214793035225 0 0 1
258 1 34.11273074752614 67.79446715127324 9.926361378895644 0 0 0
259 1 20.245553528880603 68.83654642544367 9.959061586105333 0 0 -1
260 1 11.777559984848633 68.3436876459464 9.634731735544229 0 0 0
261 1 85.03260211064571 65.55296924893159 9.865146882680078 0 0 1
262 1 77.58124536516085 65.9847024698475 9.471882010232603 0 0 -1
263 1 74.6962567029327 66.75590777191574 9.079563616830823 0 0 0
264 1 62.102600453466806 64.21683113777398 9.754345034230344 0 0 1
265 1 55.76649368115899 64.08838108544835 9.972848521343048 0 0 0
266 1 48.54543628150486 65.68509852930197 9.678769978162267 0 0 -1
267 1 31.693412330816876 64.13780744037402 9.764486701816933 0 0 1
268 1 22.765309667037975 64.86706398102923 9.58662147460439 0 0 -1
269 1 8.316399782506567 66.57754233177776 9.643964563757777 0 0 -1
270 1 89.28085658422725 62.32012673020923 9.42298693205608 0 0 0
271 1 85.67506540242722 61.87059838380764 9.915917936432646 0 0 0
272 1 78.49879072802979 63.869943604584435 9.869592702606685 0 0 0
273 1 65.45943019514398 62.765931622580695 9.690886031085409 0 0 0
274 1 26.252545859853146 61.720834194773246 9.682353688382682 0 0 0
275 1 5.122496656877501 64.09343727766819 9.747777363781266 0 0 -1
276 1 1.4552226344043597 62.35201597318583 9.819001264704998 1 0 -1
277 1 94.3713204581198 60.15548933436192 9.682296821997701 0 0 0
278 1 87.71385475374751 60.640866819866865 9.663293864108175 0 0 1
279 1 79.90733282606621 59.470130802676714 9.536708905526512 0 0 -1
280 1 77.53741320177637 60.09551571870811 9.87010579554493 0 0 1
281 1 64.8006533726922 58.945399306262885 9.493703680895596 0 0 0
282 1 49.90602627827909 60.21842795299255 9.770032340846493 0 0 0
283 1 50.671692662386526 58.10256177617222 9.507504733996855 0 0 1
284 1 20.140916025486337 59.23997973339396 9.481065360310643 0 0 1
285 1 8.739124405303583 58.44125059228254 9.501373902901225 1 0 0
286 1 0.25743072067309586 60.229710580996894 9.797241288743331 1 0 1
287 1 98.5131700319495 57.67030332573022 9.520860471050971 0 0 0
288 1 96.30491659854252 56.857578991493654 9.168183171181337 0 0 0
289 1 64.8364612475165 56.25454807183689 9.719439137589616 0 0 -1
290 2 3.6986857919451137 11.616704315617534 1.9663676466384943 0 1 -1
291 2 7.090418909729392 9.563921179368284 0.5666146488133077 1 0 0
292 2 12.756135810766276 10.502249013890232 1.8760750304085299 0 0 0
293 3 15.043907589918522 10.646240606057654 2.059559437633642 0 0 0
294 2 16.625565722446623 9.8342913685394 0.4303252997527351 0 1 1
295 2 18.609184814465973 10.942188472718104 1.8936404797263362 0 0 -1
296 3 21.74295405106788 8.960960300344832 2.4079069489354725 0 1 0
297 2 20.63702976268533 10.285435791148961 0.8067000735669674 0 0 1
298 2 24.79173812820336 10.847654881408099 1.6280014120517101 0 0 0
299 2 27.076370972388407 9.642341458537652 0.2072202352460882 0 0 1
300 3 27.038681258883344 11.509841458512941 2.439670631154538 0 0 0
301 3 32.59691145231667 10.020228423853265 2.1478003201061058 0 1 0
302 2 34.54064474758057 11.036248593646272 1.2983902450670737 0 0 0
303 2 36.19616328801795 9.362604604571874 1.372194906885413 0 1 0
304 2 38.42970790698756 9.657503536670427 0.34682332159351215 0 0 0
305 2 42.88340233003854 10.96352053435603 0.14082475521783133 0 0 0
306 2 46.12384703520908 9.30396151918059 0.8886438384248372 0 0 -1
307 2 48.80309237035278 9.427352009329653 1.7129487027048067 0 0 0
308 3 48.08669338212699 11.325340505144124 2.979715742097471 0 0 1
309 2 46.714251015719604 11.798495516777752 0.8855392599814164 0 0 0
310 2 52.03944226391462 10.97535879450081 1.9394843450105264 0 0 -1
311 3 54.203722382080564 11.43153216024981 2.903998297119199 0 0 2
312 2 57.44459702170049 10.896110349903735 1.1179005236871897 0 0 1
313 2 59.665870510869674 11.49816128455207 1.2085235040181108 0 0 1
314 3 63.153837556793015 11.735384904940085 2.764343020203044 0 0 1
315 2 64.45834721967975 10.393182898191768 1.1814413705997056 0 0 -1
316 2 66.85296340161932 10.38578234798404 1.3662231269333174 0 0 0
317 3 70.86259615696153 9.276116424131889 2.317480272502551 0 0 0
318 3 75.49794100329174 11.581157154443947 3.001200717685952 0 0 -1
319 3 76.20290218484124 9.4628477604056 2.1468602415498923 0 0 1
320 2 80.54138338856546 8.68576752219064 0.8317382684181218 0 0 0
321 2 79.89970669682252 10.842004657835218 1.8284319758675756 0 0 0
322 2 83.4273347622019 11.248299056613426 0.6280589312880516 0 0 1
323 2 85.38008519552383 10.24283777654256 1.532449423956115 0 0 0
324 2 87.87045144784832 9.930429266364929 1.4101120113106507 0 0 0
325 2 91.71082225638584 10.15335400239594 0.6114696263895325 0 0 0
326 3 93.2921886196928 9.5507433096487 2.3200550299862375 0 1 1
327 3 96.99102609937384 8.801768118407418 2.2332591058409816 0 0 1
328 2 97.72157701413673 11.006460832201002 1.7045482981693327 0 0 1
329 1 61.850545558837716 57.892407281805134 9.905486129844077 0 0 0
330 1 48.42939064449075 57.29273297814251 9.969779718541336 0 0 0
331 1 34.16922423130645 58.02211782288722 9.951504729352907 0 0 -1
332 1 20.35486473382302 56.909945650097434 9.4716073440707 0 0 0
333 1 81.61353989525689 54.998646557903136 9.624377398687548 0 0 1
334 1 83.53961622967074 53.70630251950898 9.546927658215314 0 0 0
335 1 68.49086354250869 53.80657030336144 9.701730505499166 0 0 -1
336 1 52.062487325762724 53.72784566208966 9.876848197554521 0 0 1
337 1 15.168433605530076 53.92155780516887 9.942081419482946 0 0 0
338 1 12.777823734481741 52.914963964687125 9.85472864118364 0 0 0
339 1 3.821644008263838 53.240750777671515 9.799593696439503 1 0 1
340 1 82.81065552729719 51.32846246723673 9.879455086259547 0 0 0
341 1 80.62548701441543 50.306329135482954 9.521491767289252 0 0 1
342 1 69.61232929094083 49.30269909637692 9.462555757429238 0 0 0
343 1 64.11217002923156 50.47951742876733 9.35728497476203 0 0 -1
344 1 57.745785526657464 50.349142007610105 9.824100639012833 0 0 -1
345 1 53.60617012064105 51.87485984959583 9.807426048946317 0 0 -2
346 1 50.408647217014526 49.19025979476495 9.361393822431424 0 0 -1
347 1 43.01172463490146 50.88085702162321 9.600340987811757 0 0 -1
348 1 31.870999949153006 52.22369914282736 9.646371255908258 0 0 1
349 1 9.287001375971233 50.880112571398186 9.493363435814024 0 0 0
350 1 6.718221587141586 51.06858297384458 9.907497454157642 1 0 -1
351 1 78.71750380009247 47.80921377716063 9.497026153859341 0 0 0
352 1 76.60851701868951 48.83576318989724 9.688507777096854 0 0 0
353 1 72.95477675799313 48.037208135023945 9.814711934400057 0 0 0
354 1 64.97233774450176 48.25952031757098 9.474260404700912 0 0 -1
355 1 62.89747271080787 46.96673269504393 9.620816837429853 0 0 0
356 1 54.13679275306236 48.12277960283721 9.492216868314939 0 0 0
357 1 30.667178635305433 49.08532559425297 9.429429483840135 0 0 -1
358 1 8.505291670978487 47.85192270302997 9.68510652493689 0 0 0
359 1 94.88546151701198 43.994606805576275 9.43352624034632 0 0 1
360 1 90.03317263254655 44.19342518541509 9.396408482852989 0 0 -1
361 1 63.573650266561835 44.51382671277074 9.875815420121965 0 0 1
362 1 52.89533904103637 45.66789614395639 9.746421346421494 0 0 0
363 1 49.11097312393467 44.55839106492438 9.665367883307114 0 0 -2
364 1 38.64991437887296 46.35438015733812 9.454577437386483 0 0 0
365 1 36.806091607922596 44.735167995846886 9.526044455395366 0 0 1
366 1 23.766008265049482 46.59143041351694 9.650068714975175 0 0 -1
367 1 4.072926084792059 45.517305094354334 9.62583110847856 0 0 0
368 1 5.719869483516426 43.75790307255354 9.990274424737537 0 0 1
369 1 0.12556538196647463 45.444828285513125 9.442173117388442 0 0 0
370 1 96.93173331820893 42.83451371676599 9.59930688179385 0 0 0
371 1 91.41533746245887 42.124347193948374 9.503498880602162 0 0 1
372 1 74.56153827881242 41.1809020929936 9.236395676637171 0 0 -1
373 1 11.5936458355831 42.594753299932144 9.885860680993503 0 0 0
374 1 4.439010195181476 41.53670947618421 9.958779197217442 0 0 0
375 1 82.33733314600383 39.94717449614023 9.558448361100933 0 0 -1
376 1 78.5369063963312 38.10736634514019 9.81275620639903 0 0 0
377 1 77.85089554629027 40.507338130008016 9.95306070199384 0 0 1
378 1 65.54237981978842 39.225230641787185 9.96565738265681 0 0 -1
379 1 47.80793029379494 39.10157912478738 9.88216729628997 0 0 -1
380 1 45.542489758133605 38.43587267591621 9.621589181249968 0 0 -1
381 1 41.75705595019821 38.75531134427004 9.310471618747881 0 0 0
382 1 38.22443698411476 40.51810471864657 9.299494618657471 0 0 0
383 1 34.67366874069793 39.98857550597655 9.316458171851929 0 0 0
384 3 1.254108456164966 11.826194998741682 2.3559518479582144 1 0 1
385 2 0.5769252561805855 14.191835960958418 1.9325398119973467 1 1 1
386 2 4.20204654137337 14.122435295170202 1.3525662927599131 0 0 1
387 2 6.3889555073131055 11.780530062699695 1.5939633017475499 0 1 -1
388 2 8.151402716918078 14.246136840493175 1.0668605987793025 1 0 0
389 2 10.313575564812638 13.257601307585055 0.6063381901674858 0 0 0
390 3 11.52697403328198 12.661680218972887 2.607541153352794 1 0 -1
391 3 13.29995175889231 14.296217872047883 2.568067878140927 0 0 0
392 2 12.436752577749356 14.42374224631955 0.1808813961858698 0 0 -1
393 3 15.443841900897052 12.978719778003965 2.3027784833111498 0 0 -1
394 3 17.8394890163886 13.21156987732832 2.4844869794565962 0 0 0
395 2 28.817032293776055 14.319509225367423 0.7717089889101862 0 0 1
396 2 29.034279032775665 12.048264119075222 1.1493566316840216 0 0 1
397 3 30.917559035955854 11.661298074304401 2.608996915210568 0 0 0
398 3 34.70253444584362 12.79887123023523 2.8153447373445495 0 0 0
399 3 32.400430871664845 13.533253682628194 2.93032829773135 0 1 0
400 2 36.1675089896259 14.264679033928093 1.6903465271564801 0 0 0
401 3 40.21459255094328 12.296763010691283 2.356390211636652 0 0 0
402 2 39.333467353877346 11.915725153878876 0.18099307771233916 0 0 0
403 3 42.59734706178239 11.91101483789115 2.3797403149691934 0 0 1
404 3 43.812344163062534 13.935002701078869 2.413836105746971 0 0 0
405 3 46.13545209330831 13.519777828168483 2.647955719301221 0 0 0
406 2 51.29861340544659 13.242937326477993 1.8506991780879325 0 0 0
407 2 49.752169860802596 14.02761623861673 0.11799184740961642 0 0 0
408 2 55.68435599113016 12.587129547964015 1.2436757242961554 0 1 -1
409 3 57.15790624307948 14.254260885546604 2.0078499037931854 0 0 1
410 2 59.37078081597867 13.861842607709372 1.377239658801552 0 0 1
411 3 63.040032494368205 14.022251112027025 2.027055122630591 0 0 1
412 3 66.86771303482844 13.137968751778306 2.5492726857394556 0 0 -1
413 3 69.05186145244654 14.312988466225274 2.4550176195489164 0 0 0
414 2 67.15199869149643 12.81765125798954 0.04894922047479067 0 1 0
415 2 71.83763950279445 12.484226903674958 0.9111458644785976 0 0 1
416 3 70.79763741968517 12.780471868361873 2.9270276440837613 0 0 0
417 2 74.27805383467191 12.608234558251638 1.0288811685634551 0 0 0
418 2 78.96585456178946 14.226038140805784 0.7374490271078741 0 0 0
419 3 81.93053995405033 12.095640343797085 2.184222170675701 0 0 1
420 2 81.55901935171545 14.330570460605266 1.8985858520063348 0 0 0
421 3 86.41409413466805 13.9043169676421 2.548250361855832 0 1 0
422 2 86.37145310483136 13.85548665544129 0.07651215591185999 0 0 0
423 2 89.98900403934398 11.714827163359601 1.0178963645436407 0 0 1
424 3 94.32670301780173 11.733828848024123 2.995823439179739 0 0 0
425 2 94.35029864747297 12.296472529655711 0.5715054864819602 0 0 0
426 2 93.41992435086746 14.495843120667118 1.7127078584962783 0 1 0
427 1 22.813813079755697 38.769111369131664 9.977708097946008 1 0 0
428 2 98.78163821413459 14.454059541598951 0.7247033944776106 0 0 1
429 1 0.6287736759450404 39.10718882215919 9.91344949025134 0 0 0
430 1 92.04117658087726 36.17284064838455 9.241327609188696 0 0 0
431 1 76.34780655528645 37.1973436361082 9.644117487522132 0 0 1
432 1 67.20561392191205 37.527854749076326 9.887992410991316 0 0 -1
433 1 53.58805359728516 36.63182406204707 9.53966114376722 0 0 1
434 1 48.86818160171283 36.92711247861221 9.666771137120064 0 0 0
435 1 37.28125441466209 36.83303529079942 9.850908600254762 0 0 0
436 1 19.355275605754894 35.79481646048119 9.608177101103252 0 0 -1
437 1 11.774586786640729 36.5739921250144 9.529664968643464 0 0 0
438 1 89.09831132366457 34.2532484902255 9.676529432134542 0 0 0
439 1 86.79452972710541 32.78319385172184 9.601653348648263 0 0 0
440 1 84.64115645971125 33.659088183995905 9.416799935557382 0 0 0
441 1 49.303876681800325 32.1845176836084 9.751846155247023 0 0 0
442 1 42.18258705203764 34.75835400302585 9.862839221156081 0 0 1
443 1 29.589993389603794 33.88553802523464 9.425645326065123 0 0 0
444 1 25.706950897121313 33.73098547151599 9.74907227811473 0 0 0
445 1 13.012782024613442 34.41077315537148 9.976864769423198 0 0 1