LAMMPS data file via write_data, version 29 Aug 2024, timestep = 3, units = metal

6912 atoms
6 atom types

0 101.508551143168 xlo xhi
0 98.897606990244 ylo yhi
-50 50 zlo zhi

Masses

1 186.207
2 186.207
3 78.971
4 78.971
5 78.971
6 78.971

Atoms # atomic

1825 1 2.868859563907299e-18 0 1.7818738707990391 0 0 0
1831 1 3.172142223224 0 1.7818738707990391 0 0 0
1829 4 1.0983944751126754e-17 1.8314371664859865 0.02448307919576728 0 0 0
1826 1 1.586071111612 2.747155749728999 1.7818738707990391 0 0 0
1835 4 3.172142223224 1.8314371664859868 0.02448307919576727 0 0 0
1832 1 4.758213334836 2.747155749728999 1.7818738707990391 0 0 0
1830 4 1.586071111612 4.578592916214987 0.024483079195766966 0 0 0
1836 4 4.758213334836 4.578592916214987 0.024483079195767032 0 0 0
2017 1 0 5.494311499457999 1.781873870799039 0 0 0
2023 1 3.172142223224 5.494311499457999 1.781873870799039 0 0 0
1837 1 6.3442844464479995 0 1.7818738707990391 0 0 0
1843 1 9.516426669671995 0 1.7818738707990391 0 0 0
1841 4 6.3442844464479995 1.831437166485987 0.02448307919576761 0 0 0
1838 1 7.930355558059999 2.747155749728999 1.7818738707990391 0 0 0
1847 4 9.516426669671993 1.8314371664859868 0.024483079195767726 0 0 0
1844 1 11.102497781283995 2.747155749728999 1.7818738707990391 0 0 0
1842 4 7.930355558059999 4.578592916214987 0.02448307919576739 0 0 0
1848 4 11.102497781283994 4.578592916214987 0.024483079195766814 0 0 0
2029 1 6.3442844464479995 5.494311499457999 1.781873870799039 0 0 0
2035 1 9.516426669671995 5.494311499457999 1.781873870799039 0 0 0
1849 1 12.688568892895995 0 1.7818738707990391 0 0 0
1855 1 15.860711116120001 0 1.7818738707990391 0 0 0
1853 4 12.688568892895994 1.8314371664859868 0.02448307919576684 0 0 0
1850 1 14.274640004507999 2.747155749728999 1.7818738707990391 0 0 0
1859 4 15.860711116120001 1.8314371664859863 0.024483079195767133 0 0 0
1856 1 17.446782227732 2.747155749728999 1.7818738707990391 0 0 0
1854 4 14.274640004508 4.578592916214987 0.024483079195766564 0 0 0
1860 4 17.446782227732 4.578592916214987 0.024483079195767032 0 0 0
2041 1 12.688568892895995 5.494311499457999 1.781873870799039 0 0 0
2047 1 15.860711116120001 5.494311499457999 1.781873870799039 0 0 0
1861 1 19.032853339344 0 1.7818738707990391 0 0 0
1867 1 22.204995562568 0 1.7818738707990391 0 0 0
1865 4 19.032853339344 1.8314371664859868 0.024483079195767286 0 0 0
1862 1 20.618924450956 2.747155749728999 1.7818738707990391 0 0 0
1871 4 22.204995562568 1.8314371664859868 0.024483079195767237 0 0 0
1868 1 23.79106667418 2.747155749728999 1.7818738707990391 0 0 0
1866 4 20.618924450956 4.578592916214987 0.024483079195766973 0 0 0
1872 4 23.79106667418 4.578592916214987 0.024483079195766973 0 0 0
2053 1 19.032853339344 5.494311499457999 1.781873870799039 0 0 0
2059 1 22.204995562568 5.494311499457999 1.781873870799039 0 0 0
1873 1 25.377137785792 0 1.7818738707990391 0 0 0
1879 1 28.549280009016 0 1.7818738707990391 0 0 0
1877 4 25.377137785792 1.8314371664859868 0.024483079195767237 0 0 0
1874 1 26.963208897404 2.747155749728999 1.7818738707990391 0 0 0
1883 4 28.549280009016 1.8314371664859868 0.024483079195767237 0 0 0
1878 4 26.963208897404 4.578592916214987 0.024483079195766973 0 0 0
2065 1 25.377137785792 5.494311499457999 1.781873870799039 0 0 0
2071 1 28.549280009016 5.494311499457999 1.781873870799039 0 0 0
1885 1 31.721422232240002 0 1.7818738707990391 0 0 0
1891 1 34.893564455464 0 1.7818738707990391 0 0 0
1880 1 30.135351120628002 2.747155749728999 1.7818738707990391 0 0 0
1889 4 31.721422232240002 1.8314371664859865 0.024483079195767272 0 0 0
1886 1 33.307493343852 2.747155749728999 1.7818738707990391 0 0 0
1895 4 34.893564455464 1.8314371664859865 0.024483079195767272 0 0 0
1884 4 30.135351120628002 4.578592916214987 0.024483079195766973 0 0 0
1890 4 33.307493343852 4.578592916214987 0.024483079195767008 0 0 0
2077 1 31.721422232240002 5.494311499457999 1.781873870799039 0 0 0
2083 1 34.893564455464 5.494311499457999 1.781873870799039 0 0 0
1897 1 38.065706678688 0 1.7818738707990391 0 0 0
1903 1 41.237848901912 0 1.7818738707990391 0 0 0
1892 1 36.479635567076 2.747155749728999 1.7818738707990391 0 0 0
1901 4 38.065706678688 1.8314371664859868 0.024483079195767237 0 0 0
1898 1 39.6517777903 2.747155749728999 1.7818738707990391 0 0 0
1907 4 41.237848901912 1.8314371664859868 0.024483079195767237 0 0 0
1896 4 36.479635567076 4.578592916214987 0.024483079195766973 0 0 0
1902 4 39.6517777903 4.578592916214987 0.024483079195766973 0 0 0
2089 1 38.065706678688 5.494311499457999 1.781873870799039 0 0 0
2095 1 41.237848901912 5.494311499457999 1.781873870799039 0 0 0
1909 1 44.409991125136 0 1.7818738707990391 0 0 0
1915 1 47.58213334836 0 1.7818738707990391 0 0 0
1904 1 42.823920013524 2.747155749728999 1.7818738707990391 0 0 0
1913 4 44.409991125136 1.8314371664859868 0.024483079195767237 0 0 0
1910 1 45.996062236748 2.747155749728999 1.7818738707990391 0 0 0
1919 4 47.58213334836 1.8314371664859868 0.024483079195767237 0 0 0
1908 4 42.823920013524 4.578592916214987 0.024483079195766973 0 0 0
1914 4 45.996062236748 4.578592916214987 0.024483079195766973 0 0 0
2101 1 44.409991125136 5.494311499457999 1.781873870799039 0 0 0
2107 1 47.58213334836 5.494311499457999 1.781873870799039 0 0 0
1729 1 50.754275571584 0 1.7818738707990391 -1 0 0
1916 1 49.168204459972 2.747155749728999 1.7818738707990391 0 0 0
1733 4 50.754275571584 1.8314371664859868 0.024483079195767237 -1 0 0
1730 1 52.340346683196 2.747155749728999 1.7818738707990391 -1 0 0
1920 4 49.168204459972 4.578592916214987 0.024483079195766973 0 0 0
1734 4 52.340346683196 4.578592916214987 0.024483079195766973 -1 0 0
1921 1 50.754275571584 5.494311499457999 1.781873870799039 -1 0 0
1735 1 53.926417794808 0 1.7818738707990391 -1 0 0
1741 1 57.098560018032 0 1.7818738707990391 -1 0 0
1739 4 53.926417794808 1.8314371664859868 0.024483079195767237 -1 0 0
1736 1 55.51248890642 2.747155749728999 1.7818738707990391 -1 0 0
1745 4 57.098560018032 1.8314371664859868 0.024483079195767237 -1 0 0
1742 1 58.684631129644 2.747155749728999 1.7818738707990391 -1 0 0
1740 4 55.51248890642 4.578592916214987 0.024483079195766973 -1 0 0
1746 4 58.684631129644 4.578592916214987 0.024483079195766973 -1 0 0
1927 1 53.926417794808 5.494311499457999 1.781873870799039 -1 0 0
1933 1 57.098560018032 5.494311499457999 1.781873870799039 -1 0 0
1747 1 60.270702241256004 0 1.7818738707990391 -1 0 0
1753 1 63.442844464480004 0 1.7818738707990391 -1 0 0
1751 4 60.270702241256004 1.8314371664859868 0.024483079195767237 -1 0 0
1748 1 61.856773352868004 2.747155749728999 1.7818738707990391 -1 0 0
1757 4 63.442844464480004 1.8314371664859868 0.024483079195767237 -1 0 0
1754 1 65.028915576092 2.747155749728999 1.7818738707990391 -1 0 0
1752 4 61.856773352868004 4.578592916214987 0.024483079195766973 -1 0 0
1758 4 65.028915576092 4.578592916214987 0.024483079195766973 -1 0 0
1939 1 60.270702241256004 5.494311499457999 1.781873870799039 -1 0 0
1945 1 63.442844464480004 5.494311499457999 1.781873870799039 -1 0 0
1759 1 66.614986687704 0 1.7818738707990391 -1 0 0
1765 1 69.787128910928 0 1.7818738707990391 -1 0 0
1763 4 66.614986687704 1.8314371664859868 0.024483079195767237 -1 0 0
1760 1 68.201057799316 2.747155749728999 1.7818738707990391 -1 0 0
1769 4 69.787128910928 1.8314371664859868 0.024483079195767237 -1 0 0
1766 1 71.37320002254 2.747155749728999 1.7818738707990391 -1 0 0
1764 4 68.201057799316 4.578592916214987 0.024483079195766973 -1 0 0
1770 4 71.37320002254 4.578592916214987 0.024483079195766973 -1 0 0
1951 1 66.614986687704 5.494311499457999 1.781873870799039 -1 0 0
1957 1 69.787128910928 5.494311499457999 1.781873870799039 -1 0 0
1771 1 72.959271134152 0 1.7818738707990391 -1 0 0
1777 1 76.131413357376 0 1.7818738707990391 -1 0 0
1775 4 72.959271134152 1.8314371664859868 0.024483079195767237 -1 0 0
1772 1 74.545342245764 2.747155749728999 1.7818738707990391 -1 0 0
1781 4 76.131413357376 1.8314371664859868 0.024483079195767237 -1 0 0
1776 4 74.545342245764 4.578592916214987 0.024483079195766973 -1 0 0
1963 1 72.959271134152 5.494311499457999 1.781873870799039 -1 0 0
1969 1 76.131413357376 5.494311499457999 1.781873870799039 -1 0 0
1783 1 79.3035555806 0 1.7818738707990391 -1 0 0
1789 1 82.475697803824 0 1.7818738707990391 -1 0 0
1778 1 77.717484468988 2.747155749728999 1.7818738707990391 -1 0 0
1787 4 79.3035555806 1.8314371664859868 0.024483079195767237 -1 0 0
1784 1 80.889626692212 2.747155749728999 1.7818738707990391 -1 0 0
1793 4 82.475697803824 1.8314371664859868 0.024483079195767237 -1 0 0
1782 4 77.717484468988 4.578592916214987 0.024483079195766973 -1 0 0
1788 4 80.889626692212 4.578592916214987 0.024483079195766973 -1 0 0
1975 1 79.3035555806 5.494311499457999 1.781873870799039 -1 0 0
1981 1 82.475697803824 5.494311499457999 1.781873870799039 -1 0 0
1795 1 85.647840027048 0 1.7818738707990391 -1 0 0
1801 1 88.819982250272 0 1.7818738707990391 -1 0 0
1790 1 84.061768915436 2.747155749728999 1.7818738707990391 -1 0 0
1799 4 85.647840027048 1.8314371664859868 0.024483079195767237 -1 0 0
1796 1 87.23391113866 2.747155749728999 1.7818738707990391 -1 0 0
1805 4 88.819982250272 1.8314371664859868 0.024483079195767237 -1 0 0
1794 4 84.061768915436 4.578592916214987 0.024483079195766973 -1 0 0
1800 4 87.23391113866 4.578592916214987 0.024483079195766973 -1 0 0
1987 1 85.647840027048 5.494311499457999 1.781873870799039 -1 0 0
1993 1 88.819982250272 5.494311499457999 1.781873870799039 -1 0 0
1807 1 91.992124473496 0 1.7818738707990391 -1 0 0
1813 1 95.16426669672 0 1.7818738707990391 -1 0 0
1802 1 90.406053361884 2.747155749728999 1.7818738707990391 -1 0 0
1811 4 91.992124473496 1.8314371664859868 0.024483079195767237 -1 0 0
1808 1 93.578195585108 2.747155749728999 1.7818738707990391 -1 0 0
1817 4 95.16426669672 1.8314371664859868 0.024483079195767237 -1 0 0
1806 4 90.406053361884 4.578592916214987 0.024483079195766973 -1 0 0
1812 4 93.578195585108 4.578592916214987 0.024483079195766973 -1 0 0
1999 1 91.992124473496 5.494311499457999 1.781873870799039 -1 0 0
2005 1 95.16426669672 5.494311499457999 1.781873870799039 -1 0 0
1819 1 98.336408919944 0 1.7818738707990391 -1 0 0
1814 1 96.750337808332 2.747155749728999 1.7818738707990391 -1 0 0
1823 4 98.336408919944 1.8314371664859865 0.024483079195767272 -1 0 0
1820 1 99.922480031556 2.747155749728999 1.7818738707990391 -1 0 0
1818 4 96.750337808332 4.578592916214987 0.024483079195766963 -1 0 0
1824 4 99.922480031556 4.578592916214987 0.024483079195766883 -1 0 0
2011 1 98.336408919944 5.494311499457999 1.781873870799039 -1 0 0
2021 4 0 7.325748665943986 0.024483079195766876 0 0 0
2018 1 1.586071111612 8.241467249186998 1.7818738707990391 0 0 0
2027 4 3.172142223224 7.325748665943986 0.024483079195766883 0 0 0
2024 1 4.758213334836 8.241467249186998 1.7818738707990391 0 0 0
2022 4 1.586071111612 10.072904415672987 0.024483079195766973 0 0 0
2028 4 4.758213334836 10.072904415672987 0.02448307919576699 0 0 0
2209 1 0 10.988622998916 1.781873870799039 0 0 0
2215 1 3.172142223224 10.988622998916 1.781873870799039 0 0 0
2033 4 6.344284446448 7.325748665943986 0.024483079195767258 0 0 0
2030 1 7.930355558059999 8.241467249186998 1.781873870799039 0 0 0
2039 4 9.516426669671993 7.325748665943986 0.0244830791957674 0 0 0
2036 1 11.102497781283995 8.241467249186998 1.7818738707990391 0 0 0
2034 4 7.930355558059999 10.072904415672987 0.024483079195767365 0 0 0
2040 4 11.102497781283994 10.072904415672987 0.02448307919576678 0 0 0
2221 1 6.3442844464479995 10.988622998916 1.781873870799039 0 0 0
2227 1 9.516426669671995 10.988622998916 1.781873870799039 0 0 0
2045 4 12.688568892895994 7.325748665943986 0.02448307919576642 0 0 0
2042 1 14.274640004507999 8.241467249186998 1.7818738707990391 0 0 0
2051 4 15.860711116120001 7.325748665943986 0.02448307919576665 0 0 0
2048 1 17.446782227732 8.241467249186998 1.7818738707990391 0 0 0
2046 4 14.274640004508 10.072904415672987 0.02448307919576651 0 0 0
2052 4 17.446782227732 10.072904415672987 0.02448307919576689 0 0 0
2233 1 12.688568892895995 10.988622998916 1.781873870799039 0 0 0
2239 1 15.860711116120001 10.988622998916 1.7818738707990391 0 0 0
2057 4 19.032853339344 7.325748665943986 0.02448307919576689 0 0 0
2054 1 20.618924450956 8.241467249186998 1.7818738707990391 0 0 0
2063 4 22.204995562568 7.325748665943986 0.024483079195766887 0 0 0
2060 1 23.79106667418 8.241467249186998 1.7818738707990391 0 0 0
2058 4 20.618924450956 10.072904415672987 0.02448307919576698 0 0 0
2064 4 23.79106667418 10.072904415672987 0.024483079195766984 0 0 0
2245 1 19.032853339344 10.988622998916 1.7818738707990391 0 0 0
2251 1 22.204995562568 10.988622998916 1.781873870799039 0 0 0
2069 4 25.377137785792 7.325748665943986 0.024483079195766887 0 0 0
2066 1 26.963208897404 8.241467249186998 1.7818738707990391 0 0 0
2075 4 28.549280009016 7.325748665943986 0.024483079195766887 0 0 0
2070 4 26.963208897404 10.072904415672987 0.024483079195766984 0 0 0
2257 1 25.377137785792 10.988622998916 1.781873870799039 0 0 0
2263 1 28.549280009016 10.988622998916 1.781873870799039 0 0 0
2072 1 30.135351120628002 8.241467249186998 1.7818738707990391 0 0 0
2081 4 31.721422232240002 7.325748665943986 0.024483079195766887 0 0 0
2078 1 33.307493343852 8.241467249186998 1.7818738707990391 0 0 0
2087 4 34.893564455464 7.325748665943986 0.024483079195766887 0 0 0
2076 4 30.135351120628002 10.072904415672987 0.024483079195766984 0 0 0
2082 4 33.307493343852 10.072904415672987 0.024483079195766984 0 0 0
2269 1 31.721422232240002 10.988622998916 1.781873870799039 0 0 0
2275 1 34.893564455464 10.988622998916 1.781873870799039 0 0 0
2084 1 36.479635567076 8.241467249186998 1.7818738707990391 0 0 0
2093 4 38.065706678688 7.325748665943986 0.024483079195766887 0 0 0
2090 1 39.6517777903 8.241467249186998 1.7818738707990391 0 0 0
2099 4 41.237848901912 7.325748665943986 0.024483079195766887 0 0 0
2088 4 36.479635567076 10.072904415672987 0.024483079195766984 0 0 0
2094 4 39.6517777903 10.072904415672987 0.024483079195766984 0 0 0
2281 1 38.065706678688 10.988622998916 1.781873870799039 0 0 0
2287 1 41.237848901912 10.988622998916 1.781873870799039 0 0 0
2096 1 42.823920013524 8.241467249186998 1.7818738707990391 0 0 0
2105 4 44.409991125136 7.325748665943986 0.024483079195766887 0 0 0
2102 1 45.996062236748 8.241467249186998 1.7818738707990391 0 0 0
2111 4 47.58213334836 7.325748665943986 0.024483079195766887 0 0 0
2100 4 42.823920013524 10.072904415672987 0.024483079195766984 0 0 0
2106 4 45.996062236748 10.072904415672987 0.024483079195766984 0 0 0
2293 1 44.409991125136 10.988622998916 1.781873870799039 0 0 0
2299 1 47.58213334836 10.988622998916 1.781873870799039 0 0 0
2108 1 49.168204459972 8.241467249186998 1.7818738707990391 0 0 0
1925 4 50.754275571584 7.325748665943986 0.02448307919576688 -1 0 0
1922 1 52.340346683196 8.241467249186998 1.7818738707990391 -1 0 0
2112 4 49.168204459972 10.072904415672987 0.024483079195766984 0 0 0
1926 4 52.340346683196 10.072904415672987 0.024483079195766984 -1 0 0
2113 1 50.754275571584 10.988622998916 1.781873870799039 -1 0 0
1931 4 53.926417794808 7.325748665943986 0.024483079195766887 -1 0 0
1928 1 55.51248890642 8.241467249186998 1.7818738707990391 -1 0 0
1937 4 57.098560018032 7.325748665943986 0.024483079195766887 -1 0 0
1934 1 58.684631129644 8.241467249186998 1.7818738707990391 -1 0 0
1932 4 55.51248890642 10.072904415672987 0.024483079195766984 -1 0 0
1938 4 58.684631129644 10.072904415672987 0.024483079195766984 -1 0 0
2119 1 53.926417794808 10.988622998916 1.781873870799039 -1 0 0
2125 1 57.098560018032 10.988622998916 1.781873870799039 -1 0 0
1943 4 60.270702241256004 7.325748665943986 0.024483079195766887 -1 0 0
1940 1 61.856773352868004 8.241467249186998 1.7818738707990391 -1 0 0
1949 4 63.442844464480004 7.325748665943986 0.024483079195766887 -1 0 0
1946 1 65.028915576092 8.241467249186998 1.7818738707990391 -1 0 0
1944 4 61.856773352868004 10.072904415672987 0.024483079195766984 -1 0 0
1950 4 65.028915576092 10.072904415672987 0.024483079195766984 -1 0 0
2131 1 60.270702241256004 10.988622998916 1.781873870799039 -1 0 0
2137 1 63.442844464480004 10.988622998916 1.781873870799039 -1 0 0
1955 4 66.614986687704 7.325748665943986 0.024483079195766887 -1 0 0
1952 1 68.201057799316 8.241467249186998 1.7818738707990391 -1 0 0
1961 4 69.787128910928 7.325748665943986 0.024483079195766887 -1 0 0
1958 1 71.37320002254 8.241467249186998 1.7818738707990391 -1 0 0
1956 4 68.201057799316 10.072904415672987 0.024483079195766984 -1 0 0
1962 4 71.37320002254 10.072904415672987 0.024483079195766984 -1 0 0
2143 1 66.614986687704 10.988622998916 1.781873870799039 -1 0 0
2149 1 69.787128910928 10.988622998916 1.781873870799039 -1 0 0
1967 4 72.959271134152 7.325748665943986 0.024483079195766887 -1 0 0
1964 1 74.545342245764 8.241467249186998 1.7818738707990391 -1 0 0
1973 4 76.131413357376 7.325748665943986 0.024483079195766887 -1 0 0
1968 4 74.545342245764 10.072904415672987 0.024483079195766984 -1 0 0
2155 1 72.959271134152 10.988622998916 1.781873870799039 -1 0 0
2161 1 76.131413357376 10.988622998916 1.781873870799039 -1 0 0
1970 1 77.717484468988 8.241467249186998 1.7818738707990391 -1 0 0
1979 4 79.3035555806 7.325748665943986 0.024483079195766887 -1 0 0
1976 1 80.889626692212 8.241467249186998 1.7818738707990391 -1 0 0
1985 4 82.475697803824 7.325748665943986 0.024483079195766887 -1 0 0
1974 4 77.717484468988 10.072904415672987 0.024483079195766984 -1 0 0
1980 4 80.889626692212 10.072904415672987 0.024483079195766984 -1 0 0
2167 1 79.3035555806 10.988622998916 1.781873870799039 -1 0 0
2173 1 82.475697803824 10.988622998916 1.781873870799039 -1 0 0
1982 1 84.061768915436 8.241467249186998 1.7818738707990391 -1 0 0
1991 4 85.647840027048 7.325748665943986 0.024483079195766887 -1 0 0
1988 1 87.23391113866 8.241467249186998 1.7818738707990391 -1 0 0
1997 4 88.819982250272 7.325748665943986 0.024483079195766887 -1 0 0
1986 4 84.061768915436 10.072904415672987 0.024483079195766984 -1 0 0
1992 4 87.23391113866 10.072904415672987 0.024483079195766984 -1 0 0
2179 1 85.647840027048 10.988622998916 1.781873870799039 -1 0 0
2185 1 88.819982250272 10.988622998916 1.781873870799039 -1 0 0
1994 1 90.406053361884 8.241467249186998 1.7818738707990391 -1 0 0
2003 4 91.992124473496 7.325748665943986 0.024483079195766887 -1 0 0
2000 1 93.578195585108 8.241467249186998 1.7818738707990391 -1 0 0
2009 4 95.16426669672 7.325748665943986 0.024483079195766887 -1 0 0
1998 4 90.406053361884 10.072904415672987 0.024483079195766984 -1 0 0
2004 4 93.578195585108 10.072904415672987 0.024483079195766984 -1 0 0
2191 1 91.992124473496 10.988622998916 1.781873870799039 -1 0 0
2197 1 95.16426669672 10.988622998916 1.781873870799039 -1 0 0
2006 1 96.750337808332 8.241467249186998 1.7818738707990391 -1 0 0
2015 4 98.336408919944 7.325748665943986 0.024483079195766873 -1 0 0
2012 1 99.922480031556 8.241467249186998 1.7818738707990391 -1 0 0
2010 4 96.750337808332 10.072904415672987 0.024483079195766973 -1 0 0
2016 4 99.922480031556 10.072904415672987 0.024483079195766862 -1 0 0
2203 1 98.336408919944 10.988622998916 1.781873870799039 -1 0 0
2213 4 0 12.820060165401985 0.024483079195767445 0 0 0
2210 1 1.586071111612 13.735778748644998 1.7818738707990396 0 0 0
2219 4 3.172142223224 12.820060165401985 0.024483079195767442 0 0 0
2216 1 4.758213334836 13.735778748644998 1.7818738707990396 0 0 0
2214 4 1.586071111612 15.567215915130985 0.024483079195767005 0 0 0
2220 4 4.758213334836 15.567215915130985 0.024483079195767022 0 0 0
2401 1 0 16.482934498374 1.7818738707990387 0 0 0
2407 1 3.172142223224 16.482934498374 1.7818738707990387 0 0 0
2225 4 6.344284446448 12.820060165401985 0.0244830791957677 0 0 0
2222 1 7.930355558059999 13.735778748644998 1.7818738707990396 0 0 0
2231 4 9.516426669671993 12.820060165401985 0.024483079195767973 0 0 0
2228 1 11.102497781283995 13.735778748644998 1.7818738707990394 0 0 0
2226 4 7.930355558059999 15.567215915130985 0.024483079195767428 0 0 0
2232 4 11.102497781283994 15.567215915130985 0.024483079195767036 0 0 0
2413 1 6.3442844464479995 16.482934498374 1.7818738707990387 0 0 0
2419 1 9.516426669671995 16.482934498374 1.7818738707990387 0 0 0
2237 4 12.688568892895994 12.820060165401985 0.024483079195766914 0 0 0
2234 1 14.274640004507999 13.735778748644998 1.7818738707990394 0 0 0
2243 4 15.860711116120001 12.820060165401985 0.024483079195767175 0 0 0
2240 1 17.446782227732 13.735778748644998 1.7818738707990394 0 0 0
2238 4 14.274640004508 15.567215915130985 0.02448307919576659 0 0 0
2244 4 17.446782227732 15.567215915130985 0.02448307919576705 0 0 0
2425 1 12.688568892895995 16.482934498374 1.781873870799039 0 0 0
2431 1 15.860711116120001 16.482934498374 1.7818738707990387 0 0 0
2249 4 19.032853339344 12.820060165401985 0.024483079195767452 0 0 0
2246 1 20.618924450956 13.735778748644998 1.7818738707990396 0 0 0
2255 4 22.204995562568 12.820060165401985 0.024483079195767445 0 0 0
2252 1 23.79106667418 13.735778748644998 1.7818738707990396 0 0 0
2250 4 20.618924450956 15.567215915130985 0.024483079195767005 0 0 0
2256 4 23.79106667418 15.567215915130985 0.024483079195767005 0 0 0
2437 1 19.032853339344 16.482934498374 1.7818738707990387 0 0 0
2443 1 22.204995562568 16.482934498374 1.7818738707990387 0 0 0
2261 4 25.377137785792 12.820060165401985 0.024483079195767445 0 0 0
2258 1 26.963208897404 13.735778748644998 1.7818738707990396 0 0 0
2267 4 28.549280009016 12.820060165401985 0.024483079195767445 0 0 0
2262 4 26.963208897404 15.567215915130985 0.024483079195767005 0 0 0
2449 1 25.377137785792 16.482934498374 1.7818738707990387 0 0 0
2455 1 28.549280009016 16.482934498374 1.7818738707990387 0 0 0
2264 1 30.135351120628002 13.735778748644998 1.7818738707990396 0 0 0
2273 4 31.721422232240002 12.820060165401985 0.024483079195767445 0 0 0
2270 1 33.307493343852 13.735778748644998 1.7818738707990396 0 0 0
2279 4 34.893564455464 12.820060165401985 0.024483079195767445 0 0 0
2268 4 30.135351120628002 15.567215915130985 0.024483079195767005 0 0 0
2274 4 33.307493343852 15.567215915130985 0.024483079195767008 0 0 0
2461 1 31.721422232240002 16.482934498374 1.7818738707990387 0 0 0
2467 1 34.893564455464 16.482934498374 1.7818738707990387 0 0 0
2276 1 36.479635567076 13.735778748644998 1.7818738707990396 0 0 0
2285 4 38.065706678688 12.820060165401985 0.024483079195767445 0 0 0
2282 1 39.6517777903 13.735778748644998 1.7818738707990396 0 0 0
2291 4 41.237848901912 12.820060165401985 0.024483079195767445 0 0 0
2280 4 36.479635567076 15.567215915130985 0.024483079195767005 0 0 0
2286 4 39.6517777903 15.567215915130985 0.024483079195767005 0 0 0
2473 1 38.065706678688 16.482934498374 1.7818738707990387 0 0 0
2479 1 41.237848901912 16.482934498374 1.7818738707990387 0 0 0
2288 1 42.823920013524 13.735778748644998 1.7818738707990396 0 0 0
2297 4 44.409991125136 12.820060165401985 0.024483079195767445 0 0 0
2294 1 45.996062236748 13.735778748644998 1.7818738707990396 0 0 0
2303 4 47.58213334836 12.820060165401985 0.024483079195767445 0 0 0
2292 4 42.823920013524 15.567215915130985 0.024483079195767005 0 0 0
2298 4 45.996062236748 15.567215915130985 0.024483079195767005 0 0 0
2485 1 44.409991125136 16.482934498374 1.7818738707990387 0 0 0
2491 1 47.58213334836 16.482934498374 1.7818738707990387 0 0 0
2300 1 49.168204459972 13.735778748644998 1.7818738707990396 0 0 0
2117 4 50.754275571584 12.820060165401985 0.024483079195767445 -1 0 0
2114 1 52.340346683196 13.735778748644998 1.7818738707990396 -1 0 0
2304 4 49.168204459972 15.567215915130985 0.024483079195767005 0 0 0
2118 4 52.340346683196 15.567215915130985 0.024483079195767005 -1 0 0
2305 1 50.754275571584 16.482934498374 1.7818738707990387 -1 0 0
2123 4 53.926417794808 12.820060165401985 0.024483079195767445 -1 0 0
2120 1 55.51248890642 13.735778748644998 1.7818738707990396 -1 0 0
2129 4 57.098560018032 12.820060165401985 0.024483079195767445 -1 0 0
2126 1 58.684631129644 13.735778748644998 1.7818738707990396 -1 0 0
2124 4 55.51248890642 15.567215915130985 0.024483079195767005 -1 0 0
2130 4 58.684631129644 15.567215915130985 0.024483079195767005 -1 0 0
2311 1 53.926417794808 16.482934498374 1.7818738707990387 -1 0 0
2317 1 57.098560018032 16.482934498374 1.7818738707990387 -1 0 0
2135 4 60.270702241256004 12.820060165401985 0.024483079195767445 -1 0 0
2132 1 61.856773352868004 13.735778748644998 1.7818738707990396 -1 0 0
2141 4 63.442844464480004 12.820060165401985 0.024483079195767445 -1 0 0
2138 1 65.028915576092 13.735778748644998 1.7818738707990396 -1 0 0
2136 4 61.856773352868004 15.567215915130985 0.024483079195767005 -1 0 0
2142 4 65.028915576092 15.567215915130985 0.024483079195767005 -1 0 0
2323 1 60.270702241256004 16.482934498374 1.7818738707990387 -1 0 0
2329 1 63.442844464480004 16.482934498374 1.7818738707990387 -1 0 0
2147 4 66.614986687704 12.820060165401985 0.024483079195767445 -1 0 0
2144 1 68.201057799316 13.735778748644998 1.7818738707990396 -1 0 0
2153 4 69.787128910928 12.820060165401985 0.024483079195767445 -1 0 0
2150 1 71.37320002254 13.735778748644998 1.7818738707990396 -1 0 0
2148 4 68.201057799316 15.567215915130985 0.024483079195767005 -1 0 0
2154 4 71.37320002254 15.567215915130985 0.024483079195767005 -1 0 0
2335 1 66.614986687704 16.482934498374 1.7818738707990387 -1 0 0
2341 1 69.787128910928 16.482934498374 1.7818738707990387 -1 0 0
2159 4 72.959271134152 12.820060165401985 0.024483079195767445 -1 0 0
2156 1 74.545342245764 13.735778748644998 1.7818738707990396 -1 0 0
2165 4 76.131413357376 12.820060165401985 0.024483079195767445 -1 0 0
2160 4 74.545342245764 15.567215915130985 0.024483079195767005 -1 0 0
2347 1 72.959271134152 16.482934498374 1.7818738707990387 -1 0 0
2353 1 76.131413357376 16.482934498374 1.7818738707990387 -1 0 0
2162 1 77.717484468988 13.735778748644998 1.7818738707990396 -1 0 0
2171 4 79.3035555806 12.820060165401985 0.024483079195767445 -1 0 0
2168 1 80.889626692212 13.735778748644998 1.7818738707990396 -1 0 0
2177 4 82.475697803824 12.820060165401985 0.024483079195767445 -1 0 0
2166 4 77.717484468988 15.567215915130985 0.024483079195767005 -1 0 0
2172 4 80.889626692212 15.567215915130985 0.024483079195767005 -1 0 0
2359 1 79.3035555806 16.482934498374 1.7818738707990387 -1 0 0
2365 1 82.475697803824 16.482934498374 1.7818738707990387 -1 0 0
2174 1 84.061768915436 13.735778748644998 1.7818738707990396 -1 0 0
2183 4 85.647840027048 12.820060165401985 0.024483079195767445 -1 0 0
2180 1 87.23391113866 13.735778748644998 1.7818738707990396 -1 0 0
2189 4 88.819982250272 12.820060165401985 0.024483079195767445 -1 0 0
2178 4 84.061768915436 15.567215915130985 0.024483079195767005 -1 0 0
2184 4 87.23391113866 15.567215915130985 0.024483079195767005 -1 0 0
2371 1 85.647840027048 16.482934498374 1.7818738707990387 -1 0 0
2377 1 88.819982250272 16.482934498374 1.7818738707990387 -1 0 0
2186 1 90.406053361884 13.735778748644998 1.7818738707990396 -1 0 0
2195 4 91.992124473496 12.820060165401985 0.024483079195767445 -1 0 0
2192 1 93.578195585108 13.735778748644998 1.7818738707990396 -1 0 0
2201 4 95.16426669672 12.820060165401985 0.024483079195767445 -1 0 0
2190 4 90.406053361884 15.567215915130985 0.024483079195767005 -1 0 0
2196 4 93.578195585108 15.567215915130985 0.024483079195767005 -1 0 0
2383 1 91.992124473496 16.482934498374 1.7818738707990387 -1 0 0
2389 1 95.16426669672 16.482934498374 1.7818738707990387 -1 0 0
2198 1 96.750337808332 13.735778748644998 1.7818738707990396 -1 0 0
2207 4 98.336408919944 12.820060165401985 0.02448307919576744 -1 0 0
2204 1 99.922480031556 13.735778748644998 1.7818738707990396 -1 0 0
2202 4 96.750337808332 15.567215915130985 0.024483079195767005 -1 0 0
2208 4 99.922480031556 15.567215915130985 0.02448307919576701 -1 0 0
2395 1 98.336408919944 16.482934498374 1.7818738707990387 -1 0 0
2405 4 3.6040022689894284e-20 18.314371664859987 0.024483079195766127 0 0 0
2402 1 1.586071111612 19.230090248103 1.7818738707990385 0 0 0
2411 4 3.172142223224 18.314371664859987 0.02448307919576611 0 0 0
2408 1 4.758213334836 19.230090248103 1.7818738707990383 0 0 0
2406 4 1.586071111612 21.061527414588987 0.02448307919576651 0 0 0
2412 4 4.758213334836 21.061527414588987 0.024483079195766512 0 0 0
2593 1 0 21.977245997831997 1.781873870799039 0 0 0
2599 1 3.172142223224 21.977245997831997 1.781873870799039 0 0 0
2417 4 6.344284446448 18.314371664859987 0.024483079195766574 0 0 0
2414 1 7.930355558059999 19.230090248103 1.7818738707990383 0 0 0
2423 4 9.516426669671993 18.314371664859987 0.024483079195766713 0 0 0
2420 1 11.102497781283995 19.230090248103 1.7818738707990383 0 0 0
2418 4 7.930355558059999 21.061527414588987 0.024483079195766966 0 0 0
2424 4 11.102497781283994 21.061527414588987 0.024483079195766564 0 0 0
2605 1 6.3442844464479995 21.977245997831997 1.7818738707990391 0 0 0
2611 1 9.516426669671995 21.977245997831997 1.7818738707990391 0 0 0
2429 4 12.688568892895994 18.314371664859987 0.024483079195765818 0 0 0
2426 1 14.274640004507999 19.230090248103 1.7818738707990385 0 0 0
2435 4 15.860711116120001 18.314371664859987 0.024483079195766005 0 0 0
2432 1 17.446782227732 19.230090248103 1.7818738707990385 0 0 0
2430 4 14.274640004508 21.061527414588987 0.024483079195766172 0 0 0
2436 4 17.446782227732 21.061527414588987 0.02448307919576658 0 0 0
2617 1 12.688568892895995 21.977245997831997 1.781873870799039 0 0 0
2623 1 15.860711116120001 21.977245997831997 1.7818738707990391 0 0 0
2441 4 19.032853339344 18.314371664859987 0.024483079195766127 0 0 0
2438 1 20.618924450956 19.230090248103 1.7818738707990385 0 0 0
2447 4 22.204995562568 18.314371664859987 0.02448307919576612 0 0 0
2444 1 23.79106667418 19.230090248103 1.7818738707990385 0 0 0
2442 4 20.618924450956 21.061527414588987 0.02448307919576651 0 0 0
2448 4 23.79106667418 21.061527414588987 0.02448307919576651 0 0 0
2629 1 19.032853339344 21.977245997831997 1.781873870799039 0 0 0
2635 1 22.204995562568 21.977245997831997 1.781873870799039 0 0 0