LAMMPS data file via write_data, version 29 Aug 2024, timestep = 3, units = metal

10368 atoms
9 atom types

0 101.508551143168 xlo xhi
0 98.897606990244 ylo yhi
-50 50 zlo zhi

Masses

1 186.207
2 186.207
3 186.207
4 78.971
5 78.971
6 78.971
7 78.971
8 78.971
9 78.971

Atoms # atomic

1825 1 0 0 1.7819069734432085 0 0 0
1831 1 3.172142223224 0 1.7819069734432085 0 0 0
1829 5 0 1.8314371664859863 0.024535006135681024 0 0 0
1826 1 1.586071111612 2.747155749728999 1.7819069734432083 0 0 0
1835 5 3.172142223224 1.8314371664859863 0.024535006135681006 0 0 0
1832 1 4.758213334836 2.747155749728999 1.7819069734432083 0 0 0
1830 5 1.586071111612 4.578592916214987 0.024535006135680604 0 0 0
1836 5 4.758213334836 4.578592916214987 0.024535006135680628 0 0 0
2017 1 0 5.494311499457999 1.781906973443208 0 0 0
2023 1 3.172142223224 5.494311499457999 1.781906973443208 0 0 0
1837 1 6.3442844464479995 0 1.7819069734432083 0 0 0
1843 1 9.516426669671995 0 1.7819069734432083 0 0 0
1841 5 6.344284446448 1.8314371664859865 0.02453500613568126 0 0 0
1838 1 7.930355558059999 2.747155749728999 1.7819069734432083 0 0 0
1847 5 9.516426669671993 1.8314371664859863 0.02453500613568142 0 0 0
1844 1 11.102497781283995 2.747155749728999 1.7819069734432085 0 0 0
1842 5 7.930355558059999 4.578592916214987 0.02453500613568096 0 0 0
1848 5 11.102497781283994 4.578592916214987 0.024535006135680548 0 0 0
2029 1 6.3442844464479995 5.494311499457999 1.781906973443208 0 0 0
2035 1 9.516426669671995 5.494311499457999 1.7819069734432083 0 0 0
1849 1 12.688568892895995 0 1.7819069734432085 0 0 0
1855 1 15.860711116120001 0 1.7819069734432083 0 0 0
1853 5 12.688568892895994 1.8314371664859863 0.0245350061356805 0 0 0
1850 1 14.274640004507999 2.747155749728999 1.7819069734432085 0 0 0
1859 5 15.860711116120001 1.8314371664859863 0.024535006135680718 0 0 0
1856 1 17.446782227732 2.747155749728999 1.7819069734432083 0 0 0
1854 5 14.274640004508 4.578592916214987 0.024535006135680108 0 0 0
1860 5 17.446782227732 4.578592916214987 0.0245350061356806 0 0 0
2041 1 12.688568892895995 5.494311499457999 1.781906973443208 0 0 0
2047 1 15.860711116120001 5.494311499457999 1.781906973443208 0 0 0
1861 1 19.032853339344 0 1.7819069734432085 0 0 0
1867 1 22.204995562568 0 1.7819069734432085 0 0 0
1865 5 19.032853339344 1.8314371664859863 0.024535006135680985 0 0 0
1862 1 20.618924450956 2.747155749728999 1.7819069734432085 0 0 0
1871 5 22.204995562568 1.8314371664859863 0.02453500613568102 0 0 0
1868 1 23.79106667418 2.747155749728999 1.7819069734432085 0 0 0
1866 5 20.618924450956 4.578592916214987 0.024535006135680604 0 0 0
1872 5 23.79106667418 4.578592916214987 0.024535006135680604 0 0 0
2053 1 19.032853339344 5.494311499457999 1.781906973443208 0 0 0
2059 1 22.204995562568 5.494311499457999 1.781906973443208 0 0 0
1873 1 25.377137785792 0 1.7819069734432085 0 0 0
1879 1 28.549280009016 0 1.7819069734432085 0 0 0
1877 5 25.377137785792 1.8314371664859863 0.024535006135681024 0 0 0
1874 1 26.963208897404 2.747155749728999 1.7819069734432083 0 0 0
1883 5 28.549280009016 1.8314371664859863 0.02453500613568102 0 0 0
1878 5 26.963208897404 4.578592916214987 0.024535006135680604 0 0 0
2065 1 25.377137785792 5.494311499457999 1.781906973443208 0 0 0
2071 1 28.549280009016 5.494311499457999 1.781906973443208 0 0 0
1885 1 31.721422232240002 0 1.7819069734432085 0 0 0
1891 1 34.893564455464 0 1.7819069734432085 0 0 0
1880 1 30.135351120628002 2.747155749728999 1.7819069734432083 0 0 0
1889 5 31.721422232240002 1.8314371664859863 0.02453500613568102 0 0 0
1886 1 33.307493343852 2.747155749728999 1.7819069734432083 0 0 0
1895 5 34.893564455464 1.8314371664859863 0.024535006135681024 0 0 0
1884 5 30.135351120628002 4.578592916214987 0.024535006135680607 0 0 0
1890 5 33.307493343852 4.578592916214987 0.024535006135680604 0 0 0
2077 1 31.721422232240002 5.494311499457999 1.781906973443208 0 0 0
2083 1 34.893564455464 5.494311499457999 1.781906973443208 0 0 0
1897 1 38.065706678688 0 1.7819069734432085 0 0 0
1903 1 41.237848901912 0 1.7819069734432085 0 0 0
1892 1 36.479635567076 2.747155749728999 1.7819069734432083 0 0 0
1901 5 38.065706678688 1.8314371664859863 0.02453500613568102 0 0 0
1898 1 39.6517777903 2.747155749728999 1.7819069734432083 0 0 0
1907 5 41.237848901912 1.8314371664859863 0.02453500613568102 0 0 0
1896 5 36.479635567076 4.578592916214987 0.024535006135680607 0 0 0
1902 5 39.6517777903 4.578592916214987 0.024535006135680604 0 0 0
2089 1 38.065706678688 5.494311499457999 1.781906973443208 0 0 0
2095 1 41.237848901912 5.494311499457999 1.781906973443208 0 0 0
1909 1 44.409991125136 0 1.7819069734432085 0 0 0
1915 1 47.58213334836 0 1.7819069734432085 0 0 0
1904 1 42.823920013524 2.747155749728999 1.7819069734432083 0 0 0
1913 5 44.409991125136 1.8314371664859863 0.02453500613568102 0 0 0
1910 1 45.996062236748 2.747155749728999 1.7819069734432083 0 0 0
1919 5 47.58213334836 1.8314371664859863 0.02453500613568102 0 0 0
1908 5 42.823920013524 4.578592916214987 0.024535006135680604 0 0 0
1914 5 45.996062236748 4.578592916214987 0.024535006135680604 0 0 0
2101 1 44.409991125136 5.494311499457999 1.781906973443208 0 0 0
2107 1 47.58213334836 5.494311499457999 1.781906973443208 0 0 0
1729 1 50.754275571584 0 1.7819069734432085 -1 0 0
1916 1 49.168204459972 2.747155749728999 1.7819069734432083 0 0 0
1733 5 50.754275571584 1.8314371664859863 0.024535006135681013 -1 0 0
1730 1 52.340346683196 2.747155749728999 1.7819069734432085 -1 0 0
1920 5 49.168204459972 4.578592916214987 0.024535006135680607 0 0 0
1734 5 52.340346683196 4.578592916214987 0.024535006135680604 -1 0 0
1921 1 50.754275571584 5.494311499457999 1.781906973443208 -1 0 0
1735 1 53.926417794808 0 1.7819069734432085 -1 0 0
1741 1 57.098560018032 0 1.7819069734432085 -1 0 0
1739 5 53.926417794808 1.8314371664859863 0.024535006135681024 -1 0 0
1736 1 55.51248890642 2.747155749728999 1.7819069734432083 -1 0 0
1745 5 57.098560018032 1.8314371664859863 0.02453500613568102 -1 0 0
1742 1 58.684631129644 2.747155749728999 1.7819069734432085 -1 0 0
1740 5 55.51248890642 4.578592916214987 0.024535006135680604 -1 0 0
1746 5 58.684631129644 4.578592916214987 0.024535006135680604 -1 0 0
1927 1 53.926417794808 5.494311499457999 1.781906973443208 -1 0 0
1933 1 57.098560018032 5.494311499457999 1.781906973443208 -1 0 0
1747 1 60.270702241256004 0 1.7819069734432085 -1 0 0
1753 1 63.442844464480004 0 1.7819069734432085 -1 0 0
1751 5 60.270702241256004 1.8314371664859863 0.024535006135681024 -1 0 0
1748 1 61.856773352868004 2.747155749728999 1.7819069734432083 -1 0 0
1757 5 63.442844464480004 1.8314371664859863 0.02453500613568102 -1 0 0
1754 1 65.028915576092 2.747155749728999 1.7819069734432085 -1 0 0
1752 5 61.856773352868004 4.578592916214987 0.024535006135680604 -1 0 0
1758 5 65.028915576092 4.578592916214987 0.024535006135680604 -1 0 0
1939 1 60.270702241256004 5.494311499457999 1.781906973443208 -1 0 0
1945 1 63.442844464480004 5.494311499457999 1.781906973443208 -1 0 0
1759 1 66.614986687704 0 1.7819069734432085 -1 0 0
1765 1 69.787128910928 0 1.7819069734432085 -1 0 0
1763 5 66.614986687704 1.8314371664859863 0.024535006135681024 -1 0 0
1760 1 68.201057799316 2.747155749728999 1.7819069734432083 -1 0 0
1769 5 69.787128910928 1.8314371664859863 0.02453500613568102 -1 0 0
1766 1 71.37320002254 2.747155749728999 1.7819069734432085 -1 0 0
1764 5 68.201057799316 4.578592916214987 0.024535006135680604 -1 0 0
1770 5 71.37320002254 4.578592916214987 0.024535006135680604 -1 0 0
1951 1 66.614986687704 5.494311499457999 1.781906973443208 -1 0 0
1957 1 69.787128910928 5.494311499457999 1.781906973443208 -1 0 0
1771 1 72.959271134152 0 1.7819069734432085 -1 0 0
1777 1 76.131413357376 0 1.7819069734432085 -1 0 0
1775 5 72.959271134152 1.8314371664859863 0.024535006135681024 -1 0 0
1772 1 74.545342245764 2.747155749728999 1.7819069734432083 -1 0 0
1781 5 76.131413357376 1.8314371664859863 0.02453500613568102 -1 0 0
1776 5 74.545342245764 4.578592916214987 0.024535006135680604 -1 0 0
1963 1 72.959271134152 5.494311499457999 1.781906973443208 -1 0 0
1969 1 76.131413357376 5.494311499457999 1.781906973443208 -1 0 0
1783 1 79.3035555806 0 1.7819069734432085 -1 0 0
1789 1 82.475697803824 0 1.7819069734432085 -1 0 0
1778 1 77.717484468988 2.747155749728999 1.7819069734432083 -1 0 0
1787 5 79.3035555806 1.8314371664859863 0.02453500613568102 -1 0 0
1784 1 80.889626692212 2.747155749728999 1.7819069734432083 -1 0 0
1793 5 82.475697803824 1.8314371664859863 0.02453500613568102 -1 0 0
1782 5 77.717484468988 4.578592916214987 0.024535006135680607 -1 0 0
1788 5 80.889626692212 4.578592916214987 0.024535006135680604 -1 0 0
1975 1 79.3035555806 5.494311499457999 1.781906973443208 -1 0 0
1981 1 82.475697803824 5.494311499457999 1.781906973443208 -1 0 0
1795 1 85.647840027048 0 1.7819069734432085 -1 0 0
1801 1 88.819982250272 0 1.7819069734432085 -1 0 0
1790 1 84.061768915436 2.747155749728999 1.7819069734432083 -1 0 0
1799 5 85.647840027048 1.8314371664859863 0.02453500613568102 -1 0 0
1796 1 87.23391113866 2.747155749728999 1.7819069734432083 -1 0 0
1805 5 88.819982250272 1.8314371664859863 0.02453500613568102 -1 0 0
1794 5 84.061768915436 4.578592916214987 0.024535006135680607 -1 0 0
1800 5 87.23391113866 4.578592916214987 0.024535006135680604 -1 0 0
1987 1 85.647840027048 5.494311499457999 1.781906973443208 -1 0 0
1993 1 88.819982250272 5.494311499457999 1.781906973443208 -1 0 0
1807 1 91.992124473496 0 1.7819069734432085 -1 0 0
1813 1 95.16426669672 0 1.7819069734432085 -1 0 0
1802 1 90.406053361884 2.747155749728999 1.7819069734432083 -1 0 0
1811 5 91.992124473496 1.8314371664859863 0.02453500613568102 -1 0 0
1808 1 93.578195585108 2.747155749728999 1.7819069734432083 -1 0 0
1817 5 95.16426669672 1.8314371664859863 0.02453500613568102 -1 0 0
1806 5 90.406053361884 4.578592916214987 0.024535006135680607 -1 0 0
1812 5 93.578195585108 4.578592916214987 0.024535006135680604 -1 0 0
1999 1 91.992124473496 5.494311499457999 1.781906973443208 -1 0 0
2005 1 95.16426669672 5.494311499457999 1.781906973443208 -1 0 0
1819 1 98.336408919944 0 1.7819069734432085 -1 0 0
1814 1 96.750337808332 2.747155749728999 1.7819069734432083 -1 0 0
1823 5 98.336408919944 1.8314371664859863 0.02453500613568102 -1 0 0
1820 1 99.922480031556 2.747155749728999 1.7819069734432083 -1 0 0
1818 5 96.750337808332 4.578592916214987 0.024535006135680607 -1 0 0
1824 5 99.922480031556 4.578592916214987 0.024535006135680607 -1 0 0
2011 1 98.336408919944 5.494311499457999 1.781906973443208 -1 0 0
2021 5 0 7.325748665943986 0.024535006135680635 0 0 0
2018 1 1.586071111612 8.241467249186998 1.7819069734432083 0 0 0
2027 5 3.172142223224 7.325748665943986 0.024535006135680625 0 0 0
2024 1 4.758213334836 8.241467249186998 1.781906973443208 0 0 0
2022 5 1.586071111612 10.072904415672987 0.024535006135680486 0 0 0
2028 5 4.758213334836 10.072904415672987 0.024535006135680607 0 0 0
2209 1 0 10.988622998916 1.781906973443208 0 0 0
2215 1 3.172142223224 10.988622998916 1.781906973443208 0 0 0
2033 5 6.344284446448 7.325748665943986 0.0245350061356809 0 0 0
2030 1 7.930355558059999 8.241467249186998 1.7819069734432083 0 0 0
2039 5 9.516426669671993 7.325748665943986 0.024535006135680992 0 0 0
2036 1 11.102497781283995 8.241467249186998 1.7819069734432083 0 0 0
2034 5 7.930355558059999 10.072904415672987 0.024535006135680992 0 0 0
2040 5 11.102497781283994 10.072904415672987 0.02453500613568057 0 0 0
2221 1 6.3442844464479995 10.988622998916 1.781906973443208 0 0 0
2227 1 9.516426669671995 10.988622998916 1.7819069734432083 0 0 0
2045 5 12.688568892895994 7.325748665943986 0.02453500613568009 0 0 0
2042 1 14.274640004507999 8.241467249186998 1.7819069734432083 0 0 0
2051 5 15.860711116120001 7.325748665943986 0.024535006135680326 0 0 0
2048 1 17.446782227732 8.241467249186998 1.7819069734432083 0 0 0
2046 5 14.274640004508 10.072904415672987 0.02453500613568012 0 0 0
2052 5 17.446782227732 10.072904415672987 0.024535006135680538 0 0 0
2233 1 12.688568892895995 10.988622998916 1.781906973443208 0 0 0
2239 1 15.860711116120001 10.988622998916 1.7819069734432083 0 0 0
2057 5 19.032853339344 7.325748665943986 0.024535006135680635 0 0 0
2054 1 20.618924450956 8.241467249186998 1.7819069734432083 0 0 0
2063 5 22.204995562568 7.325748665943986 0.024535006135680635 0 0 0
2060 1 23.79106667418 8.241467249186998 1.7819069734432083 0 0 0
2058 5 20.618924450956 10.072904415672987 0.024535006135680486 0 0 0
2064 5 23.79106667418 10.072904415672987 0.024535006135680486 0 0 0
2245 1 19.032853339344 10.988622998916 1.781906973443208 0 0 0
2251 1 22.204995562568 10.988622998916 1.781906973443208 0 0 0
2069 5 25.377137785792 7.325748665943986 0.024535006135680635 0 0 0
2066 1 26.963208897404 8.241467249186998 1.7819069734432083 0 0 0
2075 5 28.549280009016 7.325748665943986 0.024535006135680635 0 0 0
2070 5 26.963208897404 10.072904415672987 0.024535006135680486 0 0 0
2257 1 25.377137785792 10.988622998916 1.781906973443208 0 0 0
2263 1 28.549280009016 10.988622998916 1.781906973443208 0 0 0
2072 1 30.135351120628002 8.241467249186998 1.7819069734432083 0 0 0
2081 5 31.721422232240002 7.325748665943986 0.024535006135680635 0 0 0
2078 1 33.307493343852 8.241467249186998 1.7819069734432083 0 0 0
2087 5 34.893564455464 7.325748665943986 0.024535006135680635 0 0 0
2076 5 30.135351120628002 10.072904415672987 0.024535006135680486 0 0 0
2082 5 33.307493343852 10.072904415672987 0.024535006135680486 0 0 0
2269 1 31.721422232240002 10.988622998916 1.781906973443208 0 0 0
2275 1 34.893564455464 10.988622998916 1.781906973443208 0 0 0
2084 1 36.479635567076 8.241467249186998 1.7819069734432083 0 0 0
2093 5 38.065706678688 7.325748665943986 0.024535006135680635 0 0 0
2090 1 39.6517777903 8.241467249186998 1.7819069734432083 0 0 0
2099 5 41.237848901912 7.325748665943986 0.024535006135680635 0 0 0
2088 5 36.479635567076 10.072904415672987 0.024535006135680486 0 0 0
2094 5 39.6517777903 10.072904415672987 0.024535006135680486 0 0 0
2281 1 38.065706678688 10.988622998916 1.781906973443208 0 0 0
2287 1 41.237848901912 10.988622998916 1.781906973443208 0 0 0
2096 1 42.823920013524 8.241467249186998 1.7819069734432083 0 0 0
2105 5 44.409991125136 7.325748665943986 0.024535006135680635 0 0 0
2102 1 45.996062236748 8.241467249186998 1.7819069734432083 0 0 0
2111 5 47.58213334836 7.325748665943986 0.024535006135680635 0 0 0
2100 5 42.823920013524 10.072904415672987 0.024535006135680486 0 0 0
2106 5 45.996062236748 10.072904415672987 0.024535006135680486 0 0 0
2293 1 44.409991125136 10.988622998916 1.781906973443208 0 0 0
2299 1 47.58213334836 10.988622998916 1.781906973443208 0 0 0
2108 1 49.168204459972 8.241467249186998 1.7819069734432083 0 0 0
1925 5 50.754275571584 7.325748665943986 0.02453500613568063 -1 0 0
1922 1 52.340346683196 8.241467249186998 1.7819069734432083 -1 0 0
2112 5 49.168204459972 10.072904415672987 0.024535006135680486 0 0 0
1926 5 52.340346683196 10.072904415672987 0.024535006135680486 -1 0 0
2113 1 50.754275571584 10.988622998916 1.781906973443208 -1 0 0
1931 5 53.926417794808 7.325748665943986 0.024535006135680635 -1 0 0
1928 1 55.51248890642 8.241467249186998 1.7819069734432083 -1 0 0
1937 5 57.098560018032 7.325748665943986 0.024535006135680635 -1 0 0
1934 1 58.684631129644 8.241467249186998 1.7819069734432083 -1 0 0
1932 5 55.51248890642 10.072904415672987 0.024535006135680486 -1 0 0
1938 5 58.684631129644 10.072904415672987 0.024535006135680486 -1 0 0
2119 1 53.926417794808 10.988622998916 1.781906973443208 -1 0 0
2125 1 57.098560018032 10.988622998916 1.781906973443208 -1 0 0
1943 5 60.270702241256004 7.325748665943986 0.024535006135680635 -1 0 0
1940 1 61.856773352868004 8.241467249186998 1.7819069734432083 -1 0 0
1949 5 63.442844464480004 7.325748665943986 0.024535006135680635 -1 0 0
1946 1 65.028915576092 8.241467249186998 1.7819069734432083 -1 0 0
1944 5 61.856773352868004 10.072904415672987 0.024535006135680486 -1 0 0
1950 5 65.028915576092 10.072904415672987 0.024535006135680486 -1 0 0
2131 1 60.270702241256004 10.988622998916 1.781906973443208 -1 0 0
2137 1 63.442844464480004 10.988622998916 1.781906973443208 -1 0 0
1955 5 66.614986687704 7.325748665943986 0.024535006135680635 -1 0 0
1952 1 68.201057799316 8.241467249186998 1.7819069734432083 -1 0 0
1961 5 69.787128910928 7.325748665943986 0.024535006135680635 -1 0 0
1958 1 71.37320002254 8.241467249186998 1.7819069734432083 -1 0 0
1956 5 68.201057799316 10.072904415672987 0.024535006135680486 -1 0 0
1962 5 71.37320002254 10.072904415672987 0.024535006135680486 -1 0 0
2143 1 66.614986687704 10.988622998916 1.781906973443208 -1 0 0
2149 1 69.787128910928 10.988622998916 1.781906973443208 -1 0 0
1967 5 72.959271134152 7.325748665943986 0.024535006135680635 -1 0 0
1964 1 74.545342245764 8.241467249186998 1.7819069734432083 -1 0 0
1973 5 76.131413357376 7.325748665943986 0.024535006135680635 -1 0 0
1968 5 74.545342245764 10.072904415672987 0.024535006135680486 -1 0 0
2155 1 72.959271134152 10.988622998916 1.781906973443208 -1 0 0
2161 1 76.131413357376 10.988622998916 1.781906973443208 -1 0 0
1970 1 77.717484468988 8.241467249186998 1.7819069734432083 -1 0 0
1979 5 79.3035555806 7.325748665943986 0.024535006135680635 -1 0 0
1976 1 80.889626692212 8.241467249186998 1.7819069734432083 -1 0 0
1985 5 82.475697803824 7.325748665943986 0.024535006135680635 -1 0 0
1974 5 77.717484468988 10.072904415672987 0.024535006135680486 -1 0 0
1980 5 80.889626692212 10.072904415672987 0.024535006135680486 -1 0 0
2167 1 79.3035555806 10.988622998916 1.781906973443208 -1 0 0
2173 1 82.475697803824 10.988622998916 1.781906973443208 -1 0 0
1982 1 84.061768915436 8.241467249186998 1.7819069734432083 -1 0 0
1991 5 85.647840027048 7.325748665943986 0.024535006135680635 -1 0 0
1988 1 87.23391113866 8.241467249186998 1.7819069734432083 -1 0 0
1997 5 88.819982250272 7.325748665943986 0.024535006135680635 -1 0 0
1986 5 84.061768915436 10.072904415672987 0.024535006135680486 -1 0 0
1992 5 87.23391113866 10.072904415672987 0.024535006135680486 -1 0 0
2179 1 85.647840027048 10.988622998916 1.781906973443208 -1 0 0
2185 1 88.819982250272 10.988622998916 1.781906973443208 -1 0 0
1994 1 90.406053361884 8.241467249186998 1.7819069734432083 -1 0 0
2003 5 91.992124473496 7.325748665943986 0.024535006135680635 -1 0 0
2000 1 93.578195585108 8.241467249186998 1.7819069734432083 -1 0 0
2009 5 95.16426669672 7.325748665943986 0.024535006135680635 -1 0 0
1998 5 90.406053361884 10.072904415672987 0.024535006135680486 -1 0 0
2004 5 93.578195585108 10.072904415672987 0.024535006135680486 -1 0 0
2191 1 91.992124473496 10.988622998916 1.781906973443208 -1 0 0
2197 1 95.16426669672 10.988622998916 1.781906973443208 -1 0 0
2006 1 96.750337808332 8.241467249186998 1.7819069734432083 -1 0 0
2015 5 98.336408919944 7.325748665943986 0.024535006135680635 -1 0 0
2012 1 99.922480031556 8.241467249186998 1.7819069734432083 -1 0 0
2010 5 96.750337808332 10.072904415672987 0.024535006135680486 -1 0 0
2016 5 99.922480031556 10.072904415672987 0.024535006135680493 -1 0 0
2203 1 98.336408919944 10.988622998916 1.781906973443208 -1 0 0
2213 5 0 12.820060165401985 0.02453500613568111 0 0 0
2210 1 1.586071111612 13.735778748644998 1.7819069734432087 0 0 0
2219 5 3.172142223224 12.820060165401985 0.02453500613568108 0 0 0
2216 1 4.758213334836 13.735778748644998 1.7819069734432087 0 0 0
2214 5 1.586071111612 15.567215915130985 0.02453500613568076 0 0 0
2220 5 4.758213334836 15.567215915130985 0.02453500613568072 0 0 0
2401 1 0 16.482934498374 1.7819069734432078 0 0 0
2407 1 3.172142223224 16.482934498374 1.7819069734432078 0 0 0
2225 5 6.3442844464479995 12.820060165401985 0.024535006135681298 0 0 0
2222 1 7.930355558059999 13.735778748644998 1.781906973443209 0 0 0
2231 5 9.516426669671993 12.820060165401985 0.024535006135681513 0 0 0
2228 1 11.102497781283995 13.735778748644998 1.7819069734432087 0 0 0
2226 5 7.930355558059999 15.567215915130985 0.0245350061356811 0 0 0
2232 5 11.102497781283994 15.567215915130985 0.024535006135680597 0 0 0
2413 1 6.3442844464479995 16.482934498374 1.781906973443208 0 0 0
2419 1 9.516426669671995 16.482934498374 1.781906973443208 0 0 0
2237 5 12.688568892895994 12.820060165401985 0.024535006135680593 0 0 0
2234 1 14.274640004507999 13.735778748644998 1.7819069734432087 0 0 0
2243 5 15.860711116120001 12.820060165401985 0.024535006135680878 0 0 0
2240 1 17.446782227732 13.735778748644998 1.7819069734432087 0 0 0
2238 5 14.274640004508 15.567215915130985 0.024535006135680198 0 0 0
2244 5 17.446782227732 15.567215915130985 0.024535006135680704 0 0 0
2425 1 12.688568892895995 16.482934498374 1.781906973443208 0 0 0
2431 1 15.860711116120001 16.482934498374 1.781906973443208 0 0 0
2249 5 19.032853339344 12.820060165401985 0.024535006135681135 0 0 0
2246 1 20.618924450956 13.735778748644998 1.7819069734432085 0 0 0
2255 5 22.204995562568 12.820060165401985 0.02453500613568111 0 0 0
2252 1 23.79106667418 13.735778748644998 1.7819069734432085 0 0 0
2250 5 20.618924450956 15.567215915130985 0.02453500613568076 0 0 0
2256 5 23.79106667418 15.567215915130985 0.02453500613568076 0 0 0
2437 1 19.032853339344 16.482934498374 1.7819069734432078 0 0 0
2443 1 22.204995562568 16.482934498374 1.7819069734432078 0 0 0
2261 5 25.377137785792 12.820060165401985 0.02453500613568111 0 0 0
2258 1 26.963208897404 13.735778748644998 1.7819069734432085 0 0 0
2267 5 28.549280009016 12.820060165401985 0.02453500613568111 0 0 0
2262 5 26.963208897404 15.567215915130985 0.02453500613568076 0 0 0
2449 1 25.377137785792 16.482934498374 1.7819069734432078 0 0 0
2455 1 28.549280009016 16.482934498374 1.7819069734432078 0 0 0
2264 1 30.135351120628002 13.735778748644998 1.7819069734432085 0 0 0
2273 5 31.721422232240002 12.820060165401985 0.02453500613568111 0 0 0
2270 1 33.307493343852 13.735778748644998 1.7819069734432085 0 0 0
2279 5 34.893564455464 12.820060165401985 0.02453500613568111 0 0 0
2268 5 30.135351120628002 15.567215915130985 0.024535006135680756 0 0 0
2274 5 33.307493343852 15.567215915130985 0.02453500613568076 0 0 0
2461 1 31.721422232240002 16.482934498374 1.7819069734432078 0 0 0
2467 1 34.893564455464 16.482934498374 1.7819069734432078 0 0 0
2276 1 36.479635567076 13.735778748644998 1.7819069734432085 0 0 0
2285 5 38.065706678688 12.820060165401985 0.02453500613568111 0 0 0
2282 1 39.6517777903 13.735778748644998 1.7819069734432085 0 0 0
2291 5 41.237848901912 12.820060165401985 0.02453500613568111 0 0 0
2280 5 36.479635567076 15.567215915130985 0.024535006135680756 0 0 0
2286 5 39.6517777903 15.567215915130985 0.02453500613568076 0 0 0
2473 1 38.065706678688 16.482934498374 1.7819069734432078 0 0 0
2479 1 41.237848901912 16.482934498374 1.7819069734432078 0 0 0
2288 1 42.823920013524 13.735778748644998 1.7819069734432085 0 0 0
2297 5 44.409991125136 12.820060165401985 0.02453500613568111 0 0 0
2294 1 45.996062236748 13.735778748644998 1.7819069734432085 0 0 0
2303 5 47.58213334836 12.820060165401985 0.02453500613568111 0 0 0
2292 5 42.823920013524 15.567215915130985 0.024535006135680756 0 0 0
2298 5 45.996062236748 15.567215915130985 0.02453500613568076 0 0 0
2485 1 44.409991125136 16.482934498374 1.7819069734432078 0 0 0
2491 1 47.58213334836 16.482934498374 1.7819069734432078 0 0 0
2300 1 49.168204459972 13.735778748644998 1.7819069734432085 0 0 0
2117 5 50.754275571584 12.820060165401985 0.02453500613568111 -1 0 0
2114 1 52.340346683196 13.735778748644998 1.7819069734432085 -1 0 0
2304 5 49.168204459972 15.567215915130985 0.024535006135680756 0 0 0
2118 5 52.340346683196 15.567215915130985 0.02453500613568076 -1 0 0
2305 1 50.754275571584 16.482934498374 1.7819069734432078 -1 0 0
2123 5 53.926417794808 12.820060165401985 0.02453500613568111 -1 0 0
2120 1 55.51248890642 13.735778748644998 1.7819069734432085 -1 0 0
2129 5 57.098560018032 12.820060165401985 0.02453500613568111 -1 0 0
2126 1 58.684631129644 13.735778748644998 1.7819069734432085 -1 0 0
2124 5 55.51248890642 15.567215915130985 0.02453500613568076 -1 0 0
2130 5 58.684631129644 15.567215915130985 0.02453500613568076 -1 0 0
2311 1 53.926417794808 16.482934498374 1.7819069734432078 -1 0 0
2317 1 57.098560018032 16.482934498374 1.7819069734432078 -1 0 0
2135 5 60.270702241256004 12.820060165401985 0.02453500613568111 -1 0 0
2132 1 61.856773352868004 13.735778748644998 1.7819069734432085 -1 0 0
2141 5 63.442844464480004 12.820060165401985 0.02453500613568111 -1 0 0
2138 1 65.028915576092 13.735778748644998 1.7819069734432085 -1 0 0
2136 5 61.856773352868004 15.567215915130985 0.02453500613568076 -1 0 0
2142 5 65.028915576092 15.567215915130985 0.02453500613568076 -1 0 0
2323 1 60.270702241256004 16.482934498374 1.7819069734432078 -1 0 0
2329 1 63.442844464480004 16.482934498374 1.7819069734432078 -1 0 0
2147 5 66.614986687704 12.820060165401985 0.02453500613568111 -1 0 0
2144 1 68.201057799316 13.735778748644998 1.7819069734432085 -1 0 0
2153 5 69.787128910928 12.820060165401985 0.02453500613568111 -1 0 0
2150 1 71.37320002254 13.735778748644998 1.7819069734432085 -1 0 0
2148 5 68.201057799316 15.567215915130985 0.02453500613568076 -1 0 0
2154 5 71.37320002254 15.567215915130985 0.02453500613568076 -1 0 0
2335 1 66.614986687704 16.482934498374 1.7819069734432078 -1 0 0
2341 1 69.787128910928 16.482934498374 1.7819069734432078 -1 0 0
2159 5 72.959271134152 12.820060165401985 0.02453500613568111 -1 0 0
2156 1 74.545342245764 13.735778748644998 1.7819069734432085 -1 0 0
2165 5 76.131413357376 12.820060165401985 0.02453500613568111 -1 0 0
2160 5 74.545342245764 15.567215915130985 0.02453500613568076 -1 0 0
2347 1 72.959271134152 16.482934498374 1.7819069734432078 -1 0 0
2353 1 76.131413357376 16.482934498374 1.7819069734432078 -1 0 0
2162 1 77.717484468988 13.735778748644998 1.7819069734432085 -1 0 0
2171 5 79.3035555806 12.820060165401985 0.02453500613568111 -1 0 0
2168 1 80.889626692212 13.735778748644998 1.7819069734432085 -1 0 0
2177 5 82.475697803824 12.820060165401985 0.02453500613568111 -1 0 0
2166 5 77.717484468988 15.567215915130985 0.024535006135680756 -1 0 0
2172 5 80.889626692212 15.567215915130985 0.02453500613568076 -1 0 0
2359 1 79.3035555806 16.482934498374 1.7819069734432078 -1 0 0
2365 1 82.475697803824 16.482934498374 1.7819069734432078 -1 0 0
2174 1 84.061768915436 13.735778748644998 1.7819069734432085 -1 0 0
2183 5 85.647840027048 12.820060165401985 0.02453500613568111 -1 0 0
2180 1 87.23391113866 13.735778748644998 1.7819069734432085 -1 0 0
2189 5 88.819982250272 12.820060165401985 0.02453500613568111 -1 0 0
2178 5 84.061768915436 15.567215915130985 0.024535006135680756 -1 0 0
2184 5 87.23391113866 15.567215915130985 0.02453500613568076 -1 0 0
2371 1 85.647840027048 16.482934498374 1.7819069734432078 -1 0 0
2377 1 88.819982250272 16.482934498374 1.7819069734432078 -1 0 0
2186 1 90.406053361884 13.735778748644998 1.7819069734432085 -1 0 0
2195 5 91.992124473496 12.820060165401985 0.02453500613568111 -1 0 0
2192 1 93.578195585108 13.735778748644998 1.7819069734432085 -1 0 0
2201 5 95.16426669672 12.820060165401985 0.02453500613568111 -1 0 0
2190 5 90.406053361884 15.567215915130985 0.024535006135680756 -1 0 0
2196 5 93.578195585108 15.567215915130985 0.02453500613568076 -1 0 0
2383 1 91.992124473496 16.482934498374 1.7819069734432078 -1 0 0
2389 1 95.16426669672 16.482934498374 1.7819069734432078 -1 0 0
2198 1 96.750337808332 13.735778748644998 1.7819069734432085 -1 0 0
2207 5 98.336408919944 12.820060165401985 0.02453500613568111 -1 0 0
2204 1 99.922480031556 13.735778748644998 1.7819069734432085 -1 0 0
2202 5 96.750337808332 15.567215915130985 0.024535006135680756 -1 0 0
2208 5 99.922480031556 15.567215915130985 0.024535006135680763 -1 0 0
2395 1 98.336408919944 16.482934498374 1.7819069734432078 -1 0 0
2405 5 0 18.314371664859987 0.024535006135679917 0 0 0
2402 1 1.586071111612 19.230090248103 1.7819069734432074 0 0 0
2411 5 3.172142223224 18.314371664859987 0.024535006135679927 0 0 0
2408 1 4.758213334836 19.230090248103 1.7819069734432074 0 0 0
2406 5 1.586071111612 21.061527414588987 0.024535006135680305 0 0 0
2412 5 4.758213334836 21.061527414588987 0.02453500613568031 0 0 0
2593 1 0 21.977245997831997 1.7819069734432083 0 0 0
2599 1 3.172142223224 21.977245997831997 1.781906973443208 0 0 0
2417 5 6.3442844464479995 18.314371664859987 0.02453500613568018 0 0 0
2414 1 7.930355558059999 19.230090248103 1.7819069734432076 0 0 0
2423 5 9.516426669671993 18.314371664859987 0.02453500613568038 0 0 0
2420 1 11.102497781283995 19.230090248103 1.7819069734432074 0 0 0
2418 5 7.930355558059999 21.061527414588987 0.024535006135680673 0 0 0
2424 5 11.102497781283994 21.061527414588987 0.02453500613568022 0 0 0
2605 1 6.3442844464479995 21.977245997831997 1.7819069734432083 0 0 0
2611 1 9.516426669671995 21.977245997831997 1.781906973443208 0 0 0
2429 5 12.688568892895994 18.314371664859987 0.02453500613567933 0 0 0
2426 1 14.274640004507999 19.230090248103 1.7819069734432076 0 0 0
2435 5 15.860711116120001 18.314371664859987 0.024535006135679622 0 0 0
2432 1 17.446782227732 19.230090248103 1.7819069734432076 0 0 0
2430 5 14.274640004508 21.061527414588987 0.02453500613567981 0 0 0
2436 5 17.446782227732 21.061527414588987 0.02453500613568022 0 0 0
2617 1 12.688568892895995 21.977245997831997 1.781906973443208 0 0 0
2623 1 15.860711116120001 21.977245997831997 1.7819069734432083 0 0 0
2441 5 19.032853339344 18.314371664859987 0.024535006135679927 0 0 0
2438 1 20.618924450956 19.230090248103 1.7819069734432074 0 0 0
2447 5 22.204995562568 18.314371664859987 0.024535006135679917 0 0 0
2444 1 23.79106667418 19.230090248103 1.7819069734432074 0 0 0
2442 5 20.618924450956 21.061527414588987 0.024535006135680302 0 0 0
2448 5 23.79106667418 21.061527414588987 0.024535006135680305 0 0 0
2629 1 19.032853339344 21.977245997831997 1.7819069734432083 0 0 0
2635 1 22.204995562568 21.977245997831997 1.781906973443208 0 0 0
2453 5 25.377137785792 18.314371664859987 0.024535006135679917 0 0 0