LAMMPS data file via write_data, version 29 Aug 2024, timestep = 2, units = metal

5184 atoms
6 atom types

0 98.608904040213 xlo xhi
0 101.212226297088 ylo yhi
-50 50 zlo zhi

Masses

1 178.49
2 178.49
3 32.06
4 32.06
5 32.06
6 32.06

Atoms # atomic

1385 4 1.8260894382894377 2.108587472303834 0.00880302572452539 0 0 0
1384 1 3.6517222899589776 3.1624059330951146 1.4465777933607513 0 0 0
1391 4 5.4782710694084376 2.1085874723038334 0.008803025724525414 0 0 0
1386 4 3.652180253848931 5.271469544087831 0.008803025724524485 0 0 0
1381 3 3.650542752361516 1.0525944019478848 2.883590944317422 0 0 0
1382 3 1.8244519368022662 4.215476473731885 2.883590944317421 0 0 0
1388 3 5.476633567921266 4.2154764737318855 2.8835909443174215 0 0 0
1390 1 7.303903921077977 3.162405933095115 1.4465777933607513 0 0 0
1397 4 9.130452700527437 2.1085874723038334 0.008803025724525565 0 0 0
1396 1 10.956085552196976 3.1624059330951146 1.446577793360751 0 0 0
1392 4 7.304361884967931 5.271469544087832 0.008803025724525413 0 0 0
1398 4 10.95654351608693 5.271469544087832 0.008803025724525328 0 0 0
1387 3 7.302724383480515 1.0525944019478852 2.883590944317422 0 0 0
1393 3 10.954906014599517 1.0525944019478852 2.883590944317422 0 0 0
1394 3 9.128815199040265 4.215476473731885 2.8835909443174215 0 0 0
1403 4 12.782634331646438 2.1085874723038334 0.008803025724525503 0 0 0
1402 1 14.608267183315979 3.162405933095115 1.4465777933607518 0 0 0
1409 4 16.434815962765438 2.1085874723038334 0.008803025724525515 0 0 0
1404 4 14.608725147205933 5.271469544087833 0.008803025724525558 0 0 0
1399 3 14.607087645718517 1.0525944019478843 2.8835909443174215 0 0 0
1400 3 12.780996830159266 4.215476473731885 2.8835909443174215 0 0 0
1406 3 16.433178461278267 4.215476473731885 2.8835909443174215 0 0 0
1408 1 18.26044881443498 3.1624059330951146 1.4465777933607515 0 0 0
1415 4 20.086997593884437 2.108587472303834 0.008803025724525517 0 0 0
1414 1 21.91263044555398 3.162405933095115 1.4465777933607515 0 0 0
1410 4 18.26090677832493 5.271469544087831 0.008803025724523657 0 0 0
1416 4 21.913088409443933 5.271469544087832 0.00880302572452527 0 0 0
1405 3 18.259269276837518 1.052594401947885 2.883590944317422 0 0 0
1411 3 21.911450907956514 1.0525944019478846 2.8835909443174215 0 0 0
1412 3 20.085360092397266 4.215476473731885 2.8835909443174206 0 0 0
1421 4 23.73917922500344 2.108587472303833 0.00880302572452504 0 0 0
1420 1 25.56481207667298 3.1624059330951146 1.4465777933607515 0 0 0
1427 4 27.391360856122436 2.108587472303834 0.008803025724525562 0 0 0
1422 4 25.56527004056293 5.271469544087831 0.008803025724524328 0 0 0
1417 3 25.563632539075517 1.0525944019478854 2.8835909443174224 0 0 0
1418 3 23.73754172351627 4.215476473731885 2.8835909443174224 0 0 0
1424 3 27.389723354635265 4.215476473731885 2.8835909443174206 0 0 0
1426 1 29.21699370779198 3.162405933095115 1.4465777933607515 0 0 0
1433 4 31.04354248724144 2.108587472303833 0.008803025724524977 0 0 0
1439 4 34.69572411836044 2.108587472303834 0.008803025724526152 0 0 0
1432 1 32.86917533891098 3.1624059330951146 1.4465777933607507 0 0 0
1428 4 29.217451671681932 5.271469544087832 0.008803025724525237 0 0 0
1434 4 32.86963330280093 5.271469544087832 0.008803025724525144 0 0 0
1423 3 29.215814170194513 1.0525944019478843 2.8835909443174215 0 0 0
1429 3 32.86799580131351 1.052594401947886 2.883590944317423 0 0 0
1430 3 31.041904985754268 4.215476473731885 2.8835909443174224 0 0 0
1436 3 34.694086616873264 4.215476473731885 2.8835909443174206 0 0 0
1438 1 36.52135697002998 3.1624059330951155 1.4465777933607522 0 0 0
1445 4 38.34790574947944 2.1085874723038334 0.008803025724524936 0 0 0
1444 1 40.17353860114898 3.162405933095115 1.4465777933607515 0 0 0
1440 4 36.521814933919934 5.271469544087832 0.008803025724525649 0 0 0
1446 4 40.173996565038934 5.271469544087832 0.008803025724525558 0 0 0
1435 3 36.52017743243252 1.0525944019478843 2.883590944317421 0 0 0
1441 3 40.17235906355152 1.0525944019478843 2.883590944317421 0 0 0
1442 3 38.34626824799227 4.2154764737318855 2.883590944317422 0 0 0
1451 4 42.00008738059844 2.108587472303834 0.008803025724525996 0 0 0
1450 1 43.82572023226798 3.1624059330951146 1.4465777933607507 0 0 0
1457 4 45.65226901171744 2.1085874723038334 0.00880302572452519 0 0 0
1452 4 43.82617819615793 5.271469544087831 0.008803025724523201 0 0 0
1447 3 43.82454069467052 1.0525944019478854 2.8835909443174224 0 0 0
1448 3 41.99844987911127 4.215476473731885 2.8835909443174206 0 0 0
1454 3 45.65063151023027 4.2154764737318855 2.8835909443174215 0 0 0
1456 1 47.47790186338698 3.162405933095115 1.446577793360752 0 0 0
1301 4 49.30445064283644 2.108587472303834 0.00880302572452608 -1 0 0
1300 1 51.13008349450598 3.162405933095115 1.4465777933607513 -1 0 0
1458 4 47.47835982727693 5.271469544087832 0.008803025724525333 0 0 0
1302 4 51.13054145839593 5.271469544087832 0.008803025724525862 -1 0 0
1453 3 47.47672232578952 1.0525944019478841 2.883590944317421 0 0 0
1297 3 51.12890395690852 1.052594401947885 2.8835909443174215 -1 0 0
1298 3 49.30281314134927 4.215476473731884 2.883590944317421 -1 0 0
1307 4 52.95663227395544 2.1085874723038334 0.0088030257245254 -1 0 0
1306 1 54.78226512562498 3.162405933095115 1.4465777933607513 -1 0 0
1313 4 56.60881390507444 2.1085874723038334 0.008803025724525402 -1 0 0
1308 4 54.78272308951494 5.271469544087831 0.008803025724524995 -1 0 0
1303 3 54.78108558802752 1.052594401947885 2.883590944317422 -1 0 0
1304 3 52.954994772468275 4.2154764737318855 2.8835909443174215 -1 0 0
1310 3 56.607176403587275 4.215476473731885 2.8835909443174215 -1 0 0
1312 1 58.43444675674398 3.162405933095115 1.4465777933607513 -1 0 0
1319 4 60.26099553619344 2.1085874723038334 0.008803025724525402 -1 0 0
1318 1 62.08662838786298 3.162405933095115 1.4465777933607513 -1 0 0
1314 4 58.43490472063394 5.271469544087831 0.008803025724524995 -1 0 0
1320 4 62.08708635175294 5.271469544087832 0.008803025724525125 -1 0 0
1309 3 58.43326721914652 1.052594401947885 2.883590944317422 -1 0 0
1315 3 62.08544885026552 1.0525944019478852 2.883590944317422 -1 0 0
1316 3 60.259358034706274 4.2154764737318855 2.8835909443174215 -1 0 0
1325 4 63.91317716731244 2.1085874723038334 0.008803025724525371 -1 0 0
1331 4 67.56535879843145 2.1085874723038343 0.008803025724526391 -1 0 0
1324 1 65.73881001898198 3.1624059330951146 1.4465777933607513 -1 0 0
1330 1 69.39099165010099 3.162405933095114 1.44657779336075 -1 0 0
1326 4 65.73926798287194 5.271469544087832 0.008803025724525043 -1 0 0
1332 4 69.39144961399094 5.271469544087832 0.008803025724524934 -1 0 0
1321 3 65.73763048138453 1.0525944019478843 2.883590944317421 -1 0 0
1327 3 69.38981211250352 1.0525944019478848 2.8835909443174215 -1 0 0
1322 3 63.91153966582527 4.215476473731885 2.883590944317422 -1 0 0
1328 3 67.56372129694428 4.215476473731885 2.8835909443174197 -1 0 0
1337 4 71.21754042955045 2.108587472303832 0.0088030257245241 -1 0 0
1336 1 73.04317328121998 3.1624059330951155 1.4465777933607529 -1 0 0
1343 4 74.86972206066945 2.1085874723038343 0.008803025724526573 -1 0 0
1338 4 73.04363124510994 5.271469544087831 0.00880302572452479 -1 0 0
1333 3 73.04199374362253 1.0525944019478852 2.883590944317422 -1 0 0
1334 3 71.21590292806327 4.2154764737318855 2.8835909443174237 -1 0 0
1340 3 74.86808455918228 4.215476473731885 2.8835909443174197 -1 0 0
1342 1 76.69535491233898 3.162405933095114 1.44657779336075 -1 0 0
1349 4 78.52190369178845 2.108587472303832 0.008803025724524096 -1 0 0
1348 1 80.34753654345798 3.1624059330951155 1.4465777933607529 -1 0 0
1344 4 76.69581287622894 5.271469544087832 0.008803025724524944 -1 0 0
1350 4 80.34799450734793 5.271469544087831 0.008803025724525208 -1 0 0
1339 3 76.69417537474152 1.052594401947885 2.8835909443174215 -1 0 0
1345 3 80.34635700586053 1.0525944019478857 2.883590944317423 -1 0 0
1346 3 78.52026619030127 4.2154764737318855 2.8835909443174237 -1 0 0
1355 4 82.17408532290744 2.1085874723038343 0.008803025724526766 -1 0 0
1354 1 83.99971817457698 3.162405933095114 1.44657779336075 -1 0 0
1361 4 85.82626695402645 2.108587472303833 0.008803025724524922 -1 0 0
1356 4 84.00017613846694 5.271469544087832 0.00880302572452484 -1 0 0
1351 3 83.99853863697952 1.0525944019478848 2.8835909443174215 -1 0 0
1352 3 82.17244782142028 4.215476473731885 2.88359094431742 -1 0 0
1358 3 85.82462945253927 4.2154764737318855 2.883590944317422 -1 0 0
1360 1 87.65189980569599 3.1624059330951155 1.4465777933607529 -1 0 0
1367 4 89.47844858514544 2.108587472303834 0.008803025724525196 -1 0 0
1366 1 91.30408143681498 3.1624059330951146 1.4465777933607513 -1 0 0
1362 4 87.65235776958593 5.271469544087832 0.008803025724525917 -1 0 0
1368 4 91.30453940070494 5.2714695440878305 0.008803025724522566 -1 0 0
1357 3 87.65072026809852 1.0525944019478837 2.8835909443174197 -1 0 0
1363 3 91.30290189921752 1.0525944019478857 2.883590944317423 -1 0 0
1364 3 89.47681108365828 4.2154764737318855 2.883590944317421 -1 0 0
1378 1 98.60844469905298 3.162405933095115 1.446577793360751 -1 0 0
1380 4 98.60890266294294 5.271469544087833 0.00880302572452648 -1 0 0
1373 4 93.13063021626445 2.108587472303834 0.008803025724525642 -1 0 0
1372 1 94.95626306793399 3.162405933095115 1.4465777933607515 -1 0 0
1379 4 96.78281184738344 2.108587472303833 0.008803025724525413 -1 0 0
1374 4 94.95672103182393 5.271469544087831 0.008803025724525205 -1 0 0
1369 3 94.95508353033652 1.052594401947886 2.8835909443174224 -1 0 0
1375 3 98.60726516145552 1.052594401947885 2.883590944317422 -1 0 0
1370 3 93.12899271477728 4.215476473731884 2.8835909443174215 -1 0 0
1376 3 96.78117434589628 4.215476473731885 2.883590944317422 -1 0 0
1545 1 1.8256314743994357 6.3252880048791145 1.4465777933607484 0 0 0
1551 1 5.477813105518434 6.325288004879115 1.446577793360749 0 0 0
1547 4 1.8260894382894377 8.434351615871833 0.008803025724524922 0 0 0
1546 1 3.6517222899589776 9.488170076663115 1.4465777933607509 0 0 0
1553 4 5.4782710694084376 8.434351615871833 0.008803025724525002 0 0 0
1548 4 3.652180253848931 11.597233687655832 0.008803025724524027 0 0 0
1543 3 3.650542752361516 7.378358545515885 2.8835909443174215 0 0 0
1544 3 1.8244519368022665 10.541240617299882 2.8835909443174206 0 0 0
1550 3 5.476633567921266 10.541240617299882 2.883590944317421 0 0 0
1557 1 9.129994736637434 6.325288004879115 1.4465777933607498 0 0 0
1552 1 7.3039039210779775 9.488170076663115 1.4465777933607509 0 0 0
1559 4 9.130452700527437 8.434351615871833 0.00880302572452512 0 0 0
1558 1 10.956085552196976 9.488170076663115 1.4465777933607504 0 0 0
1554 4 7.304361884967931 11.597233687655832 0.008803025724524873 0 0 0
1560 4 10.95654351608693 11.597233687655832 0.008803025724524806 0 0 0
1549 3 7.302724383480515 7.378358545515885 2.8835909443174215 0 0 0
1555 3 10.954906014599517 7.378358545515885 2.8835909443174215 0 0 0
1556 3 9.128815199040265 10.541240617299882 2.8835909443174215 0 0 0
1563 1 12.782176367756435 6.3252880048791145 1.4465777933607489 0 0 0
1569 1 16.434357998875434 6.325288004879115 1.4465777933607495 0 0 0
1565 4 12.782634331646438 8.434351615871833 0.008803025724525263 0 0 0
1564 1 14.608267183315979 9.488170076663115 1.4465777933607509 0 0 0
1571 4 16.434815962765438 8.434351615871833 0.008803025724525144 0 0 0
1566 4 14.608725147205933 11.597233687655834 0.008803025724524993 0 0 0
1561 3 14.607087645718517 7.378358545515884 2.883590944317421 0 0 0
1562 3 12.780996830159266 10.541240617299882 2.883590944317421 0 0 0
1568 3 16.433178461278267 10.541240617299882 2.883590944317421 0 0 0
1575 1 20.086539629994434 6.325288004879114 1.4465777933607478 0 0 0
1570 1 18.26044881443498 9.488170076663115 1.4465777933607507 0 0 0
1577 4 20.086997593884437 8.434351615871833 0.008803025724525014 0 0 0
1576 1 21.91263044555398 9.488170076663115 1.4465777933607504 0 0 0
1572 4 18.26090677832493 11.597233687655832 0.008803025724523194 0 0 0
1578 4 21.913088409443933 11.597233687655834 0.008803025724524832 0 0 0
1567 3 18.259269276837518 7.378358545515885 2.8835909443174215 0 0 0
1573 3 21.911450907956514 7.378358545515884 2.883590944317421 0 0 0
1574 3 20.085360092397266 10.541240617299884 2.8835909443174206 0 0 0
1581 1 23.738721261113433 6.325288004879115 1.4465777933607509 0 0 0
1587 1 27.390902892232432 6.325288004879114 1.4465777933607475 0 0 0
1583 4 23.73917922500344 8.434351615871833 0.00880302572452463 0 0 0
1582 1 25.56481207667298 9.488170076663115 1.4465777933607507 0 0 0
1589 4 27.391360856122436 8.434351615871833 0.00880302572452506 0 0 0
1584 4 25.56527004056293 11.597233687655832 0.00880302572452384 0 0 0
1579 3 25.563632539075517 7.378358545515885 2.883590944317422 0 0 0
1580 3 23.73754172351627 10.541240617299882 2.8835909443174215 0 0 0
1586 3 27.389723354635265 10.541240617299884 2.88359094431742 0 0 0
1593 1 31.043084523351432 6.325288004879115 1.44657779336075 0 0 0
1599 1 34.69526615447043 6.325288004879115 1.4465777933607498 0 0 0
1588 1 29.21699370779198 9.488170076663115 1.4465777933607504 0 0 0
1595 4 31.04354248724144 8.434351615871833 0.008803025724524568 0 0 0
1601 4 34.69572411836044 8.434351615871833 0.008803025724525768 0 0 0
1594 1 32.86917533891098 9.488170076663115 1.4465777933607498 0 0 0
1590 4 29.217451671681932 11.597233687655834 0.008803025724524799 0 0 0
1596 4 32.86963330280093 11.597233687655832 0.00880302572452471 0 0 0
1585 3 29.215814170194513 7.378358545515884 2.883590944317421 0 0 0
1591 3 32.86799580131351 7.378358545515885 2.883590944317422 0 0 0
1592 3 31.041904985754268 10.541240617299882 2.8835909443174215 0 0 0
1598 3 34.694086616873264 10.541240617299882 2.88359094431742 0 0 0
1605 1 38.34744778558944 6.3252880048791145 1.446577793360749 0 0 0
1600 1 36.52135697002998 9.488170076663115 1.4465777933607513 0 0 0
1607 4 38.34790574947944 8.434351615871833 0.00880302572452462 0 0 0
1606 1 40.17353860114898 9.488170076663115 1.4465777933607504 0 0 0
1602 4 36.521814933919934 11.597233687655834 0.008803025724525229 0 0 0
1608 4 40.173996565038934 11.597233687655834 0.008803025724525 0 0 0
1597 3 36.52017743243252 7.378358545515884 2.8835909443174206 0 0 0
1603 3 40.17235906355152 7.378358545515884 2.8835909443174206 0 0 0
1604 3 38.34626824799227 10.541240617299884 2.8835909443174215 0 0 0
1611 1 41.99962941670844 6.3252880048791145 1.4465777933607484 0 0 0
1617 1 45.65181104782744 6.3252880048791145 1.4465777933607484 0 0 0
1613 4 42.00008738059844 8.434351615871833 0.008803025724525657 0 0 0
1612 1 43.82572023226798 9.488170076663115 1.4465777933607498 0 0 0
1619 4 45.65226901171744 8.434351615871833 0.00880302572452468 0 0 0
1614 4 43.82617819615793 11.597233687655832 0.008803025724522694 0 0 0
1609 3 43.82454069467052 7.378358545515885 2.883590944317422 0 0 0
1610 3 41.99844987911127 10.541240617299882 2.88359094431742 0 0 0
1616 3 45.65063151023027 10.541240617299884 2.8835909443174206 0 0 0
1461 1 49.303992678946436 6.325288004879115 1.4465777933607502 -1 0 0
1618 1 47.47790186338698 9.488170076663115 1.4465777933607513 0 0 0
1463 4 49.30445064283644 8.434351615871835 0.008803025724525685 -1 0 0
1462 1 51.13008349450598 9.488170076663115 1.4465777933607509 -1 0 0
1620 4 47.47835982727693 11.597233687655834 0.008803025724524795 0 0 0
1464 4 51.13054145839593 11.597233687655832 0.008803025724525257 -1 0 0
1615 3 47.47672232578952 7.378358545515884 2.8835909443174206 0 0 0
1459 3 51.12890395690852 7.378358545515884 2.883590944317421 -1 0 0
1460 3 49.30281314134927 10.541240617299882 2.8835909443174206 -1 0 0
1467 1 52.95617431006544 6.3252880048791145 1.446577793360749 -1 0 0
1473 1 56.60835594118444 6.3252880048791145 1.446577793360749 -1 0 0
1469 4 52.95663227395544 8.434351615871833 0.008803025724524986 -1 0 0
1468 1 54.78226512562498 9.488170076663115 1.4465777933607509 -1 0 0
1475 4 56.60881390507444 8.434351615871833 0.008803025724524986 -1 0 0
1470 4 54.78272308951494 11.597233687655832 0.008803025724524452 -1 0 0
1465 3 54.78108558802752 7.378358545515885 2.883590944317421 -1 0 0
1466 3 52.954994772468275 10.541240617299882 2.883590944317421 -1 0 0
1472 3 56.607176403587275 10.541240617299882 2.883590944317421 -1 0 0
1479 1 60.26053757230344 6.3252880048791145 1.446577793360749 -1 0 0
1474 1 58.43444675674398 9.488170076663115 1.4465777933607509 -1 0 0
1481 4 60.26099553619344 8.434351615871833 0.008803025724524986 -1 0 0
1480 1 62.08662838786298 9.488170076663115 1.4465777933607509 -1 0 0
1476 4 58.43490472063394 11.597233687655832 0.008803025724524452 -1 0 0
1482 4 62.08708635175294 11.597233687655832 0.008803025724524599 -1 0 0
1471 3 58.43326721914652 7.378358545515885 2.8835909443174215 -1 0 0
1477 3 62.08544885026552 7.378358545515885 2.8835909443174215 -1 0 0
1478 3 60.259358034706274 10.541240617299882 2.883590944317421 -1 0 0
1485 1 63.91271920342244 6.325288004879115 1.4465777933607495 -1 0 0
1491 1 67.56490083454145 6.325288004879114 1.446577793360747 -1 0 0
1487 4 63.91317716731244 8.434351615871833 0.00880302572452485 -1 0 0
1493 4 67.56535879843145 8.434351615871835 0.008803025724525846 -1 0 0
1486 1 65.73881001898198 9.488170076663115 1.4465777933607507 -1 0 0
1492 1 69.39099165010099 9.488170076663113 1.446577793360749 -1 0 0
1488 4 65.73926798287194 11.597233687655832 0.008803025724524504 -1 0 0
1494 4 69.39144961399094 11.597233687655834 0.008803025724524427 -1 0 0
1483 3 65.73763048138453 7.378358545515884 2.8835909443174206 -1 0 0
1489 3 69.38981211250352 7.378358545515884 2.883590944317421 -1 0 0
1484 3 63.91153966582527 10.541240617299882 2.8835909443174215 -1 0 0
1490 3 67.56372129694428 10.541240617299882 2.8835909443174192 -1 0 0
1497 1 71.21708246566044 6.325288004879116 1.4465777933607515 -1 0 0
1503 1 74.86926409677945 6.325288004879114 1.4465777933607469 -1 0 0
1499 4 71.21754042955045 8.434351615871831 0.008803025724523553 -1 0 0
1498 1 73.04317328121998 9.488170076663115 1.446577793360752 -1 0 0
1505 4 74.86972206066945 8.434351615871835 0.008803025724526126 -1 0 0
1500 4 73.04363124510994 11.597233687655832 0.008803025724524231 -1 0 0
1495 3 73.04199374362253 7.378358545515885 2.8835909443174215 -1 0 0
1496 3 71.21590292806327 10.541240617299884 2.883590944317423 -1 0 0
1502 3 74.86808455918228 10.541240617299882 2.8835909443174192 -1 0 0
1509 1 78.52144572789844 6.325288004879116 1.4465777933607515 -1 0 0
1504 1 76.69535491233898 9.488170076663113 1.446577793360749 -1 0 0
1511 4 78.52190369178845 8.434351615871831 0.008803025724523553 -1 0 0
1510 1 80.34753654345798 9.488170076663115 1.446577793360752 -1 0 0
1506 4 76.69581287622894 11.597233687655834 0.008803025724524436 -1 0 0
1512 4 80.34799450734793 11.597233687655832 0.008803025724524778 -1 0 0
1501 3 76.69417537474152 7.378358545515884 2.883590944317421 -1 0 0
1507 3 80.34635700586053 7.378358545515885 2.883590944317422 -1 0 0
1508 3 78.52026619030127 10.541240617299884 2.883590944317423 -1 0 0
1515 1 82.17362735901744 6.325288004879114 1.4465777933607478 -1 0 0
1521 1 85.82580899013644 6.325288004879115 1.4465777933607507 -1 0 0
1517 4 82.17408532290744 8.434351615871835 0.008803025724526431 -1 0 0
1516 1 83.99971817457698 9.488170076663113 1.446577793360749 -1 0 0
1523 4 85.82626695402645 8.434351615871833 0.008803025724524693 -1 0 0
1518 4 84.00017613846694 11.597233687655834 0.008803025724524445 -1 0 0
1513 3 83.99853863697952 7.378358545515884 2.883590944317421 -1 0 0
1514 3 82.17244782142028 10.541240617299882 2.8835909443174197 -1 0 0
1520 3 85.82462945253927 10.541240617299884 2.8835909443174215 -1 0 0
1527 1 89.47799062125544 6.325288004879114 1.446577793360747 -1 0 0
1522 1 87.65189980569599 9.488170076663115 1.446577793360752 -1 0 0
1529 4 89.47844858514544 8.434351615871833 0.008803025724524675 -1 0 0
1528 1 91.30408143681498 9.488170076663115 1.4465777933607507 -1 0 0
1524 4 87.65235776958593 11.597233687655834 0.008803025724525368 -1 0 0
1530 4 91.30453940070494 11.597233687655832 0.008803025724522047 -1 0 0
1519 3 87.65072026809852 7.3783585455158835 2.8835909443174192 -1 0 0
1525 3 91.30290189921752 7.378358545515885 2.8835909443174224 -1 0 0
1526 3 89.47681108365828 10.541240617299884 2.8835909443174206 -1 0 0
1540 1 98.60844469905298 9.488170076663115 1.4465777933607504 -1 0 0
1542 4 98.60890266294294 11.597233687655834 0.008803025724526096 -1 0 0
1533 1 93.13017225237444 6.325288004879115 1.4465777933607509 -1 0 0
1539 1 96.78235388349344 6.3252880048791145 1.4465777933607489 -1 0 0
1535 4 93.13063021626445 8.434351615871833 0.0088030257245253 -1 0 0
1534 1 94.95626306793399 9.488170076663115 1.4465777933607507 -1 0 0
1541 4 96.78281184738344 8.434351615871833 0.008803025724524965 -1 0 0
1536 4 94.95672103182393 11.597233687655832 0.008803025724524764 -1 0 0
1531 3 94.95508353033652 7.378358545515885 2.883590944317422 -1 0 0
1537 3 98.60726516145552 7.378358545515885 2.8835909443174215 -1 0 0
1532 3 93.12899271477728 10.541240617299882 2.883590944317421 -1 0 0
1538 3 96.78117434589628 10.541240617299882 2.8835909443174215 -1 0 0
1707 1 1.8256314743994357 12.651052148447114 1.446577793360749 0 0 0
1713 1 5.477813105518434 12.651052148447114 1.4465777933607498 0 0 0
1709 4 1.8260894382894375 14.760115759439833 0.008803025724525891 0 0 0
1715 4 5.4782710694084376 14.760115759439833 0.008803025724525855 0 0 0
1708 1 3.6517222899589776 15.813934220231115 1.4465777933607515 0 0 0
1705 3 3.650542752361516 13.704122689083883 2.883590944317422 0 0 0
1706 3 1.8244519368022662 16.867004760867886 2.8835909443174224 0 0 0
1712 3 5.476633567921266 16.867004760867886 2.8835909443174224 0 0 0
1719 1 9.129994736637434 12.651052148447114 1.4465777933607504 0 0 0
1721 4 9.130452700527437 14.760115759439833 0.008803025724526157 0 0 0
1714 1 7.303903921077977 15.813934220231115 1.4465777933607515 0 0 0
1720 1 10.956085552196976 15.813934220231115 1.4465777933607513 0 0 0
1711 3 7.302724383480515 13.704122689083883 2.883590944317422 0 0 0
1717 3 10.954906014599517 13.704122689083883 2.8835909443174224 0 0 0
1718 3 9.128815199040265 16.867004760867886 2.883590944317423 0 0 0
1725 1 12.782176367756435 12.651052148447114 1.4465777933607495 0 0 0
1731 1 16.434357998875434 12.651052148447114 1.44657779336075 0 0 0
1727 4 12.782634331646438 14.760115759439833 0.008803025724526025 0 0 0
1733 4 16.43481596276544 14.760115759439834 0.008803025724525989 0 0 0
1726 1 14.608267183315979 15.813934220231115 1.4465777933607518 0 0 0
1723 3 14.607087645718517 13.704122689083883 2.8835909443174215 0 0 0
1724 3 12.780996830159266 16.867004760867886 2.8835909443174224 0 0 0
1730 3 16.433178461278267 16.867004760867886 2.8835909443174224 0 0 0
1737 1 20.086539629994434 12.651052148447112 1.446577793360748 0 0 0
1739 4 20.086997593884437 14.760115759439834 0.008803025724526141 0 0 0
1732 1 18.26044881443498 15.813934220231115 1.446577793360752 0 0 0
1738 1 21.91263044555398 15.813934220231115 1.4465777933607518 0 0 0
1729 3 18.259269276837518 13.704122689083883 2.883590944317422 0 0 0
1735 3 21.911450907956514 13.704122689083883 2.883590944317422 0 0 0
1736 3 20.085360092397266 16.867004760867886 2.883590944317422 0 0 0
1743 1 23.738721261113433 12.651052148447114 1.4465777933607513 0 0 0
1749 1 27.390902892232432 12.651052148447112 1.446577793360748 0 0 0
1745 4 23.73917922500344 14.760115759439833 0.008803025724525706 0 0 0
1751 4 27.391360856122436 14.760115759439834 0.008803025724526162 0 0 0
1744 1 25.56481207667298 15.813934220231115 1.4465777933607515 0 0 0
1741 3 25.563632539075517 13.704122689083883 2.883590944317423 0 0 0
1742 3 23.73754172351627 16.867004760867886 2.8835909443174232 0 0 0
1748 3 27.389723354635265 16.867004760867886 2.883590944317422 0 0 0
1755 1 31.043084523351432 12.651052148447114 1.4465777933607504 0 0 0
1761 1 34.69526615447043 12.651052148447114 1.4465777933607504 0 0 0
1757 4 31.04354248724144 14.760115759439833 0.008803025724525642 0 0 0
1763 4 34.69572411836044 14.760115759439834 0.008803025724526738 0 0 0
1750 1 29.21699370779198 15.813934220231115 1.4465777933607518 0 0 0
1756 1 32.86917533891098 15.813934220231115 1.4465777933607509 0 0 0
1747 3 29.215814170194513 13.704122689083883 2.883590944317422 0 0 0
1753 3 32.86799580131351 13.704122689083883 2.883590944317423 0 0 0
1754 3 31.041904985754268 16.867004760867886 2.8835909443174232 0 0 0
1760 3 34.694086616873264 16.867004760867886 2.883590944317422 0 0 0
1767 1 38.34744778558944 12.651052148447114 1.4465777933607495 0 0 0
1769 4 38.34790574947944 14.760115759439833 0.008803025724525543 0 0 0
1762 1 36.52135697002998 15.813934220231115 1.4465777933607527 0 0 0
1768 1 40.173538601148984 15.813934220231115 1.446577793360751 0 0 0
1759 3 36.52017743243252 13.704122689083881 2.8835909443174215 0 0 0
1765 3 40.17235906355152 13.704122689083883 2.8835909443174215 0 0 0
1766 3 38.34626824799227 16.867004760867886 2.883590944317423 0 0 0
1773 1 41.99962941670844 12.651052148447114 1.446577793360749 0 0 0
1779 1 45.65181104782744 12.651052148447114 1.4465777933607487 0 0 0
1775 4 42.000087380598444 14.760115759439834 0.008803025724526674 0 0 0
1781 4 45.65226901171744 14.760115759439834 0.008803025724525869 0 0 0
1774 1 43.82572023226798 15.813934220231115 1.4465777933607522 0 0 0
1771 3 43.82454069467052 13.704122689083883 2.8835909443174224 0 0 0
1772 3 41.99844987911127 16.867004760867886 2.8835909443174215 0 0 0
1778 3 45.65063151023027 16.867004760867886 2.8835909443174224 0 0 0
1623 1 49.303992678946436 12.651052148447114 1.4465777933607509 -1 0 0
1625 4 49.30445064283644 14.760115759439833 0.008803025724526719 -1 0 0
1780 1 47.47790186338698 15.813934220231115 1.4465777933607524 0 0 0
1624 1 51.13008349450598 15.813934220231115 1.4465777933607515 -1 0 0
1777 3 47.47672232578952 13.704122689083881 2.883590944317421 0 0 0
1621 3 51.12890395690852 13.704122689083883 2.8835909443174215 -1 0 0
1622 3 49.30281314134927 16.867004760867886 2.883590944317422 -1 0 0
1629 1 52.95617431006544 12.651052148447114 1.4465777933607498 -1 0 0
1635 1 56.60835594118444 12.651052148447114 1.4465777933607498 -1 0 0
1631 4 52.95663227395544 14.760115759439833 0.008803025724525848 -1 0 0
1637 4 56.60881390507444 14.760115759439833 0.008803025724525846 -1 0 0
1630 1 54.78226512562498 15.813934220231115 1.4465777933607515 -1 0 0
1627 3 54.78108558802752 13.704122689083883 2.883590944317422 -1 0 0
1628 3 52.954994772468275 16.867004760867886 2.8835909443174224 -1 0 0
1634 3 56.607176403587275 16.867004760867886 2.8835909443174224 -1 0 0
1641 1 60.26053757230344 12.651052148447114 1.4465777933607498 -1 0 0
1643 4 60.26099553619344 14.760115759439833 0.008803025724525846 -1 0 0
1636 1 58.43444675674398 15.813934220231115 1.4465777933607515 -1 0 0
1642 1 62.08662838786298 15.813934220231115 1.4465777933607515 -1 0 0
1633 3 58.43326721914652 13.704122689083883 2.883590944317422 -1 0 0
1639 3 62.08544885026552 13.704122689083883 2.8835909443174224 -1 0 0
1640 3 60.259358034706274 16.867004760867886 2.8835909443174224 -1 0 0
1647 1 63.91271920342244 12.651052148447114 1.4465777933607502 -1 0 0
1653 1 67.56490083454145 12.651052148447112 1.4465777933607473 -1 0 0
1649 4 63.91317716731244 14.760115759439833 0.008803025724525949 -1 0 0
1655 4 67.56535879843145 14.760115759439834 0.008803025724526887 -1 0 0
1648 1 65.73881001898198 15.813934220231115 1.4465777933607518 -1 0 0
1654 1 69.39099165010099 15.813934220231115 1.4465777933607504 -1 0 0
1645 3 65.73763048138453 13.704122689083881 2.883590944317421 -1 0 0
1651 3 69.38981211250352 13.704122689083883 2.883590944317422 -1 0 0
1646 3 63.91153966582527 16.867004760867886 2.883590944317423 -1 0 0
1652 3 67.56372129694428 16.867004760867886 2.8835909443174206 -1 0 0
1659 1 71.21708246566044 12.651052148447116 1.446577793360752 -1 0 0
1665 1 74.86926409677945 12.651052148447112 1.4465777933607473 -1 0 0
1661 4 71.21754042955045 14.760115759439833 0.008803025724524679 -1 0 0
1667 4 74.86972206066945 14.760115759439834 0.008803025724527166 -1 0 0
1660 1 73.04317328121998 15.813934220231115 1.446577793360753 -1 0 0
1657 3 73.04199374362253 13.704122689083883 2.8835909443174224 -1 0 0
1658 3 71.21590292806327 16.867004760867886 2.8835909443174246 -1 0 0
1664 3 74.86808455918228 16.867004760867886 2.8835909443174206 -1 0 0
1671 1 78.52144572789844 12.651052148447116 1.446577793360752 -1 0 0
1673 4 78.52190369178845 14.760115759439833 0.008803025724524679 -1 0 0
1666 1 76.69535491233898 15.813934220231115 1.4465777933607504 -1 0 0
1672 1 80.34753654345798 15.813934220231117 1.446577793360753 -1 0 0
1663 3 76.69417537474152 13.704122689083883 2.883590944317422 -1 0 0
1669 3 80.34635700586053 13.704122689083883 2.883590944317423 -1 0 0
1670 3 78.52026619030127 16.867004760867886 2.8835909443174246 -1 0 0
1677 1 82.17362735901744 12.651052148447112 1.4465777933607484 -1 0 0
1683 1 85.82580899013644 12.651052148447114 1.4465777933607509 -1 0 0
1679 4 82.17408532290744 14.760115759439834 0.00880302572452735 -1 0 0
1685 4 85.82626695402645 14.760115759439833 0.008803025724525675 -1 0 0
1678 1 83.99971817457698 15.813934220231115 1.4465777933607504 -1 0 0
1675 3 83.99853863697952 13.704122689083883 2.883590944317422 -1 0 0
1676 3 82.17244782142028 16.867004760867886 2.883590944317421 -1 0 0
1682 3 85.82462945253927 16.867004760867886 2.883590944317423 -1 0 0
1689 1 89.47799062125544 12.651052148447112 1.4465777933607475 -1 0 0
1691 4 89.47844858514544 14.760115759439834 0.008803025724525836 -1 0 0
1684 1 87.65189980569599 15.813934220231115 1.446577793360753 -1 0 0
1690 1 91.30408143681498 15.813934220231115 1.446577793360752 -1 0 0
1681 3 87.65072026809852 13.704122689083881 2.88359094431742 -1 0 0
1687 3 91.30290189921752 13.704122689083883 2.8835909443174232 -1 0 0
1688 3 89.47681108365828 16.867004760867886 2.8835909443174224 -1 0 0
1702 1 98.60844469905298 15.813934220231115 1.4465777933607515 -1 0 0
1695 1 93.13017225237444 12.651052148447114 1.446577793360751 -1 0 0
1701 1 96.78235388349344 12.651052148447114 1.4465777933607493 -1 0 0
1697 4 93.13063021626445 14.760115759439834 0.008803025724526107 -1 0 0
1703 4 96.78281184738344 14.760115759439833 0.008803025724525997 -1 0 0