LAMMPS data file via write_data, version 29 Aug 2024, timestep = 0, units = metal

2592 atoms
3 atom types

0 98.608904040213 xlo xhi
0 101.212226297088 ylo yhi
0 17.891549592397 zlo zhi

Masses

1 178.49
2 32.06
3 32.06

Atoms # atomic

1383 1 1.8260908155594961 0 1.448104301991 0 0 0
1389 1 5.4782724466784956 0 1.448104301991 0 0 0
1395 1 9.130454077797495 0 1.448104301991 0 0 0
1401 1 12.782635708916494 0 1.448104301991 0 0 0
1407 1 16.4348173400355 0 1.448104301991 0 0 0
1413 1 20.086998971154493 0 1.448104301991 0 0 0
1419 1 23.7391806022735 0 1.448104301991 0 0 0
1425 1 27.391362233392492 0 1.448104301991 0 0 0
1431 1 31.0435438645115 0 1.448104301991 0 0 0
1437 1 34.69572549563049 0 1.448104301991 0 0 0
1443 1 38.3479071267495 0 1.448104301991 0 0 0
1449 1 42.000088757868504 0 1.448104301991 0 0 0
1455 1 45.652270388987496 0 1.448104301991 0 0 0
1299 1 49.3044520201065 0 1.448104301991 -1 0 0
1305 1 52.9566336512255 0 1.448104301991 -1 0 0
1311 1 56.6088152823445 0 1.448104301991 -1 0 0
1317 1 60.2609969134635 0 1.448104301991 -1 0 0
1323 1 63.9131785445825 0 1.448104301991 -1 0 0
1329 1 67.5653601757015 0 1.448104301991 -1 0 0
1335 1 71.2175418068205 0 1.448104301991 -1 0 0
1341 1 74.8697234379395 0 1.448104301991 -1 0 0
1347 1 78.5219050690585 0 1.448104301991 -1 0 0
1353 1 82.1740867001775 0 1.448104301991 -1 0 0
1359 1 85.8262683312965 0 1.448104301991 -1 0 0
1365 1 89.47844996241551 0 1.448104301991 -1 0 0
1371 1 93.1306315935345 0 1.448104301991 -1 0 0
1377 1 96.7828132246535 0 1.448104301991 -1 0 0
1385 3 1.8260908155594961 2.108588047856003 0 0 0 0
1378 1 4.973799150320701e-13 3.1628820717840043 1.448104301991 0 0 0
1384 1 3.652181631119497 3.1628820717840043 1.448104301991 0 0 0
1391 3 5.4782724466784956 2.108588047856003 0 0 0 0
1390 1 7.304363262238496 3.1628820717840043 1.448104301991 0 0 0
1397 3 9.130454077797495 2.108588047856003 0 0 0 0
1396 1 10.956544893357496 3.1628820717840043 1.448104301991 0 0 0
1403 3 12.782635708916494 2.108588047856003 0 0 0 0
1402 1 14.608726524476495 3.1628820717840043 1.448104301991 0 0 0
1409 3 16.4348173400355 2.108588047856003 0 0 0 0
1408 1 18.260908155595494 3.1628820717840043 1.448104301991 0 0 0
1415 3 20.086998971154493 2.108588047856003 0 0 0 0
1414 1 21.9130897867145 3.1628820717840043 1.448104301991 0 0 0
1421 3 23.7391806022735 2.108588047856003 0 0 0 0
1420 1 25.565271417833493 3.1628820717840043 1.448104301991 0 0 0
1427 3 27.391362233392492 2.108588047856003 0 0 0 0
1426 1 29.2174530489525 3.1628820717840043 1.448104301991 0 0 0
1433 3 31.0435438645115 2.108588047856003 0 0 0 0
1439 3 34.69572549563049 2.108588047856003 0 0 0 0
1432 1 32.86963468007149 3.1628820717840043 1.448104301991 0 0 0
1438 1 36.5218163111905 3.1628820717840043 1.448104301991 0 0 0
1445 3 38.3479071267495 2.108588047856003 0 0 0 0
1444 1 40.17399794230949 3.1628820717840043 1.448104301991 0 0 0
1451 3 42.000088757868504 2.108588047856003 0 0 0 0
1450 1 43.8261795734285 3.1628820717840043 1.448104301991 0 0 0
1457 3 45.652270388987496 2.108588047856003 0 0 0 0
1456 1 47.478361204547504 3.1628820717840043 1.448104301991 0 0 0
1301 3 49.3044520201065 2.108588047856003 0 -1 0 0
1300 1 51.1305428356665 3.1628820717840043 1.448104301991 -1 0 0
1307 3 52.9566336512255 2.108588047856003 0 -1 0 0
1306 1 54.7827244667855 3.1628820717840043 1.448104301991 -1 0 0
1313 3 56.6088152823445 2.108588047856003 0 -1 0 0
1312 1 58.4349060979045 3.1628820717840043 1.448104301991 -1 0 0
1319 3 60.2609969134635 2.108588047856003 0 -1 0 0
1318 1 62.0870877290235 3.1628820717840043 1.448104301991 -1 0 0
1325 3 63.9131785445825 2.108588047856003 0 -1 0 0
1331 3 67.5653601757015 2.108588047856003 0 -1 0 0
1324 1 65.7392693601425 3.1628820717840043 1.448104301991 -1 0 0
1330 1 69.39145099126151 3.1628820717840043 1.448104301991 -1 0 0
1337 3 71.2175418068205 2.108588047856003 0 -1 0 0
1336 1 73.0436326223805 3.1628820717840043 1.448104301991 -1 0 0
1343 3 74.8697234379395 2.108588047856003 0 -1 0 0
1342 1 76.6958142534995 3.1628820717840043 1.448104301991 -1 0 0
1349 3 78.5219050690585 2.108588047856003 0 -1 0 0
1348 1 80.3479958846185 3.1628820717840043 1.448104301991 -1 0 0
1355 3 82.1740867001775 2.108588047856003 0 -1 0 0
1354 1 84.0001775157375 3.1628820717840043 1.448104301991 -1 0 0
1361 3 85.8262683312965 2.108588047856003 0 -1 0 0
1360 1 87.6523591468565 3.1628820717840043 1.448104301991 -1 0 0
1367 3 89.47844996241551 2.108588047856003 0 -1 0 0
1366 1 91.3045407779755 3.1628820717840043 1.448104301991 -1 0 0
1373 3 93.1306315935345 2.108588047856003 0 -1 0 0
1372 1 94.95672240909451 3.1628820717840043 1.448104301991 -1 0 0
1379 3 96.7828132246535 2.108588047856003 0 -1 0 0
1380 3 4.973799150320701e-13 5.27147011964 0 0 0 0
1386 3 3.652181631119497 5.27147011964 0 0 0 0
1392 3 7.304363262238496 5.27147011964 0 0 0 0
1398 3 10.956544893357496 5.27147011964 0 0 0 0
1404 3 14.608726524476495 5.27147011964 0 0 0 0
1410 3 18.260908155595494 5.27147011964 0 0 0 0
1416 3 21.9130897867145 5.27147011964 0 0 0 0
1422 3 25.565271417833493 5.27147011964 0 0 0 0
1428 3 29.2174530489525 5.27147011964 0 0 0 0
1434 3 32.86963468007149 5.27147011964 0 0 0 0
1440 3 36.5218163111905 5.27147011964 0 0 0 0
1446 3 40.17399794230949 5.27147011964 0 0 0 0
1452 3 43.8261795734285 5.27147011964 0 0 0 0
1458 3 47.478361204547504 5.27147011964 0 0 0 0
1302 3 51.1305428356665 5.27147011964 0 -1 0 0
1308 3 54.7827244667855 5.27147011964 0 -1 0 0
1314 3 58.4349060979045 5.27147011964 0 -1 0 0
1320 3 62.0870877290235 5.27147011964 0 -1 0 0
1326 3 65.7392693601425 5.27147011964 0 -1 0 0
1332 3 69.39145099126151 5.27147011964 0 -1 0 0
1338 3 73.0436326223805 5.27147011964 0 -1 0 0
1344 3 76.6958142534995 5.27147011964 0 -1 0 0
1350 3 80.3479958846185 5.27147011964 0 -1 0 0
1356 3 84.0001775157375 5.27147011964 0 -1 0 0
1362 3 87.6523591468565 5.27147011964 0 -1 0 0
1368 3 91.3045407779755 5.27147011964 0 -1 0 0
1374 3 94.95672240909451 5.27147011964 0 -1 0 0
1545 1 1.8260908155594961 6.325764143568001 1.448104301991 0 0 0
1551 1 5.4782724466784956 6.325764143568001 1.448104301991 0 0 0
1557 1 9.130454077797495 6.325764143568001 1.448104301991 0 0 0
1563 1 12.782635708916494 6.325764143568001 1.448104301991 0 0 0
1569 1 16.4348173400355 6.325764143568001 1.448104301991 0 0 0
1575 1 20.086998971154493 6.325764143568001 1.448104301991 0 0 0
1581 1 23.7391806022735 6.325764143568001 1.448104301991 0 0 0
1587 1 27.391362233392492 6.325764143568001 1.448104301991 0 0 0
1593 1 31.0435438645115 6.325764143568001 1.448104301991 0 0 0
1599 1 34.69572549563049 6.325764143568001 1.448104301991 0 0 0
1605 1 38.3479071267495 6.325764143568001 1.448104301991 0 0 0
1611 1 42.000088757868504 6.325764143568001 1.448104301991 0 0 0
1617 1 45.652270388987496 6.325764143568001 1.448104301991 0 0 0
1461 1 49.3044520201065 6.325764143568001 1.448104301991 -1 0 0
1467 1 52.9566336512255 6.325764143568001 1.448104301991 -1 0 0
1473 1 56.6088152823445 6.325764143568001 1.448104301991 -1 0 0
1479 1 60.2609969134635 6.325764143568001 1.448104301991 -1 0 0
1485 1 63.9131785445825 6.325764143568001 1.448104301991 -1 0 0
1491 1 67.5653601757015 6.325764143568001 1.448104301991 -1 0 0
1497 1 71.2175418068205 6.325764143568001 1.448104301991 -1 0 0
1503 1 74.8697234379395 6.325764143568001 1.448104301991 -1 0 0
1509 1 78.5219050690585 6.325764143568001 1.448104301991 -1 0 0
1515 1 82.1740867001775 6.325764143568001 1.448104301991 -1 0 0
1521 1 85.8262683312965 6.325764143568001 1.448104301991 -1 0 0
1527 1 89.47844996241551 6.325764143568001 1.448104301991 -1 0 0
1533 1 93.1306315935345 6.325764143568001 1.448104301991 -1 0 0
1539 1 96.7828132246535 6.325764143568001 1.448104301991 -1 0 0
1547 3 1.8260908155594961 8.434352191424004 0 0 0 0
1540 1 4.973799150320701e-13 9.488646215352006 1.448104301991 0 0 0
1546 1 3.652181631119497 9.488646215352006 1.448104301991 0 0 0
1553 3 5.4782724466784956 8.434352191424004 0 0 0 0
1552 1 7.304363262238496 9.488646215352006 1.448104301991 0 0 0
1559 3 9.130454077797495 8.434352191424004 0 0 0 0
1558 1 10.956544893357496 9.488646215352006 1.448104301991 0 0 0
1565 3 12.782635708916494 8.434352191424004 0 0 0 0
1564 1 14.608726524476495 9.488646215352006 1.448104301991 0 0 0
1571 3 16.4348173400355 8.434352191424004 0 0 0 0
1570 1 18.260908155595494 9.488646215352006 1.448104301991 0 0 0
1577 3 20.086998971154493 8.434352191424004 0 0 0 0
1576 1 21.9130897867145 9.488646215352006 1.448104301991 0 0 0
1583 3 23.7391806022735 8.434352191424004 0 0 0 0
1582 1 25.565271417833493 9.488646215352006 1.448104301991 0 0 0
1589 3 27.391362233392492 8.434352191424004 0 0 0 0
1588 1 29.2174530489525 9.488646215352006 1.448104301991 0 0 0
1595 3 31.0435438645115 8.434352191424004 0 0 0 0
1601 3 34.69572549563049 8.434352191424004 0 0 0 0
1594 1 32.86963468007149 9.488646215352006 1.448104301991 0 0 0
1600 1 36.5218163111905 9.488646215352006 1.448104301991 0 0 0
1607 3 38.3479071267495 8.434352191424004 0 0 0 0
1606 1 40.17399794230949 9.488646215352006 1.448104301991 0 0 0
1613 3 42.000088757868504 8.434352191424004 0 0 0 0
1612 1 43.8261795734285 9.488646215352006 1.448104301991 0 0 0
1619 3 45.652270388987496 8.434352191424004 0 0 0 0
1618 1 47.478361204547504 9.488646215352006 1.448104301991 0 0 0
1463 3 49.3044520201065 8.434352191424004 0 -1 0 0
1462 1 51.1305428356665 9.488646215352006 1.448104301991 -1 0 0
1469 3 52.9566336512255 8.434352191424004 0 -1 0 0
1468 1 54.7827244667855 9.488646215352006 1.448104301991 -1 0 0
1475 3 56.6088152823445 8.434352191424004 0 -1 0 0
1474 1 58.4349060979045 9.488646215352006 1.448104301991 -1 0 0
1481 3 60.2609969134635 8.434352191424004 0 -1 0 0
1480 1 62.0870877290235 9.488646215352006 1.448104301991 -1 0 0
1487 3 63.9131785445825 8.434352191424004 0 -1 0 0
1493 3 67.5653601757015 8.434352191424004 0 -1 0 0
1486 1 65.7392693601425 9.488646215352006 1.448104301991 -1 0 0
1492 1 69.39145099126151 9.488646215352006 1.448104301991 -1 0 0
1499 3 71.2175418068205 8.434352191424004 0 -1 0 0
1498 1 73.0436326223805 9.488646215352006 1.448104301991 -1 0 0
1505 3 74.8697234379395 8.434352191424004 0 -1 0 0
1504 1 76.6958142534995 9.488646215352006 1.448104301991 -1 0 0
1511 3 78.5219050690585 8.434352191424004 0 -1 0 0
1510 1 80.3479958846185 9.488646215352006 1.448104301991 -1 0 0
1517 3 82.1740867001775 8.434352191424004 0 -1 0 0
1516 1 84.0001775157375 9.488646215352006 1.448104301991 -1 0 0
1523 3 85.8262683312965 8.434352191424004 0 -1 0 0
1522 1 87.6523591468565 9.488646215352006 1.448104301991 -1 0 0
1529 3 89.47844996241551 8.434352191424004 0 -1 0 0
1528 1 91.3045407779755 9.488646215352006 1.448104301991 -1 0 0
1535 3 93.1306315935345 8.434352191424004 0 -1 0 0
1534 1 94.95672240909451 9.488646215352006 1.448104301991 -1 0 0
1541 3 96.7828132246535 8.434352191424004 0 -1 0 0
1542 3 4.973799150320701e-13 11.597234263208001 0 0 0 0
1707 1 1.8260908155594961 12.651528287136003 1.448104301991 0 0 0
1548 3 3.652181631119497 11.597234263208001 0 0 0 0
1713 1 5.4782724466784956 12.651528287136003 1.448104301991 0 0 0
1554 3 7.304363262238496 11.597234263208001 0 0 0 0
1719 1 9.130454077797495 12.651528287136003 1.448104301991 0 0 0
1560 3 10.956544893357496 11.597234263208001 0 0 0 0
1725 1 12.782635708916494 12.651528287136003 1.448104301991 0 0 0
1566 3 14.608726524476495 11.597234263208001 0 0 0 0
1731 1 16.4348173400355 12.651528287136003 1.448104301991 0 0 0
1572 3 18.260908155595494 11.597234263208001 0 0 0 0
1737 1 20.086998971154493 12.651528287136003 1.448104301991 0 0 0
1578 3 21.9130897867145 11.597234263208001 0 0 0 0
1743 1 23.7391806022735 12.651528287136003 1.448104301991 0 0 0
1584 3 25.565271417833493 11.597234263208001 0 0 0 0
1749 1 27.391362233392492 12.651528287136003 1.448104301991 0 0 0
1590 3 29.2174530489525 11.597234263208001 0 0 0 0
1755 1 31.0435438645115 12.651528287136003 1.448104301991 0 0 0
1596 3 32.86963468007149 11.597234263208001 0 0 0 0
1761 1 34.69572549563049 12.651528287136003 1.448104301991 0 0 0
1602 3 36.5218163111905 11.597234263208001 0 0 0 0
1767 1 38.3479071267495 12.651528287136003 1.448104301991 0 0 0
1608 3 40.17399794230949 11.597234263208001 0 0 0 0
1773 1 42.000088757868504 12.651528287136003 1.448104301991 0 0 0
1614 3 43.8261795734285 11.597234263208001 0 0 0 0
1779 1 45.652270388987496 12.651528287136003 1.448104301991 0 0 0
1620 3 47.478361204547504 11.597234263208001 0 0 0 0
1623 1 49.3044520201065 12.651528287136003 1.448104301991 -1 0 0
1464 3 51.1305428356665 11.597234263208001 0 -1 0 0
1629 1 52.9566336512255 12.651528287136003 1.448104301991 -1 0 0
1470 3 54.7827244667855 11.597234263208001 0 -1 0 0
1635 1 56.6088152823445 12.651528287136003 1.448104301991 -1 0 0
1476 3 58.4349060979045 11.597234263208001 0 -1 0 0
1641 1 60.2609969134635 12.651528287136003 1.448104301991 -1 0 0
1482 3 62.0870877290235 11.597234263208001 0 -1 0 0
1647 1 63.9131785445825 12.651528287136003 1.448104301991 -1 0 0
1488 3 65.7392693601425 11.597234263208001 0 -1 0 0
1653 1 67.5653601757015 12.651528287136003 1.448104301991 -1 0 0
1494 3 69.39145099126151 11.597234263208001 0 -1 0 0
1659 1 71.2175418068205 12.651528287136003 1.448104301991 -1 0 0
1500 3 73.0436326223805 11.597234263208001 0 -1 0 0
1665 1 74.8697234379395 12.651528287136003 1.448104301991 -1 0 0
1506 3 76.6958142534995 11.597234263208001 0 -1 0 0
1671 1 78.5219050690585 12.651528287136003 1.448104301991 -1 0 0
1512 3 80.3479958846185 11.597234263208001 0 -1 0 0
1677 1 82.1740867001775 12.651528287136003 1.448104301991 -1 0 0
1518 3 84.0001775157375 11.597234263208001 0 -1 0 0
1683 1 85.8262683312965 12.651528287136003 1.448104301991 -1 0 0
1524 3 87.6523591468565 11.597234263208001 0 -1 0 0
1689 1 89.47844996241551 12.651528287136003 1.448104301991 -1 0 0
1530 3 91.3045407779755 11.597234263208001 0 -1 0 0
1695 1 93.1306315935345 12.651528287136003 1.448104301991 -1 0 0
1536 3 94.95672240909451 11.597234263208001 0 -1 0 0
1701 1 96.7828132246535 12.651528287136003 1.448104301991 -1 0 0
1709 3 1.8260908155594961 14.760116334992006 0 0 0 0
1715 3 5.4782724466784956 14.760116334992006 0 0 0 0
1721 3 9.130454077797495 14.760116334992006 0 0 0 0
1727 3 12.782635708916494 14.760116334992006 0 0 0 0
1733 3 16.4348173400355 14.760116334992006 0 0 0 0
1739 3 20.086998971154493 14.760116334992006 0 0 0 0
1745 3 23.7391806022735 14.760116334992006 0 0 0 0
1751 3 27.391362233392492 14.760116334992006 0 0 0 0
1757 3 31.0435438645115 14.760116334992006 0 0 0 0
1763 3 34.69572549563049 14.760116334992006 0 0 0 0
1769 3 38.3479071267495 14.760116334992006 0 0 0 0
1775 3 42.000088757868504 14.760116334992006 0 0 0 0
1781 3 45.652270388987496 14.760116334992006 0 0 0 0
1625 3 49.3044520201065 14.760116334992006 0 -1 0 0
1631 3 52.9566336512255 14.760116334992006 0 -1 0 0
1637 3 56.6088152823445 14.760116334992006 0 -1 0 0
1643 3 60.2609969134635 14.760116334992006 0 -1 0 0
1649 3 63.9131785445825 14.760116334992006 0 -1 0 0
1655 3 67.5653601757015 14.760116334992006 0 -1 0 0
1661 3 71.2175418068205 14.760116334992006 0 -1 0 0
1667 3 74.8697234379395 14.760116334992006 0 -1 0 0
1673 3 78.5219050690585 14.760116334992006 0 -1 0 0
1679 3 82.1740867001775 14.760116334992006 0 -1 0 0
1685 3 85.8262683312965 14.760116334992006 0 -1 0 0
1691 3 89.47844996241551 14.760116334992006 0 -1 0 0
1697 3 93.1306315935345 14.760116334992006 0 -1 0 0
1703 3 96.7828132246535 14.760116334992006 0 -1 0 0
1702 1 4.973799150320701e-13 15.81441035892 1.448104301991 0 0 0
1708 1 3.652181631119497 15.81441035892 1.448104301991 0 0 0
1714 1 7.304363262238496 15.81441035892 1.448104301991 0 0 0
1720 1 10.956544893357496 15.81441035892 1.448104301991 0 0 0
1726 1 14.608726524476495 15.81441035892 1.448104301991 0 0 0
1732 1 18.260908155595494 15.81441035892 1.448104301991 0 0 0
1738 1 21.9130897867145 15.81441035892 1.448104301991 0 0 0
1744 1 25.565271417833493 15.81441035892 1.448104301991 0 0 0
1750 1 29.2174530489525 15.81441035892 1.448104301991 0 0 0
1756 1 32.86963468007149 15.81441035892 1.448104301991 0 0 0
1762 1 36.5218163111905 15.81441035892 1.448104301991 0 0 0
1768 1 40.17399794230949 15.81441035892 1.448104301991 0 0 0
1774 1 43.8261795734285 15.81441035892 1.448104301991 0 0 0
1780 1 47.478361204547504 15.81441035892 1.448104301991 0 0 0
1624 1 51.1305428356665 15.81441035892 1.448104301991 -1 0 0
1630 1 54.7827244667855 15.81441035892 1.448104301991 -1 0 0
1636 1 58.4349060979045 15.81441035892 1.448104301991 -1 0 0
1642 1 62.0870877290235 15.81441035892 1.448104301991 -1 0 0
1648 1 65.7392693601425 15.81441035892 1.448104301991 -1 0 0
1654 1 69.39145099126151 15.81441035892 1.448104301991 -1 0 0
1660 1 73.0436326223805 15.81441035892 1.448104301991 -1 0 0
1666 1 76.6958142534995 15.81441035892 1.448104301991 -1 0 0
1672 1 80.3479958846185 15.81441035892 1.448104301991 -1 0 0
1678 1 84.0001775157375 15.81441035892 1.448104301991 -1 0 0
1684 1 87.6523591468565 15.81441035892 1.448104301991 -1 0 0
1690 1 91.3045407779755 15.81441035892 1.448104301991 -1 0 0
1696 1 94.95672240909451 15.81441035892 1.448104301991 -1 0 0
1704 3 4.973799150320701e-13 17.922998406776003 0 0 0 0
1869 1 1.8260908155594961 18.977292430703997 1.448104301991 0 0 0
1710 3 3.652181631119497 17.922998406776003 0 0 0 0
1875 1 5.4782724466784956 18.977292430703997 1.448104301991 0 0 0
1716 3 7.304363262238496 17.922998406776003 0 0 0 0
1881 1 9.130454077797495 18.977292430703997 1.448104301991 0 0 0
1722 3 10.956544893357496 17.922998406776003 0 0 0 0
1887 1 12.782635708916494 18.977292430703997 1.448104301991 0 0 0
1728 3 14.608726524476495 17.922998406776003 0 0 0 0
1893 1 16.4348173400355 18.977292430703997 1.448104301991 0 0 0
1734 3 18.260908155595494 17.922998406776003 0 0 0 0
1899 1 20.086998971154493 18.977292430703997 1.448104301991 0 0 0
1740 3 21.9130897867145 17.922998406776003 0 0 0 0
1905 1 23.7391806022735 18.977292430703997 1.448104301991 0 0 0
1746 3 25.565271417833493 17.922998406776003 0 0 0 0
1911 1 27.391362233392492 18.977292430703997 1.448104301991 0 0 0
1752 3 29.2174530489525 17.922998406776003 0 0 0 0
1917 1 31.0435438645115 18.977292430703997 1.448104301991 0 0 0
1758 3 32.86963468007149 17.922998406776003 0 0 0 0
1923 1 34.69572549563049 18.977292430703997 1.448104301991 0 0 0
1764 3 36.5218163111905 17.922998406776003 0 0 0 0
1929 1 38.3479071267495 18.977292430703997 1.448104301991 0 0 0
1770 3 40.17399794230949 17.922998406776003 0 0 0 0
1935 1 42.000088757868504 18.977292430703997 1.448104301991 0 0 0
1776 3 43.8261795734285 17.922998406776003 0 0 0 0
1941 1 45.652270388987496 18.977292430703997 1.448104301991 0 0 0
1782 3 47.478361204547504 17.922998406776003 0 0 0 0
1785 1 49.3044520201065 18.977292430703997 1.448104301991 -1 0 0
1626 3 51.1305428356665 17.922998406776003 0 -1 0 0
1791 1 52.9566336512255 18.977292430703997 1.448104301991 -1 0 0
1632 3 54.7827244667855 17.922998406776003 0 -1 0 0
1797 1 56.6088152823445 18.977292430703997 1.448104301991 -1 0 0
1638 3 58.4349060979045 17.922998406776003 0 -1 0 0
1803 1 60.2609969134635 18.977292430703997 1.448104301991 -1 0 0
1644 3 62.0870877290235 17.922998406776003 0 -1 0 0
1809 1 63.9131785445825 18.977292430703997 1.448104301991 -1 0 0
1650 3 65.7392693601425 17.922998406776003 0 -1 0 0
1815 1 67.5653601757015 18.977292430703997 1.448104301991 -1 0 0
1656 3 69.39145099126151 17.922998406776003 0 -1 0 0
1821 1 71.2175418068205 18.977292430703997 1.448104301991 -1 0 0
1662 3 73.0436326223805 17.922998406776003 0 -1 0 0
1827 1 74.8697234379395 18.977292430703997 1.448104301991 -1 0 0
1668 3 76.6958142534995 17.922998406776003 0 -1 0 0
1833 1 78.5219050690585 18.977292430703997 1.448104301991 -1 0 0
1674 3 80.3479958846185 17.922998406776003 0 -1 0 0
1839 1 82.1740867001775 18.977292430703997 1.448104301991 -1 0 0
1680 3 84.0001775157375 17.922998406776003 0 -1 0 0
1845 1 85.8262683312965 18.977292430703997 1.448104301991 -1 0 0
1686 3 87.6523591468565 17.922998406776003 0 -1 0 0
1851 1 89.47844996241551 18.977292430703997 1.448104301991 -1 0 0
1692 3 91.3045407779755 17.922998406776003 0 -1 0 0
1857 1 93.1306315935345 18.977292430703997 1.448104301991 -1 0 0
1698 3 94.95672240909451 17.922998406776003 0 -1 0 0
1863 1 96.7828132246535 18.977292430703997 1.448104301991 -1 0 0
1871 3 1.8260908155594961 21.08588047856 0 0 0 0
1864 1 4.973799150320701e-13 22.14017450248801 1.448104301991 0 0 0
1870 1 3.652181631119497 22.14017450248801 1.448104301991 0 0 0
1877 3 5.4782724466784956 21.08588047856 0 0 0 0
1876 1 7.304363262238496 22.14017450248801 1.448104301991 0 0 0
1883 3 9.130454077797495 21.08588047856 0 0 0 0
1882 1 10.956544893357496 22.14017450248801 1.448104301991 0 0 0
1889 3 12.782635708916494 21.08588047856 0 0 0 0
1888 1 14.608726524476495 22.14017450248801 1.448104301991 0 0 0
1895 3 16.4348173400355 21.08588047856 0 0 0 0
1894 1 18.260908155595494 22.14017450248801 1.448104301991 0 0 0
1901 3 20.086998971154493 21.08588047856 0 0 0 0
1900 1 21.9130897867145 22.14017450248801 1.448104301991 0 0 0
1907 3 23.7391806022735 21.08588047856 0 0 0 0
1906 1 25.565271417833493 22.14017450248801 1.448104301991 0 0 0
1913 3 27.391362233392492 21.08588047856 0 0 0 0
1912 1 29.2174530489525 22.14017450248801 1.448104301991 0 0 0
1919 3 31.0435438645115 21.08588047856 0 0 0 0
1925 3 34.69572549563049 21.08588047856 0 0 0 0
1918 1 32.86963468007149 22.14017450248801 1.448104301991 0 0 0
1924 1 36.5218163111905 22.14017450248801 1.448104301991 0 0 0
1931 3 38.3479071267495 21.08588047856 0 0 0 0
1930 1 40.17399794230949 22.14017450248801 1.448104301991 0 0 0
1937 3 42.000088757868504 21.08588047856 0 0 0 0
1936 1 43.8261795734285 22.14017450248801 1.448104301991 0 0 0
1943 3 45.652270388987496 21.08588047856 0 0 0 0
1942 1 47.478361204547504 22.14017450248801 1.448104301991 0 0 0
1787 3 49.3044520201065 21.08588047856 0 -1 0 0
1786 1 51.1305428356665 22.14017450248801 1.448104301991 -1 0 0
1793 3 52.9566336512255 21.08588047856 0 -1 0 0
1792 1 54.7827244667855 22.14017450248801 1.448104301991 -1 0 0
1799 3 56.6088152823445 21.08588047856 0 -1 0 0
1798 1 58.4349060979045 22.14017450248801 1.448104301991 -1 0 0
1805 3 60.2609969134635 21.08588047856 0 -1 0 0
1804 1 62.0870877290235 22.14017450248801 1.448104301991 -1 0 0
1811 3 63.9131785445825 21.08588047856 0 -1 0 0
1817 3 67.5653601757015 21.08588047856 0 -1 0 0
1810 1 65.7392693601425 22.14017450248801 1.448104301991 -1 0 0
1816 1 69.39145099126151 22.14017450248801 1.448104301991 -1 0 0
1823 3 71.2175418068205 21.08588047856 0 -1 0 0
1822 1 73.0436326223805 22.14017450248801 1.448104301991 -1 0 0
1829 3 74.8697234379395 21.08588047856 0 -1 0 0
1828 1 76.6958142534995 22.14017450248801 1.448104301991 -1 0 0
1835 3 78.5219050690585 21.08588047856 0 -1 0 0
1834 1 80.3479958846185 22.14017450248801 1.448104301991 -1 0 0
1841 3 82.1740867001775 21.08588047856 0 -1 0 0
1840 1 84.0001775157375 22.14017450248801 1.448104301991 -1 0 0
1847 3 85.8262683312965 21.08588047856 0 -1 0 0
1846 1 87.6523591468565 22.14017450248801 1.448104301991 -1 0 0
1853 3 89.47844996241551 21.08588047856 0 -1 0 0
1852 1 91.3045407779755 22.14017450248801 1.448104301991 -1 0 0
1859 3 93.1306315935345 21.08588047856 0 -1 0 0
1858 1 94.95672240909451 22.14017450248801 1.448104301991 -1 0 0
1865 3 96.7828132246535 21.08588047856 0 -1 0 0
1866 3 4.973799150320701e-13 24.248762550343997 0 0 0 0
1872 3 3.652181631119497 24.248762550343997 0 0 0 0
1878 3 7.304363262238496 24.248762550343997 0 0 0 0
1884 3 10.956544893357496 24.248762550343997 0 0 0 0
1890 3 14.608726524476495 24.248762550343997 0 0 0 0
1896 3 18.260908155595494 24.248762550343997 0 0 0 0
1902 3 21.9130897867145 24.248762550343997 0 0 0 0
1908 3 25.565271417833493 24.248762550343997 0 0 0 0
1914 3 29.2174530489525 24.248762550343997 0 0 0 0
1920 3 32.86963468007149 24.248762550343997 0 0 0 0
1926 3 36.5218163111905 24.248762550343997 0 0 0 0
1932 3 40.17399794230949 24.248762550343997 0 0 0 0
1938 3 43.8261795734285 24.248762550343997 0 0 0 0
1944 3 47.478361204547504 24.248762550343997 0 0 0 0
1788 3 51.1305428356665 24.248762550343997 0 -1 0 0
1794 3 54.7827244667855 24.248762550343997 0 -1 0 0
1800 3 58.4349060979045 24.248762550343997 0 -1 0 0
1806 3 62.0870877290235 24.248762550343997 0 -1 0 0
1812 3 65.7392693601425 24.248762550343997 0 -1 0 0
1818 3 69.39145099126151 24.248762550343997 0 -1 0 0
1824 3 73.0436326223805 24.248762550343997 0 -1 0 0
1830 3 76.6958142534995 24.248762550343997 0 -1 0 0
1836 3 80.3479958846185 24.248762550343997 0 -1 0 0
1842 3 84.0001775157375 24.248762550343997 0 -1 0 0
1848 3 87.6523591468565 24.248762550343997 0 -1 0 0
1854 3 91.3045407779755 24.248762550343997 0 -1 0 0
1860 3 94.95672240909451 24.248762550343997 0 -1 0 0
2031 1 1.8260908155594961 25.303056574272006 1.448104301991 0 0 0
2037 1 5.4782724466784956 25.303056574272006 1.448104301991 0 0 0
2043 1 9.130454077797495 25.303056574272006 1.448104301991 0 0 0
2049 1 12.782635708916494 25.303056574272006 1.448104301991 0 0 0
2055 1 16.4348173400355 25.303056574272006 1.448104301991 0 0 0
2061 1 20.086998971154493 25.303056574272006 1.448104301991 0 0 0
2067 1 23.7391806022735 25.303056574272006 1.448104301991 0 0 0
2073 1 27.391362233392492 25.303056574272006 1.448104301991 0 0 0
2079 1 31.0435438645115 25.303056574272006 1.448104301991 0 0 0
2085 1 34.69572549563049 25.303056574272006 1.448104301991 0 0 0
2091 1 38.3479071267495 25.303056574272006 1.448104301991 0 0 0
2097 1 42.000088757868504 25.303056574272006 1.448104301991 0 0 0
2103 1 45.652270388987496 25.303056574272006 1.448104301991 0 0 0
1947 1 49.3044520201065 25.303056574272006 1.448104301991 -1 0 0
1953 1 52.9566336512255 25.303056574272006 1.448104301991 -1 0 0
1959 1 56.6088152823445 25.303056574272006 1.448104301991 -1 0 0
1965 1 60.2609969134635 25.303056574272006 1.448104301991 -1 0 0
1971 1 63.9131785445825 25.303056574272006 1.448104301991 -1 0 0
1977 1 67.5653601757015 25.303056574272006 1.448104301991 -1 0 0
1983 1 71.2175418068205 25.303056574272006 1.448104301991 -1 0 0
1989 1 74.8697234379395 25.303056574272006 1.448104301991 -1 0 0
1995 1 78.5219050690585 25.303056574272006 1.448104301991 -1 0 0
2001 1 82.1740867001775 25.303056574272006 1.448104301991 -1 0 0
2007 1 85.8262683312965 25.303056574272006 1.448104301991 -1 0 0
2013 1 89.47844996241551 25.303056574272006 1.448104301991 -1 0 0
2019 1 93.1306315935345 25.303056574272006 1.448104301991 -1 0 0
2025 1 96.7828132246535 25.303056574272006 1.448104301991 -1 0 0
2033 3 1.8260908155594961 27.41164462212801 0 0 0 0
2026 1 4.973799150320701e-13 28.465938646056003 1.448104301991 0 0 0
2032 1 3.652181631119497 28.465938646056003 1.448104301991 0 0 0
2039 3 5.4782724466784956 27.41164462212801 0 0 0 0
2038 1 7.304363262238496 28.465938646056003 1.448104301991 0 0 0
2045 3 9.130454077797495 27.41164462212801 0 0 0 0
2044 1 10.956544893357496 28.465938646056003 1.448104301991 0 0 0
2051 3 12.782635708916494 27.41164462212801 0 0 0 0
2050 1 14.608726524476495 28.465938646056003 1.448104301991 0 0 0
2057 3 16.4348173400355 27.41164462212801 0 0 0 0
2056 1 18.260908155595494 28.465938646056003 1.448104301991 0 0 0
2063 3 20.086998971154493 27.41164462212801 0 0 0 0
2062 1 21.9130897867145 28.465938646056003 1.448104301991 0 0 0
2069 3 23.7391806022735 27.41164462212801 0 0 0 0
2068 1 25.565271417833493 28.465938646056003 1.448104301991 0 0 0
2075 3 27.391362233392492 27.41164462212801 0 0 0 0
2074 1 29.2174530489525 28.465938646056003 1.448104301991 0 0 0
2081 3 31.0435438645115 27.41164462212801 0 0 0 0
2087 3 34.69572549563049 27.41164462212801 0 0 0 0
2080 1 32.86963468007149 28.465938646056003 1.448104301991 0 0 0
2086 1 36.5218163111905 28.465938646056003 1.448104301991 0 0 0
2093 3 38.3479071267495 27.41164462212801 0 0 0 0
2092 1 40.17399794230949 28.465938646056003 1.448104301991 0 0 0
2099 3 42.000088757868504 27.41164462212801 0 0 0 0
2098 1 43.8261795734285 28.465938646056003 1.448104301991 0 0 0
2105 3 45.652270388987496 27.41164462212801 0 0 0 0
2104 1 47.478361204547504 28.465938646056003 1.448104301991 0 0 0
1949 3 49.3044520201065 27.41164462212801 0 -1 0 0
1948 1 51.1305428356665 28.465938646056003 1.448104301991 -1 0 0
1955 3 52.9566336512255 27.41164462212801 0 -1 0 0
1954 1 54.7827244667855 28.465938646056003 1.448104301991 -1 0 0
1961 3 56.6088152823445 27.41164462212801 0 -1 0 0
1960 1 58.4349060979045 28.465938646056003 1.448104301991 -1 0 0
1967 3 60.2609969134635 27.41164462212801 0 -1 0 0
1966 1 62.0870877290235 28.465938646056003 1.448104301991 -1 0 0
1973 3 63.9131785445825 27.41164462212801 0 -1 0 0
1979 3 67.5653601757015 27.41164462212801 0 -1 0 0
1972 1 65.7392693601425 28.465938646056003 1.448104301991 -1 0 0
1978 1 69.39145099126151 28.465938646056003 1.448104301991 -1 0 0
1985 3 71.2175418068205 27.41164462212801 0 -1 0 0
1984 1 73.0436326223805 28.465938646056003 1.448104301991 -1 0 0
1991 3 74.8697234379395 27.41164462212801 0 -1 0 0
1990 1 76.6958142534995 28.465938646056003 1.448104301991 -1 0 0
1997 3 78.5219050690585 27.41164462212801 0 -1 0 0
1996 1 80.3479958846185 28.465938646056003 1.448104301991 -1 0 0
2003 3 82.1740867001775 27.41164462212801 0 -1 0 0
2002 1 84.0001775157375 28.465938646056003 1.448104301991 -1 0 0
2009 3 85.8262683312965 27.41164462212801 0 -1 0 0
2008 1 87.6523591468565 28.465938646056003 1.448104301991 -1 0 0
2015 3 89.47844996241551 27.41164462212801 0 -1 0 0
2014 1 91.3045407779755 28.465938646056003 1.448104301991 -1 0 0
2021 3 93.1306315935345 27.41164462212801 0 -1 0 0
2020 1 94.95672240909451 28.465938646056003 1.448104301991 -1 0 0
2027 3 96.7828132246535 27.41164462212801 0 -1 0 0
2028 3 4.973799150320701e-13 30.574526693912006 0 0 0 0
2193 1 1.8260908155594961 31.62882071784 1.448104301991 0 0 0
2034 3 3.652181631119497 30.574526693912006 0 0 0 0
2199 1 5.4782724466784956 31.62882071784 1.448104301991 0 0 0
2040 3 7.304363262238496 30.574526693912006 0 0 0 0
2205 1 9.130454077797495 31.62882071784 1.448104301991 0 0 0
2046 3 10.956544893357496 30.574526693912006 0 0 0 0