LAMMPS data file via write_data, version 29 Aug 2024, timestep = 2, units = metal

7776 atoms
9 atom types

0 98.608904040213 xlo xhi
0 101.212226297088 ylo yhi
-50 50 zlo zhi

Masses

1 178.49
2 178.49
3 178.49
4 32.06
5 32.06
6 32.06
7 32.06
8 32.06
9 32.06

Atoms # atomic

1385 5 1.8260894535018266 2.1085874751437665 0.00869123082494496 0 0 0
1384 1 3.651720239191899 3.1624036171832617 1.446571305922084 0 0 0
1391 5 5.478271084620826 2.1085874751437665 0.008691230824944884 0 0 0
1386 5 3.6521802690613283 5.271469546927765 0.00869123082494386 0 0 0
1381 4 3.6505644906272403 1.0526162829834467 2.883805745195064 0 0 0
1382 4 1.8244736750679915 4.215498354767448 2.883805745195063 0 0 0
1388 4 5.476655306186991 4.215498354767447 2.8838057451950636 0 0 0
1390 1 7.303901870310899 3.1624036171832617 1.4465713059220835 0 0 0
1397 5 9.130452715739827 2.1085874751437665 0.00869123082494509 0 0 0
1396 1 10.956083501429898 3.1624036171832617 1.4465713059220837 0 0 0
1392 5 7.304361900180328 5.271469546927765 0.008691230824944609 0 0 0
1398 5 10.956543531299328 5.271469546927765 0.008691230824944817 0 0 0
1387 4 7.30274612174624 1.052616282983447 2.8838057451950645 0 0 0
1393 4 10.954927752865242 1.052616282983447 2.883805745195064 0 0 0
1394 4 9.12883693730599 4.215498354767447 2.883805745195064 0 0 0
1403 5 12.782634346858828 2.1085874751437665 0.008691230824945108 0 0 0
1402 1 14.608265132548901 3.1624036171832617 1.4465713059220833 0 0 0
1409 5 16.43481597797783 2.1085874751437665 0.008691230824944888 0 0 0
1404 5 14.60872516241833 5.271469546927765 0.008691230824944928 0 0 0
1399 4 14.607109383984243 1.0526162829834462 2.8838057451950636 0 0 0
1400 4 12.781018568424992 4.215498354767447 2.8838057451950636 0 0 0
1406 4 16.433200199543993 4.215498354767447 2.8838057451950636 0 0 0
1408 1 18.2604467636679 3.162403617183262 1.4465713059220842 0 0 0
1415 5 20.086997609096827 2.108587475143767 0.00869123082494505 0 0 0
1414 1 21.9126283947869 3.1624036171832617 1.4465713059220837 0 0 0
1410 5 18.260906793537327 5.271469546927764 0.008691230824942909 0 0 0
1416 5 21.91308842465633 5.271469546927766 0.008691230824945 0 0 0
1405 4 18.25929101510324 1.0526162829834471 2.8838057451950645 0 0 0
1411 4 21.91147264622224 1.0526162829834462 2.8838057451950636 0 0 0
1412 4 20.085381830662993 4.215498354767447 2.883805745195063 0 0 0
1421 5 23.73917924021583 2.1085874751437657 0.008691230824944555 0 0 0
1420 1 25.5648100259059 3.1624036171832617 1.4465713059220837 0 0 0
1427 5 27.391360871334825 2.108587475143767 0.008691230824945058 0 0 0
1422 5 25.565270055775326 5.271469546927764 0.008691230824943419 0 0 0
1417 4 25.56365427734124 1.0526162829834476 2.883805745195065 0 0 0
1418 4 23.737563461781992 4.215498354767447 2.883805745195065 0 0 0
1424 4 27.38974509290099 4.215498354767447 2.883805745195063 0 0 0
1426 1 29.2169916570249 3.1624036171832617 1.4465713059220837 0 0 0
1433 5 31.04354250245383 2.1085874751437657 0.008691230824944553 0 0 0
1439 5 34.695724133572824 2.108587475143767 0.008691230824945523 0 0 0
1432 1 32.8691732881439 3.1624036171832617 1.4465713059220833 0 0 0
1428 5 29.21745168689433 5.271469546927766 0.008691230824945025 0 0 0
1434 5 32.86963331801332 5.271469546927764 0.008691230824944246 0 0 0
1423 4 29.21583590846024 1.0526162829834462 2.8838057451950636 0 0 0
1429 4 32.86801753957924 1.0526162829834478 2.8838057451950654 0 0 0
1430 4 31.04192672401999 4.215498354767447 2.883805745195065 0 0 0
1436 4 34.69410835513899 4.215498354767446 2.883805745195063 0 0 0
1438 1 36.5213549192629 3.162403617183262 1.4465713059220846 0 0 0
1445 5 38.34790576469183 2.1085874751437657 0.008691230824944255 0 0 0
1444 1 40.173536550381904 3.1624036171832612 1.446571305922083 0 0 0
1440 5 36.52181494913233 5.271469546927765 0.008691230824944926 0 0 0
1446 5 40.17399658025133 5.271469546927766 0.008691230824944907 0 0 0
1435 4 36.52019917069824 1.0526162829834462 2.8838057451950636 0 0 0
1441 4 40.17238080181724 1.0526162829834462 2.883805745195063 0 0 0
1442 4 38.34628998625799 4.215498354767448 2.883805745195064 0 0 0
1451 5 42.00008739581083 2.108587475143767 0.008691230824945462 0 0 0
1450 1 43.8257181815009 3.1624036171832617 1.4465713059220837 0 0 0
1457 5 45.65226902692983 2.1085874751437665 0.008691230824944617 0 0 0
1452 5 43.826178211370326 5.271469546927764 0.008691230824943373 0 0 0
1447 4 43.82456243293625 1.0526162829834467 2.883805745195064 0 0 0
1448 4 41.99847161737699 4.215498354767446 2.8838057451950627 0 0 0
1454 4 45.65065324849599 4.215498354767448 2.8838057451950636 0 0 0
1456 1 47.4778998126199 3.162403617183262 1.4465713059220844 0 0 0
1301 5 49.30445065804883 2.1085874751437665 0.008691230824945495 -1 0 0
1300 1 51.1300814437389 3.1624036171832617 1.4465713059220837 -1 0 0
1458 5 47.47835984248933 5.271469546927765 0.008691230824944622 0 0 0
1302 5 51.13054147360833 5.271469546927765 0.008691230824944489 -1 0 0
1453 4 47.47674406405525 1.052616282983446 2.883805745195063 0 0 0
1297 4 51.128925695174246 1.0526162829834471 2.8838057451950645 -1 0 0
1298 4 49.302834879615 4.215498354767446 2.8838057451950636 -1 0 0
1307 5 52.95663228916783 2.1085874751437665 0.0086912308249448 -1 0 0
1306 1 54.7822630748579 3.1624036171832617 1.4465713059220837 -1 0 0
1313 5 56.60881392028683 2.1085874751437665 0.0086912308249448 -1 0 0
1308 5 54.78272310472733 5.271469546927765 0.008691230824944296 -1 0 0
1303 4 54.781107326293245 1.052616282983447 2.883805745195064 -1 0 0
1304 4 52.955016510734 4.215498354767447 2.8838057451950636 -1 0 0
1310 4 56.607198141853 4.215498354767447 2.8838057451950636 -1 0 0
1312 1 58.4344447059769 3.1624036171832617 1.4465713059220837 -1 0 0
1319 5 60.26099555140583 2.1085874751437665 0.0086912308249448 -1 0 0
1318 1 62.0866263370959 3.1624036171832617 1.4465713059220837 -1 0 0
1314 5 58.43490473584633 5.271469546927765 0.008691230824944296 -1 0 0
1320 5 62.08708636696533 5.271469546927765 0.008691230824944432 -1 0 0
1309 4 58.433288957412245 1.052616282983447 2.883805745195064 -1 0 0
1315 4 62.085470588531244 1.052616282983447 2.8838057451950645 -1 0 0
1316 4 60.259379772972 4.215498354767447 2.8838057451950636 -1 0 0
1325 5 63.91317718252483 2.1085874751437665 0.0086912308249457 -1 0 0
1331 5 67.56535881364383 2.1085874751437665 0.008691230824944423 -1 0 0
1324 1 65.7388079682149 3.1624036171832617 1.446571305922084 -1 0 0
1330 1 69.3909895993339 3.1624036171832617 1.446571305922084 -1 0 0
1326 5 65.73926799808433 5.271469546927765 0.00869123082494378 -1 0 0
1332 5 69.39144962920334 5.271469546927766 0.008691230824945533 -1 0 0
1321 4 65.73765221965024 1.0526162829834467 2.883805745195064 -1 0 0
1327 4 69.38983385076924 1.0526162829834458 2.8838057451950627 -1 0 0
1322 4 63.911561404090996 4.215498354767446 2.883805745195063 -1 0 0
1328 4 67.56374303521 4.215498354767448 2.883805745195063 -1 0 0
1337 5 71.21754044476283 2.108587475143766 0.008691230824944876 -1 0 0
1336 1 73.0431712304529 3.1624036171832617 1.4465713059220837 -1 0 0
1343 5 74.86972207588182 2.1085874751437665 0.00869123082494464 -1 0 0
1338 5 73.04363126032233 5.271469546927763 0.008691230824942773 -1 0 0
1333 4 73.04201548188824 1.0526162829834478 2.883805745195066 -1 0 0
1334 4 71.215924666329 4.215498354767447 2.8838057451950645 -1 0 0
1340 4 74.868106297448 4.215498354767448 2.883805745195063 -1 0 0
1342 1 76.6953528615719 3.1624036171832617 1.446571305922084 -1 0 0
1349 5 78.52190370700083 2.108587475143766 0.008691230824944876 -1 0 0
1348 1 80.3475344926909 3.1624036171832617 1.4465713059220837 -1 0 0
1344 5 76.69581289144134 5.271469546927766 0.008691230824945552 -1 0 0
1350 5 80.34799452256033 5.271469546927765 0.008691230824944746 -1 0 0
1339 4 76.69419711300723 1.0526162829834458 2.8838057451950627 -1 0 0
1345 4 80.34637874412624 1.0526162829834478 2.8838057451950654 -1 0 0
1346 4 78.520287928567 4.215498354767447 2.8838057451950645 -1 0 0
1355 5 82.17408533811982 2.1085874751437665 0.008691230824944841 -1 0 0
1354 1 83.9997161238099 3.1624036171832617 1.446571305922084 -1 0 0
1361 5 85.82626696923883 2.1085874751437657 0.00869123082494418 -1 0 0
1356 5 84.00017615367933 5.271469546927765 0.008691230824944144 -1 0 0
1351 4 83.99856037524525 1.0526162829834464 2.883805745195064 -1 0 0
1352 4 82.172469559686 4.215498354767447 2.8838057451950636 -1 0 0
1358 4 85.824651190805 4.215498354767448 2.883805745195064 -1 0 0
1360 1 87.65189775492891 3.162403617183261 1.4465713059220826 -1 0 0
1367 5 89.47844860035784 2.1085874751437674 0.008691230824946149 -1 0 0
1366 1 91.3040793860479 3.1624036171832626 1.4465713059220853 -1 0 0
1362 5 87.65235778479834 5.271469546927765 0.008691230824943684 -1 0 0
1368 5 91.30453941591733 5.271469546927764 0.008691230824943545 -1 0 0
1357 4 87.65074200636424 1.0526162829834462 2.8838057451950636 -1 0 0
1363 4 91.30292363748325 1.052616282983447 2.883805745195064 -1 0 0
1364 4 89.47683282192399 4.215498354767447 2.883805745195062 -1 0 0
1378 1 98.6084426482859 3.1624036171832626 1.4465713059220848 -1 0 0
1380 5 98.60890267815533 5.271469546927765 0.008691230824944936 -1 0 0
1373 5 93.13063023147683 2.1085874751437665 0.008691230824944975 -1 0 0
1372 1 94.95626101716691 3.1624036171832612 1.4465713059220824 -1 0 0
1379 5 96.78281186259584 2.108587475143765 0.008691230824943528 -1 0 0
1374 5 94.95672104703634 5.271469546927765 0.008691230824944595 -1 0 0
1369 4 94.95510526860224 1.0526162829834476 2.883805745195065 -1 0 0
1375 4 98.60728689972125 1.0526162829834467 2.8838057451950645 -1 0 0
1370 4 93.129014453043 4.215498354767447 2.8838057451950636 -1 0 0
1376 4 96.78119608416199 4.215498354767448 2.883805745195066 -1 0 0
1545 1 1.8256294236323476 6.325285688967261 1.4465713059220804 0 0 0
1551 1 5.477811054751346 6.325285688967262 1.4465713059220817 0 0 0
1547 5 1.8260894535018266 8.434351618711766 0.008691230824944404 0 0 0
1546 1 3.6517202391918993 9.488167760751262 1.4465713059220828 0 0 0
1553 5 5.478271084620826 8.434351618711766 0.008691230824944343 0 0 0
1548 5 3.6521802690613283 11.597233690495765 0.008691230824943184 0 0 0
1543 4 3.6505644906272403 7.378380426551447 2.8838057451950636 0 0 0
1544 4 1.8244736750679913 10.541262498335445 2.883805745195063 0 0 0
1550 4 5.476655306186991 10.541262498335445 2.8838057451950636 0 0 0
1557 1 9.129992685870345 6.325285688967262 1.446571305922082 0 0 0
1552 1 7.303901870310899 9.488167760751262 1.4465713059220826 0 0 0
1559 5 9.130452715739827 8.434351618711766 0.008691230824944517 0 0 0
1558 1 10.956083501429898 9.488167760751262 1.446571305922083 0 0 0
1554 5 7.304361900180328 11.597233690495766 0.008691230824943984 0 0 0
1560 5 10.956543531299328 11.597233690495766 0.008691230824944093 0 0 0
1549 4 7.30274612174624 7.378380426551447 2.8838057451950636 0 0 0
1555 4 10.954927752865242 7.378380426551447 2.8838057451950636 0 0 0
1556 4 9.12883693730599 10.541262498335445 2.883805745195064 0 0 0
1563 1 12.782174316989346 6.325285688967262 1.4465713059220817 0 0 0
1569 1 16.434355948108347 6.325285688967262 1.4465713059220813 0 0 0
1565 5 12.782634346858828 8.434351618711766 0.008691230824944546 0 0 0
1564 1 14.608265132548901 9.488167760751262 1.4465713059220828 0 0 0
1571 5 16.43481597797783 8.434351618711766 0.0086912308249445 0 0 0
1566 5 14.60872516241833 11.597233690495766 0.008691230824944635 0 0 0
1561 4 14.607109383984243 7.3783804265514465 2.883805745195063 0 0 0
1562 4 12.781018568424992 10.541262498335445 2.883805745195063 0 0 0
1568 4 16.433200199543993 10.541262498335445 2.883805745195063 0 0 0
1575 1 20.086537579227347 6.325285688967261 1.4465713059220804 0 0 0
1570 1 18.2604467636679 9.488167760751262 1.4465713059220833 0 0 0
1577 5 20.086997609096827 8.434351618711768 0.008691230824944518 0 0 0
1576 1 21.9126283947869 9.488167760751262 1.446571305922083 0 0 0
1572 5 18.260906793537327 11.597233690495765 0.008691230824942319 0 0 0
1578 5 21.91308842465633 11.597233690495766 0.008691230824944418 0 0 0
1567 4 18.25929101510324 7.378380426551447 2.883805745195064 0 0 0
1573 4 21.91147264622224 7.3783804265514465 2.8838057451950627 0 0 0
1574 4 20.085381830662993 10.541262498335445 2.8838057451950627 0 0 0
1581 1 23.738719210346346 6.325285688967263 1.4465713059220826 0 0 0
1587 1 27.390900841465346 6.325285688967261 1.4465713059220804 0 0 0
1583 5 23.73917924021583 8.434351618711766 0.008691230824944248 0 0 0
1582 1 25.5648100259059 9.488167760751262 1.4465713059220833 0 0 0
1589 5 27.391360871334825 8.434351618711768 0.008691230824944527 0 0 0
1584 5 25.565270055775326 11.597233690495765 0.008691230824942841 0 0 0
1579 4 25.56365427734124 7.378380426551448 2.8838057451950645 0 0 0
1580 4 23.737563461781992 10.541262498335445 2.8838057451950645 0 0 0
1586 4 27.38974509290099 10.541262498335445 2.8838057451950627 0 0 0
1593 1 31.043082472584345 6.325285688967263 1.4465713059220828 0 0 0
1599 1 34.695264103703344 6.325285688967262 1.4465713059220817 0 0 0
1588 1 29.2169916570249 9.488167760751262 1.446571305922083 0 0 0
1595 5 31.04354250245383 8.434351618711766 0.008691230824944246 0 0 0
1601 5 34.695724133572824 8.434351618711768 0.008691230824945054 0 0 0
1594 1 32.8691732881439 9.488167760751262 1.4465713059220828 0 0 0
1590 5 29.21745168689433 11.597233690495766 0.008691230824944442 0 0 0
1596 5 32.86963331801332 11.597233690495765 0.008691230824943733 0 0 0
1585 4 29.21583590846024 7.3783804265514465 2.8838057451950627 0 0 0
1591 4 32.86801753957924 7.378380426551448 2.8838057451950645 0 0 0
1592 4 31.04192672401999 10.541262498335445 2.8838057451950645 0 0 0
1598 4 34.69410835513899 10.541262498335445 2.8838057451950627 0 0 0
1605 1 38.34744573482235 6.325285688967262 1.4465713059220817 0 0 0
1600 1 36.5213549192629 9.488167760751262 1.4465713059220837 0 0 0
1607 5 38.34790576469183 8.434351618711766 0.00869123082494395 0 0 0
1606 1 40.173536550381904 9.488167760751262 1.4465713059220824 0 0 0
1602 5 36.52181494913233 11.597233690495766 0.008691230824944478 0 0 0
1608 5 40.17399658025133 11.597233690495766 0.008691230824944468 0 0 0
1597 4 36.52019917069824 7.3783804265514465 2.883805745195063 0 0 0
1603 4 40.17238080181724 7.3783804265514465 2.8838057451950627 0 0 0
1604 4 38.34628998625799 10.541262498335445 2.883805745195064 0 0 0
1611 1 41.99962736594135 6.325285688967262 1.4465713059220817 0 0 0
1617 1 45.65180899706035 6.325285688967261 1.4465713059220802 0 0 0
1613 5 42.00008739581083 8.434351618711768 0.008691230824945015 0 0 0
1612 1 43.8257181815009 9.488167760751262 1.4465713059220833 0 0 0
1619 5 45.65226902692983 8.434351618711768 0.00869123082494407 0 0 0
1614 5 43.826178211370326 11.597233690495765 0.008691230824942902 0 0 0
1609 4 43.82456243293625 7.378380426551447 2.883805745195063 0 0 0
1610 4 41.99847161737699 10.541262498335445 2.8838057451950627 0 0 0
1616 4 45.65065324849599 10.541262498335445 2.883805745195063 0 0 0
1461 1 49.30399062817935 6.325285688967262 1.4465713059220826 -1 0 0
1618 1 47.4778998126199 9.488167760751262 1.4465713059220837 0 0 0
1463 5 49.30445065804883 8.434351618711766 0.008691230824945169 -1 0 0
1462 1 51.1300814437389 9.488167760751262 1.4465713059220828 -1 0 0
1620 5 47.47835984248933 11.597233690495766 0.008691230824944073 0 0 0
1464 5 51.13054147360833 11.597233690495766 0.008691230824943795 -1 0 0
1615 4 47.47674406405525 7.3783804265514465 2.8838057451950627 0 0 0
1459 4 51.128925695174246 7.378380426551447 2.883805745195064 -1 0 0
1460 4 49.302834879615 10.541262498335444 2.883805745195063 -1 0 0
1467 1 52.956172259298356 6.325285688967262 1.4465713059220817 -1 0 0
1473 1 56.608353890417355 6.325285688967262 1.4465713059220817 -1 0 0
1469 5 52.95663228916783 8.434351618711766 0.008691230824944336 -1 0 0
1468 1 54.7822630748579 9.488167760751262 1.4465713059220828 -1 0 0
1475 5 56.60881392028683 8.434351618711766 0.008691230824944338 -1 0 0
1470 5 54.78272310472733 11.597233690495766 0.008691230824943545 -1 0 0
1465 4 54.781107326293245 7.378380426551447 2.8838057451950636 -1 0 0
1466 4 52.955016510734 10.541262498335445 2.8838057451950636 -1 0 0
1472 4 56.607198141853 10.541262498335445 2.8838057451950636 -1 0 0
1479 1 60.260535521536355 6.325285688967262 1.4465713059220817 -1 0 0
1474 1 58.4344447059769 9.488167760751262 1.4465713059220828 -1 0 0
1481 5 60.26099555140583 8.434351618711766 0.008691230824944338 -1 0 0
1480 1 62.0866263370959 9.488167760751262 1.4465713059220828 -1 0 0
1476 5 58.43490473584633 11.597233690495766 0.008691230824943545 -1 0 0
1482 5 62.08708636696533 11.597233690495766 0.008691230824943892 -1 0 0
1471 4 58.433288957412245 7.378380426551447 2.8838057451950636 -1 0 0
1477 4 62.085470588531244 7.378380426551447 2.883805745195064 -1 0 0
1478 4 60.259379772972 10.541262498335445 2.8838057451950636 -1 0 0
1485 1 63.912717152655354 6.325285688967262 1.4465713059220822 -1 0 0
1491 1 67.56489878377435 6.325285688967261 1.4465713059220793 -1 0 0
1487 5 63.913177182524834 8.434351618711766 0.00869123082494519 -1 0 0
1493 5 67.56535881364383 8.434351618711768 0.00869123082494389 -1 0 0
1486 1 65.7388079682149 9.488167760751262 1.446571305922083 -1 0 0
1492 1 69.3909895993339 9.488167760751262 1.446571305922083 -1 0 0
1488 5 65.73926799808433 11.597233690495766 0.00869123082494327 -1 0 0
1494 5 69.39144962920334 11.597233690495766 0.008691230824945098 -1 0 0
1483 4 65.73765221965024 7.378380426551447 2.883805745195063 -1 0 0
1489 4 69.38983385076924 7.3783804265514465 2.8838057451950623 -1 0 0
1484 4 63.911561404090996 10.541262498335444 2.8838057451950627 -1 0 0
1490 4 67.56374303521 10.541262498335445 2.883805745195063 -1 0 0
1497 1 71.21708041489336 6.325285688967263 1.4465713059220837 -1 0 0
1503 1 74.86926204601235 6.325285688967261 1.4465713059220795 -1 0 0
1499 5 71.21754044476283 8.434351618711766 0.008691230824944643 -1 0 0
1498 1 73.0431712304529 9.488167760751262 1.446571305922083 -1 0 0
1505 5 74.86972207588182 8.434351618711768 0.00869123082494418 -1 0 0
1500 5 73.04363126032233 11.597233690495765 0.008691230824942192 -1 0 0
1495 4 73.04201548188824 7.378380426551448 2.883805745195065 -1 0 0
1496 4 71.215924666329 10.541262498335445 2.883805745195064 -1 0 0
1502 4 74.868106297448 10.541262498335445 2.883805745195063 -1 0 0
1509 1 78.52144367713136 6.325285688967263 1.4465713059220837 -1 0 0
1504 1 76.6953528615719 9.488167760751262 1.446571305922083 -1 0 0
1511 5 78.52190370700083 8.434351618711766 0.008691230824944643 -1 0 0
1510 1 80.3475344926909 9.488167760751262 1.446571305922083 -1 0 0
1506 5 76.69581289144134 11.597233690495766 0.008691230824945117 -1 0 0
1512 5 80.34799452256033 11.597233690495765 0.00869123082494411 -1 0 0
1501 4 76.69419711300723 7.3783804265514465 2.8838057451950623 -1 0 0
1507 4 80.34637874412624 7.378380426551448 2.8838057451950645 -1 0 0
1508 4 78.520287928567 10.541262498335445 2.8838057451950636 -1 0 0
1515 1 82.17362530825035 6.325285688967262 1.4465713059220815 -1 0 0
1521 1 85.82580693936936 6.325285688967261 1.4465713059220804 -1 0 0
1517 5 82.17408533811982 8.434351618711768 0.008691230824944388 -1 0 0
1516 1 83.9997161238099 9.488167760751262 1.446571305922083 -1 0 0
1523 5 85.82626696923883 8.434351618711766 0.008691230824943757 -1 0 0
1518 5 84.00017615367933 11.597233690495765 0.008691230824943606 -1 0 0
1513 4 83.99856037524525 7.378380426551447 2.8838057451950636 -1 0 0
1514 4 82.172469559686 10.541262498335445 2.8838057451950636 -1 0 0
1520 4 85.824651190805 10.541262498335445 2.8838057451950636 -1 0 0
1527 1 89.47798857048835 6.325285688967262 1.4465713059220822 -1 0 0
1522 1 87.65189775492891 9.488167760751262 1.446571305922083 -1 0 0
1529 5 89.47844860035784 8.434351618711768 0.008691230824945629 -1 0 0
1528 1 91.3040793860479 9.488167760751262 1.4465713059220833 -1 0 0
1524 5 87.65235778479834 11.597233690495765 0.008691230824943226 -1 0 0
1530 5 91.30453941591733 11.597233690495765 0.008691230824942903 -1 0 0
1519 4 87.65074200636424 7.3783804265514465 2.8838057451950627 -1 0 0
1525 4 91.30292363748325 7.378380426551447 2.883805745195063 -1 0 0
1526 4 89.476832821924 10.541262498335445 2.883805745195062 -1 0 0
1540 1 98.6084426482859 9.488167760751262 1.4465713059220842 -1 0 0
1542 5 98.60890267815533 11.597233690495765 0.008691230824944383 -1 0 0
1533 1 93.13017020160736 6.325285688967261 1.4465713059220802 -1 0 0
1539 1 96.78235183272635 6.325285688967263 1.446571305922084 -1 0 0
1535 5 93.13063023147683 8.434351618711768 0.008691230824944446 -1 0 0
1534 1 94.95626101716691 9.488167760751262 1.446571305922082 -1 0 0
1541 5 96.78281186259584 8.434351618711766 0.008691230824943103 -1 0 0
1536 5 94.95672104703634 11.597233690495765 0.008691230824943807 -1 0 0
1531 4 94.95510526860224 7.378380426551448 2.8838057451950645 -1 0 0
1537 4 98.60728689972125 7.378380426551447 2.8838057451950636 -1 0 0
1532 4 93.129014453043 10.541262498335445 2.883805745195063 -1 0 0
1538 4 96.78119608416199 10.541262498335445 2.8838057451950654 -1 0 0
1707 1 1.8256294236323474 12.65104983253526 1.446571305922081 0 0 0
1713 1 5.477811054751346 12.65104983253526 1.4465713059220822 0 0 0
1709 5 1.8260894535018266 14.760115762279767 0.008691230824945412 0 0 0
1715 5 5.478271084620826 14.760115762279765 0.008691230824945228 0 0 0
1708 1 3.6517202391918993 15.813931904319261 1.4465713059220842 0 0 0
1705 4 3.6505644906272403 13.704144570119444 2.8838057451950645 0 0 0
1706 4 1.8244736750679915 16.867026641903447 2.8838057451950645 0 0 0
1712 4 5.476655306186991 16.867026641903447 2.8838057451950645 0 0 0
1719 1 9.129992685870345 12.65104983253526 1.4465713059220826 0 0 0
1721 5 9.130452715739827 14.760115762279765 0.008691230824945249 0 0 0
1714 1 7.303901870310899 15.813931904319261 1.446571305922084 0 0 0
1720 1 10.956083501429898 15.813931904319261 1.4465713059220842 0 0 0
1711 4 7.30274612174624 13.704144570119444 2.8838057451950645 0 0 0
1717 4 10.954927752865242 13.704144570119444 2.883805745195065 0 0 0
1718 4 9.12883693730599 16.867026641903447 2.883805745195065 0 0 0
1725 1 12.782174316989346 12.65104983253526 1.4465713059220822 0 0 0
1731 1 16.434355948108347 12.65104983253526 1.4465713059220817 0 0 0
1727 5 12.782634346858826 14.760115762279767 0.008691230824945285 0 0 0
1733 5 16.43481597797783 14.760115762279767 0.008691230824945304 0 0 0
1726 1 14.608265132548901 15.813931904319261 1.4465713059220844 0 0 0
1723 4 14.607109383984243 13.704144570119444 2.883805745195064 0 0 0
1724 4 12.78101856842499 16.867026641903447 2.8838057451950645 0 0 0
1730 4 16.433200199543993 16.867026641903447 2.8838057451950645 0 0 0
1737 1 20.086537579227347 12.65104983253526 1.4465713059220808 0 0 0
1739 5 20.086997609096827 14.760115762279767 0.008691230824945325 0 0 0
1732 1 18.2604467636679 15.813931904319261 1.4465713059220842 0 0 0
1738 1 21.9126283947869 15.813931904319261 1.4465713059220842 0 0 0
1729 4 18.25929101510324 13.704144570119444 2.883805745195065 0 0 0
1735 4 21.91147264622224 13.704144570119443 2.8838057451950636 0 0 0
1736 4 20.085381830662993 16.867026641903447 2.883805745195064 0 0 0
1743 1 23.738719210346346 12.65104983253526 1.446571305922083 0 0 0
1749 1 27.390900841465346 12.65104983253526 1.4465713059220808 0 0 0
1745 5 23.73917924021583 14.760115762279765 0.008691230824945101 0 0 0
1751 5 27.391360871334825 14.760115762279767 0.008691230824945339 0 0 0
1744 1 25.5648100259059 15.813931904319261 1.446571305922084 0 0 0
1741 4 25.56365427734124 13.704144570119444 2.8838057451950654 0 0 0
1742 4 23.737563461781992 16.867026641903447 2.8838057451950654 0 0 0
1748 4 27.38974509290099 16.867026641903447 2.883805745195064 0 0 0
1755 1 31.043082472584345 12.65104983253526 1.4465713059220833 0 0 0
1761 1 34.695264103703344 12.65104983253526 1.446571305922082 0 0 0
1757 5 31.04354250245383 14.760115762279765 0.008691230824945098 0 0 0
1763 5 34.695724133572824 14.760115762279767 0.008691230824945776 0 0 0
1750 1 29.2169916570249 15.813931904319261 1.4465713059220842 0 0 0
1756 1 32.8691732881439 15.813931904319261 1.4465713059220837 0 0 0
1747 4 29.21583590846024 13.704144570119443 2.883805745195064 0 0 0
1753 4 32.86801753957924 13.704144570119444 2.8838057451950654 0 0 0
1754 4 31.04192672401999 16.867026641903447 2.8838057451950654 0 0 0
1760 4 34.69410835513899 16.867026641903447 2.883805745195064 0 0 0
1767 1 38.34744573482235 12.65104983253526 1.446571305922082 0 0 0
1769 5 38.34790576469183 14.760115762279765 0.008691230824944768 0 0 0
1762 1 36.5213549192629 15.813931904319261 1.4465713059220848 0 0 0
1768 1 40.173536550381904 15.81393190431926 1.4465713059220835 0 0 0
1759 4 36.52019917069824 13.704144570119444 2.883805745195064 0 0 0
1765 4 40.17238080181724 13.704144570119444 2.883805745195064 0 0 0
1766 4 38.34628998625799 16.867026641903447 2.883805745195065 0 0 0
1773 1 41.99962736594135 12.65104983253526 1.446571305922082 0 0 0
1779 1 45.65180899706035 12.651049832535259 1.4465713059220804 0 0 0
1775 5 42.00008739581083 14.760115762279767 0.00869123082494585 0 0 0
1781 5 45.65226902692983 14.760115762279765 0.00869123082494488 0 0 0
1774 1 43.8257181815009 15.813931904319261 1.4465713059220842 0 0 0
1771 4 43.82456243293625 13.704144570119444 2.8838057451950645 0 0 0
1772 4 41.99847161737699 16.867026641903447 2.883805745195064 0 0 0
1778 4 45.65065324849599 16.867026641903447 2.8838057451950645 0 0 0
1623 1 49.30399062817935 12.65104983253526 1.446571305922083 -1 0 0
1625 5 49.30445065804883 14.760115762279767 0.008691230824945816 -1 0 0
1780 1 47.4778998126199 15.813931904319261 1.446571305922085 0 0 0
1624 1 51.1300814437389 15.813931904319261 1.4465713059220842 -1 0 0
1777 4 47.47674406405525 13.704144570119443 2.8838057451950636 0 0 0
1621 4 51.128925695174246 13.704144570119444 2.883805745195065 -1 0 0
1622 4 49.302834879615 16.867026641903447 2.8838057451950645 -1 0 0
1629 1 52.956172259298356 12.65104983253526 1.4465713059220822 -1 0 0
1635 1 56.608353890417355 12.65104983253526 1.4465713059220822 -1 0 0
1631 5 52.95663228916783 14.760115762279765 0.00869123082494523 -1 0 0
1637 5 56.60881392028683 14.760115762279765 0.008691230824945228 -1 0 0
1630 1 54.7822630748579 15.813931904319261 1.446571305922084 -1 0 0
1627 4 54.781107326293245 13.704144570119444 2.8838057451950645 -1 0 0
1628 4 52.955016510734 16.867026641903447 2.8838057451950645 -1 0 0
1634 4 56.607198141853 16.867026641903447 2.8838057451950645 -1 0 0
1641 1 60.260535521536355 12.65104983253526 1.4465713059220822 -1 0 0
1643 5 60.26099555140583 14.760115762279765 0.008691230824945226 -1 0 0
1636 1 58.4344447059769 15.813931904319261 1.446571305922084 -1 0 0
1642 1 62.0866263370959 15.813931904319261 1.4465713059220842 -1 0 0
1633 4 58.433288957412245 13.704144570119444 2.8838057451950645 -1 0 0
1639 4 62.085470588531244 13.704144570119444 2.8838057451950645 -1 0 0
1640 4 60.259379772972 16.867026641903447 2.8838057451950645 -1 0 0
1647 1 63.912717152655354 12.65104983253526 1.4465713059220826 -1 0 0
1653 1 67.56489878377435 12.651049832535259 1.44657130592208 -1 0 0
1649 5 63.91317718252483 14.760115762279767 0.008691230824945873 -1 0 0
1655 5 67.56535881364383 14.760115762279765 0.008691230824944716 -1 0 0
1648 1 65.7388079682149 15.813931904319261 1.446571305922084 -1 0 0
1654 1 69.3909895993339 15.813931904319261 1.4465713059220842 -1 0 0
1645 4 65.73765221965024 13.704144570119444 2.8838057451950645 -1 0 0
1651 4 69.38983385076924 13.704144570119443 2.883805745195063 -1 0 0
1646 4 63.911561404090996 16.867026641903447 2.883805745195064 -1 0 0
1652 4 67.56374303521 16.867026641903447 2.883805745195064 -1 0 0
1659 1 71.21708041489336 12.65104983253526 1.4465713059220842 -1 0 0
1665 1 74.86926204601235 12.651049832535259 1.4465713059220797 -1 0 0
1661 5 71.21754044476283 14.760115762279765 0.00869123082494548 -1 0 0
1667 5 74.86972207588182 14.760115762279765 0.00869123082494492 -1 0 0
1660 1 73.0431712304529 15.813931904319261 1.446571305922084 -1 0 0
1657 4 73.04201548188824 13.704144570119446 2.8838057451950663 -1 0 0
1658 4 71.215924666329 16.867026641903447 2.8838057451950654 -1 0 0
1664 4 74.868106297448 16.867026641903447 2.883805745195064 -1 0 0
1671 1 78.52144367713136 12.65104983253526 1.4465713059220842 -1 0 0
1673 5 78.52190370700083 14.760115762279765 0.00869123082494548 -1 0 0
1666 1 76.6953528615719 15.813931904319261 1.4465713059220842 -1 0 0
1672 1 80.3475344926909 15.813931904319261 1.446571305922084 -1 0 0
1663 4 76.69419711300723 13.704144570119443 2.883805745195063 -1 0 0
1669 4 80.34637874412624 13.704144570119444 2.8838057451950654 -1 0 0
1670 4 78.520287928567 16.867026641903447 2.883805745195065 -1 0 0
1677 1 82.17362530825035 12.65104983253526 1.446571305922082 -1 0 0
1683 1 85.82580693936936 12.65104983253526 1.4465713059220806 -1 0 0
1679 5 82.17408533811982 14.760115762279765 0.008691230824945112 -1 0 0
1685 5 85.82626696923883 14.760115762279765 0.008691230824944834 -1 0 0
1678 1 83.9997161238099 15.813931904319261 1.4465713059220842 -1 0 0
1675 4 83.99856037524525 13.704144570119444 2.883805745195065 -1 0 0
1676 4 82.172469559686 16.867026641903447 2.8838057451950645 -1 0 0
1682 4 85.824651190805 16.867026641903447 2.883805745195065 -1 0 0
1689 1 89.47798857048835 12.65104983253526 1.4465713059220828 -1 0 0
1691 5 89.47844860035784 14.760115762279767 0.008691230824946342 -1 0 0
1684 1 87.65189775492891 15.813931904319261 1.4465713059220842 -1 0 0
1690 1 91.3040793860479 15.813931904319261 1.446571305922084 -1 0 0
1681 4 87.65074200636424 13.704144570119444 2.883805745195064 -1 0 0
1687 4 91.30292363748325 13.704144570119444 2.883805745195064 -1 0 0
1688 4 89.476832821924 16.867026641903447 2.8838057451950627 -1 0 0
1702 1 98.6084426482859 15.813931904319261 1.4465713059220853 -1 0 0
1695 1 93.13017020160736 12.651049832535259 1.4465713059220804 -1 0 0
1701 1 96.78235183272635 12.65104983253526 1.4465713059220842 -1 0 0
1697 5 93.13063023147683 14.760115762279765 0.008691230824945478 -1 0 0
1703 5 96.78281186259584 14.760115762279764 0.00869123082494419 -1 0 0
1696 1 94.95626101716691 15.81393190431926 1.4465713059220824 -1 0 0
1693 4 94.95510526860224 13.704144570119444 2.883805745195065 -1 0 0