LAMMPS data file via write_data, version 29 Aug 2024, timestep = 1, units = metal

8064 atoms
12 atom types

0 98.767371608304 xlo xhi
0 99.7908950241 ylo yhi
-50 50 zlo zhi

Masses

1 26.9815385
2 26.9815385
3 26.9815385
4 26.9815385
5 26.9815385
6 26.9815385
7 127.6
8 127.6
9 127.6
10 127.6
11 127.6
12 127.6

Atoms # atomic

1445 7 0 1.1879868455249414 -0.0021929187202282315 0 0 0
1441 1 2.057653575172999 5.115774538568326e-14 1.2811142257111772 0 0 0
1453 7 4.115307150345998 1.1879868455249425 -0.0021929187202294038 0 0 0
1442 1 0 3.5639605365750526 1.2811142257111758 0 0 0
1450 1 4.115307150345998 3.5639605365750517 1.281114225711177 0 0 0
1446 7 2.057653575172999 4.751947382099943 -0.0021929187202279457 0 0 0
1449 1 6.1729607255189975 5.1212612635334765e-14 1.281114225711177 0 0 0
1461 7 8.230614300691997 1.1879868455249425 -0.0021929187202294038 0 0 0
1457 1 10.288267875864996 5.1157770291379884e-14 1.2811142257111772 0 0 0
1458 1 8.230614300691997 3.5639605365750517 1.281114225711177 0 0 0
1454 7 6.1729607255189975 4.751947382099943 -0.0021929187202278867 0 0 0
1462 7 10.288267875864996 4.751947382099943 -0.002192918720227946 0 0 0
1469 7 12.345921451037997 1.1879868455249416 -0.002192918720228292 0 0 0
1465 1 14.403575026211 5.22564601920273e-14 1.2811142257111758 0 0 0
1477 7 16.461228601383997 1.1879868455249436 -0.0021929187202305465 0 0 0
1466 1 12.345921451037997 3.5639605365750526 1.2811142257111758 0 0 0
1474 1 16.461228601383997 3.5639605365750504 1.281114225711178 0 0 0
1470 7 14.403575026211 4.751947382099942 -0.0021929187202268203 0 0 0
1473 1 18.518882176556996 5.124202626304172e-14 1.281114225711177 0 0 0
1485 7 20.57653575173 1.1879868455249405 -0.0021929187202270476 0 0 0
1481 1 22.634189326903 5.1191617133085006e-14 1.281114225711177 0 0 0
1482 1 20.57653575173 3.5639605365750535 1.2811142257111747 0 0 0
1478 7 18.518882176556996 4.751947382099943 -0.002192918720228047 0 0 0
1486 7 22.634189326903 4.751947382099943 -0.002192918720228101 0 0 0
1493 7 24.691842902076 1.1879868455249425 -0.0021929187202293044 0 0 0
1501 7 28.807150052422 1.1879868455249425 -0.0021929187202293053 0 0 0
1489 1 26.749496477249 5.129701804117631e-14 1.281114225711177 0 0 0
1490 1 24.691842902076 3.5639605365750513 1.281114225711177 0 0 0
1498 1 28.807150052422 3.5639605365750513 1.281114225711177 0 0 0
1494 7 26.749496477249 4.751947382099943 -0.002192918720227987 0 0 0
1509 7 32.922457202768 1.1879868455249425 -0.0021929187202293053 0 0 0
1497 1 30.864803627595 5.129699313547969e-14 1.281114225711177 0 0 0
1506 1 32.922457202768 3.5639605365750513 1.281114225711177 0 0 0
1502 7 30.864803627595 4.751947382099943 -0.002192918720227987 0 0 0
1517 7 37.037764353114 1.1879868455249425 -0.0021929187202294185 0 0 0
1505 1 34.98011077794099 5.129699313547969e-14 1.281114225711177 0 0 0
1513 1 39.095417928287 5.332000815474541e-14 1.2811142257111747 0 0 0
1514 1 37.037764353114 3.5639605365750513 1.2811142257111772 0 0 0
1510 7 34.98011077794099 4.751947382099943 -0.002192918720227987 0 0 0
1518 7 39.095417928287 4.751947382099941 -0.0021929187202257387 0 0 0
1525 7 41.15307150346 1.1879868455249425 -0.002192918720229418 0 0 0
1521 1 43.210725078633004 5.129701804117631e-14 1.281114225711177 0 0 0
1533 7 45.268378653805996 1.1879868455249425 -0.002192918720229305 0 0 0
1522 1 41.15307150346 3.5639605365750513 1.2811142257111772 0 0 0
1530 1 45.268378653805996 3.5639605365750513 1.281114225711177 0 0 0
1526 7 43.210725078633004 4.751947382099943 -0.0021929187202279874 0 0 0
1529 1 47.326032228979 5.1241104752266817e-14 1.281114225711177 0 0 0
1349 7 49.383685804152 1.1879868455249414 -0.0021929187202282315 -1 0 0
1345 1 51.441339379325 5.115774538568326e-14 1.2811142257111772 -1 0 0
1346 1 49.383685804152 3.5639605365750526 1.2811142257111758 -1 0 0
1534 7 47.326032228979 4.751947382099943 -0.0021929187202280455 0 0 0
1350 7 51.441339379325 4.751947382099943 -0.0021929187202279457 -1 0 0
1357 7 53.498992954498 1.1879868455249425 -0.0021929187202294627 -1 0 0
1353 1 55.556646529671 5.226094321741871e-14 1.2811142257111758 -1 0 0
1365 7 57.614300104844 1.1879868455249425 -0.002192918720229365 -1 0 0
1354 1 53.498992954498 3.5639605365750517 1.281114225711177 -1 0 0
1362 1 57.614300104844 3.5639605365750513 1.281114225711177 -1 0 0
1358 7 55.556646529671 4.751947382099942 -0.002192918720226815 -1 0 0
1361 1 59.671953680017005 5.124112965796344e-14 1.281114225711177 -1 0 0
1373 7 61.729607255190004 1.1879868455249414 -0.0021929187202282315 -1 0 0
1369 1 63.787260830363 5.1209150743504734e-14 1.281114225711177 -1 0 0
1370 1 61.729607255190004 3.5639605365750526 1.2811142257111758 -1 0 0
1366 7 59.671953680017005 4.751947382099943 -0.0021929187202280455 -1 0 0
1374 7 63.787260830363 4.751947382099943 -0.0021929187202278924 -1 0 0
1381 7 65.844914405536 1.1879868455249436 -0.002192918720230487 -1 0 0
1377 1 67.902567980709 5.124202626304172e-14 1.281114225711177 -1 0 0
1378 1 65.844914405536 3.5639605365750504 1.281114225711178 -1 0 0
1382 7 67.902567980709 4.751947382099943 -0.002192918720228047 -1 0 0
1389 7 69.960221555882 1.1879868455249405 -0.0021929187202270476 -1 0 0
1385 1 72.017875131055 5.119164203878162e-14 1.281114225711177 -1 0 0
1397 7 74.075528706228 1.1879868455249425 -0.002192918720229305 -1 0 0
1386 1 69.960221555882 3.5639605365750535 1.2811142257111747 -1 0 0
1394 1 74.075528706228 3.5639605365750513 1.281114225711177 -1 0 0
1390 7 72.017875131055 4.751947382099943 -0.002192918720228101 -1 0 0
1393 1 76.133182281401 5.129701804117631e-14 1.281114225711177 -1 0 0
1405 7 78.190835856574 1.1879868455249425 -0.0021929187202293044 -1 0 0
1401 1 80.248489431747 5.129699313547969e-14 1.281114225711177 -1 0 0
1402 1 78.190835856574 3.5639605365750513 1.281114225711177 -1 0 0
1398 7 76.133182281401 4.751947382099943 -0.002192918720227987 -1 0 0
1406 7 80.248489431747 4.751947382099943 -0.0021929187202279874 -1 0 0
1413 7 82.30614300692 1.1879868455249425 -0.002192918720229418 -1 0 0
1409 1 84.363796582093 5.332000815474541e-14 1.2811142257111747 -1 0 0
1421 7 86.42145015726601 1.1879868455249425 -0.002192918720229306 -1 0 0
1410 1 82.30614300692 3.5639605365750513 1.2811142257111772 -1 0 0
1418 1 86.42145015726601 3.5639605365750513 1.281114225711177 -1 0 0
1414 7 84.363796582093 4.751947382099941 -0.0021929187202257383 -1 0 0
1429 7 90.53675730761199 1.1879868455249425 -0.0021929187202293057 -1 0 0
1417 1 88.479103732439 4.927208528327094e-14 1.2811142257111792 -1 0 0
1425 1 92.594410882785 5.332000815474541e-14 1.2811142257111747 -1 0 0
1426 1 90.53675730761199 3.5639605365750513 1.281114225711177 -1 0 0
1422 7 88.479103732439 4.751947382099946 -0.002192918720230238 -1 0 0
1430 7 92.594410882785 4.751947382099941 -0.0021929187202257387 -1 0 0
1437 7 94.652064457958 1.1879868455249425 -0.002192918720229418 -1 0 0
1433 1 96.709718033131 5.124112965796344e-14 1.281114225711177 -1 0 0
1434 1 94.652064457958 3.5639605365750513 1.2811142257111772 -1 0 0
1438 7 96.709718033131 4.751947382099943 -0.002192918720228045 -1 0 0
1633 1 2.057653575172999 7.127921073150055 1.2811142257111772 0 0 0
1637 7 0 8.315907918674945 -0.0021929187202266716 0 0 0
1645 7 4.115307150345998 8.315907918674947 -0.002192918720227742 0 0 0
1634 1 0 10.691881609725057 1.2811142257111774 0 0 0
1642 1 4.115307150345998 10.691881609725055 1.2811142257111785 0 0 0
1641 1 6.1729607255189975 7.127921073150055 1.281114225711177 0 0 0
1649 1 10.288267875864996 7.127921073150055 1.2811142257111772 0 0 0
1653 7 8.230614300691997 8.315907918674947 -0.0021929187202277423 0 0 0
1650 1 8.230614300691997 10.691881609725055 1.2811142257111785 0 0 0
1657 1 14.403575026211 7.1279210731500555 1.281114225711176 0 0 0
1661 7 12.345921451037997 8.315907918674945 -0.0021929187202267292 0 0 0
1669 7 16.461228601383997 8.315907918674947 -0.0021929187202289827 0 0 0
1658 1 12.345921451037997 10.691881609725057 1.2811142257111774 0 0 0
1666 1 16.461228601383997 10.691881609725055 1.2811142257111796 0 0 0
1665 1 18.518882176556996 7.127921073150055 1.2811142257111772 0 0 0
1673 1 22.634189326903 7.127921073150055 1.2811142257111772 0 0 0
1677 7 20.57653575173 8.315907918674943 -0.002192918720225594 0 0 0
1674 1 20.57653575173 10.691881609725057 1.281114225711176 0 0 0
1681 1 26.749496477249 7.127921073150055 1.2811142257111772 0 0 0
1685 7 24.691842902076 8.315907918674947 -0.002192918720227843 0 0 0
1693 7 28.807150052422 8.315907918674947 -0.002192918720227843 0 0 0
1682 1 24.691842902076 10.691881609725055 1.2811142257111785 0 0 0
1690 1 28.807150052422 10.691881609725055 1.2811142257111785 0 0 0
1689 1 30.864803627595 7.127921073150055 1.2811142257111772 0 0 0
1701 7 32.922457202768 8.315907918674947 -0.002192918720227843 0 0 0
1698 1 32.922457202768 10.691881609725055 1.2811142257111785 0 0 0
1697 1 34.98011077794099 7.127921073150055 1.2811142257111772 0 0 0
1705 1 39.095417928287 7.127921073150056 1.281114225711175 0 0 0
1709 7 37.037764353114 8.315907918674947 -0.002192918720227958 0 0 0
1706 1 37.037764353114 10.691881609725055 1.2811142257111785 0 0 0
1713 1 43.210725078633004 7.127921073150055 1.2811142257111772 0 0 0
1717 7 41.15307150346 8.315907918674947 -0.002192918720227958 0 0 0
1725 7 45.268378653805996 8.315907918674947 -0.002192918720227843 0 0 0
1714 1 41.15307150346 10.691881609725055 1.2811142257111785 0 0 0
1722 1 45.268378653805996 10.691881609725055 1.2811142257111785 0 0 0
1721 1 47.326032228979 7.127921073150055 1.2811142257111772 0 0 0
1537 1 51.441339379325 7.127921073150055 1.2811142257111772 -1 0 0
1541 7 49.383685804152 8.315907918674945 -0.002192918720226671 -1 0 0
1538 1 49.383685804152 10.691881609725057 1.2811142257111774 -1 0 0
1545 1 55.556646529671 7.1279210731500555 1.281114225711176 -1 0 0
1549 7 53.498992954498 8.315907918674947 -0.0021929187202278013 -1 0 0
1557 7 57.614300104844 8.315907918674947 -0.002192918720227901 -1 0 0
1546 1 53.498992954498 10.691881609725055 1.2811142257111785 -1 0 0
1554 1 57.614300104844 10.691881609725055 1.2811142257111785 -1 0 0
1553 1 59.671953680017005 7.127921073150055 1.2811142257111772 -1 0 0
1561 1 63.787260830363 7.127921073150055 1.281114225711177 -1 0 0
1565 7 61.729607255190004 8.315907918674945 -0.002192918720226671 -1 0 0
1562 1 61.729607255190004 10.691881609725057 1.2811142257111774 -1 0 0
1569 1 67.902567980709 7.127921073150055 1.2811142257111772 -1 0 0
1573 7 65.844914405536 8.315907918674947 -0.002192918720228924 -1 0 0
1570 1 65.844914405536 10.691881609725055 1.2811142257111796 -1 0 0
1577 1 72.017875131055 7.127921073150055 1.2811142257111772 -1 0 0
1581 7 69.960221555882 8.315907918674943 -0.002192918720225594 -1 0 0
1589 7 74.075528706228 8.315907918674947 -0.002192918720227843 -1 0 0
1578 1 69.960221555882 10.691881609725057 1.281114225711176 -1 0 0
1586 1 74.075528706228 10.691881609725055 1.2811142257111785 -1 0 0
1585 1 76.133182281401 7.127921073150055 1.2811142257111772 -1 0 0
1593 1 80.248489431747 7.127921073150055 1.2811142257111772 -1 0 0
1597 7 78.190835856574 8.315907918674947 -0.002192918720227843 -1 0 0
1594 1 78.190835856574 10.691881609725055 1.2811142257111785 -1 0 0
1601 1 84.363796582093 7.127921073150056 1.281114225711175 -1 0 0
1605 7 82.30614300692 8.315907918674947 -0.002192918720227958 -1 0 0
1613 7 86.42145015726601 8.315907918674947 -0.002192918720227844 -1 0 0
1602 1 82.30614300692 10.691881609725055 1.2811142257111785 -1 0 0
1610 1 86.42145015726601 10.691881609725055 1.2811142257111785 -1 0 0
1609 1 88.479103732439 7.127921073150052 1.2811142257111794 -1 0 0
1617 1 92.594410882785 7.127921073150056 1.281114225711175 -1 0 0
1621 7 90.53675730761199 8.315907918674947 -0.002192918720227844 -1 0 0
1618 1 90.53675730761199 10.691881609725055 1.2811142257111785 -1 0 0
1625 1 96.709718033131 7.127921073150055 1.2811142257111772 -1 0 0
1629 7 94.652064457958 8.315907918674947 -0.002192918720227958 -1 0 0
1626 1 94.652064457958 10.691881609725055 1.2811142257111785 -1 0 0
1638 7 2.057653575172999 11.879868455249945 -0.002192918720229408 0 0 0
1825 1 2.057653575172999 14.255842146300052 1.281114225711177 0 0 0
1829 7 0 15.443828991824942 -0.0021929187202280103 0 0 0
1837 7 4.115307150345998 15.443828991824942 -0.0021929187202290815 0 0 0
1646 7 6.1729607255189975 11.879868455249945 -0.002192918720229349 0 0 0
1654 7 10.288267875864996 11.879868455249945 -0.0021929187202294085 0 0 0
1833 1 6.1729607255189975 14.255842146300052 1.2811142257111767 0 0 0
1841 1 10.288267875864996 14.255842146300052 1.281114225711177 0 0 0
1845 7 8.230614300691997 15.443828991824942 -0.002192918720229081 0 0 0
1662 7 14.403575026211 11.879868455249943 -0.002192918720228183 0 0 0
1849 1 14.403575026211 14.255842146300054 1.2811142257111758 0 0 0
1853 7 12.345921451037997 15.443828991824942 -0.002192918720228068 0 0 0
1861 7 16.461228601383997 15.443828991824944 -0.0021929187202303197 0 0 0
1670 7 18.518882176556996 11.879868455249945 -0.0021929187202293136 0 0 0
1678 7 22.634189326903 11.879868455249945 -0.0021929187202293678 0 0 0
1857 1 18.518882176556996 14.255842146300052 1.281114225711177 0 0 0
1865 1 22.634189326903 14.255842146300052 1.281114225711177 0 0 0
1869 7 20.57653575173 15.44382899182494 -0.0021929187202269326 0 0 0
1686 7 26.749496477249 11.879868455249945 -0.002192918720229254 0 0 0
1873 1 26.749496477249 14.255842146300052 1.281114225711177 0 0 0
1877 7 24.691842902076 15.443828991824942 -0.0021929187202291795 0 0 0
1885 7 28.807150052422 15.443828991824942 -0.0021929187202291795 0 0 0
1694 7 30.864803627595 11.879868455249945 -0.002192918720229254 0 0 0
1881 1 30.864803627595 14.255842146300052 1.281114225711177 0 0 0
1893 7 32.922457202768 15.443828991824942 -0.0021929187202291795 0 0 0
1702 7 34.98011077794099 11.879868455249945 -0.002192918720229254 0 0 0
1710 7 39.095417928287 11.879868455249943 -0.002192918720226995 0 0 0
1889 1 34.98011077794099 14.255842146300052 1.281114225711177 0 0 0
1897 1 39.095417928287 14.255842146300054 1.2811142257111747 0 0 0
1901 7 37.037764353114 15.443828991824942 -0.0021929187202292936 0 0 0
1718 7 43.210725078633004 11.879868455249945 -0.002192918720229254 0 0 0
1905 1 43.210725078633004 14.255842146300052 1.281114225711177 0 0 0
1909 7 41.15307150346 15.443828991824942 -0.0021929187202292936 0 0 0
1917 7 45.268378653805996 15.443828991824942 -0.0021929187202291795 0 0 0
1726 7 47.326032228979 11.879868455249945 -0.002192918720229314 0 0 0
1542 7 51.441339379325 11.879868455249945 -0.002192918720229408 -1 0 0
1913 1 47.326032228979 14.255842146300052 1.281114225711177 0 0 0
1729 1 51.441339379325 14.255842146300052 1.281114225711177 -1 0 0
1733 7 49.383685804152 15.443828991824942 -0.00219291872022801 -1 0 0
1550 7 55.556646529671 11.879868455249943 -0.002192918720228178 -1 0 0
1737 1 55.556646529671 14.255842146300054 1.2811142257111758 -1 0 0
1741 7 53.498992954498 15.443828991824942 -0.0021929187202291405 -1 0 0
1749 7 57.614300104844 15.443828991824942 -0.0021929187202292377 -1 0 0
1558 7 59.671953680017005 11.879868455249945 -0.002192918720229314 -1 0 0
1566 7 63.787260830363 11.879868455249945 -0.0021929187202293535 -1 0 0
1745 1 59.671953680017005 14.255842146300052 1.281114225711177 -1 0 0
1753 1 63.787260830363 14.255842146300052 1.2811142257111767 -1 0 0
1757 7 61.729607255190004 15.443828991824942 -0.00219291872022801 -1 0 0
1574 7 67.902567980709 11.879868455249945 -0.0021929187202293136 -1 0 0
1761 1 67.902567980709 14.255842146300052 1.281114225711177 -1 0 0
1765 7 65.844914405536 15.443828991824944 -0.00219291872023026 -1 0 0
1582 7 72.017875131055 11.879868455249945 -0.0021929187202293678 -1 0 0
1769 1 72.017875131055 14.255842146300052 1.281114225711177 -1 0 0
1773 7 69.960221555882 15.44382899182494 -0.0021929187202269326 -1 0 0
1781 7 74.075528706228 15.443828991824942 -0.0021929187202291795 -1 0 0
1590 7 76.133182281401 11.879868455249945 -0.002192918720229254 -1 0 0
1598 7 80.248489431747 11.879868455249945 -0.002192918720229254 -1 0 0
1777 1 76.133182281401 14.255842146300052 1.281114225711177 -1 0 0
1785 1 80.248489431747 14.255842146300052 1.281114225711177 -1 0 0
1789 7 78.190835856574 15.443828991824942 -0.0021929187202291795 -1 0 0
1606 7 84.363796582093 11.879868455249943 -0.002192918720226995 -1 0 0
1793 1 84.363796582093 14.255842146300054 1.2811142257111747 -1 0 0
1797 7 82.30614300692 15.443828991824942 -0.0021929187202292936 -1 0 0
1805 7 86.42145015726601 15.443828991824942 -0.0021929187202291804 -1 0 0
1614 7 88.479103732439 11.879868455249946 -0.002192918720231516 -1 0 0
1622 7 92.594410882785 11.879868455249943 -0.002192918720226995 -1 0 0
1801 1 88.479103732439 14.25584214630005 1.2811142257111792 -1 0 0
1809 1 92.594410882785 14.255842146300054 1.2811142257111747 -1 0 0
1813 7 90.53675730761199 15.443828991824942 -0.0021929187202291804 -1 0 0
1630 7 96.709718033131 11.879868455249945 -0.0021929187202293144 -1 0 0
1817 1 96.709718033131 14.255842146300052 1.281114225711177 -1 0 0
1821 7 94.652064457958 15.443828991824942 -0.0021929187202292936 -1 0 0
1826 1 0 17.819802682875054 1.2811142257111772 0 0 0
1834 1 4.115307150345998 17.81980268287505 1.2811142257111783 0 0 0
1830 7 2.057653575172999 19.007789528399943 -0.0021929187202264196 0 0 0
2021 7 0 22.571750064974943 -0.0021929187202283417 0 0 0
2017 1 2.057653575172999 21.383763219450053 1.2811142257111785 0 0 0
2029 7 4.115307150345998 22.571750064974943 -0.0021929187202293157 0 0 0
1842 1 8.230614300691997 17.81980268287505 1.2811142257111783 0 0 0
1838 7 6.1729607255189975 19.007789528399943 -0.00219291872022636 0 0 0
1846 7 10.288267875864996 19.007789528399943 -0.002192918720226419 0 0 0
2025 1 6.1729607255189975 21.383763219450053 1.2811142257111785 0 0 0
2037 7 8.230614300691997 22.571750064974943 -0.0021929187202293157 0 0 0
2033 1 10.288267875864996 21.383763219450053 1.2811142257111785 0 0 0
1850 1 12.345921451037997 17.819802682875054 1.2811142257111772 0 0 0
1858 1 16.461228601383997 17.81980268287505 1.2811142257111796 0 0 0
1854 7 14.403575026211 19.007789528399943 -0.002192918720225295 0 0 0
2045 7 12.345921451037997 22.571750064974943 -0.002192918720228399 0 0 0
2041 1 14.403575026211 21.383763219450053 1.2811142257111774 0 0 0
2053 7 16.461228601383997 22.571750064974943 -0.002192918720230553 0 0 0
1866 1 20.57653575173 17.819802682875054 1.281114225711176 0 0 0
1862 7 18.518882176556996 19.007789528399943 -0.0021929187202265193 0 0 0
1870 7 22.634189326903 19.007789528399943 -0.0021929187202265736 0 0 0
2049 1 18.518882176556996 21.383763219450053 1.2811142257111787 0 0 0
2061 7 20.57653575173 22.571750064974943 -0.0021929187202273603 0 0 0
2057 1 22.634189326903 21.383763219450053 1.2811142257111787 0 0 0
1874 1 24.691842902076 17.81980268287505 1.2811142257111783 0 0 0
1882 1 28.807150052422 17.81980268287505 1.2811142257111783 0 0 0
1878 7 26.749496477249 19.007789528399943 -0.002192918720226459 0 0 0
2069 7 24.691842902076 22.571750064974943 -0.0021929187202295113 0 0 0
2077 7 28.807150052422 22.571750064974943 -0.0021929187202295113 0 0 0
2065 1 26.749496477249 21.383763219450053 1.2811142257111787 0 0 0
1890 1 32.922457202768 17.81980268287505 1.2811142257111783 0 0 0
1886 7 30.864803627595 19.007789528399943 -0.002192918720226459 0 0 0
2085 7 32.922457202768 22.571750064974943 -0.0021929187202295113 0 0 0
2073 1 30.864803627595 21.383763219450053 1.2811142257111787 0 0 0
1898 1 37.037764353114 17.81980268287505 1.2811142257111785 0 0 0
1894 7 34.98011077794099 19.007789528399943 -0.002192918720226459 0 0 0
1902 7 39.095417928287 19.00778952839994 -0.0021929187202242143 0 0 0
2093 7 37.037764353114 22.571750064974943 -0.0021929187202296254 0 0 0
2081 1 34.98011077794099 21.383763219450053 1.2811142257111787 0 0 0
2089 1 39.095417928287 21.383763219450053 1.2811142257111765 0 0 0
1906 1 41.15307150346 17.81980268287505 1.2811142257111785 0 0 0
1914 1 45.268378653805996 17.81980268287505 1.2811142257111783 0 0 0
1910 7 43.210725078633004 19.007789528399943 -0.002192918720226459 0 0 0
2101 7 41.15307150346 22.571750064974943 -0.002192918720229625 0 0 0
2097 1 43.210725078633004 21.383763219450053 1.2811142257111787 0 0 0
2109 7 45.268378653805996 22.571750064974943 -0.0021929187202295117 0 0 0
1730 1 49.383685804152 17.819802682875054 1.2811142257111772 -1 0 0
1918 7 47.326032228979 19.007789528399943 -0.002192918720226517 0 0 0
1734 7 51.441339379325 19.007789528399943 -0.0021929187202264196 -1 0 0
2105 1 47.326032228979 21.383763219450053 1.2811142257111787 0 0 0
1925 7 49.383685804152 22.571750064974943 -0.0021929187202283417 -1 0 0
1921 1 51.441339379325 21.383763219450053 1.2811142257111785 -1 0 0
1738 1 53.498992954498 17.81980268287505 1.2811142257111783 -1 0 0
1746 1 57.614300104844 17.81980268287505 1.2811142257111785 -1 0 0
1742 7 55.556646529671 19.007789528399943 -0.0021929187202252903 -1 0 0
1933 7 53.498992954498 22.571750064974943 -0.0021929187202293756 -1 0 0
1929 1 55.556646529671 21.383763219450053 1.2811142257111774 -1 0 0
1941 7 57.614300104844 22.571750064974943 -0.0021929187202295686 -1 0 0
1754 1 61.729607255190004 17.819802682875054 1.2811142257111772 -1 0 0
1750 7 59.671953680017005 19.007789528399943 -0.002192918720226517 -1 0 0
1758 7 63.787260830363 19.007789528399943 -0.0021929187202263663 -1 0 0
1937 1 59.671953680017005 21.383763219450053 1.2811142257111787 -1 0 0
1949 7 61.729607255190004 22.571750064974943 -0.0021929187202283417 -1 0 0
1945 1 63.787260830363 21.383763219450053 1.2811142257111785 -1 0 0
1762 1 65.844914405536 17.81980268287505 1.2811142257111794 -1 0 0
1766 7 67.902567980709 19.007789528399943 -0.0021929187202265198 -1 0 0
1957 7 65.844914405536 22.571750064974943 -0.0021929187202304927 -1 0 0
1953 1 67.902567980709 21.383763219450053 1.2811142257111787 -1 0 0
1770 1 69.960221555882 17.819802682875054 1.281114225711176 -1 0 0
1778 1 74.075528706228 17.81980268287505 1.2811142257111783 -1 0 0
1774 7 72.017875131055 19.007789528399943 -0.0021929187202265736 -1 0 0
1965 7 69.960221555882 22.571750064974943 -0.0021929187202273603 -1 0 0
1961 1 72.017875131055 21.383763219450053 1.2811142257111787 -1 0 0
1973 7 74.075528706228 22.571750064974943 -0.0021929187202295113 -1 0 0
1786 1 78.190835856574 17.81980268287505 1.2811142257111783 -1 0 0
1782 7 76.133182281401 19.007789528399943 -0.002192918720226459 -1 0 0
1790 7 80.248489431747 19.007789528399943 -0.0021929187202264595 -1 0 0
1969 1 76.133182281401 21.383763219450053 1.2811142257111787 -1 0 0
1981 7 78.190835856574 22.571750064974943 -0.0021929187202295113 -1 0 0
1977 1 80.248489431747 21.383763219450053 1.2811142257111787 -1 0 0
1794 1 82.30614300692 17.81980268287505 1.2811142257111785 -1 0 0
1802 1 86.42145015726601 17.81980268287505 1.2811142257111783 -1 0 0
1798 7 84.363796582093 19.00778952839994 -0.002192918720224214 -1 0 0
1989 7 82.30614300692 22.571750064974943 -0.002192918720229625 -1 0 0
1985 1 84.363796582093 21.383763219450053 1.2811142257111765 -1 0 0
1997 7 86.42145015726601 22.571750064974943 -0.0021929187202295096 -1 0 0
1810 1 90.53675730761199 17.81980268287505 1.2811142257111783 -1 0 0
1806 7 88.479103732439 19.007789528399947 -0.0021929187202287064 -1 0 0
1814 7 92.594410882785 19.00778952839994 -0.0021929187202242143 -1 0 0
2005 7 90.53675730761199 22.571750064974943 -0.0021929187202295096 -1 0 0
1993 1 88.479103732439 21.38376321945005 1.2811142257111807 -1 0 0
2001 1 92.594410882785 21.383763219450053 1.2811142257111765 -1 0 0
1818 1 94.652064457958 17.81980268287505 1.2811142257111785 -1 0 0
1822 7 96.709718033131 19.007789528399943 -0.002192918720226517 -1 0 0
2013 7 94.652064457958 22.571750064974943 -0.002192918720229625 -1 0 0
2009 1 96.709718033131 21.383763219450053 1.2811142257111787 -1 0 0
2022 7 2.057653575172999 26.135710601549945 -0.0021929187202291934 0 0 0
2018 1 0 24.947723756025052 1.2811142257111745 0 0 0
2026 1 4.115307150345998 24.947723756025052 1.2811142257111754 0 0 0
2209 1 2.057653575172999 28.51168429260005 1.2811142257111783 0 0 0
2030 7 6.1729607255189975 26.135710601549945 -0.0021929187202291336 0 0 0
2034 1 8.230614300691997 24.947723756025052 1.2811142257111754 0 0 0
2038 7 10.288267875864996 26.135710601549945 -0.002192918720229194 0 0 0
2217 1 6.1729607255189975 28.51168429260005 1.2811142257111783 0 0 0
2225 1 10.288267875864996 28.51168429260005 1.2811142257111783 0 0 0
2042 1 12.345921451037997 24.947723756025052 1.2811142257111745 0 0 0
2046 7 14.403575026211 26.135710601549942 -0.002192918720228067 0 0 0
2050 1 16.461228601383997 24.947723756025052 1.2811142257111767 0 0 0
2233 1 14.403575026211 28.511684292600055 1.2811142257111772 0 0 0
2054 7 18.518882176556996 26.135710601549945 -0.0021929187202292914 0 0 0
2058 1 20.57653575173 24.947723756025056 1.2811142257111734 0 0 0
2062 7 22.634189326903 26.135710601549945 -0.002192918720229345 0 0 0
2241 1 18.518882176556996 28.51168429260005 1.2811142257111785 0 0 0
2249 1 22.634189326903 28.51168429260005 1.2811142257111785 0 0 0
2066 1 24.691842902076 24.947723756025052 1.2811142257111756 0 0 0
2070 7 26.749496477249 26.135710601549945 -0.002192918720229231 0 0 0
2074 1 28.807150052422 24.947723756025052 1.2811142257111756 0 0 0
2257 1 26.749496477249 28.51168429260005 1.2811142257111783 0 0 0
2078 7 30.864803627595 26.135710601549945 -0.002192918720229231 0 0 0
2082 1 32.922457202768 24.947723756025052 1.2811142257111756 0 0 0
2265 1 30.864803627595 28.51168429260005 1.2811142257111783 0 0 0
2086 7 34.98011077794099 26.135710601549945 -0.002192918720229231 0 0 0
2090 1 37.037764353114 24.947723756025052 1.2811142257111756 0 0 0
2094 7 39.095417928287 26.135710601549942 -0.002192918720226986 0 0 0
2273 1 34.98011077794099 28.51168429260005 1.2811142257111783 0 0 0
2281 1 39.095417928287 28.511684292600055 1.281114225711176 0 0 0
2098 1 41.15307150346 24.947723756025052 1.2811142257111756 0 0 0
2102 7 43.210725078633004 26.135710601549945 -0.002192918720229231 0 0 0
2106 1 45.268378653805996 24.947723756025052 1.2811142257111756 0 0 0
2289 1 43.210725078633004 28.51168429260005 1.2811142257111783 0 0 0
2110 7 47.326032228979 26.135710601549945 -0.0021929187202292897 0 0 0
1922 1 49.383685804152 24.947723756025052 1.2811142257111745 -1 0 0
1926 7 51.441339379325 26.135710601549945 -0.002192918720229193 -1 0 0
2297 1 47.326032228979 28.51168429260005 1.2811142257111785 0 0 0
2113 1 51.441339379325 28.51168429260005 1.2811142257111783 -1 0 0
1930 1 53.498992954498 24.947723756025052 1.2811142257111756 -1 0 0
1934 7 55.556646529671 26.135710601549942 -0.0021929187202280624 -1 0 0
1938 1 57.614300104844 24.947723756025052 1.2811142257111756 -1 0 0
2121 1 55.556646529671 28.511684292600055 1.2811142257111772 -1 0 0
1942 7 59.671953680017005 26.135710601549945 -0.0021929187202292897 -1 0 0
1946 1 61.729607255190004 24.947723756025052 1.2811142257111745 -1 0 0
1950 7 63.787260830363 26.135710601549945 -0.0021929187202291405 -1 0 0
2129 1 59.671953680017005 28.51168429260005 1.2811142257111785 -1 0 0
2137 1 63.787260830363 28.51168429260005 1.2811142257111783 -1 0 0
1954 1 65.844914405536 24.947723756025052 1.2811142257111767 -1 0 0
1958 7 67.902567980709 26.135710601549945 -0.002192918720229291 -1 0 0
2145 1 67.902567980709 28.51168429260005 1.2811142257111785 -1 0 0
1962 1 69.960221555882 24.947723756025056 1.2811142257111734 -1 0 0
1966 7 72.017875131055 26.135710601549945 -0.002192918720229346 -1 0 0
1970 1 74.075528706228 24.947723756025052 1.2811142257111756 -1 0 0
2153 1 72.017875131055 28.51168429260005 1.2811142257111785 -1 0 0
1974 7 76.133182281401 26.135710601549945 -0.002192918720229231 -1 0 0
1978 1 78.190835856574 24.947723756025052 1.2811142257111756 -1 0 0
1982 7 80.248489431747 26.135710601549945 -0.0021929187202292307 -1 0 0
2161 1 76.133182281401 28.51168429260005 1.2811142257111783 -1 0 0
2169 1 80.248489431747 28.51168429260005 1.2811142257111783 -1 0 0
1986 1 82.30614300692 24.947723756025052 1.2811142257111756 -1 0 0
1990 7 84.363796582093 26.135710601549942 -0.002192918720226986 -1 0 0
1994 1 86.42145015726601 24.947723756025052 1.2811142257111756 -1 0 0
2177 1 84.363796582093 28.511684292600055 1.281114225711176 -1 0 0
1998 7 88.479103732439 26.135710601549945 -0.002192918720231479 -1 0 0
2002 1 90.53675730761199 24.947723756025052 1.2811142257111756 -1 0 0
2006 7 92.594410882785 26.135710601549942 -0.002192918720226986 -1 0 0
2185 1 88.479103732439 28.51168429260005 1.2811142257111807 -1 0 0
2193 1 92.594410882785 28.511684292600055 1.281114225711176 -1 0 0
2010 1 94.652064457958 24.947723756025052 1.2811142257111756 -1 0 0
2014 7 96.709718033131 26.135710601549945 -0.0021929187202292893 -1 0 0
2201 1 96.709718033131 28.51168429260005 1.2811142257111785 -1 0 0
2213 7 0 29.699671138124945 -0.0021929187202252907 0 0 0
2221 7 4.115307150345998 29.699671138124945 -0.0021929187202263606 0 0 0
2214 7 2.057653575172999 33.263631674699944 -0.0021929187202293756 0 0 0
2210 1 0 32.075644829175054 1.2811142257111774 0 0 0
2218 1 4.115307150345998 32.075644829175054 1.2811142257111785 0 0 0
2229 7 8.230614300691997 29.699671138124945 -0.0021929187202263606 0 0 0
2222 7 6.1729607255189975 33.263631674699944 -0.002192918720229315 0 0 0
2226 1 8.230614300691997 32.075644829175054 1.2811142257111785 0 0 0
2230 7 10.288267875864996 33.263631674699944 -0.002192918720229376 0 0 0
2237 7 12.345921451037997 29.699671138124945 -0.0021929187202253484 0 0 0
2245 7 16.461228601383997 29.699671138124945 -0.0021929187202275983 0 0 0
2234 1 12.345921451037997 32.075644829175054 1.2811142257111776 0 0 0
2238 7 14.403575026211 33.263631674699944 -0.002192918720228346 0 0 0
2242 1 16.461228601383997 32.075644829175054 1.2811142257111796 0 0 0
2253 7 20.57653575173 29.69967113812494 -0.002192918720224214 0 0 0
2246 7 18.518882176556996 33.263631674699944 -0.002192918720229569 0 0 0
2250 1 20.57653575173 32.075644829175054 1.2811142257111765 0 0 0
2254 7 22.634189326903 33.263631674699944 -0.002192918720229625 0 0 0
2261 7 24.691842902076 29.699671138124945 -0.002192918720226459 0 0 0