LAMMPS data file via write_data, version 29 Aug 2024, timestep = 1, units = metal

5376 atoms
8 atom types

0 98.767371608304 xlo xhi
0 99.7908950241 ylo yhi
-50 50 zlo zhi

Masses

1 26.9815385
2 26.9815385
3 26.9815385
4 26.9815385
5 127.6
6 127.6
7 127.6
8 127.6

Atoms # atomic

1445 5 0 1.187986845524942 -0.002172100623975427 0 0 0
1441 1 2.057653575172999 5.0672088139159875e-14 1.2810997732941694 0 0 0
1453 5 4.115307150345998 1.187986845524943 -0.002172100623976588 0 0 0
1442 1 0 3.563960536575052 1.281099773294168 0 0 0
1450 1 4.115307150345998 3.563960536575051 1.2810997732941691 0 0 0
1446 5 2.057653575172999 4.751947382099944 -0.002172100623975144 0 0 0
1449 1 6.1729607255189975 5.072643451602488e-14 1.2810997732941694 0 0 0
1461 5 8.230614300691997 1.187986845524943 -0.002172100623976588 0 0 0
1457 1 10.288267875864996 5.067211280841856e-14 1.2810997732941694 0 0 0
1458 1 8.230614300691997 3.563960536575051 1.2810997732941691 0 0 0
1454 5 6.1729607255189975 4.751947382099944 -0.0021721006239750853 0 0 0
1462 5 10.288267875864996 4.751947382099944 -0.0021721006239751443 0 0 0
1469 5 12.345921451037997 1.187986845524942 -0.0021721006239754865 0 0 0
1465 1 14.403575026211 5.1760372485687114e-14 1.281099773294168 0 0 0
1477 5 16.461228601383997 1.187986845524944 -0.0021721006239777195 0 0 0
1466 1 12.345921451037997 3.563960536575052 1.2810997732941682 0 0 0
1474 1 16.461228601383997 3.56396053657505 1.2810997732941705 0 0 0
1470 5 14.403575026211 4.751947382099943 -0.0021721006239740293 0 0 0
1473 1 18.518882176556996 5.075556891052218e-14 1.2810997732941694 0 0 0
1485 5 20.57653575173 1.187986845524941 -0.0021721006239742544 0 0 0
1481 1 22.634189326903 5.0705638330960334e-14 1.2810997732941694 0 0 0
1482 1 20.57653575173 3.563960536575053 1.2810997732941671 0 0 0
1478 5 18.518882176556996 4.751947382099944 -0.002172100623975244 0 0 0
1486 5 22.634189326903 4.751947382099944 -0.002172100623975298 0 0 0
1493 5 24.691842902076 1.187986845524943 -0.00217210062397649 0 0 0
1501 5 28.807150052422 1.187986845524943 -0.0021721006239764904 0 0 0
1489 1 26.749496477249 5.081003863368057e-14 1.2810997732941691 0 0 0
1490 1 24.691842902076 3.563960536575051 1.2810997732941694 0 0 0
1498 1 28.807150052422 3.563960536575051 1.2810997732941694 0 0 0
1494 5 26.749496477249 4.751947382099944 -0.0021721006239751846 0 0 0
1509 5 32.922457202768 1.187986845524943 -0.0021721006239764904 0 0 0
1497 1 30.864803627595 5.081001396442189e-14 1.2810997732941691 0 0 0
1506 1 32.922457202768 3.563960536575051 1.2810997732941694 0 0 0
1502 5 30.864803627595 4.751947382099944 -0.0021721006239751846 0 0 0
1517 5 37.037764353114 1.1879868455249432 -0.0021721006239766028 0 0 0
1505 1 34.98011077794099 5.081001396442189e-14 1.2810997732941691 0 0 0
1513 1 39.095417928287 5.2813823838962696e-14 1.281099773294167 0 0 0
1514 1 37.037764353114 3.563960536575051 1.2810997732941694 0 0 0
1510 5 34.98011077794099 4.751947382099944 -0.0021721006239751846 0 0 0
1518 5 39.095417928287 4.751947382099942 -0.0021721006239729577 0 0 0
1525 5 41.15307150346 1.1879868455249432 -0.0021721006239766023 0 0 0
1521 1 43.210725078633004 5.081003863368057e-14 1.2810997732941691 0 0 0
1533 5 45.268378653805996 1.187986845524943 -0.00217210062397649 0 0 0
1522 1 41.15307150346 3.563960536575051 1.2810997732941694 0 0 0
1530 1 45.268378653805996 3.563960536575051 1.2810997732941694 0 0 0
1526 5 43.210725078633004 4.751947382099944 -0.002172100623975185 0 0 0
1529 1 47.326032228979 5.0754656147951146e-14 1.2810997732941694 0 0 0
1349 5 49.383685804152 1.187986845524942 -0.002172100623975427 -1 0 0
1345 1 51.441339379325 5.0672088139159875e-14 1.2810997732941694 -1 0 0
1346 1 49.383685804152 3.563960536575052 1.281099773294168 -1 0 0
1534 5 47.326032228979 4.751947382099944 -0.0021721006239752423 0 0 0
1350 5 51.441339379325 4.751947382099944 -0.002172100623975144 -1 0 0
1357 5 53.498992954498 1.1879868455249432 -0.0021721006239766466 -1 0 0
1353 1 55.556646529671 5.176481295224894e-14 1.281099773294168 -1 0 0
1365 5 57.614300104844 1.187986845524943 -0.00217210062397655 -1 0 0
1354 1 53.498992954498 3.563960536575051 1.2810997732941691 -1 0 0
1362 1 57.614300104844 3.563960536575051 1.2810997732941694 -1 0 0
1358 5 55.556646529671 4.751947382099943 -0.002172100623974024 -1 0 0
1361 1 59.671953680017005 5.075468081720982e-14 1.2810997732941694 -1 0 0
1373 5 61.729607255190004 1.187986845524942 -0.002172100623975427 -1 0 0
1369 1 63.787260830363 5.07230054890688e-14 1.2810997732941694 -1 0 0
1370 1 61.729607255190004 3.563960536575052 1.281099773294168 -1 0 0
1366 5 59.671953680017005 4.751947382099944 -0.0021721006239752423 -1 0 0
1374 5 63.787260830363 4.751947382099944 -0.002172100623975091 -1 0 0
1381 5 65.844914405536 1.187986845524944 -0.002172100623977661 -1 0 0
1377 1 67.902567980709 5.075556891052218e-14 1.2810997732941694 -1 0 0
1378 1 65.844914405536 3.56396053657505 1.2810997732941702 -1 0 0
1382 5 67.902567980709 4.751947382099944 -0.002172100623975244 -1 0 0
1389 5 69.960221555882 1.187986845524941 -0.0021721006239742544 -1 0 0
1385 1 72.017875131055 5.070566300021901e-14 1.2810997732941694 -1 0 0
1397 5 74.075528706228 1.187986845524943 -0.00217210062397649 -1 0 0
1386 1 69.960221555882 3.563960536575053 1.2810997732941671 -1 0 0
1394 1 74.075528706228 3.563960536575051 1.2810997732941694 -1 0 0
1390 5 72.017875131055 4.751947382099944 -0.002172100623975298 -1 0 0
1393 1 76.133182281401 5.081003863368057e-14 1.2810997732941691 -1 0 0
1405 5 78.190835856574 1.187986845524943 -0.00217210062397649 -1 0 0
1401 1 80.248489431747 5.081001396442189e-14 1.2810997732941691 -1 0 0
1402 1 78.190835856574 3.563960536575051 1.2810997732941694 -1 0 0
1398 5 76.133182281401 4.751947382099944 -0.0021721006239751846 -1 0 0
1406 5 80.248489431747 4.751947382099944 -0.002172100623975185 -1 0 0
1413 5 82.30614300692 1.1879868455249432 -0.0021721006239766023 -1 0 0
1409 1 84.363796582093 5.2813823838962696e-14 1.281099773294167 -1 0 0
1421 5 86.42145015726601 1.187986845524943 -0.0021721006239764913 -1 0 0
1410 1 82.30614300692 3.563960536575051 1.2810997732941694 -1 0 0
1418 1 86.42145015726601 3.563960536575051 1.2810997732941694 -1 0 0
1414 5 84.363796582093 4.751947382099942 -0.0021721006239729572 -1 0 0
1429 5 90.53675730761199 1.187986845524943 -0.002172100623976491 -1 0 0
1417 1 88.479103732439 4.880432922622165e-14 1.2810997732941714 -1 0 0
1425 1 92.594410882785 5.2813823838962696e-14 1.281099773294167 -1 0 0
1426 1 90.53675730761199 3.563960536575051 1.2810997732941694 -1 0 0
1422 5 88.479103732439 4.751947382099946 -0.0021721006239774146 -1 0 0
1430 5 92.594410882785 4.751947382099942 -0.0021721006239729577 -1 0 0
1437 5 94.652064457958 1.1879868455249432 -0.0021721006239766023 -1 0 0
1433 1 96.709718033131 5.075468081720982e-14 1.2810997732941694 -1 0 0
1434 1 94.652064457958 3.563960536575051 1.2810997732941694 -1 0 0
1438 5 96.709718033131 4.751947382099944 -0.0021721006239752423 -1 0 0
1633 1 2.057653575172999 7.127921073150054 1.2810997732941694 0 0 0
1637 5 0 8.315907918674945 -0.0021721006239738814 0 0 0
1645 5 4.115307150345998 8.315907918674947 -0.0021721006239749418 0 0 0
1634 1 0 10.691881609725055 1.2810997732941696 0 0 0
1642 1 4.115307150345998 10.691881609725055 1.2810997732941707 0 0 0
1641 1 6.1729607255189975 7.127921073150054 1.2810997732941694 0 0 0
1649 1 10.288267875864996 7.127921073150054 1.2810997732941694 0 0 0
1653 5 8.230614300691997 8.315907918674947 -0.002172100623974942 0 0 0
1650 1 8.230614300691997 10.691881609725055 1.2810997732941707 0 0 0
1657 1 14.403575026211 7.127921073150055 1.2810997732941682 0 0 0
1661 5 12.345921451037997 8.315907918674945 -0.0021721006239739386 0 0 0
1669 5 16.461228601383997 8.315907918674947 -0.002172100623976171 0 0 0
1658 1 12.345921451037997 10.691881609725055 1.2810997732941696 0 0 0
1666 1 16.461228601383997 10.691881609725053 1.2810997732941718 0 0 0
1665 1 18.518882176556996 7.127921073150054 1.2810997732941694 0 0 0
1673 1 22.634189326903 7.127921073150054 1.2810997732941696 0 0 0
1677 5 20.57653575173 8.315907918674945 -0.002172100623972814 0 0 0
1674 1 20.57653575173 10.691881609725057 1.2810997732941685 0 0 0
1681 1 26.749496477249 7.127921073150054 1.2810997732941694 0 0 0
1685 5 24.691842902076 8.315907918674947 -0.002172100623975042 0 0 0
1693 5 28.807150052422 8.315907918674947 -0.002172100623975042 0 0 0
1682 1 24.691842902076 10.691881609725055 1.2810997732941707 0 0 0
1690 1 28.807150052422 10.691881609725055 1.2810997732941707 0 0 0
1689 1 30.864803627595 7.127921073150054 1.2810997732941694 0 0 0
1701 5 32.922457202768 8.315907918674947 -0.002172100623975042 0 0 0
1698 1 32.922457202768 10.691881609725055 1.2810997732941707 0 0 0
1697 1 34.98011077794099 7.127921073150054 1.2810997732941694 0 0 0
1705 1 39.095417928287 7.1279210731500555 1.2810997732941671 0 0 0
1709 5 37.037764353114 8.315907918674947 -0.0021721006239751556 0 0 0
1706 1 37.037764353114 10.691881609725055 1.2810997732941707 0 0 0
1713 1 43.210725078633004 7.127921073150054 1.2810997732941694 0 0 0
1717 5 41.15307150346 8.315907918674947 -0.0021721006239751556 0 0 0
1725 5 45.268378653805996 8.315907918674947 -0.002172100623975042 0 0 0
1714 1 41.15307150346 10.691881609725055 1.2810997732941707 0 0 0
1722 1 45.268378653805996 10.691881609725055 1.2810997732941707 0 0 0
1721 1 47.326032228979 7.127921073150054 1.2810997732941694 0 0 0
1537 1 51.441339379325 7.127921073150054 1.2810997732941694 -1 0 0
1541 5 49.383685804152 8.315907918674945 -0.002172100623973881 -1 0 0
1538 1 49.383685804152 10.691881609725055 1.2810997732941696 -1 0 0
1545 1 55.556646529671 7.127921073150055 1.2810997732941682 -1 0 0
1549 5 53.498992954498 8.315907918674947 -0.0021721006239750007 -1 0 0
1557 5 57.614300104844 8.315907918674947 -0.0021721006239750996 -1 0 0
1546 1 53.498992954498 10.691881609725055 1.281099773294171 -1 0 0
1554 1 57.614300104844 10.691881609725055 1.2810997732941707 -1 0 0
1553 1 59.671953680017005 7.127921073150054 1.2810997732941694 -1 0 0
1561 1 63.787260830363 7.127921073150054 1.2810997732941694 -1 0 0
1565 5 61.729607255190004 8.315907918674945 -0.002172100623973881 -1 0 0
1562 1 61.729607255190004 10.691881609725055 1.2810997732941696 -1 0 0
1569 1 67.902567980709 7.127921073150054 1.2810997732941694 -1 0 0
1573 5 65.844914405536 8.315907918674947 -0.0021721006239761127 -1 0 0
1570 1 65.844914405536 10.691881609725053 1.2810997732941718 -1 0 0
1577 1 72.017875131055 7.127921073150054 1.2810997732941696 -1 0 0
1581 5 69.960221555882 8.315907918674945 -0.002172100623972814 -1 0 0
1589 5 74.075528706228 8.315907918674947 -0.002172100623975042 -1 0 0
1578 1 69.960221555882 10.691881609725057 1.2810997732941685 -1 0 0
1586 1 74.075528706228 10.691881609725055 1.2810997732941707 -1 0 0
1585 1 76.133182281401 7.127921073150054 1.2810997732941694 -1 0 0
1593 1 80.248489431747 7.127921073150054 1.2810997732941694 -1 0 0
1597 5 78.190835856574 8.315907918674947 -0.002172100623975042 -1 0 0
1594 1 78.190835856574 10.691881609725055 1.2810997732941707 -1 0 0
1601 1 84.363796582093 7.1279210731500555 1.2810997732941671 -1 0 0
1605 5 82.30614300692 8.315907918674947 -0.0021721006239751556 -1 0 0
1613 5 86.42145015726601 8.315907918674947 -0.002172100623975043 -1 0 0
1602 1 82.30614300692 10.691881609725055 1.2810997732941707 -1 0 0
1610 1 86.42145015726601 10.691881609725055 1.2810997732941707 -1 0 0
1609 1 88.479103732439 7.127921073150052 1.2810997732941716 -1 0 0
1617 1 92.594410882785 7.1279210731500555 1.2810997732941671 -1 0 0
1621 5 90.53675730761199 8.315907918674947 -0.002172100623975043 -1 0 0
1618 1 90.53675730761199 10.691881609725055 1.2810997732941707 -1 0 0
1625 1 96.709718033131 7.127921073150054 1.2810997732941694 -1 0 0
1629 5 94.652064457958 8.315907918674947 -0.0021721006239751556 -1 0 0
1626 1 94.652064457958 10.691881609725055 1.2810997732941707 -1 0 0
1638 5 2.057653575172999 11.879868455249945 -0.0021721006239765923 0 0 0
1825 1 2.057653575172999 14.255842146300052 1.2810997732941691 0 0 0
1829 5 0 15.443828991824942 -0.0021721006239752076 0 0 0
1837 5 4.115307150345998 15.443828991824942 -0.002172100623976269 0 0 0
1646 5 6.1729607255189975 11.879868455249945 -0.002172100623976534 0 0 0
1654 5 10.288267875864996 11.879868455249945 -0.0021721006239765928 0 0 0
1833 1 6.1729607255189975 14.255842146300052 1.2810997732941691 0 0 0
1841 1 10.288267875864996 14.255842146300052 1.2810997732941691 0 0 0
1845 5 8.230614300691997 15.443828991824942 -0.0021721006239762684 0 0 0
1662 5 14.403575026211 11.879868455249945 -0.0021721006239753785 0 0 0
1849 1 14.403575026211 14.255842146300054 1.281099773294168 0 0 0
1853 5 12.345921451037997 15.443828991824942 -0.002172100623975265 0 0 0
1861 5 16.461228601383997 15.443828991824944 -0.0021721006239774953 0 0 0
1670 5 18.518882176556996 11.879868455249945 -0.0021721006239764987 0 0 0
1678 5 22.634189326903 11.879868455249945 -0.002172100623976552 0 0 0
1857 1 18.518882176556996 14.255842146300052 1.2810997732941694 0 0 0
1865 1 22.634189326903 14.255842146300052 1.2810997732941694 0 0 0
1869 5 20.57653575173 15.44382899182494 -0.0021721006239741403 0 0 0
1686 5 26.749496477249 11.879868455249945 -0.0021721006239764397 0 0 0
1873 1 26.749496477249 14.255842146300052 1.2810997732941691 0 0 0
1877 5 24.691842902076 15.443828991824944 -0.002172100623976366 0 0 0
1885 5 28.807150052422 15.443828991824944 -0.002172100623976366 0 0 0
1694 5 30.864803627595 11.879868455249945 -0.0021721006239764397 0 0 0
1881 1 30.864803627595 14.255842146300052 1.2810997732941691 0 0 0
1893 5 32.922457202768 15.443828991824944 -0.002172100623976366 0 0 0
1702 5 34.98011077794099 11.879868455249945 -0.0021721006239764397 0 0 0
1710 5 39.095417928287 11.879868455249943 -0.002172100623974202 0 0 0
1889 1 34.98011077794099 14.255842146300052 1.2810997732941691 0 0 0
1897 1 39.095417928287 14.255842146300054 1.281099773294167 0 0 0
1901 5 37.037764353114 15.443828991824944 -0.0021721006239764787 0 0 0
1718 5 43.210725078633004 11.879868455249945 -0.0021721006239764397 0 0 0
1905 1 43.210725078633004 14.255842146300052 1.2810997732941691 0 0 0
1909 5 41.15307150346 15.443828991824944 -0.0021721006239764787 0 0 0
1917 5 45.268378653805996 15.443828991824944 -0.002172100623976366 0 0 0
1726 5 47.326032228979 11.879868455249945 -0.002172100623976499 0 0 0
1542 5 51.441339379325 11.879868455249945 -0.0021721006239765923 -1 0 0
1913 1 47.326032228979 14.255842146300052 1.2810997732941694 0 0 0
1729 1 51.441339379325 14.255842146300052 1.2810997732941691 -1 0 0
1733 5 49.383685804152 15.443828991824942 -0.002172100623975207 -1 0 0
1550 5 55.556646529671 11.879868455249945 -0.002172100623975374 -1 0 0
1737 1 55.556646529671 14.255842146300054 1.281099773294168 -1 0 0
1741 5 53.498992954498 15.443828991824944 -0.0021721006239763274 -1 0 0
1749 5 57.614300104844 15.443828991824944 -0.0021721006239764236 -1 0 0
1558 5 59.671953680017005 11.879868455249945 -0.002172100623976499 -1 0 0
1566 5 63.787260830363 11.879868455249945 -0.002172100623976538 -1 0 0
1745 1 59.671953680017005 14.255842146300052 1.2810997732941694 -1 0 0
1753 1 63.787260830363 14.255842146300052 1.2810997732941691 -1 0 0
1757 5 61.729607255190004 15.443828991824942 -0.002172100623975207 -1 0 0
1574 5 67.902567980709 11.879868455249945 -0.0021721006239764987 -1 0 0
1761 1 67.902567980709 14.255842146300052 1.2810997732941694 -1 0 0
1765 5 65.844914405536 15.443828991824944 -0.002172100623977436 -1 0 0
1582 5 72.017875131055 11.879868455249945 -0.002172100623976552 -1 0 0
1769 1 72.017875131055 14.255842146300052 1.2810997732941694 -1 0 0
1773 5 69.960221555882 15.44382899182494 -0.0021721006239741403 -1 0 0
1781 5 74.075528706228 15.443828991824944 -0.002172100623976366 -1 0 0
1590 5 76.133182281401 11.879868455249945 -0.0021721006239764397 -1 0 0
1598 5 80.248489431747 11.879868455249945 -0.0021721006239764397 -1 0 0
1777 1 76.133182281401 14.255842146300052 1.2810997732941691 -1 0 0
1785 1 80.248489431747 14.255842146300052 1.2810997732941691 -1 0 0
1789 5 78.190835856574 15.443828991824944 -0.002172100623976366 -1 0 0
1606 5 84.363796582093 11.879868455249943 -0.002172100623974202 -1 0 0
1793 1 84.363796582093 14.255842146300054 1.281099773294167 -1 0 0
1797 5 82.30614300692 15.443828991824944 -0.0021721006239764787 -1 0 0
1805 5 86.42145015726601 15.443828991824944 -0.002172100623976367 -1 0 0
1614 5 88.479103732439 11.879868455249946 -0.00217210062397868 -1 0 0
1622 5 92.594410882785 11.879868455249943 -0.002172100623974202 -1 0 0
1801 1 88.479103732439 14.25584214630005 1.2810997732941714 -1 0 0
1809 1 92.594410882785 14.255842146300054 1.281099773294167 -1 0 0
1813 5 90.53675730761199 15.443828991824944 -0.002172100623976367 -1 0 0
1630 5 96.709718033131 11.879868455249945 -0.0021721006239764995 -1 0 0
1817 1 96.709718033131 14.255842146300052 1.2810997732941694 -1 0 0
1821 5 94.652064457958 15.443828991824944 -0.0021721006239764787 -1 0 0
1826 1 0 17.819802682875054 1.2810997732941696 0 0 0
1834 1 4.115307150345998 17.81980268287505 1.2810997732941705 0 0 0
1830 5 2.057653575172999 19.007789528399943 -0.002172100623973632 0 0 0
2021 5 0 22.571750064974943 -0.0021721006239755363 0 0 0
2017 1 2.057653575172999 21.383763219450053 1.2810997732941707 0 0 0
2029 5 4.115307150345998 22.571750064974943 -0.002172100623976501 0 0 0
1842 1 8.230614300691997 17.81980268287505 1.2810997732941705 0 0 0
1838 5 6.1729607255189975 19.007789528399943 -0.0021721006239735735 0 0 0
1846 5 10.288267875864996 19.007789528399943 -0.0021721006239736316 0 0 0
2025 1 6.1729607255189975 21.383763219450053 1.2810997732941707 0 0 0
2037 5 8.230614300691997 22.571750064974943 -0.002172100623976501 0 0 0
2033 1 10.288267875864996 21.383763219450053 1.2810997732941707 0 0 0
1850 1 12.345921451037997 17.819802682875054 1.2810997732941696 0 0 0
1858 1 16.461228601383997 17.81980268287505 1.2810997732941718 0 0 0
1854 5 14.403575026211 19.007789528399943 -0.0021721006239725183 0 0 0
2045 5 12.345921451037997 22.571750064974943 -0.0021721006239755927 0 0 0
2041 1 14.403575026211 21.383763219450053 1.2810997732941698 0 0 0
2053 5 16.461228601383997 22.571750064974946 -0.0021721006239777264 0 0 0
1866 1 20.57653575173 17.819802682875054 1.2810997732941685 0 0 0
1862 5 18.518882176556996 19.007789528399943 -0.002172100623973731 0 0 0
1870 5 22.634189326903 19.007789528399943 -0.0021721006239737843 0 0 0
2049 1 18.518882176556996 21.383763219450053 1.281099773294171 0 0 0
2061 5 20.57653575173 22.571750064974943 -0.002172100623974564 0 0 0
2057 1 22.634189326903 21.383763219450053 1.281099773294171 0 0 0
1874 1 24.691842902076 17.81980268287505 1.2810997732941707 0 0 0
1882 1 28.807150052422 17.81980268287505 1.2810997732941707 0 0 0
1878 5 26.749496477249 19.007789528399943 -0.002172100623973671 0 0 0
2069 5 24.691842902076 22.571750064974943 -0.0021721006239766947 0 0 0
2077 5 28.807150052422 22.571750064974943 -0.0021721006239766947 0 0 0
2065 1 26.749496477249 21.383763219450053 1.281099773294171 0 0 0
1890 1 32.922457202768 17.81980268287505 1.2810997732941707 0 0 0
1886 5 30.864803627595 19.007789528399943 -0.002172100623973671 0 0 0
2085 5 32.922457202768 22.571750064974943 -0.0021721006239766947 0 0 0
2073 1 30.864803627595 21.383763219450053 1.281099773294171 0 0 0
1898 1 37.037764353114 17.81980268287505 1.2810997732941707 0 0 0
1894 5 34.98011077794099 19.007789528399943 -0.002172100623973671 0 0 0
1902 5 39.095417928287 19.007789528399943 -0.0021721006239714476 0 0 0
2093 5 37.037764353114 22.571750064974943 -0.0021721006239768074 0 0 0
2081 1 34.98011077794099 21.383763219450053 1.281099773294171 0 0 0
2089 1 39.095417928287 21.383763219450053 1.2810997732941687 0 0 0
1906 1 41.15307150346 17.81980268287505 1.2810997732941707 0 0 0
1914 1 45.268378653805996 17.81980268287505 1.2810997732941707 0 0 0
1910 5 43.210725078633004 19.007789528399943 -0.002172100623973671 0 0 0
2101 5 41.15307150346 22.571750064974943 -0.002172100623976807 0 0 0
2097 1 43.210725078633004 21.383763219450053 1.281099773294171 0 0 0
2109 5 45.268378653805996 22.571750064974943 -0.002172100623976695 0 0 0
1730 1 49.383685804152 17.819802682875054 1.2810997732941696 -1 0 0
1918 5 47.326032228979 19.007789528399943 -0.0021721006239737287 0 0 0
1734 5 51.441339379325 19.007789528399943 -0.002172100623973632 -1 0 0
2105 1 47.326032228979 21.383763219450053 1.281099773294171 0 0 0
1925 5 49.383685804152 22.571750064974943 -0.0021721006239755363 -1 0 0
1921 1 51.441339379325 21.383763219450053 1.2810997732941707 -1 0 0
1738 1 53.498992954498 17.81980268287505 1.2810997732941707 -1 0 0
1746 1 57.614300104844 17.81980268287505 1.2810997732941707 -1 0 0
1742 5 55.556646529671 19.007789528399943 -0.0021721006239725136 -1 0 0
1933 5 53.498992954498 22.571750064974943 -0.0021721006239765603 -1 0 0
1929 1 55.556646529671 21.383763219450053 1.2810997732941698 -1 0 0
1941 5 57.614300104844 22.571750064974943 -0.002172100623976751 -1 0 0
1754 1 61.729607255190004 17.819802682875054 1.2810997732941696 -1 0 0
1750 5 59.671953680017005 19.007789528399943 -0.0021721006239737287 -1 0 0
1758 5 63.787260830363 19.007789528399943 -0.002172100623973579 -1 0 0
1937 1 59.671953680017005 21.383763219450053 1.281099773294171 -1 0 0
1949 5 61.729607255190004 22.571750064974943 -0.0021721006239755363 -1 0 0
1945 1 63.787260830363 21.383763219450053 1.2810997732941707 -1 0 0
1762 1 65.844914405536 17.81980268287505 1.2810997732941718 -1 0 0
1766 5 67.902567980709 19.007789528399943 -0.0021721006239737314 -1 0 0
1957 5 65.844914405536 22.571750064974946 -0.002172100623977667 -1 0 0
1953 1 67.902567980709 21.383763219450053 1.281099773294171 -1 0 0
1770 1 69.960221555882 17.819802682875054 1.2810997732941685 -1 0 0
1778 1 74.075528706228 17.81980268287505 1.2810997732941707 -1 0 0
1774 5 72.017875131055 19.007789528399943 -0.0021721006239737847 -1 0 0
1965 5 69.960221555882 22.571750064974943 -0.002172100623974564 -1 0 0
1961 1 72.017875131055 21.383763219450053 1.281099773294171 -1 0 0
1973 5 74.075528706228 22.571750064974943 -0.0021721006239766947 -1 0 0
1786 1 78.190835856574 17.81980268287505 1.2810997732941707 -1 0 0
1782 5 76.133182281401 19.007789528399943 -0.002172100623973671 -1 0 0
1790 5 80.248489431747 19.007789528399943 -0.0021721006239736715 -1 0 0
1969 1 76.133182281401 21.383763219450053 1.281099773294171 -1 0 0
1981 5 78.190835856574 22.571750064974943 -0.0021721006239766947 -1 0 0
1977 1 80.248489431747 21.383763219450053 1.281099773294171 -1 0 0
1794 1 82.30614300692 17.81980268287505 1.2810997732941707 -1 0 0
1802 1 86.42145015726601 17.81980268287505 1.2810997732941707 -1 0 0
1798 5 84.363796582093 19.007789528399943 -0.0021721006239714476 -1 0 0
1989 5 82.30614300692 22.571750064974943 -0.002172100623976807 -1 0 0
1985 1 84.363796582093 21.383763219450053 1.2810997732941687 -1 0 0
1997 5 86.42145015726601 22.571750064974943 -0.0021721006239766925 -1 0 0
1810 1 90.53675730761199 17.81980268287505 1.2810997732941707 -1 0 0
1806 5 88.479103732439 19.007789528399947 -0.002172100623975897 -1 0 0
1814 5 92.594410882785 19.007789528399943 -0.0021721006239714476 -1 0 0
2005 5 90.53675730761199 22.571750064974943 -0.0021721006239766925 -1 0 0
1993 1 88.479103732439 21.38376321945005 1.2810997732941731 -1 0 0
2001 1 92.594410882785 21.383763219450053 1.2810997732941687 -1 0 0
1818 1 94.652064457958 17.81980268287505 1.2810997732941707 -1 0 0
1822 5 96.709718033131 19.007789528399943 -0.0021721006239737287 -1 0 0
2013 5 94.652064457958 22.571750064974943 -0.002172100623976807 -1 0 0
2009 1 96.709718033131 21.383763219450053 1.281099773294171 -1 0 0
2022 5 2.057653575172999 26.135710601549945 -0.00217210062397638 0 0 0
2018 1 0 24.947723756025052 1.2810997732941667 0 0 0
2026 1 4.115307150345998 24.947723756025052 1.2810997732941678 0 0 0
2209 1 2.057653575172999 28.51168429260005 1.2810997732941707 0 0 0
2030 5 6.1729607255189975 26.135710601549945 -0.0021721006239763204 0 0 0
2034 1 8.230614300691997 24.947723756025052 1.2810997732941678 0 0 0
2038 5 10.288267875864996 26.135710601549945 -0.00217210062397638 0 0 0
2217 1 6.1729607255189975 28.51168429260005 1.2810997732941705 0 0 0
2225 1 10.288267875864996 28.51168429260005 1.2810997732941707 0 0 0
2042 1 12.345921451037997 24.947723756025052 1.2810997732941667 0 0 0
2046 5 14.403575026211 26.135710601549942 -0.0021721006239752644 0 0 0
2050 1 16.461228601383997 24.947723756025052 1.281099773294169 0 0 0
2233 1 14.403575026211 28.511684292600055 1.2810997732941696 0 0 0
2054 5 18.518882176556996 26.135710601549945 -0.0021721006239764766 0 0 0
2058 1 20.57653575173 24.947723756025052 1.2810997732941656 0 0 0
2062 5 22.634189326903 26.135710601549945 -0.00217210062397653 0 0 0
2241 1 18.518882176556996 28.51168429260005 1.2810997732941707 0 0 0
2249 1 22.634189326903 28.51168429260005 1.2810997732941707 0 0 0
2066 1 24.691842902076 24.947723756025052 1.2810997732941678 0 0 0
2070 5 26.749496477249 26.135710601549945 -0.002172100623976417 0 0 0
2074 1 28.807150052422 24.947723756025052 1.2810997732941678 0 0 0
2257 1 26.749496477249 28.51168429260005 1.2810997732941707 0 0 0
2078 5 30.864803627595 26.135710601549945 -0.002172100623976417 0 0 0
2082 1 32.922457202768 24.947723756025052 1.2810997732941678 0 0 0
2265 1 30.864803627595 28.51168429260005 1.2810997732941707 0 0 0
2086 5 34.98011077794099 26.135710601549945 -0.002172100623976417 0 0 0
2090 1 37.037764353114 24.947723756025052 1.281099773294168 0 0 0
2094 5 39.095417928287 26.135710601549942 -0.002172100623974193 0 0 0
2273 1 34.98011077794099 28.51168429260005 1.2810997732941707 0 0 0
2281 1 39.095417928287 28.511684292600055 1.2810997732941685 0 0 0
2098 1 41.15307150346 24.947723756025052 1.281099773294168 0 0 0
2102 5 43.210725078633004 26.135710601549945 -0.002172100623976417 0 0 0
2106 1 45.268378653805996 24.947723756025052 1.2810997732941678 0 0 0
2289 1 43.210725078633004 28.51168429260005 1.2810997732941707 0 0 0
2110 5 47.326032228979 26.135710601549945 -0.002172100623976475 0 0 0
1922 1 49.383685804152 24.947723756025052 1.2810997732941667 -1 0 0
1926 5 51.441339379325 26.135710601549945 -0.0021721006239763794 -1 0 0
2297 1 47.326032228979 28.51168429260005 1.2810997732941707 0 0 0
2113 1 51.441339379325 28.51168429260005 1.2810997732941707 -1 0 0
1930 1 53.498992954498 24.947723756025052 1.2810997732941678 -1 0 0
1934 5 55.556646529671 26.135710601549942 -0.0021721006239752596 -1 0 0
1938 1 57.614300104844 24.947723756025052 1.281099773294168 -1 0 0
2121 1 55.556646529671 28.511684292600055 1.2810997732941696 -1 0 0
1942 5 59.671953680017005 26.135710601549945 -0.002172100623976475 -1 0 0
1946 1 61.729607255190004 24.947723756025052 1.2810997732941667 -1 0 0
1950 5 63.787260830363 26.135710601549945 -0.0021721006239763274 -1 0 0
2129 1 59.671953680017005 28.51168429260005 1.2810997732941707 -1 0 0
2137 1 63.787260830363 28.51168429260005 1.2810997732941705 -1 0 0
1954 1 65.844914405536 24.947723756025052 1.281099773294169 -1 0 0
1958 5 67.902567980709 26.135710601549945 -0.0021721006239764766 -1 0 0
2145 1 67.902567980709 28.51168429260005 1.2810997732941707 -1 0 0
1962 1 69.960221555882 24.947723756025052 1.2810997732941656 -1 0 0
1966 5 72.017875131055 26.135710601549945 -0.0021721006239765308 -1 0 0
1970 1 74.075528706228 24.947723756025052 1.2810997732941678 -1 0 0
2153 1 72.017875131055 28.51168429260005 1.2810997732941707 -1 0 0
1974 5 76.133182281401 26.135710601549945 -0.002172100623976417 -1 0 0
1978 1 78.190835856574 24.947723756025052 1.2810997732941678 -1 0 0
1982 5 80.248489431747 26.135710601549945 -0.0021721006239764163 -1 0 0
2161 1 76.133182281401 28.51168429260005 1.2810997732941707 -1 0 0
2169 1 80.248489431747 28.51168429260005 1.2810997732941707 -1 0 0
1986 1 82.30614300692 24.947723756025052 1.281099773294168 -1 0 0
1990 5 84.363796582093 26.135710601549942 -0.002172100623974193 -1 0 0
1994 1 86.42145015726601 24.947723756025052 1.2810997732941678 -1 0 0
2177 1 84.363796582093 28.511684292600055 1.2810997732941685 -1 0 0
1998 5 88.479103732439 26.135710601549945 -0.0021721006239786432 -1 0 0
2002 1 90.53675730761199 24.947723756025052 1.2810997732941678 -1 0 0
2006 5 92.594410882785 26.135710601549942 -0.002172100623974193 -1 0 0
2185 1 88.479103732439 28.51168429260005 1.281099773294173 -1 0 0
2193 1 92.594410882785 28.511684292600055 1.2810997732941685 -1 0 0
2010 1 94.652064457958 24.947723756025052 1.281099773294168 -1 0 0
2014 5 96.709718033131 26.135710601549945 -0.0021721006239764744 -1 0 0
2201 1 96.709718033131 28.51168429260005 1.2810997732941707 -1 0 0
2213 5 0 29.699671138124945 -0.002172100623972514 0 0 0
2221 5 4.115307150345998 29.699671138124945 -0.0021721006239735735 0 0 0
2214 5 2.057653575172999 33.263631674699944 -0.0021721006239765603 0 0 0
2210 1 0 32.075644829175054 1.2810997732941698 0 0 0
2218 1 4.115307150345998 32.075644829175054 1.2810997732941707 0 0 0
2229 5 8.230614300691997 29.699671138124945 -0.0021721006239735735 0 0 0
2222 5 6.1729607255189975 33.263631674699944 -0.0021721006239765 0 0 0
2226 1 8.230614300691997 32.075644829175054 1.2810997732941707 0 0 0
2230 5 10.288267875864996 33.263631674699944 -0.0021721006239765603 0 0 0
2237 5 12.345921451037997 29.699671138124945 -0.0021721006239725713 0 0 0
2245 5 16.461228601383997 29.699671138124945 -0.0021721006239747995 0 0 0
2234 1 12.345921451037997 32.075644829175054 1.2810997732941698 0 0 0
2238 5 14.403575026211 33.263631674699944 -0.0021721006239755402 0 0 0
2242 1 16.461228601383997 32.075644829175054 1.281099773294172 0 0 0
2253 5 20.57653575173 29.699671138124945 -0.0021721006239714476 0 0 0
2246 5 18.518882176556996 33.263631674699944 -0.0021721006239767515 0 0 0
2250 1 20.57653575173 32.075644829175054 1.2810997732941687 0 0 0
2254 5 22.634189326903 33.263631674699944 -0.002172100623976807 0 0 0
2261 5 24.691842902076 29.699671138124945 -0.002172100623973671 0 0 0
2269 5 28.807150052422 29.699671138124945 -0.002172100623973671 0 0 0