LAMMPS data file via write_data, version 29 Aug 2024, timestep = 1, units = metal

6120 atoms
6 atom types

0 100.44 xlo xhi
0 98.58140376358 ylo yhi
-50 117.97164574458674 zlo zhi

Masses

1 12.011
2 12.011
3 12.011
4 127.6
5 127.6
6 127.6

Atoms # atomic

1022 1 1.6739999999999993 0.9664861189356873 0.0004509719547310211 0 0 0
1026 1 5.0219999999999985 0.9664861189356873 0.00045097195473102117 0 0 0
1143 4 1.6739999999999993 2.8994198561122744 1.1209721371145374 0 0 0
1147 4 5.0219999999999985 2.8994198561122744 1.1209721371145374 0 0 0
1141 1 0 3.8659391708056843 0.0004509719547307043 0 0 0
1145 1 3.347999999999999 3.865939170805686 0.00045097195472854225 0 0 0
1144 4 0 5.798872907982279 1.1209721371145374 0 0 0
1148 4 3.347999999999999 5.798872907982278 1.1209721371145396 0 0 0
1030 1 8.370000000000001 0.9664861189356856 0.0004509719547331817 0 0 0
1034 1 11.718000000000004 0.966486118935687 0.00045097195473125834 0 0 0
1151 4 8.370000000000001 2.899419856112276 1.1209721371145351 0 0 0
1155 4 11.718000000000004 2.899419856112275 1.1209721371145371 0 0 0
1149 1 6.696000000000002 3.8659391708056843 0.0004509719547304654 0 0 0
1153 1 10.044000000000004 3.865939170805686 0.00045097195472830226 0 0 0
1152 4 6.696000000000002 5.798872907982279 1.1209721371145376 0 0 0
1156 4 10.044000000000004 5.798872907982277 1.1209721371145398 0 0 0
1038 1 15.065999999999999 0.9664861189356888 0.00045097195472904744 0 0 0
1159 4 15.065999999999999 2.899419856112273 1.1209721371145394 0 0 0
1157 1 13.392000000000003 3.8659391708056856 0.0004509719547287777 0 0 0
1161 1 16.740000000000002 3.865939170805686 0.00045097195472826806 0 0 0
1160 4 13.392000000000003 5.798872907982278 1.1209721371145394 0 0 0
1164 4 16.740000000000002 5.798872907982277 1.1209721371145398 0 0 0
1042 1 18.414 0.9664861189356837 0.0004509719547355941 0 0 0
1046 1 21.762000000000008 0.9664861189356871 0.00045097195473121514 0 0 0
1163 4 18.414 2.8994198561122784 1.1209721371145327 0 0 0
1167 4 21.762000000000008 2.899419856112275 1.1209721371145371 0 0 0
1165 1 20.088 3.8659391708056865 0.0004509719547280325 0 0 0
1169 1 23.436 3.865939170805686 0.000450971954728504 0 0 0
1168 4 20.088 5.798872907982277 1.12097213711454 0 0 0
1172 4 23.436 5.798872907982278 1.1209721371145396 0 0 0
1050 1 25.110000000000007 0.9664861189356871 0.00045097195473121443 0 0 0
1054 1 28.458000000000006 0.9664861189356871 0.0004509719547312141 0 0 0
1171 4 25.110000000000007 2.899419856112275 1.1209721371145371 0 0 0
1175 4 28.458000000000006 2.899419856112275 1.1209721371145371 0 0 0
1173 1 26.784 3.865939170805686 0.0004509719547285033 0 0 0
1176 4 26.784 5.798872907982278 1.1209721371145396 0 0 0
1058 1 31.806000000000004 0.9664861189356871 0.00045097195473121367 0 0 0
1062 1 35.154 0.9664861189356871 0.000450971954731214 0 0 0
1179 4 31.806000000000004 2.899419856112275 1.1209721371145371 0 0 0
1183 4 35.154 2.899419856112275 1.1209721371145371 0 0 0
1177 1 30.131999999999998 3.865939170805686 0.000450971954728503 0 0 0
1181 1 33.48 3.865939170805686 0.0004509719547285024 0 0 0
1180 4 30.131999999999998 5.798872907982278 1.1209721371145396 0 0 0
1184 4 33.48 5.798872907982278 1.1209721371145396 0 0 0
1066 1 38.502 0.9664861189356871 0.0004509719547312148 0 0 0
1187 4 38.502 2.899419856112275 1.1209721371145371 0 0 0
1185 1 36.827999999999996 3.865939170805686 0.0004509719547285033 0 0 0
1189 1 40.175999999999995 3.865939170805686 0.0004509719547285037 0 0 0
1188 4 36.827999999999996 5.798872907982278 1.1209721371145396 0 0 0
1192 4 40.175999999999995 5.798872907982278 1.1209721371145396 0 0 0
1070 1 41.85 0.9664861189356875 0.00045097195473074275 0 0 0
1074 1 45.198 0.9664861189356875 0.00045097195473074253 0 0 0
1191 4 41.85 2.8994198561122744 1.1209721371145376 0 0 0
1195 4 45.198 2.8994198561122744 1.1209721371145376 0 0 0
1193 1 43.524 3.8659391708056825 0.0004509719547328764 0 0 0
1197 1 46.87200000000001 3.865939170805686 0.00045097195472850344 0 0 0
1196 4 43.524 5.798872907982281 1.1209721371145351 0 0 0
1200 4 46.87200000000001 5.798872907982278 1.1209721371145396 0 0 0
1078 1 48.546 0.9664861189356869 0.0004509719547314499 0 0 0
962 1 51.894 0.9664861189356868 0.0004509719547314954 -1 0 0
1199 4 48.546 2.899419856112275 1.120972137114537 0 0 0
1083 4 51.894 2.899419856112275 1.120972137114537 -1 0 0
1081 1 50.220000000000006 3.865939170805688 0.00045097195472633633 -1 0 0
1084 4 50.220000000000006 5.798872907982276 1.1209721371145418 -1 0 0
966 1 55.242 0.966486118935687 0.00045097195473125986 -1 0 0
970 1 58.589999999999996 0.9664861189356873 0.0004509719547310211 -1 0 0
1087 4 55.242 2.899419856112275 1.1209721371145371 -1 0 0
1091 4 58.589999999999996 2.8994198561122744 1.1209721371145374 -1 0 0
1085 1 53.568 3.865939170805686 0.00045097195472854274 -1 0 0
1089 1 56.916 3.865939170805686 0.00045097195472854274 -1 0 0
1088 4 53.568 5.798872907982278 1.1209721371145396 -1 0 0
1092 4 56.916 5.798872907982278 1.1209721371145396 -1 0 0
974 1 61.937999999999995 0.9664861189356874 0.0004509719547309758 -1 0 0
1095 4 61.937999999999995 2.8994198561122744 1.1209721371145374 -1 0 0
1093 1 60.264 3.8659391708056843 0.00045097195473070393 -1 0 0
1097 1 63.612 3.865939170805686 0.00045097195472850365 -1 0 0
1096 4 60.264 5.798872907982279 1.1209721371145374 -1 0 0
1100 4 63.612 5.798872907982278 1.1209721371145396 -1 0 0
978 1 65.28599999999999 0.9664861189356871 0.00045097195473121427 -1 0 0
982 1 68.63399999999999 0.9664861189356871 0.00045097195473121346 -1 0 0
1099 4 65.28599999999999 2.899419856112275 1.1209721371145371 -1 0 0
1103 4 68.63399999999999 2.899419856112275 1.1209721371145371 -1 0 0
1101 1 66.96000000000001 3.865939170805686 0.000450971954728503 -1 0 0
1105 1 70.308 3.8659391708056865 0.00045097195472803197 -1 0 0
1104 4 66.96000000000001 5.798872907982278 1.1209721371145396 -1 0 0
1108 4 70.308 5.798872907982277 1.12097213711454 -1 0 0
986 1 71.982 0.9664861189356837 0.0004509719547355944 -1 0 0
990 1 75.33 0.9664861189356906 0.0004509719547268168 -1 0 0
1107 4 71.982 2.8994198561122784 1.1209721371145327 -1 0 0
1111 4 75.33 2.8994198561122713 1.1209721371145416 -1 0 0
1109 1 73.65599999999999 3.865939170805686 0.00045097195472849487 -1 0 0
1112 4 73.65599999999999 5.798872907982278 1.1209721371145396 -1 0 0
994 1 78.678 0.9664861189356837 0.00045097195473559407 -1 0 0
998 1 82.026 0.9664861189356906 0.0004509719547268164 -1 0 0
1115 4 78.678 2.8994198561122784 1.1209721371145327 -1 0 0
1119 4 82.026 2.8994198561122713 1.1209721371145416 -1 0 0
1113 1 77.004 3.865939170805686 0.0004509719547284945 -1 0 0
1117 1 80.35199999999999 3.865939170805686 0.0004509719547284943 -1 0 0
1116 4 77.004 5.798872907982278 1.1209721371145396 -1 0 0
1120 4 80.35199999999999 5.798872907982278 1.1209721371145396 -1 0 0
1002 1 85.374 0.966486118935684 0.00045097195473512255 -1 0 0
1123 4 85.374 2.899419856112278 1.1209721371145331 -1 0 0
1121 1 83.7 3.865939170805686 0.0004509719547284943 -1 0 0
1125 1 87.048 3.865939170805683 0.00045097195473240554 -1 0 0
1124 4 83.7 5.798872907982278 1.1209721371145396 -1 0 0
1128 4 87.048 5.798872907982281 1.1209721371145358 -1 0 0
1006 1 88.722 0.9664861189356871 0.0004509719547312049 -1 0 0
1010 1 92.07000000000001 0.9664861189356871 0.00045097195473120516 -1 0 0
1127 4 88.722 2.899419856112275 1.1209721371145371 -1 0 0
1131 4 92.07000000000001 2.899419856112275 1.1209721371145371 -1 0 0
1129 1 90.396 3.8659391708056896 0.0004509719547241112 -1 0 0
1133 1 93.744 3.8659391708056825 0.0004509719547328771 -1 0 0
1132 4 90.396 5.7988729079822745 1.120972137114544 -1 0 0
1136 4 93.744 5.798872907982281 1.1209721371145351 -1 0 0
1014 1 95.41799999999999 0.9664861189356871 0.0004509719547312046 -1 0 0
1018 1 98.766 0.9664861189356869 0.00045097195473143767 -1 0 0
1135 4 95.41799999999999 2.899419856112275 1.1209721371145371 -1 0 0
1139 4 98.766 2.899419856112275 1.120972137114537 -1 0 0
1137 1 97.092 3.8659391708056896 0.00045097195472411036 -1 0 0
1140 4 97.092 5.7988729079822745 1.120972137114544 -1 0 0
1142 1 1.6739999999999993 6.7653922226756835 0.0004509719547285276 0 0 0
1146 1 5.0219999999999985 6.7653922226756835 0.0004509719547285276 0 0 0
1261 1 0 9.664845274545685 0.00045097195473342105 0 0 0
1263 4 1.6739999999999993 8.698325959852275 1.12097213711454 0 0 0
1265 1 3.347999999999999 9.664845274545687 0.0004509719547312593 0 0 0
1267 4 5.0219999999999985 8.698325959852275 1.12097213711454 0 0 0
1264 4 0 11.597779011722276 1.1209721371145351 0 0 0
1268 4 3.347999999999999 11.597779011722274 1.1209721371145374 0 0 0
1150 1 8.370000000000001 6.765392222675683 0.0004509719547306881 0 0 0
1154 1 11.718000000000004 6.7653922226756835 0.0004509719547287649 0 0 0
1269 1 6.696000000000002 9.664845274545685 0.0004509719547331819 0 0 0
1271 4 8.370000000000001 8.698325959852276 1.1209721371145378 0 0 0
1273 1 10.044000000000004 9.664845274545687 0.0004509719547310196 0 0 0
1275 4 11.718000000000004 8.698325959852275 1.1209721371145398 0 0 0
1272 4 6.696000000000002 11.597779011722276 1.1209721371145354 0 0 0
1276 4 10.044000000000004 11.597779011722274 1.1209721371145376 0 0 0
1158 1 15.065999999999999 6.765392222675685 0.0004509719547265631 0 0 0
1277 1 13.392000000000003 9.664845274545687 0.0004509719547314947 0 0 0
1279 4 15.065999999999999 8.698325959852273 1.120972137114542 0 0 0
1281 1 16.740000000000002 9.664845274545687 0.0004509719547309786 0 0 0
1280 4 13.392000000000003 11.597779011722276 1.1209721371145371 0 0 0
1284 4 16.740000000000002 11.597779011722274 1.1209721371145376 0 0 0
1162 1 18.414 6.76539222267568 0.0004509719547331005 0 0 0
1166 1 21.762000000000008 6.7653922226756835 0.0004509719547287307 0 0 0
1283 4 18.414 8.698325959852278 1.1209721371145354 0 0 0
1285 1 20.088 9.664845274545687 0.00045097195473074313 0 0 0
1287 4 21.762000000000008 8.698325959852275 1.1209721371145398 0 0 0
1289 1 23.436 9.664845274545687 0.0004509719547312146 0 0 0
1288 4 20.088 11.597779011722274 1.1209721371145378 0 0 0
1292 4 23.436 11.597779011722274 1.1209721371145374 0 0 0
1170 1 25.110000000000007 6.7653922226756835 0.00045097195472873 0 0 0
1174 1 28.458000000000006 6.7653922226756835 0.0004509719547287297 0 0 0
1291 4 25.110000000000007 8.698325959852275 1.1209721371145398 0 0 0
1293 1 26.784 9.664845274545687 0.0004509719547312141 0 0 0
1295 4 28.458000000000006 8.698325959852275 1.1209721371145398 0 0 0
1296 4 26.784 11.597779011722274 1.1209721371145374 0 0 0
1178 1 31.806000000000004 6.7653922226756835 0.0004509719547287293 0 0 0
1182 1 35.154 6.7653922226756835 0.0004509719547287297 0 0 0
1297 1 30.131999999999998 9.664845274545687 0.00045097195473121367 0 0 0
1299 4 31.806000000000004 8.698325959852275 1.1209721371145398 0 0 0
1301 1 33.48 9.664845274545687 0.00045097195473121356 0 0 0
1303 4 35.154 8.698325959852275 1.1209721371145398 0 0 0
1300 4 30.131999999999998 11.597779011722274 1.1209721371145374 0 0 0
1304 4 33.48 11.597779011722274 1.1209721371145374 0 0 0
1186 1 38.502 6.7653922226756835 0.0004509719547287304 0 0 0
1305 1 36.827999999999996 9.664845274545687 0.0004509719547312144 0 0 0
1307 4 38.502 8.698325959852275 1.1209721371145398 0 0 0
1309 1 40.175999999999995 9.664845274545687 0.00045097195473121454 0 0 0
1308 4 36.827999999999996 11.597779011722274 1.1209721371145374 0 0 0
1312 4 40.175999999999995 11.597779011722274 1.1209721371145374 0 0 0
1190 1 41.85 6.765392222675684 0.0004509719547282585 0 0 0
1194 1 45.198 6.765392222675684 0.00045097195472825835 0 0 0
1311 4 41.85 8.698325959852275 1.1209721371145402 0 0 0
1313 1 43.524 9.664845274545684 0.00045097195473559336 0 0 0
1315 4 45.198 8.698325959852275 1.1209721371145402 0 0 0
1317 1 46.87200000000001 9.664845274545687 0.0004509719547312139 0 0 0
1316 4 43.524 11.597779011722277 1.120972137114533 0 0 0
1320 4 46.87200000000001 11.597779011722274 1.1209721371145374 0 0 0
1198 1 48.546 6.7653922226756835 0.00045097195472896563 0 0 0
1082 1 51.894 6.7653922226756835 0.00045097195472900195 -1 0 0
1319 4 48.546 8.698325959852276 1.1209721371145396 0 0 0
1201 1 50.220000000000006 9.664845274545689 0.0004509719547290469 -1 0 0
1203 4 51.894 8.698325959852276 1.1209721371145396 -1 0 0
1204 4 50.220000000000006 11.597779011722272 1.1209721371145396 -1 0 0
1086 1 55.242 6.7653922226756835 0.00045097195472876636 -1 0 0
1090 1 58.589999999999996 6.7653922226756835 0.0004509719547285276 -1 0 0
1205 1 53.568 9.664845274545687 0.0004509719547312596 -1 0 0
1207 4 55.242 8.698325959852275 1.1209721371145398 -1 0 0
1209 1 56.916 9.664845274545687 0.00045097195473125964 -1 0 0
1211 4 58.589999999999996 8.698325959852275 1.12097213711454 -1 0 0
1208 4 53.568 11.597779011722274 1.1209721371145374 -1 0 0
1212 4 56.916 11.597779011722274 1.1209721371145374 -1 0 0
1094 1 61.937999999999995 6.7653922226756835 0.0004509719547284915 -1 0 0
1213 1 60.264 9.664845274545685 0.00045097195473342073 -1 0 0
1215 4 61.937999999999995 8.698325959852275 1.12097213711454 -1 0 0
1217 1 63.612 9.664845274545687 0.0004509719547312141 -1 0 0
1216 4 60.264 11.597779011722276 1.1209721371145351 -1 0 0
1220 4 63.612 11.597779011722274 1.1209721371145374 -1 0 0
1098 1 65.28599999999999 6.7653922226756835 0.00045097195472872993 -1 0 0
1102 1 68.63399999999999 6.7653922226756835 0.0004509719547287292 -1 0 0
1219 4 65.28599999999999 8.698325959852275 1.1209721371145398 -1 0 0
1221 1 66.96000000000001 9.664845274545687 0.0004509719547312134 -1 0 0
1223 4 68.63399999999999 8.698325959852275 1.1209721371145398 -1 0 0
1225 1 70.308 9.664845274545687 0.0004509719547307424 -1 0 0
1224 4 66.96000000000001 11.597779011722274 1.1209721371145374 -1 0 0
1228 4 70.308 11.597779011722274 1.1209721371145378 -1 0 0
1106 1 71.982 6.76539222267568 0.00045097195473310094 -1 0 0
1110 1 75.33 6.765392222675687 0.00045097195472434173 -1 0 0
1227 4 71.982 8.698325959852278 1.1209721371145354 -1 0 0
1229 1 73.65599999999999 9.664845274545687 0.0004509719547312055 -1 0 0
1231 4 75.33 8.698325959852271 1.1209721371145442 -1 0 0
1232 4 73.65599999999999 11.597779011722274 1.1209721371145374 -1 0 0
1114 1 78.678 6.76539222267568 0.0004509719547331005 -1 0 0
1118 1 82.026 6.765392222675687 0.00045097195472434135 -1 0 0
1233 1 77.004 9.664845274545687 0.0004509719547312053 -1 0 0
1235 4 78.678 8.698325959852278 1.1209721371145354 -1 0 0
1237 1 80.35199999999999 9.664845274545687 0.00045097195473120505 -1 0 0
1239 4 82.026 8.698325959852271 1.1209721371145442 -1 0 0
1236 4 77.004 11.597779011722274 1.1209721371145374 -1 0 0
1240 4 80.35199999999999 11.597779011722274 1.1209721371145374 -1 0 0
1122 1 85.374 6.765392222675681 0.000450971954732629 -1 0 0
1241 1 83.7 9.664845274545687 0.0004509719547312049 -1 0 0
1243 4 85.374 8.698325959852278 1.120972137114536 -1 0 0
1245 1 87.048 9.664845274545684 0.00045097195473512244 -1 0 0
1244 4 83.7 11.597779011722274 1.1209721371145374 -1 0 0
1248 4 87.048 11.597779011722277 1.1209721371145334 -1 0 0
1126 1 88.722 6.7653922226756835 0.0004509719547287206 -1 0 0
1130 1 92.07000000000001 6.7653922226756835 0.0004509719547287207 -1 0 0
1247 4 88.722 8.698325959852275 1.1209721371145398 -1 0 0
1249 1 90.396 9.66484527454569 0.00045097195472681555 -1 0 0
1251 4 92.07000000000001 8.698325959852275 1.1209721371145398 -1 0 0
1253 1 93.744 9.664845274545684 0.00045097195473559385 -1 0 0
1252 4 90.396 11.59777901172227 1.1209721371145418 -1 0 0
1256 4 93.744 11.597779011722277 1.120972137114533 -1 0 0
1134 1 95.41799999999999 6.7653922226756835 0.00045097195472872033 -1 0 0
1138 1 98.766 6.7653922226756835 0.0004509719547289532 -1 0 0
1255 4 95.41799999999999 8.698325959852275 1.1209721371145398 -1 0 0
1257 1 97.092 9.66484527454569 0.000450971954726815 -1 0 0
1259 4 98.766 8.698325959852276 1.1209721371145396 -1 0 0
1260 4 97.092 11.59777901172227 1.1209721371145418 -1 0 0
1262 1 1.6739999999999993 12.56429832641569 0.00045097195473195727 0 0 0
1266 1 5.0219999999999985 12.56429832641569 0.0004509719547319573 0 0 0
1383 4 1.6739999999999993 14.49723206359227 1.120972137114543 0 0 0
1381 1 0 15.463751378285695 0.00045097195472999866 0 0 0
1385 1 3.347999999999999 15.463751378285696 0.0004509719547278175 0 0 0
1387 4 5.0219999999999985 14.49723206359227 1.120972137114543 0 0 0
1384 4 0 17.396685115462272 1.1209721371145318 0 0 0
1388 4 3.347999999999999 17.396685115462272 1.1209721371145338 0 0 0
1270 1 8.370000000000001 12.564298326415688 0.00045097195473411803 0 0 0
1274 1 11.718000000000004 12.56429832641569 0.0004509719547321948 0 0 0
1389 1 6.696000000000002 15.463751378285695 0.00045097195472975965 0 0 0
1391 4 8.370000000000001 14.497232063592271 1.120972137114541 0 0 0
1393 1 10.044000000000004 15.463751378285696 0.0004509719547275779 0 0 0
1395 4 11.718000000000004 14.49723206359227 1.1209721371145427 0 0 0
1392 4 6.696000000000002 17.396685115462272 1.120972137114532 0 0 0
1396 4 10.044000000000004 17.396685115462272 1.120972137114534 0 0 0
1278 1 15.065999999999999 12.564298326415692 0.00045097195472998077 0 0 0
1397 1 13.392000000000003 15.463751378285696 0.00045097195472804975 0 0 0
1399 4 15.065999999999999 14.497232063592268 1.120972137114545 0 0 0
1401 1 16.740000000000002 15.463751378285696 0.0004509719547276016 0 0 0
1400 4 13.392000000000003 17.396685115462272 1.1209721371145336 0 0 0
1404 4 16.740000000000002 17.396685115462272 1.1209721371145343 0 0 0
1282 1 18.414 12.564298326415686 0.0004509719547365306 0 0 0
1286 1 21.762000000000008 12.56429832641569 0.0004509719547321486 0 0 0
1403 4 18.414 14.497232063592273 1.1209721371145385 0 0 0
1405 1 20.088 15.463751378285696 0.00045097195472736915 0 0 0
1407 4 21.762000000000008 14.49723206359227 1.1209721371145427 0 0 0
1409 1 23.436 15.463751378285696 0.0004509719547278407 0 0 0
1408 4 20.088 17.396685115462272 1.1209721371145345 0 0 0
1412 4 23.436 17.396685115462272 1.120972137114534 0 0 0
1290 1 25.110000000000007 12.56429832641569 0.00045097195473214777 0 0 0
1294 1 28.458000000000006 12.56429832641569 0.0004509719547321476 0 0 0
1411 4 25.110000000000007 14.49723206359227 1.1209721371145427 0 0 0
1413 1 26.784 15.463751378285696 0.00045097195472784023 0 0 0
1415 4 28.458000000000006 14.49723206359227 1.1209721371145427 0 0 0
1416 4 26.784 17.396685115462272 1.120972137114534 0 0 0
1298 1 31.806000000000004 12.56429832641569 0.0004509719547321468 0 0 0
1302 1 35.154 12.56429832641569 0.0004509719547321475 0 0 0
1417 1 30.131999999999998 15.463751378285696 0.0004509719547278398 0 0 0
1419 4 31.806000000000004 14.49723206359227 1.1209721371145427 0 0 0
1421 1 33.48 15.463751378285696 0.0004509719547278396 0 0 0
1423 4 35.154 14.49723206359227 1.1209721371145427 0 0 0
1420 4 30.131999999999998 17.396685115462272 1.120972137114534 0 0 0
1424 4 33.48 17.396685115462272 1.120972137114534 0 0 0
1306 1 38.502 12.56429832641569 0.0004509719547321482 0 0 0
1425 1 36.827999999999996 15.463751378285696 0.0004509719547278404 0 0 0
1427 4 38.502 14.49723206359227 1.1209721371145427 0 0 0
1429 1 40.175999999999995 15.463751378285696 0.00045097195472784067 0 0 0
1428 4 36.827999999999996 17.396685115462272 1.120972137114534 0 0 0
1432 4 40.175999999999995 17.396685115462272 1.120972137114534 0 0 0
1310 1 41.85 12.56429832641569 0.0004509719547316762 0 0 0
1314 1 45.198 12.56429832641569 0.0004509719547316759 0 0 0
1431 4 41.85 14.49723206359227 1.1209721371145431 0 0 0
1433 1 43.524 15.463751378285693 0.00045097195473219 0 0 0
1435 4 45.198 14.49723206359227 1.1209721371145431 0 0 0
1437 1 46.87200000000001 15.463751378285696 0.00045097195472784 0 0 0
1436 4 43.524 17.396685115462276 1.1209721371145296 0 0 0
1440 4 46.87200000000001 17.396685115462272 1.120972137114534 0 0 0
1318 1 48.546 12.56429832641569 0.00045097195473238336 0 0 0
1202 1 51.894 12.56429832641569 0.0004509719547324319 -1 0 0
1439 4 48.546 14.49723206359227 1.1209721371145425 0 0 0
1323 4 51.894 14.49723206359227 1.1209721371145425 -1 0 0
1321 1 50.220000000000006 15.463751378285698 0.00045097195472564754 -1 0 0
1324 4 50.220000000000006 17.396685115462272 1.120972137114536 -1 0 0
1206 1 55.242 12.56429832641569 0.0004509719547321962 -1 0 0
1210 1 58.589999999999996 12.56429832641569 0.00045097195473195744 -1 0 0
1325 1 53.568 15.463751378285696 0.00045097195472781784 -1 0 0
1327 4 55.242 14.49723206359227 1.1209721371145427 -1 0 0
1329 1 56.916 15.463751378285696 0.00045097195472781784 -1 0 0
1331 4 58.589999999999996 14.49723206359227 1.120972137114543 -1 0 0
1328 4 53.568 17.396685115462272 1.1209721371145338 -1 0 0
1332 4 56.916 17.396685115462272 1.1209721371145338 -1 0 0
1214 1 61.937999999999995 12.56429832641569 0.00045097195473190913 -1 0 0
1333 1 60.264 15.463751378285695 0.0004509719547299983 -1 0 0
1335 4 61.937999999999995 14.49723206359227 1.120972137114543 -1 0 0
1337 1 63.612 15.463751378285696 0.00045097195472784 -1 0 0
1336 4 60.264 17.396685115462272 1.1209721371145318 -1 0 0
1340 4 63.612 17.396685115462272 1.120972137114534 -1 0 0
1218 1 65.28599999999999 12.56429832641569 0.0004509719547321477 -1 0 0
1222 1 68.63399999999999 12.56429832641569 0.0004509719547321468 -1 0 0
1339 4 65.28599999999999 14.49723206359227 1.1209721371145427 -1 0 0
1341 1 66.96000000000001 15.463751378285696 0.0004509719547278393 -1 0 0
1343 4 68.63399999999999 14.49723206359227 1.1209721371145427 -1 0 0
1345 1 70.308 15.463751378285696 0.00045097195472736844 -1 0 0
1344 4 66.96000000000001 17.396685115462272 1.120972137114534 -1 0 0
1348 4 70.308 17.396685115462272 1.1209721371145345 -1 0 0
1226 1 71.982 12.564298326415686 0.0004509719547365311 -1 0 0
1230 1 75.33 12.564298326415694 0.0004509719547277472 -1 0 0
1347 4 71.982 14.497232063592273 1.1209721371145385 -1 0 0
1349 1 73.65599999999999 15.463751378285696 0.00045097195472782847 -1 0 0
1351 4 75.33 14.497232063592266 1.1209721371145471 -1 0 0
1352 4 73.65599999999999 17.396685115462272 1.120972137114534 -1 0 0
1234 1 78.678 12.564298326415686 0.0004509719547365307 -1 0 0
1238 1 82.026 12.564298326415694 0.0004509719547277468 -1 0 0
1353 1 77.004 15.463751378285696 0.00045097195472782803 -1 0 0
1355 4 78.678 14.497232063592273 1.1209721371145385 -1 0 0
1357 1 80.35199999999999 15.463751378285696 0.00045097195472782803 -1 0 0
1359 4 82.026 14.497232063592266 1.1209721371145471 -1 0 0
1356 4 77.004 17.396685115462272 1.120972137114534 -1 0 0
1360 4 80.35199999999999 17.396685115462272 1.120972137114534 -1 0 0
1242 1 85.374 12.564298326415686 0.000450971954736059 -1 0 0
1361 1 83.7 15.463751378285696 0.00045097195472782765 -1 0 0
1363 4 85.374 14.497232063592273 1.120972137114539 -1 0 0
1365 1 87.048 15.463751378285693 0.00045097195473171913 -1 0 0
1364 4 83.7 17.396685115462272 1.120972137114534 -1 0 0
1368 4 87.048 17.396685115462276 1.12097213711453 -1 0 0
1246 1 88.722 12.56429832641569 0.0004509719547321382 -1 0 0
1250 1 92.07000000000001 12.56429832641569 0.0004509719547321384 -1 0 0
1367 4 88.722 14.49723206359227 1.1209721371145427 -1 0 0
1369 1 90.396 15.4637513782857 0.00045097195472346466 -1 0 0
1371 4 92.07000000000001 14.49723206359227 1.1209721371145427 -1 0 0
1373 1 93.744 15.463751378285693 0.0004509719547321908 -1 0 0
1372 4 90.396 17.39668511546227 1.1209721371145382 -1 0 0
1376 4 93.744 17.396685115462276 1.1209721371145296 -1 0 0
1254 1 95.41799999999999 12.56429832641569 0.00045097195473213795 -1 0 0
1258 1 98.766 12.56429832641569 0.000450971954732371 -1 0 0
1375 4 95.41799999999999 14.49723206359227 1.1209721371145427 -1 0 0
1377 1 97.092 15.4637513782857 0.0004509719547234641 -1 0 0
1379 4 98.766 14.49723206359227 1.1209721371145425 -1 0 0
1380 4 97.092 17.39668511546227 1.1209721371145382 -1 0 0
1382 1 1.6739999999999993 18.363204430155687 0.0004509719547280684 0 0 0
1386 1 5.0219999999999985 18.363204430155687 0.0004509719547280685 0 0 0
1503 4 1.6739999999999993 20.29613816733228 1.1209721371145398 0 0 0
1507 4 5.0219999999999985 20.29613816733228 1.1209721371145398 0 0 0
1501 1 0 21.262657482025684 0.00045097195473092804 0 0 0
1505 1 3.347999999999999 21.262657482025684 0.00045097195472876603 0 0 0
1504 4 0 23.195591219202278 1.1209721371145374 0 0 0
1508 4 3.347999999999999 23.195591219202278 1.1209721371145396 0 0 0
1390 1 8.370000000000001 18.363204430155687 0.00045097195473023193 0 0 0
1394 1 11.718000000000004 18.363204430155687 0.00045097195472830573 0 0 0
1511 4 8.370000000000001 20.29613816733228 1.1209721371145376 0 0 0
1515 4 11.718000000000004 20.29613816733228 1.1209721371145396 0 0 0
1509 1 6.696000000000002 21.262657482025684 0.00045097195473068886 0 0 0
1513 1 10.044000000000004 21.262657482025684 0.0004509719547285263 0 0 0
1512 4 6.696000000000002 23.195591219202278 1.1209721371145376 0 0 0
1516 4 10.044000000000004 23.195591219202278 1.1209721371145398 0 0 0
1398 1 15.065999999999999 18.36320443015569 0.00045097195472610394 0 0 0
1519 4 15.065999999999999 20.296138167332277 1.1209721371145418 0 0 0
1517 1 13.392000000000003 21.262657482025684 0.0004509719547290017 0 0 0
1521 1 16.740000000000002 21.262657482025684 0.00045097195472849487 0 0 0
1520 4 13.392000000000003 23.195591219202278 1.1209721371145394 0 0 0
1524 4 16.740000000000002 23.195591219202278 1.1209721371145398 0 0 0
1402 1 18.414 18.363204430155683 0.0004509719547326476 0 0 0
1406 1 21.762000000000008 18.363204430155687 0.0004509719547282747 0 0 0
1523 4 18.414 20.296138167332284 1.1209721371145351 0 0 0
1527 4 21.762000000000008 20.29613816733228 1.1209721371145396 0 0 0
1525 1 20.088 21.262657482025684 0.0004509719547282592 0 0 0
1529 1 23.436 21.262657482025684 0.0004509719547287307 0 0 0
1528 4 20.088 23.195591219202278 1.12097213711454 0 0 0
1532 4 23.436 23.195591219202278 1.1209721371145396 0 0 0
1410 1 25.110000000000007 18.363204430155687 0.00045097195472827413 0 0 0
1414 1 28.458000000000006 18.363204430155687 0.00045097195472827386 0 0 0
1531 4 25.110000000000007 20.29613816733228 1.1209721371145396 0 0 0
1535 4 28.458000000000006 20.29613816733228 1.1209721371145396 0 0 0
1533 1 26.784 21.262657482025684 0.0004509719547287301 0 0 0
1536 4 26.784 23.195591219202278 1.1209721371145396 0 0 0
1418 1 31.806000000000004 18.363204430155687 0.0004509719547282734 0 0 0
1422 1 35.154 18.363204430155687 0.00045097195472827375 0 0 0
1539 4 31.806000000000004 20.29613816733228 1.1209721371145396 0 0 0
1543 4 35.154 20.29613816733228 1.1209721371145396 0 0 0
1537 1 30.131999999999998 21.262657482025684 0.0004509719547287297 0 0 0
1541 1 33.48 21.262657482025684 0.0004509719547287294 0 0 0
1540 4 30.131999999999998 23.195591219202278 1.1209721371145396 0 0 0
1544 4 33.48 23.195591219202278 1.1209721371145396 0 0 0
1426 1 38.502 18.363204430155687 0.00045097195472827456 0 0 0
1547 4 38.502 20.29613816733228 1.1209721371145396 0 0 0
1545 1 36.827999999999996 21.262657482025684 0.00045097195472873025 0 0 0
1549 1 40.175999999999995 21.262657482025684 0.00045097195472873063 0 0 0
1548 4 36.827999999999996 23.195591219202278 1.1209721371145396 0 0 0
1552 4 40.175999999999995 23.195591219202278 1.1209721371145396 0 0 0
1430 1 41.85 18.363204430155687 0.0004509719547278027 0 0 0
1434 1 45.198 18.363204430155687 0.0004509719547278022 0 0 0
1551 4 41.85 20.29613816733228 1.12097213711454 0 0 0
1555 4 45.198 20.29613816733228 1.12097213711454 0 0 0
1553 1 43.524 21.26265748202568 0.00045097195473310024 0 0 0
1557 1 46.87200000000001 21.262657482025684 0.00045097195472873 0 0 0
1556 4 43.524 23.19559121920228 1.1209721371145351 0 0 0
1560 4 46.87200000000001 23.195591219202278 1.1209721371145396 0 0 0
1438 1 48.546 18.363204430155687 0.0004509719547285095 0 0 0
1322 1 51.894 18.363204430155687 0.0004509719547285428 -1 0 0
1559 4 48.546 20.29613816733228 1.1209721371145394 0 0 0
1443 4 51.894 20.29613816733228 1.1209721371145394 -1 0 0
1441 1 50.220000000000006 21.262657482025688 0.000450971954726563 -1 0 0
1444 4 50.220000000000006 23.195591219202274 1.1209721371145418 -1 0 0
1326 1 55.242 18.363204430155687 0.0004509719547283073 -1 0 0
1330 1 58.589999999999996 18.363204430155687 0.0004509719547280684 -1 0 0
1447 4 55.242 20.29613816733228 1.1209721371145396 -1 0 0
1451 4 58.589999999999996 20.29613816733228 1.1209721371145398 -1 0 0
1445 1 53.568 21.262657482025684 0.00045097195472876647 -1 0 0
1449 1 56.916 21.262657482025684 0.00045097195472876647 -1 0 0
1448 4 53.568 23.195591219202278 1.1209721371145396 -1 0 0
1452 4 56.916 23.195591219202278 1.1209721371145396 -1 0 0
1334 1 61.937999999999995 18.363204430155687 0.00045097195472803555 -1 0 0
1455 4 61.937999999999995 20.29613816733228 1.1209721371145398 -1 0 0
1453 1 60.264 21.262657482025684 0.0004509719547309277 -1 0 0
1457 1 63.612 21.262657482025684 0.00045097195472873025 -1 0 0
1456 4 60.264 23.195591219202278 1.1209721371145374 -1 0 0
1460 4 63.612 23.195591219202278 1.1209721371145396 -1 0 0
1338 1 65.28599999999999 18.363204430155687 0.00045097195472827386 -1 0 0
1342 1 68.63399999999999 18.363204430155687 0.0004509719547282732 -1 0 0
1459 4 65.28599999999999 20.29613816733228 1.1209721371145396 -1 0 0
1463 4 68.63399999999999 20.29613816733228 1.1209721371145396 -1 0 0
1461 1 66.96000000000001 21.262657482025684 0.0004509719547287297 -1 0 0
1465 1 70.308 21.262657482025684 0.0004509719547282585 -1 0 0
1464 4 66.96000000000001 23.195591219202278 1.1209721371145396 -1 0 0
1468 4 70.308 23.195591219202278 1.12097213711454 -1 0 0
1346 1 71.982 18.363204430155683 0.000450971954732648 -1 0 0
1350 1 75.33 18.36320443015569 0.0004509719547238827 -1 0 0
1467 4 71.982 20.296138167332284 1.1209721371145351 -1 0 0
1471 4 75.33 20.296138167332277 1.120972137114544 -1 0 0
1469 1 73.65599999999999 21.262657482025684 0.00045097195472872147 -1 0 0
1472 4 73.65599999999999 23.195591219202278 1.1209721371145396 -1 0 0
1354 1 78.678 18.363204430155683 0.00045097195473264764 -1 0 0
1358 1 82.026 18.36320443015569 0.00045097195472388224 -1 0 0
1475 4 78.678 20.296138167332284 1.1209721371145351 -1 0 0
1479 4 82.026 20.296138167332277 1.120972137114544 -1 0 0
1473 1 77.004 21.262657482025684 0.0004509719547287213 -1 0 0
1477 1 80.35199999999999 21.262657482025684 0.00045097195472872104 -1 0 0