LAMMPS data file via write_data, version 29 Aug 2024, timestep = 1, units = metal

4080 atoms
4 atom types

0 100.44 xlo xhi
0 98.58140376358 ylo yhi
-50 111.98582287229337 zlo zhi

Masses

1 12.011
2 12.011
3 127.6
4 127.6

Atoms # atomic

1022 1 1.673999999999999 0.9664868499927437 0.0006374131981984915 0 0 0
1026 1 5.0219999999999985 0.9664868499927437 0.0006374131981984916 0 0 0
1143 3 1.673999999999999 2.8994061322913494 1.1238545645019253 0 0 0
1147 3 5.0219999999999985 2.8994061322913494 1.1238545645019253 0 0 0
1141 1 0 3.8659399018627374 0.0006374131981980437 0 0 0
1145 1 3.347999999999999 3.8659399018627396 0.0006374131981949879 0 0 0
1144 3 0 5.7988591841613575 1.1238545645019253 0 0 0
1148 3 3.347999999999999 5.798859184161355 1.1238545645019284 0 0 0
1030 1 8.37 0.9664868499927413 0.0006374131982015453 0 0 0
1034 1 11.718000000000004 0.9664868499927434 0.0006374131981988268 0 0 0
1151 3 8.37 2.8994061322913516 1.1238545645019222 0 0 0
1155 3 11.718000000000004 2.89940613229135 1.123854564501925 0 0 0
1149 1 6.696000000000003 3.865939901862738 0.000637413198197706 0 0 0
1153 1 10.044000000000004 3.86593990186274 0.0006374131981946486 0 0 0
1152 3 6.696000000000003 5.798859184161357 1.1238545645019258 0 0 0
1156 3 10.044000000000004 5.798859184161355 1.1238545645019287 0 0 0
1038 1 15.065999999999997 0.9664868499927458 0.0006374131981957018 0 0 0
1159 3 15.065999999999997 2.899406132291347 1.123854564501928 0 0 0
1157 1 13.392000000000003 3.8659399018627396 0.0006374131981953206 0 0 0
1161 1 16.740000000000006 3.86593990186274 0.0006374131981946002 0 0 0
1160 3 13.392000000000003 5.798859184161355 1.123854564501928 0 0 0
1164 3 16.740000000000006 5.798859184161355 1.1238545645019289 0 0 0
1042 1 18.414 0.9664868499927386 0.0006374131982049551 0 0 0
1046 1 21.76200000000001 0.9664868499927435 0.0006374131981987658 0 0 0
1163 3 18.414 2.8994061322913547 1.1238545645019187 0 0 0
1167 3 21.76200000000001 2.89940613229135 1.123854564501925 0 0 0
1165 1 20.087999999999997 3.8659399018627405 0.0006374131981942673 0 0 0
1169 1 23.435999999999996 3.86593990186274 0.0006374131981949337 0 0 0
1168 3 20.087999999999997 5.798859184161354 1.123854564501929 0 0 0
1172 3 23.435999999999996 5.798859184161355 1.1238545645019284 0 0 0
1050 1 25.11000000000001 0.9664868499927435 0.0006374131981987648 0 0 0
1054 1 28.45800000000001 0.9664868499927435 0.0006374131981987642 0 0 0
1171 3 25.11000000000001 2.89940613229135 1.123854564501925 0 0 0
1175 3 28.45800000000001 2.89940613229135 1.123854564501925 0 0 0
1173 1 26.783999999999995 3.86593990186274 0.0006374131981949328 0 0 0
1176 3 26.783999999999995 5.798859184161355 1.1238545645019284 0 0 0
1058 1 31.806000000000008 0.9664868499927435 0.0006374131981987636 0 0 0
1062 1 35.15400000000001 0.9664868499927435 0.0006374131981987641 0 0 0
1179 3 31.806000000000008 2.89940613229135 1.123854564501925 0 0 0
1183 3 35.15400000000001 2.89940613229135 1.123854564501925 0 0 0
1177 1 30.131999999999994 3.86593990186274 0.0006374131981949323 0 0 0
1181 1 33.47999999999999 3.86593990186274 0.0006374131981949315 0 0 0
1180 3 30.131999999999994 5.798859184161355 1.1238545645019284 0 0 0
1184 3 33.47999999999999 5.798859184161355 1.1238545645019284 0 0 0
1066 1 38.50200000000001 0.9664868499927435 0.0006374131981987652 0 0 0
1187 3 38.50200000000001 2.89940613229135 1.123854564501925 0 0 0
1185 1 36.82799999999999 3.86593990186274 0.0006374131981949328 0 0 0
1189 1 40.17599999999999 3.86593990186274 0.0006374131981949333 0 0 0
1188 3 36.82799999999999 5.798859184161355 1.1238545645019284 0 0 0
1192 3 40.17599999999999 5.798859184161355 1.1238545645019284 0 0 0
1070 1 41.85000000000001 0.966486849992744 0.0006374131981980981 0 0 0
1074 1 45.19799999999999 0.966486849992744 0.0006374131981980977 0 0 0
1191 3 41.85000000000001 2.899406132291349 1.1238545645019256 0 0 0
1195 3 45.19799999999999 2.899406132291349 1.1238545645019256 0 0 0
1193 1 43.524 3.865939901862735 0.0006374131982011138 0 0 0
1197 1 46.872000000000014 3.86593990186274 0.000637413198194933 0 0 0
1196 3 43.524 5.798859184161359 1.1238545645019222 0 0 0
1200 3 46.872000000000014 5.798859184161355 1.1238545645019284 0 0 0
1078 1 48.54599999999999 0.9664868499927431 0.0006374131981990976 0 0 0
962 1 51.894 0.966486849992743 0.0006374131981991618 -1 0 0
1199 3 48.54599999999999 2.89940613229135 1.1238545645019247 0 0 0
1083 3 51.894 2.89940613229135 1.1238545645019247 -1 0 0
1081 1 50.220000000000006 3.8659399018627423 0.0006374131981918699 -1 0 0
1084 3 50.220000000000006 5.798859184161352 1.1238545645019316 -1 0 0
966 1 55.242 0.9664868499927434 0.0006374131981988289 -1 0 0
970 1 58.589999999999996 0.9664868499927437 0.0006374131981984915 -1 0 0
1087 3 55.242 2.89940613229135 1.123854564501925 -1 0 0
1091 3 58.589999999999996 2.8994061322913494 1.1238545645019253 -1 0 0
1085 1 53.568 3.8659399018627396 0.0006374131981949885 -1 0 0
1089 1 56.916 3.8659399018627396 0.0006374131981949885 -1 0 0
1088 3 53.568 5.798859184161355 1.1238545645019284 -1 0 0
1092 3 56.916 5.798859184161355 1.1238545645019284 -1 0 0
974 1 61.93799999999999 0.9664868499927437 0.0006374131981984275 -1 0 0
1095 3 61.93799999999999 2.8994061322913494 1.1238545645019253 -1 0 0
1093 1 60.264 3.8659399018627374 0.0006374131981980432 -1 0 0
1097 1 63.61200000000001 3.86593990186274 0.0006374131981949332 -1 0 0
1096 3 60.264 5.7988591841613575 1.1238545645019253 -1 0 0
1100 3 63.61200000000001 5.798859184161355 1.1238545645019284 -1 0 0
978 1 65.28599999999999 0.9664868499927435 0.0006374131981987645 -1 0 0
982 1 68.63399999999999 0.9664868499927435 0.0006374131981987634 -1 0 0
1099 3 65.28599999999999 2.89940613229135 1.123854564501925 -1 0 0
1103 3 68.63399999999999 2.89940613229135 1.123854564501925 -1 0 0
1101 1 66.96000000000001 3.86593990186274 0.0006374131981949323 -1 0 0
1105 1 70.308 3.8659399018627405 0.0006374131981942665 -1 0 0
1104 3 66.96000000000001 5.798859184161355 1.1238545645019284 -1 0 0
1108 3 70.308 5.798859184161354 1.123854564501929 -1 0 0
986 1 71.982 0.9664868499927386 0.0006374131982049555 -1 0 0
990 1 75.33 0.9664868499927484 0.000637413198192549 -1 0 0
1107 3 71.982 2.8994061322913547 1.1238545645019187 -1 0 0
1111 3 75.33 2.899406132291345 1.123854564501931 -1 0 0
1109 1 73.65599999999999 3.86593990186274 0.0006374131981949208 -1 0 0
1112 3 73.65599999999999 5.798859184161355 1.1238545645019284 -1 0 0
994 1 78.678 0.9664868499927386 0.0006374131982049549 -1 0 0
998 1 82.026 0.9664868499927484 0.0006374131981925485 -1 0 0
1115 3 78.678 2.8994061322913547 1.1238545645019187 -1 0 0
1119 3 82.026 2.899406132291345 1.123854564501931 -1 0 0
1113 1 77.004 3.86593990186274 0.0006374131981949203 -1 0 0
1117 1 80.35199999999999 3.86593990186274 0.00063741319819492 -1 0 0
1116 3 77.004 5.798859184161355 1.1238545645019284 -1 0 0
1120 3 80.35199999999999 5.798859184161355 1.1238545645019284 -1 0 0
1002 1 85.374 0.9664868499927391 0.0006374131982042886 -1 0 0
1123 3 85.374 2.899406132291354 1.1238545645019193 -1 0 0
1121 1 83.7 3.86593990186274 0.00063741319819492 -1 0 0
1125 1 87.048 3.8659399018627356 0.0006374131982004482 -1 0 0
1124 3 83.7 5.798859184161355 1.1238545645019284 -1 0 0
1128 3 87.048 5.798859184161359 1.123854564501923 -1 0 0
1006 1 88.722 0.9664868499927435 0.0006374131981987512 -1 0 0
1010 1 92.07000000000001 0.9664868499927435 0.0006374131981987517 -1 0 0
1127 3 88.722 2.89940613229135 1.123854564501925 -1 0 0
1131 3 92.07000000000001 2.89940613229135 1.123854564501925 -1 0 0
1129 1 90.396 3.865939901862745 0.000637413198188725 -1 0 0
1133 1 93.744 3.865939901862735 0.0006374131982011148 -1 0 0
1132 3 90.396 5.7988591841613495 1.1238545645019347 -1 0 0
1136 3 93.744 5.798859184161359 1.1238545645019222 -1 0 0
1014 1 95.41799999999999 0.9664868499927435 0.0006374131981987509 -1 0 0
1018 1 98.766 0.9664868499927431 0.0006374131981990803 -1 0 0
1135 3 95.41799999999999 2.89940613229135 1.123854564501925 -1 0 0
1139 3 98.766 2.89940613229135 1.1238545645019247 -1 0 0
1137 1 97.092 3.865939901862745 0.0006374131981887237 -1 0 0
1140 3 97.092 5.7988591841613495 1.1238545645019347 -1 0 0
1142 1 1.673999999999999 6.765392953732738 0.0006374131981949671 0 0 0
1146 1 5.0219999999999985 6.765392953732738 0.0006374131981949671 0 0 0
1261 1 0 9.66484600560274 0.0006374131982018836 0 0 0
1263 3 1.673999999999999 8.698312236031352 1.123854564501929 0 0 0
1265 1 3.347999999999999 9.664846005602742 0.0006374131981988282 0 0 0
1267 3 5.0219999999999985 8.698312236031352 1.123854564501929 0 0 0
1264 3 0 11.597765287901352 1.1238545645019222 0 0 0
1268 3 3.347999999999999 11.59776528790135 1.1238545645019251 0 0 0
1150 1 8.37 6.765392953732736 0.0006374131981980208 0 0 0
1154 1 11.718000000000004 6.7653929537327375 0.0006374131981953025 0 0 0
1269 1 6.696000000000003 9.66484600560274 0.0006374131982015456 0 0 0
1271 3 8.37 8.698312236031354 1.123854564501926 0 0 0
1273 1 10.044000000000004 9.664846005602744 0.0006374131981984894 0 0 0
1275 3 11.718000000000004 8.698312236031352 1.1238545645019287 0 0 0
1272 3 6.696000000000003 11.597765287901352 1.1238545645019224 0 0 0
1276 3 10.044000000000004 11.59776528790135 1.1238545645019256 0 0 0
1158 1 15.065999999999997 6.76539295373274 0.0006374131981921904 0 0 0
1277 1 13.392000000000003 9.664846005602742 0.0006374131981991608 0 0 0
1279 3 15.065999999999997 8.69831223603135 1.1238545645019318 0 0 0
1281 1 16.740000000000006 9.664846005602744 0.0006374131981984314 0 0 0
1280 3 13.392000000000003 11.59776528790135 1.123854564501925 0 0 0
1284 3 16.740000000000006 11.59776528790135 1.1238545645019256 0 0 0
1162 1 18.414 6.765392953732733 0.0006374131982014305 0 0 0
1166 1 21.76200000000001 6.7653929537327375 0.0006374131981952541 0 0 0
1283 3 18.414 8.698312236031358 1.1238545645019227 0 0 0
1285 1 20.087999999999997 9.664846005602744 0.0006374131981980985 0 0 0
1287 3 21.76200000000001 8.698312236031352 1.1238545645019289 0 0 0
1289 1 23.435999999999996 9.664846005602742 0.000637413198198765 0 0 0
1288 3 20.087999999999997 11.59776528790135 1.123854564501926 0 0 0
1292 3 23.435999999999996 11.59776528790135 1.1238545645019253 0 0 0
1170 1 25.11000000000001 6.7653929537327375 0.0006374131981952532 0 0 0
1174 1 28.45800000000001 6.7653929537327375 0.0006374131981952528 0 0 0
1291 3 25.11000000000001 8.698312236031352 1.1238545645019289 0 0 0
1293 1 26.783999999999995 9.664846005602742 0.0006374131981987642 0 0 0
1295 3 28.45800000000001 8.698312236031352 1.1238545645019289 0 0 0
1296 3 26.783999999999995 11.59776528790135 1.1238545645019253 0 0 0
1178 1 31.806000000000008 6.7653929537327375 0.0006374131981952522 0 0 0
1182 1 35.15400000000001 6.7653929537327375 0.0006374131981952528 0 0 0
1297 1 30.131999999999994 9.664846005602742 0.0006374131981987636 0 0 0
1299 3 31.806000000000008 8.698312236031352 1.1238545645019289 0 0 0
1301 1 33.47999999999999 9.664846005602742 0.0006374131981987635 0 0 0
1303 3 35.15400000000001 8.698312236031352 1.1238545645019289 0 0 0
1300 3 30.131999999999994 11.59776528790135 1.1238545645019253 0 0 0
1304 3 33.47999999999999 11.59776528790135 1.1238545645019253 0 0 0
1186 1 38.50200000000001 6.7653929537327375 0.0006374131981952538 0 0 0
1305 1 36.82799999999999 9.664846005602742 0.0006374131981987647 0 0 0
1307 3 38.50200000000001 8.698312236031352 1.1238545645019289 0 0 0
1309 1 40.17599999999999 9.664846005602742 0.0006374131981987649 0 0 0
1308 3 36.82799999999999 11.59776528790135 1.1238545645019253 0 0 0
1312 3 40.17599999999999 11.59776528790135 1.1238545645019253 0 0 0
1190 1 41.85000000000001 6.765392953732738 0.0006374131981945868 0 0 0
1194 1 45.19799999999999 6.765392953732738 0.0006374131981945865 0 0 0
1311 3 41.85000000000001 8.698312236031352 1.1238545645019296 0 0 0
1313 1 43.524 9.664846005602739 0.0006374131982049539 0 0 0
1315 3 45.19799999999999 8.698312236031352 1.1238545645019296 0 0 0
1317 1 46.872000000000014 9.664846005602742 0.000637413198198764 0 0 0
1316 3 43.524 11.597765287901355 1.1238545645019191 0 0 0
1320 3 46.872000000000014 11.59776528790135 1.1238545645019253 0 0 0
1198 1 48.54599999999999 6.7653929537327375 0.0006374131981955862 0 0 0
1082 1 51.894 6.7653929537327375 0.0006374131981956375 -1 0 0
1319 3 48.54599999999999 8.698312236031352 1.1238545645019284 0 0 0
1201 1 50.220000000000006 9.664846005602746 0.000637413198195701 -1 0 0
1203 3 51.894 8.698312236031352 1.1238545645019284 -1 0 0
1204 3 50.220000000000006 11.597765287901348 1.1238545645019284 -1 0 0
1086 1 55.242 6.7653929537327375 0.0006374131981953045 -1 0 0
1090 1 58.589999999999996 6.765392953732738 0.0006374131981949671 -1 0 0
1205 1 53.568 9.664846005602742 0.0006374131981988285 -1 0 0
1207 3 55.242 8.698312236031352 1.1238545645019287 -1 0 0
1209 1 56.916 9.664846005602742 0.0006374131981988286 -1 0 0
1211 3 58.589999999999996 8.698312236031352 1.123854564501929 -1 0 0
1208 3 53.568 11.59776528790135 1.1238545645019251 -1 0 0
1212 3 56.916 11.59776528790135 1.1238545645019251 -1 0 0
1094 1 61.93799999999999 6.765392953732738 0.0006374131981949162 -1 0 0
1213 1 60.264 9.66484600560274 0.0006374131982018832 -1 0 0
1215 3 61.93799999999999 8.698312236031352 1.123854564501929 -1 0 0
1217 1 63.61200000000001 9.664846005602742 0.0006374131981987642 -1 0 0
1216 3 60.264 11.597765287901352 1.1238545645019222 -1 0 0
1220 3 63.61200000000001 11.59776528790135 1.1238545645019253 -1 0 0
1098 1 65.28599999999999 6.7653929537327375 0.000637413198195253 -1 0 0
1102 1 68.63399999999999 6.7653929537327375 0.0006374131981952521 -1 0 0
1219 3 65.28599999999999 8.698312236031352 1.1238545645019289 -1 0 0
1221 1 66.96000000000001 9.664846005602742 0.0006374131981987633 -1 0 0
1223 3 68.63399999999999 8.698312236031352 1.1238545645019289 -1 0 0
1225 1 70.308 9.664846005602744 0.0006374131981980976 -1 0 0
1224 3 66.96000000000001 11.59776528790135 1.1238545645019253 -1 0 0
1228 3 70.308 11.59776528790135 1.123854564501926 -1 0 0
1106 1 71.982 6.765392953732733 0.0006374131982014312 -1 0 0
1110 1 75.33 6.765392953732743 0.0006374131981890507 -1 0 0
1227 3 71.982 8.698312236031358 1.1238545645019227 -1 0 0
1229 1 73.65599999999999 9.664846005602742 0.0006374131981987521 -1 0 0
1231 3 75.33 8.698312236031347 1.123854564501935 -1 0 0
1232 3 73.65599999999999 11.59776528790135 1.1238545645019253 -1 0 0
1114 1 78.678 6.765392953732733 0.0006374131982014305 -1 0 0
1118 1 82.026 6.765392953732743 0.0006374131981890502 -1 0 0
1233 1 77.004 9.664846005602742 0.0006374131981987519 -1 0 0
1235 3 78.678 8.698312236031358 1.1238545645019227 -1 0 0
1237 1 80.35199999999999 9.664846005602742 0.0006374131981987514 -1 0 0
1239 3 82.026 8.698312236031347 1.123854564501935 -1 0 0
1236 3 77.004 11.59776528790135 1.1238545645019253 -1 0 0
1240 3 80.35199999999999 11.59776528790135 1.1238545645019253 -1 0 0
1122 1 85.374 6.765392953732733 0.0006374131982007642 -1 0 0
1241 1 83.7 9.664846005602742 0.0006374131981987512 -1 0 0
1243 3 85.374 8.698312236031358 1.1238545645019233 -1 0 0
1245 1 87.048 9.664846005602739 0.0006374131982042885 -1 0 0
1244 3 83.7 11.59776528790135 1.1238545645019253 -1 0 0
1248 3 87.048 11.597765287901353 1.1238545645019198 -1 0 0
1126 1 88.722 6.7653929537327375 0.0006374131981952399 -1 0 0
1130 1 92.07000000000001 6.7653929537327375 0.00063741319819524 -1 0 0
1247 3 88.722 8.698312236031352 1.1238545645019289 -1 0 0
1249 1 90.396 9.664846005602747 0.0006374131981925473 -1 0 0
1251 3 92.07000000000001 8.698312236031352 1.1238545645019289 -1 0 0
1253 1 93.744 9.664846005602739 0.0006374131982049547 -1 0 0
1252 3 90.396 11.597765287901344 1.1238545645019316 -1 0 0
1256 3 93.744 11.597765287901355 1.1238545645019191 -1 0 0
1134 1 95.41799999999999 6.7653929537327375 0.0006374131981952396 -1 0 0
1138 1 98.766 6.7653929537327375 0.0006374131981955687 -1 0 0
1255 3 95.41799999999999 8.698312236031352 1.1238545645019289 -1 0 0
1257 1 97.092 9.664846005602747 0.0006374131981925466 -1 0 0
1259 3 98.766 8.698312236031352 1.1238545645019284 -1 0 0
1260 3 97.092 11.597765287901344 1.1238545645019316 -1 0 0
1262 1 1.673999999999999 12.564299057472747 0.0006374131981998146 0 0 0
1266 1 5.0219999999999985 12.564299057472747 0.0006374131981998148 0 0 0
1383 3 1.673999999999999 14.49721833977134 1.1238545645019333 0 0 0
1381 1 0 15.463752109342757 0.0006374131981970463 0 0 0
1385 1 3.347999999999999 15.463752109342758 0.0006374131981939635 0 0 0
1387 3 5.0219999999999985 14.49721833977134 1.1238545645019333 0 0 0
1384 3 0 17.39667139164135 1.1238545645019173 0 0 0
1388 3 3.347999999999999 17.396671391641345 1.1238545645019204 0 0 0
1270 1 8.37 12.564299057472743 0.0006374131982028688 0 0 0
1274 1 11.718000000000004 12.564299057472747 0.0006374131982001505 0 0 0
1389 1 6.696000000000003 15.463752109342757 0.0006374131981967085 0 0 0
1391 3 8.37 14.497218339771342 1.1238545645019302 0 0 0
1393 1 10.044000000000004 15.463752109342758 0.0006374131981936248 0 0 0
1395 3 11.718000000000004 14.49721833977134 1.1238545645019329 0 0 0
1392 3 6.696000000000003 17.39667139164135 1.1238545645019178 0 0 0
1396 3 10.044000000000004 17.396671391641345 1.1238545645019207 0 0 0
1278 1 15.065999999999997 12.564299057472748 0.0006374131981970211 0 0 0
1397 1 13.392000000000003 15.463752109342758 0.0006374131981942917 0 0 0
1399 3 15.065999999999997 14.497218339771338 1.123854564501936 0 0 0
1401 1 16.740000000000006 15.463752109342758 0.0006374131981936583 0 0 0
1400 3 13.392000000000003 17.396671391641345 1.12385456450192 0 0 0
1404 3 16.740000000000006 17.396671391641345 1.1238545645019207 0 0 0
1282 1 18.414 12.564299057472741 0.0006374131982062787 0 0 0
1286 1 21.76200000000001 12.564299057472747 0.000637413198200085 0 0 0
1403 3 18.414 14.497218339771345 1.1238545645019267 0 0 0
1405 1 20.087999999999997 15.463752109342758 0.0006374131981933298 0 0 0
1407 3 21.76200000000001 14.49721833977134 1.1238545645019329 0 0 0
1409 1 23.435999999999996 15.463752109342758 0.0006374131981939962 0 0 0
1408 3 20.087999999999997 17.396671391641345 1.1238545645019211 0 0 0
1412 3 23.435999999999996 17.396671391641345 1.1238545645019204 0 0 0
1290 1 25.11000000000001 12.564299057472747 0.0006374131982000839 0 0 0
1294 1 28.45800000000001 12.564299057472747 0.0006374131982000837 0 0 0
1411 3 25.11000000000001 14.49721833977134 1.1238545645019329 0 0 0
1413 1 26.783999999999995 15.463752109342758 0.0006374131981939956 0 0 0
1415 3 28.45800000000001 14.49721833977134 1.1238545645019329 0 0 0
1416 3 26.783999999999995 17.396671391641345 1.1238545645019204 0 0 0
1298 1 31.806000000000008 12.564299057472747 0.0006374131982000826 0 0 0
1302 1 35.15400000000001 12.564299057472747 0.0006374131982000836 0 0 0
1417 1 30.131999999999994 15.463752109342758 0.0006374131981939949 0 0 0
1419 3 31.806000000000008 14.49721833977134 1.1238545645019329 0 0 0
1421 1 33.47999999999999 15.463752109342758 0.0006374131981939947 0 0 0
1423 3 35.15400000000001 14.49721833977134 1.1238545645019329 0 0 0
1420 3 30.131999999999994 17.396671391641345 1.1238545645019204 0 0 0
1424 3 33.47999999999999 17.396671391641345 1.1238545645019204 0 0 0
1306 1 38.50200000000001 12.564299057472747 0.0006374131982000846 0 0 0
1425 1 36.82799999999999 15.463752109342758 0.0006374131981939958 0 0 0
1427 3 38.50200000000001 14.49721833977134 1.1238545645019329 0 0 0
1429 1 40.17599999999999 15.463752109342758 0.0006374131981939961 0 0 0
1428 3 36.82799999999999 17.396671391641345 1.1238545645019204 0 0 0
1432 3 40.17599999999999 17.396671391641345 1.1238545645019204 0 0 0
1310 1 41.85000000000001 12.564299057472747 0.0006374131981994174 0 0 0
1314 1 45.19799999999999 12.564299057472747 0.000637413198199417 0 0 0
1431 3 41.85000000000001 14.49721833977134 1.1238545645019336 0 0 0
1433 1 43.524 15.463752109342753 0.0006374131982001437 0 0 0
1435 3 45.19799999999999 14.49721833977134 1.1238545645019336 0 0 0
1437 1 46.872000000000014 15.463752109342758 0.0006374131981939953 0 0 0
1436 3 43.524 17.396671391641352 1.1238545645019142 0 0 0
1440 3 46.872000000000014 17.396671391641345 1.1238545645019204 0 0 0
1318 1 48.54599999999999 12.564299057472747 0.0006374131982004169 0 0 0
1202 1 51.894 12.564299057472745 0.0006374131982004855 -1 0 0
1439 3 48.54599999999999 14.49721833977134 1.1238545645019327 0 0 0
1323 3 51.894 14.49721833977134 1.1238545645019327 -1 0 0
1321 1 50.220000000000006 15.46375210934276 0.0006374131981908963 -1 0 0
1324 3 50.220000000000006 17.396671391641345 1.1238545645019236 -1 0 0
1206 1 55.242 12.564299057472747 0.0006374131982001523 -1 0 0
1210 1 58.589999999999996 12.564299057472747 0.0006374131981998149 -1 0 0
1325 1 53.568 15.463752109342758 0.0006374131981939639 -1 0 0
1327 3 55.242 14.49721833977134 1.1238545645019329 -1 0 0
1329 1 56.916 15.463752109342758 0.0006374131981939639 -1 0 0
1331 3 58.589999999999996 14.49721833977134 1.1238545645019333 -1 0 0
1328 3 53.568 17.396671391641345 1.1238545645019204 -1 0 0
1332 3 56.916 17.396671391641345 1.1238545645019204 -1 0 0
1214 1 61.93799999999999 12.564299057472747 0.0006374131981997466 -1 0 0
1333 1 60.264 15.463752109342757 0.0006374131981970458 -1 0 0
1335 3 61.93799999999999 14.49721833977134 1.1238545645019333 -1 0 0
1337 1 63.61200000000001 15.463752109342758 0.0006374131981939953 -1 0 0
1336 3 60.264 17.39667139164135 1.1238545645019173 -1 0 0
1340 3 63.61200000000001 17.396671391641345 1.1238545645019204 -1 0 0
1218 1 65.28599999999999 12.564299057472747 0.0006374131982000838 -1 0 0
1222 1 68.63399999999999 12.564299057472747 0.0006374131982000826 -1 0 0
1339 3 65.28599999999999 14.49721833977134 1.1238545645019329 -1 0 0
1341 1 66.96000000000001 15.463752109342758 0.0006374131981939943 -1 0 0
1343 3 68.63399999999999 14.49721833977134 1.1238545645019329 -1 0 0
1345 1 70.308 15.463752109342758 0.0006374131981933288 -1 0 0
1344 3 66.96000000000001 17.396671391641345 1.1238545645019204 -1 0 0
1348 3 70.308 17.396671391641345 1.1238545645019211 -1 0 0
1226 1 71.982 12.564299057472741 0.0006374131982062794 -1 0 0
1230 1 75.33 12.56429905747275 0.0006374131981938641 -1 0 0
1347 3 71.982 14.497218339771345 1.1238545645019267 -1 0 0
1349 1 73.65599999999999 15.463752109342758 0.0006374131981939789 -1 0 0
1351 3 75.33 14.497218339771335 1.123854564501939 -1 0 0
1352 3 73.65599999999999 17.396671391641345 1.1238545645019204 -1 0 0
1234 1 78.678 12.564299057472741 0.0006374131982062788 -1 0 0
1238 1 82.026 12.56429905747275 0.0006374131981938635 -1 0 0
1353 1 77.004 15.463752109342758 0.0006374131981939784 -1 0 0
1355 3 78.678 14.497218339771345 1.1238545645019267 -1 0 0
1357 1 80.35199999999999 15.463752109342758 0.0006374131981939784 -1 0 0
1359 3 82.026 14.497218339771335 1.123854564501939 -1 0 0
1356 3 77.004 17.396671391641345 1.1238545645019204 -1 0 0
1360 3 80.35199999999999 17.396671391641345 1.1238545645019204 -1 0 0
1242 1 85.374 12.564299057472741 0.0006374131982056122 -1 0 0
1361 1 83.7 15.463752109342758 0.0006374131981939778 -1 0 0
1363 3 85.374 14.497218339771344 1.1238545645019273 -1 0 0
1365 1 87.048 15.463752109342755 0.0006374131981994781 -1 0 0
1364 3 83.7 17.396671391641345 1.1238545645019204 -1 0 0
1368 3 87.048 17.39667139164135 1.123854564501915 -1 0 0
1246 1 88.722 12.564299057472747 0.0006374131982000705 -1 0 0
1250 1 92.07000000000001 12.564299057472747 0.0006374131982000707 -1 0 0
1367 3 88.722 14.49721833977134 1.1238545645019329 -1 0 0
1369 1 90.396 15.463752109342764 0.000637413198187811 -1 0 0
1371 3 92.07000000000001 14.49721833977134 1.1238545645019329 -1 0 0
1373 1 93.744 15.463752109342753 0.0006374131982001448 -1 0 0
1372 3 90.396 17.39667139164134 1.1238545645019267 -1 0 0
1376 3 93.744 17.396671391641352 1.1238545645019142 -1 0 0
1254 1 95.41799999999999 12.564299057472747 0.00063741319820007 -1 0 0
1258 1 98.766 12.564299057472747 0.0006374131982003994 -1 0 0
1375 3 95.41799999999999 14.49721833977134 1.1238545645019329 -1 0 0
1377 1 97.092 15.463752109342764 0.0006374131981878103 -1 0 0
1379 3 98.766 14.49721833977134 1.1238545645019327 -1 0 0
1380 3 97.092 17.39667139164134 1.1238545645019267 -1 0 0
1382 1 1.673999999999999 18.36320516121274 0.0006374131981943181 0 0 0
1386 1 5.0219999999999985 18.36320516121274 0.0006374131981943182 0 0 0
1503 3 1.673999999999999 20.296124443511356 1.1238545645019287 0 0 0
1507 3 5.0219999999999985 20.296124443511356 1.1238545645019287 0 0 0
1501 1 0 21.262658213082737 0.0006374131981983599 0 0 0
1505 1 3.347999999999999 21.26265821308274 0.0006374131981953041 0 0 0
1504 3 0 23.195577495381357 1.1238545645019253 0 0 0
1508 3 3.347999999999999 23.195577495381354 1.1238545645019284 0 0 0
1390 1 8.37 18.36320516121274 0.000637413198197376 0 0 0
1394 1 11.718000000000004 18.36320516121274 0.0006374131981946535 0 0 0
1511 3 8.37 20.29612444351136 1.1238545645019258 0 0 0
1515 3 11.718000000000004 20.296124443511356 1.1238545645019284 0 0 0
1509 1 6.696000000000003 21.262658213082737 0.0006374131981980219 0 0 0
1513 1 10.044000000000004 21.26265821308274 0.0006374131981949653 0 0 0
1512 3 6.696000000000003 23.195577495381357 1.1238545645019258 0 0 0
1516 3 10.044000000000004 23.195577495381354 1.1238545645019287 0 0 0
1398 1 15.065999999999997 18.363205161212743 0.0006374131981915415 0 0 0
1519 3 15.065999999999997 20.296124443511353 1.1238545645019316 0 0 0
1517 1 13.392000000000003 21.262658213082737 0.0006374131981956372 0 0 0
1521 1 16.740000000000006 21.26265821308274 0.0006374131981949208 0 0 0
1520 3 13.392000000000003 23.195577495381354 1.123854564501928 0 0 0
1524 3 16.740000000000006 23.195577495381354 1.1238545645019289 0 0 0
1402 1 18.414 18.363205161212736 0.0006374131982007904 0 0 0
1406 1 21.76200000000001 18.36320516121274 0.0006374131981946097 0 0 0
1523 3 18.414 20.29612444351136 1.1238545645019222 0 0 0
1527 3 21.76200000000001 20.296124443511356 1.1238545645019284 0 0 0
1525 1 20.087999999999997 21.26265821308274 0.0006374131981945878 0 0 0
1529 1 23.435999999999996 21.26265821308274 0.0006374131981952541 0 0 0
1528 3 20.087999999999997 23.195577495381354 1.123854564501929 0 0 0
1532 3 23.435999999999996 23.195577495381354 1.1238545645019284 0 0 0
1410 1 25.11000000000001 18.36320516121274 0.0006374131981946088 0 0 0
1414 1 28.45800000000001 18.36320516121274 0.0006374131981946085 0 0 0
1531 3 25.11000000000001 20.296124443511356 1.1238545645019284 0 0 0
1535 3 28.45800000000001 20.296124443511356 1.1238545645019284 0 0 0
1533 1 26.783999999999995 21.26265821308274 0.0006374131981952533 0 0 0
1536 3 26.783999999999995 23.195577495381354 1.1238545645019284 0 0 0
1418 1 31.806000000000008 18.36320516121274 0.0006374131981946078 0 0 0
1422 1 35.15400000000001 18.36320516121274 0.0006374131981946083 0 0 0
1539 3 31.806000000000008 20.296124443511356 1.1238545645019284 0 0 0
1543 3 35.15400000000001 20.296124443511356 1.1238545645019284 0 0 0
1537 1 30.131999999999994 21.26265821308274 0.0006374131981952528 0 0 0
1541 1 33.47999999999999 21.26265821308274 0.0006374131981952523 0 0 0
1540 3 30.131999999999994 23.195577495381354 1.1238545645019284 0 0 0
1544 3 33.47999999999999 23.195577495381354 1.1238545645019284 0 0 0
1426 1 38.50200000000001 18.36320516121274 0.0006374131981946095 0 0 0
1547 3 38.50200000000001 20.296124443511356 1.1238545645019284 0 0 0
1545 1 36.82799999999999 21.26265821308274 0.0006374131981952536 0 0 0
1549 1 40.17599999999999 21.26265821308274 0.000637413198195254 0 0 0
1548 3 36.82799999999999 23.195577495381354 1.1238545645019284 0 0 0
1552 3 40.17599999999999 23.195577495381354 1.1238545645019284 0 0 0
1430 1 41.85000000000001 18.36320516121274 0.0006374131981939426 0 0 0
1434 1 45.19799999999999 18.36320516121274 0.0006374131981939418 0 0 0
1551 3 41.85000000000001 20.296124443511356 1.123854564501929 0 0 0
1555 3 45.19799999999999 20.296124443511356 1.123854564501929 0 0 0
1553 1 43.524 21.262658213082734 0.0006374131982014302 0 0 0
1557 1 46.872000000000014 21.26265821308274 0.0006374131981952532 0 0 0
1556 3 43.524 23.195577495381357 1.1238545645019222 0 0 0
1560 3 46.872000000000014 23.195577495381354 1.1238545645019284 0 0 0
1438 1 48.54599999999999 18.36320516121274 0.0006374131981949416 0 0 0
1322 1 51.894 18.36320516121274 0.0006374131981949886 -1 0 0
1559 3 48.54599999999999 20.296124443511356 1.1238545645019282 0 0 0
1443 3 51.894 20.296124443511356 1.123854564501928 -1 0 0
1441 1 50.220000000000006 21.26265821308274 0.0006374131981921903 -1 0 0
1444 3 50.220000000000006 23.19557749538135 1.1238545645019316 -1 0 0
1326 1 55.242 18.36320516121274 0.0006374131981946558 -1 0 0
1330 1 58.589999999999996 18.36320516121274 0.0006374131981943181 -1 0 0
1447 3 55.242 20.296124443511356 1.1238545645019284 -1 0 0
1451 3 58.589999999999996 20.296124443511356 1.1238545645019287 -1 0 0
1445 1 53.568 21.26265821308274 0.0006374131981953048 -1 0 0
1449 1 56.916 21.26265821308274 0.0006374131981953048 -1 0 0
1448 3 53.568 23.195577495381354 1.1238545645019284 -1 0 0
1452 3 56.916 23.195577495381354 1.1238545645019284 -1 0 0
1334 1 61.93799999999999 18.36320516121274 0.0006374131981942716 -1 0 0
1455 3 61.93799999999999 20.296124443511356 1.1238545645019289 -1 0 0
1453 1 60.264 21.262658213082737 0.0006374131981983594 -1 0 0
1457 1 63.61200000000001 21.26265821308274 0.0006374131981952536 -1 0 0
1456 3 60.264 23.195577495381357 1.1238545645019253 -1 0 0
1460 3 63.61200000000001 23.195577495381354 1.1238545645019284 -1 0 0
1338 1 65.28599999999999 18.36320516121274 0.0006374131981946085 -1 0 0
1342 1 68.63399999999999 18.36320516121274 0.0006374131981946076 -1 0 0
1459 3 65.28599999999999 20.296124443511356 1.1238545645019284 -1 0 0
1463 3 68.63399999999999 20.296124443511356 1.1238545645019284 -1 0 0
1461 1 66.96000000000001 21.26265821308274 0.0006374131981952528 -1 0 0
1465 1 70.308 21.26265821308274 0.0006374131981945868 -1 0 0
1464 3 66.96000000000001 23.195577495381354 1.1238545645019284 -1 0 0
1468 3 70.308 23.195577495381354 1.123854564501929 -1 0 0
1346 1 71.982 18.363205161212736 0.0006374131982007909 -1 0 0
1350 1 75.33 18.363205161212747 0.0006374131981884019 -1 0 0