LAMMPS data file via write_data, version 29 Aug 2024, timestep = 28, units = metal

14364 atoms
36 atom types

0 102.292809577798 xlo xhi
0 97.913242426104 ylo yhi
-50 50 zlo zhi

Masses

1 55.845
2 55.845
3 55.845
4 55.845
5 55.845
6 55.845
7 55.845
8 55.845
9 55.845
10 55.845
11 55.845
12 55.845
13 15.999
14 15.999
15 15.999
16 15.999
17 15.999
18 15.999
19 15.999
20 15.999
21 15.999
22 15.999
23 15.999
24 15.999
25 15.999
26 15.999
27 15.999
28 15.999
29 15.999
30 15.999
31 15.999
32 15.999
33 15.999
34 15.999
35 15.999
36 15.999

Atoms # atomic

2400 16 0.1218026871335001 0.780080277616271 0.016501407195923586 0 0 0
2398 20 1.6082343779590171 0.2565025560934584 1.24750689977183 0 0 0
2406 4 3.035942375122344 0.6954166537961944 0.1049209119571226 0 0 0
2404 18 4.189086178401103 0.6681307682674494 1.5911808139724366 0 0 0
2412 16 5.505634770175475 0.7800802776162683 0.016501407195923377 0 0 0
2629 17 2.4264125650217685 2.0057478253676937 1.307734136749091 0 0 0
2635 19 5.355139133207501 2.347364749023672 1.1781842193848298 0 0 0
2625 14 1.3457483516864468 3.1083303733040646 0.0195718761890564 0 0 0
2631 2 4.065775028537219 3.0922700503730214 0.029530261742795334 0 0 0
2628 16 0.12180268713346505 5.44261563124027 0.016501407195924103 0 0 0
2626 20 1.6082343779590194 4.919037909717454 1.247506899771831 0 0 0
2634 4 3.03594237512235 5.357952007420184 0.10492091195712622 0 0 0
2632 18 4.189086178401107 5.330666121891446 1.5911808139724433 0 0 0
2640 16 5.5056347701754795 5.442615631240272 0.016501407195923048 0 0 0
2405 3 2.6782087584963246 0.7717324902994334 2.704858152261174 0 0 0
2411 15 4.6157087017872955 0.82276153155256 2.178765438828151 0 0 0
2624 13 1.3554981564645212 3.108082151990733 2.388912201137036 0 0 0
2630 1 4.213772028755737 2.5483134161747336 1.5440795852779077 0 0 0
2633 3 2.678208758496324 5.434267843923429 2.7048581522611763 0 0 0
2639 15 4.6157087017873 5.485296885176558 2.1787654388281514 0 0 0
2410 20 6.992066461001019 0.25650255609344846 1.247506899771841 0 0 0
2418 4 8.419774458164348 0.6954166537961745 0.10492091195712905 0 0 0
2416 18 9.572918261443105 0.6681307682674439 1.5911808139724433 0 0 0
2424 16 10.889466853217474 0.7800802776162693 0.0165014071959233 0 0 0
2641 17 7.81024464806377 2.0057478253676835 1.3077341367490882 0 0 0
2647 19 10.738971216249501 2.347364749023672 1.1781842193848318 0 0 0
2637 14 6.729580434728448 3.1083303733040646 0.019571876189056415 0 0 0
2643 2 9.449607111579223 3.0922700503730223 0.02953026174279386 0 0 0
2638 20 6.992066461001016 4.919037909717456 1.2475068997718357 0 0 0
2646 4 8.419774458164342 5.3579520074201845 0.10492091195712411 0 0 0
2644 18 9.572918261443103 5.330666121891438 1.591180813972437 0 0 0
2652 16 10.889466853217469 5.442615631240272 0.01650140719592326 0 0 0
2417 3 8.062040841538327 0.771732490299433 2.704858152261183 0 0 0
2423 15 9.999540784829291 0.8227615315525595 2.178765438828154 0 0 0
2636 13 6.739330239506523 3.108082151990733 2.388912201137036 0 0 0
2642 1 9.597604111797736 2.5483134161747243 1.544079585277902 0 0 0
2645 3 8.062040841538327 5.434267843923429 2.7048581522611777 0 0 0
2651 15 9.99954078482929 5.485296885176551 2.178765438828156 0 0 0
2422 20 12.375898544043022 0.25650255609344613 1.2475068997718357 0 0 0
2430 4 13.803606541206355 0.6954166537961758 0.1049209119571302 0 0 0
2428 18 14.956750344485108 0.6681307682674528 1.591180813972448 0 0 0
2436 16 16.273298936259486 0.7800802776162705 0.016501407195922618 0 0 0
2653 17 13.194076731105765 2.00574782536768 1.3077341367490856 0 0 0
2659 19 16.122803299291505 2.3473647490236758 1.1781842193848286 0 0 0
2649 14 12.113412517770445 3.1083303733040646 0.019571876189056408 0 0 0
2655 2 14.833439194621219 3.0922700503730214 0.029530261742796615 0 0 0
2650 20 12.37589854404302 4.919037909717452 1.2475068997718302 0 0 0
2658 4 13.803606541206353 5.357952007420181 0.10492091195712791 0 0 0
2656 18 14.956750344485108 5.330666121891452 1.591180813972447 0 0 0
2664 16 16.273298936259486 5.442615631240273 0.016501407195922458 0 0 0
2429 3 13.445872924580325 0.7717324902994339 2.7048581522611803 0 0 0
2435 15 15.383372867871305 0.8227615315525656 2.1787654388281474 0 0 0
2648 13 12.123162322548518 3.108082151990733 2.388912201137036 0 0 0
2654 1 14.981436194839727 2.548313416174734 1.5440795852779028 0 0 0
2657 3 13.445872924580321 5.434267843923432 2.7048581522611763 0 0 0
2663 15 15.38337286787131 5.485296885176563 2.1787654388281466 0 0 0
2434 20 17.759730627085016 0.2565025560934665 1.2475068997718308 0 0 0
2442 4 19.18743862424834 0.6954166537962005 0.10492091195711845 0 0 0
2448 16 21.657131019301467 0.7800802776162673 0.016501407195924186 0 0 0
2440 18 20.340582427527103 0.6681307682674383 1.5911808139724284 0 0 0
2665 17 18.577908814147776 2.0057478253676995 1.3077341367490956 0 0 0
2671 19 21.506635382333503 2.347364749023673 1.178184219384833 0 0 0
2661 14 17.49724460081245 3.1083303733040646 0.019571876189056387 0 0 0
2667 2 20.217271277663226 3.092270050373025 0.029530261742792472 0 0 0
2662 20 17.75973062708502 4.919037909717458 1.2475068997718364 0 0 0
2670 4 19.187438624248344 5.357952007420187 0.10492091195712282 0 0 0
2676 16 21.65713101930147 5.442615631240272 0.016501407195923377 0 0 0
2668 18 20.340582427527107 5.330666121891438 1.5911808139724346 0 0 0
2441 3 18.82970500762233 0.7717324902994307 2.704858152261173 0 0 0
2447 15 20.767204950913282 0.8227615315525497 2.178765438828157 0 0 0
2660 13 17.506994405590525 3.108082151990733 2.3889122011370367 0 0 0
2666 1 20.365268277881754 2.5483134161747256 1.5440795852779086 0 0 0
2669 3 18.82970500762233 5.434267843923431 2.7048581522611777 0 0 0
2675 15 20.767204950913285 5.485296885176552 2.178765438828157 0 0 0
2446 20 23.143562710127018 0.25650255609346834 1.247506899771831 0 0 0
2454 4 24.57127070729034 0.695416653796208 0.10492091195711697 0 0 0
2452 18 25.7244145105691 0.6681307682674454 1.5911808139724253 0 0 0
2460 16 27.04096310234346 0.7800802776162667 0.01650140719592408 0 0 0
2677 17 23.96174089718978 2.0057478253677097 1.3077341367490964 0 0 0
2683 19 26.890467465375504 2.347364749023674 1.17818421938483 0 0 0
2673 14 22.881076683854445 3.1083303733040646 0.019571876189056397 0 0 0
2679 2 25.60110336070522 3.0922700503730223 0.02953026174279522 0 0 0
2685 14 28.26490876689644 3.1083303733040646 0.01957187618905641 0 0 0
2674 20 23.143562710127014 4.91903790971746 1.2475068997718333 0 0 0
2682 4 24.571270707290342 5.357952007420191 0.10492091195712272 0 0 0
2680 18 25.7244145105691 5.330666121891441 1.5911808139724348 0 0 0
2688 16 27.040963102343465 5.442615631240271 0.016501407195923974 0 0 0
2453 3 24.21353709066433 0.7717324902994359 2.704858152261174 0 0 0
2459 15 26.15103703395528 0.822761531552556 2.178765438828158 0 0 0
2672 13 22.89082648863252 3.108082151990733 2.388912201137037 0 0 0
2678 1 25.749100360923755 2.5483134161747256 1.5440795852779092 0 0 0
2684 13 28.274658571674514 3.108082151990733 2.388912201137036 0 0 0
2681 3 24.213537090664328 5.434267843923431 2.704858152261177 0 0 0
2687 15 26.151037033955284 5.4852968851765525 2.178765438828156 0 0 0
2458 20 28.527394793169016 0.25650255609346756 1.2475068997718306 0 0 0
2686 20 28.527394793169023 4.919037909717459 1.2475068997718382 0 0 0
2466 4 29.95510279033234 0.6954166537962011 0.10492091195711864 0 0 0
2464 18 31.108246593611106 0.6681307682674388 1.5911808139724282 0 0 0
2472 16 32.42479518538546 0.7800802776162673 0.016501407195924273 0 0 0
2470 20 33.91122687621101 0.25650255609346806 1.2475068997718233 0 0 0
2689 17 29.345572980231783 2.0057478253677026 1.3077341367490947 0 0 0
2695 19 32.2742995484175 2.347364749023673 1.17818421938483 0 0 0
2691 2 30.984935443747215 3.0922700503730214 0.029530261742795567 0 0 0
2697 14 33.64874084993845 3.1083303733040646 0.019571876189056408 0 0 0
2694 4 29.955102790332344 5.357952007420189 0.10492091195712402 0 0 0
2692 18 31.10824659361111 5.330666121891438 1.5911808139724328 0 0 0
2700 16 32.42479518538548 5.442615631240272 0.016501407195923332 0 0 0
2698 20 33.91122687621102 4.91903790971746 1.2475068997718353 0 0 0
2465 3 29.59736917370633 0.7717324902994327 2.7048581522611728 0 0 0
2471 15 31.53486911699728 0.8227615315525497 2.17876543882816 0 0 0
2690 1 31.132932443965757 2.5483134161747243 1.5440795852779088 0 0 0
2696 13 33.65849065471652 3.108082151990733 2.388912201137036 0 0 0
2693 3 29.597369173706333 5.434267843923432 2.7048581522611777 0 0 0
2699 15 31.53486911699729 5.485296885176552 2.178765438828157 0 0 0
2478 4 35.338934873374335 0.6954166537962123 0.10492091195711656 0 0 0
2476 18 36.492078676653094 0.6681307682674535 1.59118081397243 0 0 0
2484 16 37.80862726842746 0.7800802776162669 0.016501407195924377 0 0 0
2482 20 39.295058959253026 0.2565025560934475 1.2475068997718348 0 0 0
2701 17 34.72940506327377 2.005747825367708 1.307734136749095 0 0 0
2707 19 37.65813163145949 2.3473647490236718 1.1781842193848309 0 0 0
2703 2 36.36876752678921 3.0922700503730236 0.029530261742794457 0 0 0
2709 14 39.03257293298044 3.1083303733040646 0.019571876189056408 0 0 0
2706 4 35.33893487337434 5.357952007420189 0.10492091195712315 0 0 0
2704 18 36.4920786766531 5.330666121891443 1.5911808139724348 0 0 0
2712 16 37.80862726842747 5.442615631240272 0.01650140719592322 0 0 0
2710 20 39.29505895925302 4.919037909717454 1.2475068997718315 0 0 0
2477 3 34.98120125674832 0.7717324902994351 2.7048581522611705 0 0 0
2483 15 36.91870120003929 0.8227615315525634 2.1787654388281514 0 0 0
2702 1 36.51676452700774 2.5483134161747363 1.544079585277914 0 0 0
2708 13 39.04232273775852 3.108082151990733 2.388912201137036 0 0 0
2705 3 34.98120125674833 5.434267843923431 2.7048581522611768 0 0 0
2711 15 36.91870120003929 5.485296885176555 2.1787654388281577 0 0 0
2490 4 40.72276695641635 0.695416653796178 0.10492091195712783 0 0 0
2488 18 41.87591075969511 0.6681307682674532 1.5911808139724457 0 0 0
2496 16 43.19245935146948 0.7800802776162695 0.01650140719592276 0 0 0
2494 20 44.678891042295014 0.2565025560934547 1.24750689977183 0 0 0
2713 17 40.11323714631576 2.0057478253676804 1.307734136749087 0 0 0
2719 19 43.0419637145015 2.3473647490236713 1.178184219384833 0 0 0
2715 2 41.75259960983122 3.0922700503730227 0.02953026174279234 0 0 0
2721 14 44.41640501602244 3.1083303733040646 0.01957187618905641 0 0 0
2718 4 40.72276695641635 5.357952007420179 0.10492091195712736 0 0 0
2716 18 41.87591075969511 5.330666121891448 1.591180813972445 0 0 0
2724 16 43.19245935146948 5.4426156312402725 0.016501407195923117 0 0 0
2722 20 44.678891042295014 4.919037909717455 1.2475068997718324 0 0 0
2489 3 40.36503333979032 0.7717324902994314 2.70485815226118 0 0 0
2495 15 42.3025332830813 0.8227615315525673 2.1787654388281474 0 0 0
2714 1 41.900596610049725 2.548313416174736 1.5440795852779046 0 0 0
2720 13 44.42615482080051 3.108082151990733 2.388912201137036 0 0 0
2717 3 40.36503333979032 5.434267843923426 2.704858152261177 0 0 0
2723 15 42.3025332830813 5.485296885176559 2.1787654388281474 0 0 0
2502 4 46.106599039458345 0.6954166537961881 0.10492091195712515 0 0 0
2500 18 47.2597428427371 0.668130768267449 1.5911808139724413 0 0 0
2508 16 48.576291434511475 0.780080277616269 0.016501407195922933 0 0 0
2506 20 50.06272312533701 0.2565025560934521 1.247506899771834 0 0 0
2725 17 45.49706922935776 2.00574782536769 1.3077341367490878 0 0 0
2731 19 48.42579579754349 2.3473647490236718 1.1781842193848306 0 0 0
2727 2 47.13643169287322 3.0922700503730236 0.029530261742794297 0 0 0
2733 14 49.80023709906445 3.1083303733040646 0.0195718761890564 0 0 0
2730 4 46.106599039458345 5.357952007420175 0.1049209119571286 0 0 0
2728 18 47.2597428427371 5.330666121891442 1.5911808139724468 0 0 0
2736 16 48.576291434511475 5.442615631240272 0.016501407195923166 0 0 0
2734 20 50.062723125337016 4.919037909717452 1.2475068997718342 0 0 0
2501 3 45.74886542283232 0.7717324902994347 2.7048581522611754 0 0 0
2507 15 47.68636536612329 0.8227615315525599 2.1787654388281488 0 0 0
2726 1 47.28442869309173 2.5483134161747327 1.5440795852779075 0 0 0
2732 13 49.80998690384252 3.108082151990733 2.388912201137036 0 0 0
2729 3 45.74886542283232 5.4342678439234255 2.70485815226118 0 0 0
2735 15 47.68636536612329 5.485296885176555 2.178765438828151 0 0 0
2509 17 50.88090131239976 2.0057478253676835 1.3077341367490876 -1 0 0
2285 3 51.13269750587431 0.7717324902994321 2.7048581522611794 -1 0 0
2513 3 51.13269750587432 5.434267843923427 2.70485815226118 -1 0 0
2286 4 51.49043112250034 0.6954166537961812 0.10492091195712652 -1 0 0
2284 18 52.6435749257791 0.6681307682674485 1.591180813972443 -1 0 0
2292 16 53.96012351755347 0.7800802776162696 0.016501407195923495 -1 0 0
2290 20 55.446555208379024 0.25650255609344613 1.247506899771837 -1 0 0
2515 19 53.80962788058549 2.3473647490236718 1.1781842193848306 -1 0 0
2521 17 56.264733395441766 2.005747825367676 1.3077341367490842 -1 0 0
2511 2 52.52026377591521 3.0922700503730236 0.02953026174279429 -1 0 0
2517 14 55.18406918210644 3.1083303733040646 0.019571876189056397 -1 0 0
2514 4 51.49043112250035 5.357952007420174 0.10492091195712827 -1 0 0
2512 18 52.6435749257791 5.330666121891442 1.5911808139724466 -1 0 0
2520 16 53.96012351755348 5.4426156312402725 0.01650140719592297 -1 0 0
2518 20 55.44655520837901 4.9190379097174555 1.247506899771834 -1 0 0
2291 15 53.07019744916529 0.8227615315525633 2.178765438828151 -1 0 0
2297 3 56.51652958891633 0.7717324902994306 2.7048581522611808 -1 0 0
2510 1 52.66826077613372 2.5483134161747314 1.5440795852779028 -1 0 0
2516 13 55.193818986884516 3.108082151990733 2.388912201137036 -1 0 0
2519 15 53.07019744916529 5.485296885176557 2.1787654388281528 -1 0 0
2525 3 56.51652958891632 5.434267843923425 2.7048581522611785 -1 0 0
2298 4 56.874263205542356 0.6954166537961686 0.10492091195713003 -1 0 0
2526 4 56.87426320554234 5.357952007420178 0.10492091195712662 -1 0 0
2296 18 58.02740700882111 0.6681307682674417 1.5911808139724468 -1 0 0
2304 16 59.343955600595486 0.7800802776162701 0.0165014071959233 -1 0 0
2310 4 62.25809528858434 0.6954166537961729 0.10492091195712858 -1 0 0
2302 20 60.83038729142101 0.2565025560934475 1.2475068997718464 -1 0 0
2527 19 59.19345996362748 2.347364749023671 1.1781842193848346 -1 0 0
2533 17 61.64856547848376 2.0057478253676773 1.3077341367490916 -1 0 0
2523 2 57.904095858957206 3.092270050373024 0.02953026174279107 -1 0 0
2529 14 60.56790126514844 3.1083303733040646 0.01957187618905641 -1 0 0
2524 18 58.0274070088211 5.330666121891443 1.591180813972442 -1 0 0
2532 16 59.34395560059547 5.442615631240272 0.016501407195923686 -1 0 0
2538 4 62.25809528858433 5.3579520074201845 0.10492091195712587 -1 0 0
2530 20 60.830387291421005 4.919037909717453 1.2475068997718406 -1 0 0
2303 15 58.45402953220729 0.8227615315525549 2.178765438828154 -1 0 0
2309 3 61.90036167195833 0.7717324902994291 2.7048581522611856 -1 0 0
2522 1 58.05209285917574 2.5483134161747247 1.5440795852779037 -1 0 0
2528 13 60.57765106992652 3.108082151990733 2.388912201137036 -1 0 0
2531 15 58.45402953220728 5.485296885176553 2.178765438828154 -1 0 0
2537 3 61.90036167195832 5.43426784392343 2.704858152261178 -1 0 0
2308 18 63.4112390918631 0.6681307682674446 1.5911808139724384 -1 0 0
2316 16 64.72778768363746 0.78008027761627 0.01650140719592305 -1 0 0
2314 20 66.21421937446301 0.25650255609344635 1.2475068997718455 -1 0 0
2322 4 67.64192737162634 0.6954166537961777 0.1049209119571271 -1 0 0
2539 19 64.57729204666947 2.3473647490236726 1.1781842193848326 -1 0 0
2545 17 67.03239756152577 2.0057478253676817 1.3077341367490953 -1 0 0
2535 2 63.2879279419992 3.092270050373024 0.029530261742792906 -1 0 0
2541 14 65.95173334819042 3.1083303733040646 0.019571876189056404 -1 0 0
2536 18 63.411239091863095 5.330666121891441 1.591180813972434 -1 0 0
2544 16 64.72778768363746 5.442615631240272 0.01650140719592268 -1 0 0
2542 20 66.21421937446301 4.919037909717466 1.2475068997718344 -1 0 0
2550 4 67.64192737162634 5.357952007420186 0.10492091195712364 -1 0 0
2315 15 63.837861615249295 0.8227615315525625 2.1787654388281505 -1 0 0
2321 3 67.28419375500033 0.7717324902994268 2.7048581522611843 -1 0 0
2534 1 63.435924942217724 2.548313416174725 1.5440795852778981 -1 0 0
2540 13 65.96148315296854 3.108082151990733 2.388912201137036 -1 0 0
2543 15 63.83786161524929 5.485296885176558 2.1787654388281537 -1 0 0
2549 3 67.28419375500033 5.434267843923432 2.7048581522611754 -1 0 0
2320 18 68.7950711749051 0.6681307682674442 1.5911808139724337 -1 0 0
2328 16 70.11161976667947 0.7800802776162691 0.01650140719592373 -1 0 0
2326 20 71.59805145750502 0.2565025560934436 1.2475068997718435 -1 0 0
2334 4 73.02575945466835 0.6954166537961728 0.10492091195712992 -1 0 0
2551 19 69.96112412971146 2.3473647490236704 1.1781842193848353 -1 0 0
2557 17 72.41622964456778 2.0057478253676826 1.3077341367490916 -1 0 0
2547 2 68.6717600250412 3.092270050373026 0.029530261742790418 -1 0 0
2553 14 71.33556543123241 3.1083303733040646 0.019571876189056425 -1 0 0
2548 18 68.7950711749051 5.330666121891434 1.5911808139724362 -1 0 0
2556 16 70.11161976667945 5.442615631240271 0.016501407195924057 -1 0 0
2554 20 71.59805145750502 4.919037909717451 1.2475068997718275 -1 0 0
2562 4 73.02575945466836 5.357952007420199 0.10492091195712083 -1 0 0
2327 15 69.22169369829129 0.822761531552561 2.178765438828154 -1 0 0
2333 3 72.66802583804233 0.7717324902994309 2.704858152261183 -1 0 0
2546 1 68.81975702525973 2.548313416174725 1.5440795852778966 -1 0 0
2552 13 71.34531523601053 3.108082151990733 2.3889122011370363 -1 0 0
2555 15 69.22169369829129 5.485296885176546 2.178765438828159 -1 0 0
2561 3 72.66802583804233 5.434267843923428 2.704858152261172 -1 0 0
2332 18 74.17890325794711 0.668130768267433 1.5911808139724415 -1 0 0
2340 16 75.49545184972148 0.7800802776162699 0.016501407195923985 -1 0 0
2338 20 76.98188354054702 0.2565025560934547 1.2475068997718477 -1 0 0
2346 4 78.40959153771034 0.6954166537961729 0.10492091195712713 -1 0 0
2563 19 75.34495621275346 2.3473647490236704 1.178184219384835 -1 0 0
2569 17 77.80006172760977 2.0057478253676804 1.3077341367490922 -1 0 0
2559 2 74.05559210808319 3.092270050373026 0.02953026174279034 -1 0 0
2565 14 76.71939751427442 3.1083303733040646 0.01957187618905643 -1 0 0
2571 2 79.43942419112524 3.092270050373023 0.02953026174279191 -1 0 0
2560 18 74.17890325794711 5.3306661218914515 1.5911808139724348 -1 0 0
2568 16 75.49545184972148 5.442615631240271 0.016501407195923423 -1 0 0
2566 20 76.981883540547 4.919037909717463 1.2475068997718428 -1 0 0
2574 4 78.40959153771033 5.357952007420193 0.10492091195712182 -1 0 0
2339 15 74.60552578133328 0.8227615315525463 2.178765438828158 -1 0 0
2345 3 78.05185792108433 0.7717324902994309 2.7048581522611865 -1 0 0
2558 1 74.20358910830174 2.5483134161747163 1.5440795852779037 -1 0 0
2564 13 76.72914731905254 3.108082151990733 2.388912201137036 -1 0 0
2567 15 74.60552578133328 5.48529688517656 2.1787654388281523 -1 0 0
2573 3 78.05185792108433 5.434267843923436 2.7048581522611785 -1 0 0
2344 18 79.56273534098911 0.6681307682674332 1.5911808139724366 -1 0 0
2572 18 79.5627353409891 5.3306661218914355 1.5911808139724277 -1 0 0
2570 1 79.58742119134374 2.5483134161747163 1.5440795852778977 -1 0 0
2352 16 80.87928393276347 0.7800802776162691 0.01650140719592465 -1 0 0
2350 20 82.36571562358901 0.2565025560934508 1.2475068997718217 -1 0 0
2358 4 83.79342362075235 0.6954166537961983 0.10492091195712523 -1 0 0
2356 18 84.94656742403109 0.6681307682674775 1.5911808139724466 -1 0 0
2575 19 80.72878829579551 2.347364749023671 1.1781842193848335 -1 0 0
2581 17 83.18389381065174 2.005747825367689 1.3077341367490845 -1 0 0
2577 14 82.10322959731643 3.1083303733040646 0.019571876189056425 -1 0 0
2583 2 84.8232562741672 3.092270050373022 0.02953026174279455 -1 0 0
2580 16 80.87928393276347 5.442615631240272 0.01650140719592261 -1 0 0
2578 20 82.36571562358901 4.91903790971744 1.2475068997718304 -1 0 0
2586 4 83.79342362075235 5.3579520074201685 0.10492091195713404 -1 0 0
2584 18 84.9465674240311 5.330666121891454 1.5911808139724557 -1 0 0
2351 15 79.9893578643753 0.8227615315525517 2.1787654388281594 -1 0 0
2357 3 83.4356900041263 0.7717324902994419 2.7048581522611728 -1 0 0
2576 13 82.11297940209455 3.108082151990733 2.388912201137037 -1 0 0
2582 1 84.97125327438569 2.5483134161747594 1.5440795852779141 -1 0 0
2579 15 79.9893578643753 5.485296885176549 2.17876543882816 -1 0 0
2585 3 83.43569000412631 5.43426784392343 2.704858152261175 -1 0 0
2364 16 86.26311601580548 0.7800802776162699 0.016501407195922704 -1 0 0
2362 20 87.74954770663102 0.2565025560934442 1.2475068997718481 -1 0 0
2370 4 89.17725570379434 0.6954166537961662 0.10492091195712897 -1 0 0
2368 18 90.33039950707311 0.6681307682674341 1.5911808139724388 -1 0 0
2587 19 86.11262037883749 2.347364749023673 1.1781842193848313 -1 0 0
2593 17 88.56772589369378 2.005747825367684 1.30773413674909 -1 0 0
2589 14 87.48706168035842 3.1083303733040646 0.01957187618905644 -1 0 0
2595 2 90.20708835720919 3.0922700503730263 0.029530261742790494 -1 0 0
2592 16 86.2631160158055 5.442615631240274 0.01650140719592082 -1 0 0
2590 20 87.749547706631 4.919037909717464 1.2475068997718382 -1 0 0
2598 4 89.17725570379433 5.3579520074202 0.10492091195712157 -1 0 0
2596 18 90.3303995070731 5.3306661218914515 1.5911808139724248 -1 0 0
2363 15 85.37318994741729 0.8227615315525799 2.178765438828138 -1 0 0
2369 3 88.81952208716832 0.7717324902994279 2.7048581522611848 -1 0 0
2588 13 87.49681148513655 3.108082151990733 2.388912201137037 -1 0 0
2594 1 90.35508535742774 2.5483134161747123 1.5440795852779 -1 0 0
2591 15 85.3731899474173 5.485296885176563 2.178765438828143 -1 0 0
2597 3 88.81952208716832 5.434267843923429 2.704858152261176 -1 0 0
2375 15 90.75702203045928 0.8227615315525509 2.1787654388281603 -1 0 0
2603 15 90.75702203045928 5.485296885176567 2.1787654388281537 -1 0 0
2376 16 91.64694809884746 0.78008027761627 0.016501407195922534 -1 0 0
2374 20 93.13337978967303 0.25650255609345096 1.2475068997718408 -1 0 0
2382 4 94.56108778683635 0.6954166537961757 0.10492091195712852 -1 0 0
2380 18 95.71423159011512 0.6681307682674453 1.5911808139724388 -1 0 0
2599 19 91.49645246187946 2.3473647490236704 1.178184219384835 -1 0 0
2605 17 93.95155797673577 2.005747825367678 1.3077341367490904 -1 0 0
2601 14 92.87089376340042 3.1083303733040646 0.019571876189056404 -1 0 0
2607 2 95.5909204402512 3.092270050373026 0.029530261742790342 -1 0 0
2604 16 91.64694809884745 5.442615631240271 0.016501407195923926 -1 0 0
2602 20 93.13337978967301 4.919037909717466 1.2475068997718346 -1 0 0
2610 4 94.56108778683634 5.357952007420186 0.10492091195712362 -1 0 0
2608 18 95.7142315901151 5.330666121891434 1.5911808139724362 -1 0 0
2381 3 94.20335417021035 0.7717324902994284 2.704858152261181 -1 0 0
2600 13 92.88064356817854 3.108082151990733 2.388912201137037 -1 0 0
2606 1 95.73891744046973 2.5483134161747274 1.5440795852779006 -1 0 0
2609 3 94.20335417021033 5.434267843923433 2.7048581522611754 -1 0 0
2387 15 96.14085411350129 0.8227615315525588 2.178765438828157 -1 0 0
2615 15 96.14085411350129 5.485296885176546 2.178765438828159 -1 0 0
2623 19 102.26411662796346 2.3473647490236704 1.1781842193848353 -1 0 0
2399 15 101.5246861965433 0.8227615315525505 2.1787654388281545 -1 0 0
2627 15 101.5246861965433 5.4852968851765604 2.178765438828152 -1 0 0
2388 16 97.03078018188947 0.7800802776162689 0.016501407195924103 -1 0 0
2386 20 98.51721187271504 0.2565025560934445 1.2475068997718364 -1 0 0
2394 4 99.94491986987838 0.6954166537961644 0.10492091195712808 -1 0 0
2392 18 101.09806367315711 0.6681307682674329 1.5911808139724501 -1 0 0
2611 19 96.88028454492147 2.3473647490236704 1.178184219384835 -1 0 0
2617 17 99.33539005977778 2.0057478253676746 1.3077341367490882 -1 0 0
2613 14 98.25472584644241 3.1083303733040646 0.019571876189056408 -1 0 0
2619 2 100.97475252329319 3.092270050373026 0.029530261742790415 -1 0 0
2616 16 97.03078018188945 5.442615631240271 0.01650140719592405 -1 0 0
2614 20 98.51721187271501 4.919037909717463 1.24750689977183 -1 0 0
2622 4 99.94491986987833 5.3579520074202 0.10492091195711913 -1 0 0
2620 18 101.0980636731571 5.330666121891448 1.5911808139724337 -1 0 0
2393 3 99.58718625325233 0.7717324902994246 2.7048581522611874 -1 0 0
2612 13 98.26447565122054 3.108082151990733 2.3889122011370367 -1 0 0
2618 1 101.12274952351176 2.548313416174714 1.5440795852779081 -1 0 0
2621 3 99.58718625325233 5.4342678439234335 2.7048581522611745 -1 0 0
2857 17 2.4264125650217663 6.668283178991683 1.307734136749089 0 0 0
2863 19 5.3551391332075 7.0099001026476735 1.1781842193848309 0 0 0
2853 14 1.3457483516864468 7.770865726928064 0.019571876189056415 0 0 0
2859 2 4.065775028537218 7.754805403997024 0.02953026174279504 0 0 0
2854 20 1.6082343779590196 9.581573263341456 1.247506899771832 0 0 0
2860 18 4.189086178401108 9.99320147551545 1.5911808139724457 0 0 0
2856 16 0.12180268713346108 10.10515098486427 0.01650140719592335 0 0 0
2862 4 3.0359423751223518 10.02048736104418 0.1049209119571278 0 0 0
2868 16 5.505634770175481 10.10515098486427 0.0165014071959229 0 0 0
2852 13 1.3554981564645212 7.770617505614735 2.388912201137036 0 0 0
2858 1 4.213772028755733 7.210848769798732 1.544079585277908 0 0 0
2861 3 2.678208758496324 10.096803197547432 2.7048581522611777 0 0 0
2867 15 4.6157087017873035 10.14783223880056 2.1787654388281497 0 0 0
3085 17 2.426412565021764 11.33081853261568 1.3077341367490865 0 0 0
2869 17 7.8102446480637715 6.668283178991688 1.3077341367490918 0 0 0
2875 19 10.738971216249505 7.009900102647676 1.17818421938483 0 0 0
2865 14 6.729580434728448 7.770865726928064 0.01957187618905642 0 0 0
2871 2 9.449607111579223 7.754805403997025 0.029530261742795626 0 0 0
2866 20 6.992066461001017 9.58157326334146 1.2475068997718344 0 0 0
2872 18 9.572918261443103 9.99320147551544 1.5911808139724373 0 0 0
2874 4 8.419774458164344 10.020487361044188 0.1049209119571239 0 0 0
2880 16 10.889466853217469 10.105150984864268 0.016501407195923443 0 0 0
2864 13 6.739330239506523 7.770617505614735 2.388912201137036 0 0 0
2870 1 9.597604111797745 7.210848769798724 1.544079585277906 0 0 0
2873 3 8.062040841538327 10.09680319754743 2.704858152261177 0 0 0
2879 15 9.99954078482929 10.147832238800554 2.178765438828156 0 0 0
3097 17 7.810244648063771 11.33081853261569 1.3077341367490918 0 0 0
2881 17 13.194076731105762 6.66828317899168 1.3077341367490865 0 0 0
2887 19 16.1228032992915 7.009900102647672 1.1781842193848306 0 0 0
2877 14 12.113412517770445 7.770865726928064 0.01957187618905641 0 0 0
2883 2 14.833439194621219 7.754805403997023 0.029530261742794283 0 0 0
2878 20 12.375898544043022 9.581573263341452 1.2475068997718313 0 0 0
2884 18 14.95675034448511 9.993201475515454 1.5911808139724513 0 0 0
2886 4 13.803606541206356 10.020487361044177 0.10492091195713027 0 0 0
2892 16 16.27329893625949 10.105150984864274 0.016501407195922222 0 0 0
2876 13 12.123162322548518 7.770617505614735 2.388912201137036 0 0 0
2882 1 14.981436194839725 7.210848769798739 1.5440795852779066 0 0 0
2885 3 13.445872924580323 10.09680319754743 2.704858152261179 0 0 0
2891 15 15.383372867871314 10.147832238800566 2.1787654388281443 0 0 0
3109 17 13.19407673110576 11.330818532615675 1.3077341367490853 0 0 0
2893 17 18.577908814147776 6.6682831789916905 1.307734136749092 0 0 0
2899 19 21.506635382333503 7.009900102647674 1.1781842193848318 0 0 0
2889 14 17.49724460081245 7.770865726928064 0.0195718761890564 0 0 0
2895 2 20.217271277663222 7.754805403997025 0.029530261742793565 0 0 0
2890 20 17.759730627085016 9.581573263341458 1.2475068997718353 0 0 0
2896 18 20.340582427527107 9.99320147551544 1.5911808139724366 0 0 0
2898 4 19.187438624248344 10.020487361044186 0.10492091195712419 0 0 0
2904 16 21.657131019301474 10.10515098486427 0.016501407195923374 0 0 0
2888 13 17.506994405590525 7.770617505614735 2.3889122011370376 0 0 0
2894 1 20.365268277881746 7.210848769798725 1.5440795852779055 0 0 0
2897 3 18.829705007622326 10.096803197547429 2.7048581522611777 0 0 0
2903 15 20.767204950913285 10.147832238800554 2.1787654388281568 0 0 0
3121 17 18.577908814147772 11.330818532615687 1.307734136749093 0 0 0
2905 17 23.961740897189774 6.668283178991694 1.307734136749093 0 0 0
2911 19 26.890467465375508 7.009900102647675 1.1781842193848289 0 0 0
2901 14 22.881076683854445 7.770865726928064 0.019571876189056404 0 0 0
2907 2 25.60110336070522 7.754805403997023 0.02953026174279644 0 0 0
2913 14 28.26490876689644 7.770865726928064 0.01957187618905641 0 0 0
2902 20 23.143562710127018 9.581573263341461 1.2475068997718342 0 0 0
2908 18 25.724414510569105 9.993201475515436 1.591180813972434 0 0 0
2910 4 24.571270707290342 10.020487361044191 0.10492091195712254 0 0 0
2916 16 27.040963102343472 10.105150984864268 0.01650140719592343 0 0 0
2900 13 22.89082648863252 7.770617505614735 2.3889122011370376 0 0 0
2906 1 25.749100360923745 7.210848769798723 1.5440795852779086 0 0 0
2912 13 28.274658571674514 7.770617505614735 2.388912201137036 0 0 0
2909 3 24.213537090664328 10.096803197547429 2.704858152261176 0 0 0
2915 15 26.151037033955284 10.147832238800548 2.178765438828158 0 0 0
3133 17 23.961740897189777 11.330818532615693 1.307734136749094 0 0 0
2914 20 28.52739479316902 9.581573263341456 1.247506899771835 0 0 0
2917 17 29.345572980231776 6.668283178991692 1.3077341367490933 0 0 0
2923 19 32.2742995484175 7.0099001026476735 1.1781842193848335 0 0 0
2919 2 30.98493544374723 7.754805403997026 0.0295302617427916 0 0 0
2925 14 33.64874084993845 7.770865726928064 0.019571876189056408 0 0 0
2920 18 31.108246593611106 9.993201475515441 1.591180813972437 0 0 0
2926 20 33.911226876211025 9.581573263341463 1.2475068997718366 0 0 0
2922 4 29.955102790332344 10.020487361044186 0.1049209119571244 0 0 0
2928 16 32.42479518538547 10.105150984864268 0.01650140719592338 0 0 0
2918 1 31.132932443965753 7.210848769798724 1.5440795852779041 0 0 0
2924 13 33.65849065471652 7.770617505614735 2.388912201137036 0 0 0