LAMMPS data file via write_data, version 29 Aug 2024, timestep = 0, units = metal

4788 atoms
12 atom types

0 102.292809577798 xlo xhi
0 97.913242426104 ylo yhi
0 17.219890621032 zlo zhi

Masses

1 15.999
2 15.999
3 15.999
4 55.845
5 15.999
6 15.999
7 15.999
8 15.999
9 55.845
10 55.845
11 55.845
12 15.999

Atoms # atomic

2400 8 0 0.7770892256039943 0 0 0 0
2398 12 1.3459580207600013 0 1.1501533163330002 0 0 0
2406 4 2.6919160415210044 0.7770892256039943 0 0 0 0
2404 10 4.0378740622809985 0 1.1501533163330002 0 0 0
2412 8 5.383832083042002 0.7770892256039943 0 0 0 0
2410 12 6.729790103802003 0 1.1501533163330002 0 0 0
2418 4 8.075748124562999 0.7770892256039943 0 0 0 0
2416 10 9.421706145323 0 1.1501533163330002 0 0 0
2424 8 10.767664166084003 0.7770892256039943 0 0 0 0
2422 12 12.113622186844005 0 1.1501533163330002 0 0 0
2430 4 13.459580207605008 0.7770892256039943 0 0 0 0
2428 10 14.805538228365002 0 1.1501533163330002 0 0 0
2436 8 16.151496249126005 0.7770892256039943 0 0 0 0
2434 12 17.497454269886 0 1.1501533163330002 0 0 0
2442 4 18.843412290647002 0.7770892256039943 0 0 0 0
2448 8 21.535328332168 0.7770892256039943 0 0 0 0
2440 10 20.189370311406996 0 1.1501533163330002 0 0 0
2446 12 22.881286352928008 0 1.1501533163330002 0 0 0
2454 4 24.227244373688997 0.7770892256039943 0 0 0 0
2452 10 25.573202394449005 0 1.1501533163330002 0 0 0
2460 8 26.91916041521001 0.7770892256039943 0 0 0 0
2458 12 28.265118435970003 0 1.1501533163330002 0 0 0
2466 4 29.611076456731006 0.7770892256039943 0 0 0 0
2464 10 30.957034477491 0 1.1501533163330002 0 0 0
2472 8 32.302992498252 0.7770892256039943 0 0 0 0
2470 12 33.648950519012 0 1.1501533163330002 0 0 0
2478 4 34.994908539773 0.7770892256039943 0 0 0 0
2476 10 36.34086656053301 0 1.1501533163330002 0 0 0
2484 8 37.686824581294 0.7770892256039943 0 0 0 0
2482 12 39.032782602054006 0 1.1501533163330002 0 0 0
2490 4 40.37874062281501 0.7770892256039943 0 0 0 0
2488 10 41.724698643575 0 1.1501533163330002 0 0 0
2496 8 43.070656664336006 0.7770892256039943 0 0 0 0
2494 12 44.416614685096 0 1.1501533163330002 0 0 0
2502 4 45.762572705857 0.7770892256039943 0 0 0 0
2500 10 47.108530726617 0 1.1501533163330002 0 0 0
2508 8 48.454488747378 0.7770892256039943 0 0 0 0
2506 12 49.800446768137995 0 1.1501533163330002 0 0 0
2286 4 51.146404788899 0.7770892256039943 0 -1 0 0
2284 10 52.492362809659 0 1.1501533163330002 -1 0 0
2292 8 53.838320830419995 0.7770892256039943 0 -1 0 0
2290 12 55.18427885118 0 1.1501533163330002 -1 0 0
2298 4 56.530236871941 0.7770892256039943 0 -1 0 0
2296 10 57.876194892701 0 1.1501533163330002 -1 0 0
2304 8 59.222152913462 0.7770892256039943 0 -1 0 0
2310 4 61.914068954982994 0.7770892256039943 0 -1 0 0
2302 12 60.568110934222 0 1.1501533163330002 -1 0 0
2308 10 63.260026975742996 0 1.1501533163330002 -1 0 0
2316 8 64.60598499650399 0.7770892256039943 0 -1 0 0
2314 12 65.951943017264 0 1.1501533163330002 -1 0 0
2322 4 67.297901038025 0.7770892256039943 0 -1 0 0
2320 10 68.643859058785 0 1.1501533163330002 -1 0 0
2328 8 69.989817079546 0.7770892256039943 0 -1 0 0
2326 12 71.335775100306 0 1.1501533163330002 -1 0 0
2334 4 72.681733121067 0.7770892256039943 0 -1 0 0
2332 10 74.027691141827 0 1.1501533163330002 -1 0 0
2340 8 75.373649162588 0.7770892256039943 0 -1 0 0
2338 12 76.719607183348 0 1.1501533163330002 -1 0 0
2346 4 78.06556520410899 0.7770892256039943 0 -1 0 0
2344 10 79.411523224869 0 1.1501533163330002 -1 0 0
2352 8 80.75748124563 0.7770892256039943 0 -1 0 0
2350 12 82.10343926639 0 1.1501533163330002 -1 0 0
2358 4 83.449397287151 0.7770892256039943 0 -1 0 0
2356 10 84.795355307911 0 1.1501533163330002 -1 0 0
2364 8 86.141313328672 0.7770892256039943 0 -1 0 0
2362 12 87.487271349432 0 1.1501533163330002 -1 0 0
2370 4 88.833229370193 0.7770892256039943 0 -1 0 0
2368 10 90.17918739095299 0 1.1501533163330002 -1 0 0
2376 8 91.52514541171399 0.7770892256039943 0 -1 0 0
2374 12 92.871103432474 0 1.1501533163330002 -1 0 0
2382 4 94.217061453235 0.7770892256039943 0 -1 0 0
2380 10 95.563019473995 0 1.1501533163330002 -1 0 0
2388 8 96.908977494756 0.7770892256039943 0 -1 0 0
2386 12 98.254935515516 0 1.1501533163330002 -1 0 0
2394 4 99.600893536277 0.7770892256039943 0 -1 0 0
2392 10 100.94685155703701 0 1.1501533163330002 -1 0 0
2623 11 0 2.331267676811997 1.1501533163330002 0 0 0
2629 9 2.6919160415210044 2.331267676811997 1.1501533163330002 0 0 0
2635 11 5.383832083042002 2.331267676811997 1.1501533163330002 0 0 0
2641 9 8.075748124562999 2.331267676811997 1.1501533163330002 0 0 0
2647 11 10.767664166084003 2.331267676811997 1.1501533163330002 0 0 0
2653 9 13.459580207605008 2.331267676811997 1.1501533163330002 0 0 0
2659 11 16.151496249126005 2.331267676811997 1.1501533163330002 0 0 0
2665 9 18.843412290647002 2.331267676811997 1.1501533163330002 0 0 0
2671 11 21.535328332168 2.331267676811997 1.1501533163330002 0 0 0
2677 9 24.227244373688997 2.331267676811997 1.1501533163330002 0 0 0
2683 11 26.91916041521001 2.331267676811997 1.1501533163330002 0 0 0
2689 9 29.611076456731006 2.331267676811997 1.1501533163330002 0 0 0
2695 11 32.302992498252 2.331267676811997 1.1501533163330002 0 0 0
2701 9 34.994908539773 2.331267676811997 1.1501533163330002 0 0 0
2707 11 37.686824581294 2.331267676811997 1.1501533163330002 0 0 0
2713 9 40.37874062281501 2.331267676811997 1.1501533163330002 0 0 0
2719 11 43.070656664336006 2.331267676811997 1.1501533163330002 0 0 0
2725 9 45.762572705857 2.331267676811997 1.1501533163330002 0 0 0
2731 11 48.454488747378 2.331267676811997 1.1501533163330002 0 0 0
2509 9 51.146404788899 2.331267676811997 1.1501533163330002 -1 0 0
2515 11 53.838320830419995 2.331267676811997 1.1501533163330002 -1 0 0
2521 9 56.530236871941 2.331267676811997 1.1501533163330002 -1 0 0
2527 11 59.222152913462 2.331267676811997 1.1501533163330002 -1 0 0
2533 9 61.914068954982994 2.331267676811997 1.1501533163330002 -1 0 0
2539 11 64.60598499650399 2.331267676811997 1.1501533163330002 -1 0 0
2545 9 67.297901038025 2.331267676811997 1.1501533163330002 -1 0 0
2551 11 69.989817079546 2.331267676811997 1.1501533163330002 -1 0 0
2557 9 72.681733121067 2.331267676811997 1.1501533163330002 -1 0 0
2563 11 75.373649162588 2.331267676811997 1.1501533163330002 -1 0 0
2569 9 78.06556520410899 2.331267676811997 1.1501533163330002 -1 0 0
2575 11 80.75748124563 2.331267676811997 1.1501533163330002 -1 0 0
2581 9 83.449397287151 2.331267676811997 1.1501533163330002 -1 0 0
2587 11 86.141313328672 2.331267676811997 1.1501533163330002 -1 0 0
2593 9 88.833229370193 2.331267676811997 1.1501533163330002 -1 0 0
2599 11 91.52514541171399 2.331267676811997 1.1501533163330002 -1 0 0
2605 9 94.217061453235 2.331267676811997 1.1501533163330002 -1 0 0
2611 11 96.908977494756 2.331267676811997 1.1501533163330002 -1 0 0
2617 9 99.600893536277 2.331267676811997 1.1501533163330002 -1 0 0
2625 6 1.3459580207610031 3.1083569024159985 0 0 0 0
2631 2 4.037874062282 3.1083569024159985 0 0 0 0
2637 6 6.729790103803005 3.1083569024159985 0 0 0 0
2643 2 9.421706145324002 3.1083569024159985 0 0 0 0
2649 6 12.113622186845 3.1083569024159985 0 0 0 0
2655 2 14.805538228365997 3.1083569024159985 0 0 0 0
2661 6 17.497454269887008 3.1083569024159985 0 0 0 0
2667 2 20.189370311408005 3.1083569024159985 0 0 0 0
2673 6 22.881286352929003 3.1083569024159985 0 0 0 0
2679 2 25.57320239445 3.1083569024159985 0 0 0 0
2685 6 28.265118435970997 3.1083569024159985 0 0 0 0
2691 2 30.95703447749201 3.1083569024159985 0 0 0 0
2697 6 33.648950519013006 3.1083569024159985 0 0 0 0
2703 2 36.340866560534 3.1083569024159985 0 0 0 0
2709 6 39.032782602055 3.1083569024159985 0 0 0 0
2715 2 41.724698643576 3.1083569024159985 0 0 0 0
2721 6 44.416614685096995 3.1083569024159985 0 0 0 0
2727 2 47.10853072661801 3.1083569024159985 0 0 0 0
2733 6 49.800446768139004 3.1083569024159985 0 0 0 0
2511 2 52.49236280966 3.1083569024159985 0 -1 0 0
2517 6 55.184278851181 3.1083569024159985 0 -1 0 0
2523 2 57.876194892701996 3.1083569024159985 0 -1 0 0
2529 6 60.568110934223 3.1083569024159985 0 -1 0 0
2535 2 63.260026975744 3.1083569024159985 0 -1 0 0
2541 6 65.951943017265 3.1083569024159985 0 -1 0 0
2547 2 68.643859058786 3.1083569024159985 0 -1 0 0
2553 6 71.33577510030699 3.1083569024159985 0 -1 0 0
2559 2 74.027691141828 3.1083569024159985 0 -1 0 0
2565 6 76.719607183349 3.1083569024159985 0 -1 0 0
2571 2 79.41152322487 3.1083569024159985 0 -1 0 0
2577 6 82.103439266391 3.1083569024159985 0 -1 0 0
2583 2 84.79535530791199 3.1083569024159985 0 -1 0 0
2589 6 87.487271349433 3.1083569024159985 0 -1 0 0
2595 2 90.179187390954 3.1083569024159985 0 -1 0 0
2601 6 92.871103432475 3.1083569024159985 0 -1 0 0
2607 2 95.56301947399601 3.1083569024159985 0 -1 0 0
2613 6 98.25493551551699 3.1083569024159985 0 -1 0 0
2619 2 100.946851557038 3.1083569024159985 0 -1 0 0
2628 8 0 5.439624579227996 0 0 0 0
2626 12 1.3459580207600013 4.662535353623994 1.1501533163330002 0 0 0
2634 4 2.6919160415210044 5.439624579227996 0 0 0 0
2632 10 4.0378740622809985 4.662535353623994 1.1501533163330002 0 0 0
2640 8 5.383832083042002 5.439624579227996 0 0 0 0
2638 12 6.729790103802003 4.662535353623994 1.1501533163330002 0 0 0
2646 4 8.075748124562999 5.439624579227996 0 0 0 0
2644 10 9.421706145323 4.662535353623994 1.1501533163330002 0 0 0
2652 8 10.767664166084003 5.439624579227996 0 0 0 0
2650 12 12.113622186844005 4.662535353623994 1.1501533163330002 0 0 0
2658 4 13.459580207605008 5.439624579227996 0 0 0 0
2656 10 14.805538228365002 4.662535353623994 1.1501533163330002 0 0 0
2664 8 16.151496249126005 5.439624579227996 0 0 0 0
2662 12 17.497454269886 4.662535353623994 1.1501533163330002 0 0 0
2670 4 18.843412290647002 5.439624579227996 0 0 0 0
2676 8 21.535328332168 5.439624579227996 0 0 0 0
2668 10 20.189370311406996 4.662535353623994 1.1501533163330002 0 0 0
2674 12 22.881286352928008 4.662535353623994 1.1501533163330002 0 0 0
2682 4 24.227244373688997 5.439624579227996 0 0 0 0
2680 10 25.573202394449005 4.662535353623994 1.1501533163330002 0 0 0
2688 8 26.91916041521001 5.439624579227996 0 0 0 0
2686 12 28.265118435970003 4.662535353623994 1.1501533163330002 0 0 0
2694 4 29.611076456731006 5.439624579227996 0 0 0 0
2692 10 30.957034477491 4.662535353623994 1.1501533163330002 0 0 0
2700 8 32.302992498252 5.439624579227996 0 0 0 0
2698 12 33.648950519012 4.662535353623994 1.1501533163330002 0 0 0
2706 4 34.994908539773 5.439624579227996 0 0 0 0
2704 10 36.34086656053301 4.662535353623994 1.1501533163330002 0 0 0
2712 8 37.686824581294 5.439624579227996 0 0 0 0
2710 12 39.032782602054006 4.662535353623994 1.1501533163330002 0 0 0
2718 4 40.37874062281501 5.439624579227996 0 0 0 0
2716 10 41.724698643575 4.662535353623994 1.1501533163330002 0 0 0
2724 8 43.070656664336006 5.439624579227996 0 0 0 0
2722 12 44.416614685096 4.662535353623994 1.1501533163330002 0 0 0
2730 4 45.762572705857 5.439624579227996 0 0 0 0
2728 10 47.108530726617 4.662535353623994 1.1501533163330002 0 0 0
2736 8 48.454488747378 5.439624579227996 0 0 0 0
2734 12 49.800446768137995 4.662535353623994 1.1501533163330002 0 0 0
2514 4 51.146404788899 5.439624579227996 0 -1 0 0
2512 10 52.492362809659 4.662535353623994 1.1501533163330002 -1 0 0
2520 8 53.838320830419995 5.439624579227996 0 -1 0 0
2518 12 55.18427885118 4.662535353623994 1.1501533163330002 -1 0 0
2526 4 56.530236871941 5.439624579227996 0 -1 0 0
2524 10 57.876194892701 4.662535353623994 1.1501533163330002 -1 0 0
2532 8 59.222152913462 5.439624579227996 0 -1 0 0
2538 4 61.914068954982994 5.439624579227996 0 -1 0 0
2530 12 60.568110934222 4.662535353623994 1.1501533163330002 -1 0 0
2536 10 63.260026975742996 4.662535353623994 1.1501533163330002 -1 0 0
2544 8 64.60598499650399 5.439624579227996 0 -1 0 0
2542 12 65.951943017264 4.662535353623994 1.1501533163330002 -1 0 0
2550 4 67.297901038025 5.439624579227996 0 -1 0 0
2548 10 68.643859058785 4.662535353623994 1.1501533163330002 -1 0 0
2556 8 69.989817079546 5.439624579227996 0 -1 0 0
2554 12 71.335775100306 4.662535353623994 1.1501533163330002 -1 0 0
2562 4 72.681733121067 5.439624579227996 0 -1 0 0
2560 10 74.027691141827 4.662535353623994 1.1501533163330002 -1 0 0
2568 8 75.373649162588 5.439624579227996 0 -1 0 0
2566 12 76.719607183348 4.662535353623994 1.1501533163330002 -1 0 0
2574 4 78.06556520410899 5.439624579227996 0 -1 0 0
2572 10 79.411523224869 4.662535353623994 1.1501533163330002 -1 0 0
2580 8 80.75748124563 5.439624579227996 0 -1 0 0
2578 12 82.10343926639 4.662535353623994 1.1501533163330002 -1 0 0
2586 4 83.449397287151 5.439624579227996 0 -1 0 0
2584 10 84.795355307911 4.662535353623994 1.1501533163330002 -1 0 0
2592 8 86.141313328672 5.439624579227996 0 -1 0 0
2590 12 87.487271349432 4.662535353623994 1.1501533163330002 -1 0 0
2598 4 88.833229370193 5.439624579227996 0 -1 0 0
2596 10 90.17918739095299 4.662535353623994 1.1501533163330002 -1 0 0
2604 8 91.52514541171399 5.439624579227996 0 -1 0 0
2602 12 92.871103432474 4.662535353623994 1.1501533163330002 -1 0 0
2610 4 94.217061453235 5.439624579227996 0 -1 0 0
2608 10 95.563019473995 4.662535353623994 1.1501533163330002 -1 0 0
2616 8 96.908977494756 5.439624579227996 0 -1 0 0
2614 12 98.254935515516 4.662535353623994 1.1501533163330002 -1 0 0
2622 4 99.600893536277 5.439624579227996 0 -1 0 0
2620 10 100.94685155703701 4.662535353623994 1.1501533163330002 -1 0 0
2851 11 0 6.993803030435998 1.1501533163330002 0 0 0
2857 9 2.6919160415210044 6.993803030435998 1.1501533163330002 0 0 0
2863 11 5.383832083042002 6.993803030435998 1.1501533163330002 0 0 0
2869 9 8.075748124562999 6.993803030435998 1.1501533163330002 0 0 0
2875 11 10.767664166084003 6.993803030435998 1.1501533163330002 0 0 0
2881 9 13.459580207605008 6.993803030435998 1.1501533163330002 0 0 0
2887 11 16.151496249126005 6.993803030435998 1.1501533163330002 0 0 0
2893 9 18.843412290647002 6.993803030435998 1.1501533163330002 0 0 0
2899 11 21.535328332168 6.993803030435998 1.1501533163330002 0 0 0
2905 9 24.227244373688997 6.993803030435998 1.1501533163330002 0 0 0
2911 11 26.91916041521001 6.993803030435998 1.1501533163330002 0 0 0
2917 9 29.611076456731006 6.993803030435998 1.1501533163330002 0 0 0
2923 11 32.302992498252 6.993803030435998 1.1501533163330002 0 0 0
2929 9 34.994908539773 6.993803030435998 1.1501533163330002 0 0 0
2935 11 37.686824581294 6.993803030435998 1.1501533163330002 0 0 0
2941 9 40.37874062281501 6.993803030435998 1.1501533163330002 0 0 0
2947 11 43.070656664336006 6.993803030435998 1.1501533163330002 0 0 0
2953 9 45.762572705857 6.993803030435998 1.1501533163330002 0 0 0
2959 11 48.454488747378 6.993803030435998 1.1501533163330002 0 0 0
2737 9 51.146404788899 6.993803030435998 1.1501533163330002 -1 0 0
2743 11 53.838320830419995 6.993803030435998 1.1501533163330002 -1 0 0
2749 9 56.530236871941 6.993803030435998 1.1501533163330002 -1 0 0
2755 11 59.222152913462 6.993803030435998 1.1501533163330002 -1 0 0
2761 9 61.914068954982994 6.993803030435998 1.1501533163330002 -1 0 0
2767 11 64.60598499650399 6.993803030435998 1.1501533163330002 -1 0 0
2773 9 67.297901038025 6.993803030435998 1.1501533163330002 -1 0 0
2779 11 69.989817079546 6.993803030435998 1.1501533163330002 -1 0 0
2785 9 72.681733121067 6.993803030435998 1.1501533163330002 -1 0 0
2791 11 75.373649162588 6.993803030435998 1.1501533163330002 -1 0 0
2797 9 78.06556520410899 6.993803030435998 1.1501533163330002 -1 0 0
2803 11 80.75748124563 6.993803030435998 1.1501533163330002 -1 0 0
2809 9 83.449397287151 6.993803030435998 1.1501533163330002 -1 0 0
2815 11 86.141313328672 6.993803030435998 1.1501533163330002 -1 0 0
2821 9 88.833229370193 6.993803030435998 1.1501533163330002 -1 0 0
2827 11 91.52514541171399 6.993803030435998 1.1501533163330002 -1 0 0
2833 9 94.217061453235 6.993803030435998 1.1501533163330002 -1 0 0
2839 11 96.908977494756 6.993803030435998 1.1501533163330002 -1 0 0
2845 9 99.600893536277 6.993803030435998 1.1501533163330002 -1 0 0
2853 6 1.3459580207610031 7.77089225604 0 0 0 0
2859 2 4.037874062282 7.77089225604 0 0 0 0
2865 6 6.729790103803005 7.77089225604 0 0 0 0
2871 2 9.421706145324002 7.77089225604 0 0 0 0
2877 6 12.113622186845 7.77089225604 0 0 0 0
2883 2 14.805538228365997 7.77089225604 0 0 0 0
2889 6 17.497454269887008 7.77089225604 0 0 0 0
2895 2 20.189370311408005 7.77089225604 0 0 0 0
2901 6 22.881286352929003 7.77089225604 0 0 0 0
2907 2 25.57320239445 7.77089225604 0 0 0 0
2913 6 28.265118435970997 7.77089225604 0 0 0 0
2919 2 30.95703447749201 7.77089225604 0 0 0 0
2925 6 33.648950519013006 7.77089225604 0 0 0 0
2931 2 36.340866560534 7.77089225604 0 0 0 0
2937 6 39.032782602055 7.77089225604 0 0 0 0
2943 2 41.724698643576 7.77089225604 0 0 0 0
2949 6 44.416614685096995 7.77089225604 0 0 0 0
2955 2 47.10853072661801 7.77089225604 0 0 0 0
2961 6 49.800446768139004 7.77089225604 0 0 0 0
2739 2 52.49236280966 7.77089225604 0 -1 0 0
2745 6 55.184278851181 7.77089225604 0 -1 0 0
2751 2 57.876194892701996 7.77089225604 0 -1 0 0
2757 6 60.568110934223 7.77089225604 0 -1 0 0
2763 2 63.260026975744 7.77089225604 0 -1 0 0
2769 6 65.951943017265 7.77089225604 0 -1 0 0
2775 2 68.643859058786 7.77089225604 0 -1 0 0
2781 6 71.33577510030699 7.77089225604 0 -1 0 0
2787 2 74.027691141828 7.77089225604 0 -1 0 0
2793 6 76.719607183349 7.77089225604 0 -1 0 0
2799 2 79.41152322487 7.77089225604 0 -1 0 0
2805 6 82.103439266391 7.77089225604 0 -1 0 0
2811 2 84.79535530791199 7.77089225604 0 -1 0 0
2817 6 87.487271349433 7.77089225604 0 -1 0 0
2823 2 90.179187390954 7.77089225604 0 -1 0 0
2829 6 92.871103432475 7.77089225604 0 -1 0 0
2835 2 95.56301947399601 7.77089225604 0 -1 0 0
2841 6 98.25493551551699 7.77089225604 0 -1 0 0
2847 2 100.946851557038 7.77089225604 0 -1 0 0
2854 12 1.3459580207600013 9.325070707247995 1.1501533163330002 0 0 0
2860 10 4.0378740622809985 9.325070707247995 1.1501533163330002 0 0 0
2866 12 6.729790103802003 9.325070707247995 1.1501533163330002 0 0 0
2872 10 9.421706145323 9.325070707247995 1.1501533163330002 0 0 0
2878 12 12.113622186844005 9.325070707247995 1.1501533163330002 0 0 0
2884 10 14.805538228365002 9.325070707247995 1.1501533163330002 0 0 0
2890 12 17.497454269886 9.325070707247995 1.1501533163330002 0 0 0
2896 10 20.189370311406996 9.325070707247995 1.1501533163330002 0 0 0
2902 12 22.881286352928008 9.325070707247995 1.1501533163330002 0 0 0
2908 10 25.573202394449005 9.325070707247995 1.1501533163330002 0 0 0
2914 12 28.265118435970003 9.325070707247995 1.1501533163330002 0 0 0
2920 10 30.957034477491 9.325070707247995 1.1501533163330002 0 0 0
2926 12 33.648950519012 9.325070707247995 1.1501533163330002 0 0 0
2932 10 36.34086656053301 9.325070707247995 1.1501533163330002 0 0 0
2938 12 39.032782602054006 9.325070707247995 1.1501533163330002 0 0 0
2944 10 41.724698643575 9.325070707247995 1.1501533163330002 0 0 0
2950 12 44.416614685096 9.325070707247995 1.1501533163330002 0 0 0
2956 10 47.108530726617 9.325070707247995 1.1501533163330002 0 0 0
2962 12 49.800446768137995 9.325070707247995 1.1501533163330002 0 0 0
2740 10 52.492362809659 9.325070707247995 1.1501533163330002 -1 0 0
2746 12 55.18427885118 9.325070707247995 1.1501533163330002 -1 0 0
2752 10 57.876194892701 9.325070707247995 1.1501533163330002 -1 0 0
2758 12 60.568110934222 9.325070707247995 1.1501533163330002 -1 0 0
2764 10 63.260026975742996 9.325070707247995 1.1501533163330002 -1 0 0
2770 12 65.951943017264 9.325070707247995 1.1501533163330002 -1 0 0
2776 10 68.643859058785 9.325070707247995 1.1501533163330002 -1 0 0
2782 12 71.335775100306 9.325070707247995 1.1501533163330002 -1 0 0
2788 10 74.027691141827 9.325070707247995 1.1501533163330002 -1 0 0
2794 12 76.719607183348 9.325070707247995 1.1501533163330002 -1 0 0
2800 10 79.411523224869 9.325070707247995 1.1501533163330002 -1 0 0
2806 12 82.10343926639 9.325070707247995 1.1501533163330002 -1 0 0
2812 10 84.795355307911 9.325070707247995 1.1501533163330002 -1 0 0
2818 12 87.487271349432 9.325070707247995 1.1501533163330002 -1 0 0
2824 10 90.17918739095299 9.325070707247995 1.1501533163330002 -1 0 0
2830 12 92.871103432474 9.325070707247995 1.1501533163330002 -1 0 0
2836 10 95.563019473995 9.325070707247995 1.1501533163330002 -1 0 0
2842 12 98.254935515516 9.325070707247995 1.1501533163330002 -1 0 0
2848 10 100.94685155703701 9.325070707247995 1.1501533163330002 -1 0 0
2856 8 0 10.102159932851997 0 0 0 0
2862 4 2.6919160415210044 10.102159932851997 0 0 0 0
2868 8 5.383832083042002 10.102159932851997 0 0 0 0
2874 4 8.075748124562999 10.102159932851997 0 0 0 0
2880 8 10.767664166084003 10.102159932851997 0 0 0 0
2886 4 13.459580207605008 10.102159932851997 0 0 0 0
2892 8 16.151496249126005 10.102159932851997 0 0 0 0
2898 4 18.843412290647002 10.102159932851997 0 0 0 0
2904 8 21.535328332168 10.102159932851997 0 0 0 0
2910 4 24.227244373688997 10.102159932851997 0 0 0 0
2916 8 26.91916041521001 10.102159932851997 0 0 0 0
2922 4 29.611076456731006 10.102159932851997 0 0 0 0
2928 8 32.302992498252 10.102159932851997 0 0 0 0
2934 4 34.994908539773 10.102159932851997 0 0 0 0
2940 8 37.686824581294 10.102159932851997 0 0 0 0
2946 4 40.37874062281501 10.102159932851997 0 0 0 0
2952 8 43.070656664336006 10.102159932851997 0 0 0 0
2958 4 45.762572705857 10.102159932851997 0 0 0 0
2964 8 48.454488747378 10.102159932851997 0 0 0 0
2742 4 51.146404788899 10.102159932851997 0 -1 0 0
2748 8 53.838320830419995 10.102159932851997 0 -1 0 0
2754 4 56.530236871941 10.102159932851997 0 -1 0 0
2760 8 59.222152913462 10.102159932851997 0 -1 0 0
2766 4 61.914068954982994 10.102159932851997 0 -1 0 0
2772 8 64.60598499650399 10.102159932851997 0 -1 0 0
2778 4 67.297901038025 10.102159932851997 0 -1 0 0
2784 8 69.989817079546 10.102159932851997 0 -1 0 0
2790 4 72.681733121067 10.102159932851997 0 -1 0 0
2796 8 75.373649162588 10.102159932851997 0 -1 0 0
2802 4 78.06556520410899 10.102159932851997 0 -1 0 0
2808 8 80.75748124563 10.102159932851997 0 -1 0 0
2814 4 83.449397287151 10.102159932851997 0 -1 0 0
2820 8 86.141313328672 10.102159932851997 0 -1 0 0
2826 4 88.833229370193 10.102159932851997 0 -1 0 0
2832 8 91.52514541171399 10.102159932851997 0 -1 0 0
2838 4 94.217061453235 10.102159932851997 0 -1 0 0
2844 8 96.908977494756 10.102159932851997 0 -1 0 0
2850 4 99.600893536277 10.102159932851997 0 -1 0 0
3081 6 1.3459580207610031 12.433427609663994 0 0 0 0
3079 11 0 11.65633838406 1.1501533163330002 0 0 0
3085 9 2.6919160415210044 11.65633838406 1.1501533163330002 0 0 0
3087 2 4.037874062282 12.433427609663994 0 0 0 0
3091 11 5.383832083042002 11.65633838406 1.1501533163330002 0 0 0
3093 6 6.729790103803005 12.433427609663994 0 0 0 0
3097 9 8.075748124562999 11.65633838406 1.1501533163330002 0 0 0
3099 2 9.421706145324002 12.433427609663994 0 0 0 0
3103 11 10.767664166084003 11.65633838406 1.1501533163330002 0 0 0
3105 6 12.113622186845 12.433427609663994 0 0 0 0
3109 9 13.459580207605008 11.65633838406 1.1501533163330002 0 0 0
3111 2 14.805538228365997 12.433427609663994 0 0 0 0
3115 11 16.151496249126005 11.65633838406 1.1501533163330002 0 0 0
3117 6 17.497454269887008 12.433427609663994 0 0 0 0
3121 9 18.843412290647002 11.65633838406 1.1501533163330002 0 0 0
3123 2 20.189370311408005 12.433427609663994 0 0 0 0
3127 11 21.535328332168 11.65633838406 1.1501533163330002 0 0 0
3129 6 22.881286352929003 12.433427609663994 0 0 0 0
3133 9 24.227244373688997 11.65633838406 1.1501533163330002 0 0 0
3135 2 25.57320239445 12.433427609663994 0 0 0 0
3139 11 26.91916041521001 11.65633838406 1.1501533163330002 0 0 0
3141 6 28.265118435970997 12.433427609663994 0 0 0 0
3145 9 29.611076456731006 11.65633838406 1.1501533163330002 0 0 0
3147 2 30.95703447749201 12.433427609663994 0 0 0 0
3151 11 32.302992498252 11.65633838406 1.1501533163330002 0 0 0
3153 6 33.648950519013006 12.433427609663994 0 0 0 0
3157 9 34.994908539773 11.65633838406 1.1501533163330002 0 0 0
3159 2 36.340866560534 12.433427609663994 0 0 0 0
3163 11 37.686824581294 11.65633838406 1.1501533163330002 0 0 0
3165 6 39.032782602055 12.433427609663994 0 0 0 0
3171 2 41.724698643576 12.433427609663994 0 0 0 0
3169 9 40.37874062281501 11.65633838406 1.1501533163330002 0 0 0
3175 11 43.070656664336006 11.65633838406 1.1501533163330002 0 0 0
3177 6 44.416614685096995 12.433427609663994 0 0 0 0
3181 9 45.762572705857 11.65633838406 1.1501533163330002 0 0 0
3183 2 47.10853072661801 12.433427609663994 0 0 0 0
3187 11 48.454488747378 11.65633838406 1.1501533163330002 0 0 0
3189 6 49.800446768139004 12.433427609663994 0 0 0 0
2965 9 51.146404788899 11.65633838406 1.1501533163330002 -1 0 0
2967 2 52.49236280966 12.433427609663994 0 -1 0 0
2971 11 53.838320830419995 11.65633838406 1.1501533163330002 -1 0 0
2973 6 55.184278851181 12.433427609663994 0 -1 0 0
2977 9 56.530236871941 11.65633838406 1.1501533163330002 -1 0 0
2979 2 57.876194892701996 12.433427609663994 0 -1 0 0
2983 11 59.222152913462 11.65633838406 1.1501533163330002 -1 0 0
2985 6 60.568110934223 12.433427609663994 0 -1 0 0
2989 9 61.914068954982994 11.65633838406 1.1501533163330002 -1 0 0
2991 2 63.260026975744 12.433427609663994 0 -1 0 0
2995 11 64.60598499650399 11.65633838406 1.1501533163330002 -1 0 0
2997 6 65.951943017265 12.433427609663994 0 -1 0 0
3001 9 67.297901038025 11.65633838406 1.1501533163330002 -1 0 0
3003 2 68.643859058786 12.433427609663994 0 -1 0 0
3007 11 69.989817079546 11.65633838406 1.1501533163330002 -1 0 0
3009 6 71.33577510030699 12.433427609663994 0 -1 0 0
3013 9 72.681733121067 11.65633838406 1.1501533163330002 -1 0 0
3015 2 74.027691141828 12.433427609663994 0 -1 0 0
3019 11 75.373649162588 11.65633838406 1.1501533163330002 -1 0 0
3021 6 76.719607183349 12.433427609663994 0 -1 0 0
3025 9 78.06556520410899 11.65633838406 1.1501533163330002 -1 0 0
3027 2 79.41152322487 12.433427609663994 0 -1 0 0
3033 6 82.103439266391 12.433427609663994 0 -1 0 0
3031 11 80.75748124563 11.65633838406 1.1501533163330002 -1 0 0
3037 9 83.449397287151 11.65633838406 1.1501533163330002 -1 0 0
3039 2 84.79535530791199 12.433427609663994 0 -1 0 0
3043 11 86.141313328672 11.65633838406 1.1501533163330002 -1 0 0
3045 6 87.487271349433 12.433427609663994 0 -1 0 0
3049 9 88.833229370193 11.65633838406 1.1501533163330002 -1 0 0
3051 2 90.179187390954 12.433427609663994 0 -1 0 0
3055 11 91.52514541171399 11.65633838406 1.1501533163330002 -1 0 0
3057 6 92.871103432475 12.433427609663994 0 -1 0 0
3061 9 94.217061453235 11.65633838406 1.1501533163330002 -1 0 0
3063 2 95.56301947399601 12.433427609663994 0 -1 0 0
3067 11 96.908977494756 11.65633838406 1.1501533163330002 -1 0 0
3069 6 98.25493551551699 12.433427609663994 0 -1 0 0
3073 9 99.600893536277 11.65633838406 1.1501533163330002 -1 0 0
3075 2 100.946851557038 12.433427609663994 0 -1 0 0
3082 12 1.3459580207600013 13.987606060871997 1.1501533163330002 0 0 0
3088 10 4.0378740622809985 13.987606060871997 1.1501533163330002 0 0 0
3094 12 6.729790103802003 13.987606060871997 1.1501533163330002 0 0 0
3100 10 9.421706145323 13.987606060871997 1.1501533163330002 0 0 0
3106 12 12.113622186844005 13.987606060871997 1.1501533163330002 0 0 0
3112 10 14.805538228365002 13.987606060871997 1.1501533163330002 0 0 0
3118 12 17.497454269886 13.987606060871997 1.1501533163330002 0 0 0
3124 10 20.189370311406996 13.987606060871997 1.1501533163330002 0 0 0
3130 12 22.881286352928008 13.987606060871997 1.1501533163330002 0 0 0
3136 10 25.573202394449005 13.987606060871997 1.1501533163330002 0 0 0
3142 12 28.265118435970003 13.987606060871997 1.1501533163330002 0 0 0
3148 10 30.957034477491 13.987606060871997 1.1501533163330002 0 0 0
3154 12 33.648950519012 13.987606060871997 1.1501533163330002 0 0 0
3160 10 36.34086656053301 13.987606060871997 1.1501533163330002 0 0 0
3166 12 39.032782602054006 13.987606060871997 1.1501533163330002 0 0 0
3172 10 41.724698643575 13.987606060871997 1.1501533163330002 0 0 0
3178 12 44.416614685096 13.987606060871997 1.1501533163330002 0 0 0
3184 10 47.108530726617 13.987606060871997 1.1501533163330002 0 0 0
3190 12 49.800446768137995 13.987606060871997 1.1501533163330002 0 0 0
2968 10 52.492362809659 13.987606060871997 1.1501533163330002 -1 0 0
2974 12 55.18427885118 13.987606060871997 1.1501533163330002 -1 0 0
2980 10 57.876194892701 13.987606060871997 1.1501533163330002 -1 0 0
2986 12 60.568110934222 13.987606060871997 1.1501533163330002 -1 0 0
2992 10 63.260026975742996 13.987606060871997 1.1501533163330002 -1 0 0
2998 12 65.951943017264 13.987606060871997 1.1501533163330002 -1 0 0
3004 10 68.643859058785 13.987606060871997 1.1501533163330002 -1 0 0
3010 12 71.335775100306 13.987606060871997 1.1501533163330002 -1 0 0
3016 10 74.027691141827 13.987606060871997 1.1501533163330002 -1 0 0
3022 12 76.719607183348 13.987606060871997 1.1501533163330002 -1 0 0
3028 10 79.411523224869 13.987606060871997 1.1501533163330002 -1 0 0
3034 12 82.10343926639 13.987606060871997 1.1501533163330002 -1 0 0
3040 10 84.795355307911 13.987606060871997 1.1501533163330002 -1 0 0
3046 12 87.487271349432 13.987606060871997 1.1501533163330002 -1 0 0
3052 10 90.17918739095299 13.987606060871997 1.1501533163330002 -1 0 0
3058 12 92.871103432474 13.987606060871997 1.1501533163330002 -1 0 0
3064 10 95.563019473995 13.987606060871997 1.1501533163330002 -1 0 0
3070 12 98.254935515516 13.987606060871997 1.1501533163330002 -1 0 0
3076 10 100.94685155703701 13.987606060871997 1.1501533163330002 -1 0 0
3084 8 0 14.764695286475998 0 0 0 0
3090 4 2.6919160415210044 14.764695286475998 0 0 0 0
3096 8 5.383832083042002 14.764695286475998 0 0 0 0
3102 4 8.075748124562999 14.764695286475998 0 0 0 0
3108 8 10.767664166084003 14.764695286475998 0 0 0 0
3114 4 13.459580207605008 14.764695286475998 0 0 0 0
3120 8 16.151496249126005 14.764695286475998 0 0 0 0
3126 4 18.843412290647002 14.764695286475998 0 0 0 0
3132 8 21.535328332168 14.764695286475998 0 0 0 0
3138 4 24.227244373688997 14.764695286475998 0 0 0 0
3144 8 26.91916041521001 14.764695286475998 0 0 0 0
3150 4 29.611076456731006 14.764695286475998 0 0 0 0
3156 8 32.302992498252 14.764695286475998 0 0 0 0
3162 4 34.994908539773 14.764695286475998 0 0 0 0