LAMMPS data file via write_data, version 29 Aug 2024, timestep = 28, units = metal

9576 atoms
24 atom types

0 102.292809577798 xlo xhi
0 97.913242426104 ylo yhi
-50 50 zlo zhi

Masses

1 55.845
2 55.845
3 55.845
4 55.845
5 55.845
6 55.845
7 55.845
8 55.845
9 15.999
10 15.999
11 15.999
12 15.999
13 15.999
14 15.999
15 15.999
16 15.999
17 15.999
18 15.999
19 15.999
20 15.999
21 15.999
22 15.999
23 15.999
24 15.999

Atoms # atomic

2400 12 0.11779340903348863 0.7799717770394847 0.01665449721172964 0 0 0
2398 16 1.6066615221588971 0.25665198006529205 1.245027256165533 0 0 0
2406 4 3.037111246206562 0.6952025326179153 0.10535634482122112 0 0 0
2404 14 4.188995470042067 0.6688015945764126 1.5929091252171816 0 0 0
2412 12 5.501625492075487 0.7799717770394855 0.016654497211730117 0 0 0
2629 13 2.426081151574394 2.005131205691893 1.3078294100563468 0 0 0
2635 15 5.355180126147736 2.3473373724763493 1.1780994717457256 0 0 0
2625 10 1.3457466806631493 3.1083273616825173 0.019556448002381772 0 0 0
2631 2 4.065742126387935 3.092287630012721 0.02949638425606473 0 0 0
2628 12 0.11779340903350816 5.442507130663487 0.016654497211729388 0 0 0
2626 16 1.6066615221588985 4.919187333689287 1.2450272561655342 0 0 0
2634 4 3.037111246206562 5.357737886241908 0.1053563448212224 0 0 0
2632 14 4.188995470042069 5.331336948200408 1.5929091252171828 0 0 0
2640 12 5.501625492075489 5.442507130663489 0.016654497211729822 0 0 0
2405 3 2.6758566192770004 0.7699564840753262 2.704218678209327 0 0 0
2411 11 4.62259566975912 0.8248054783906622 2.178346725069555 0 0 0
2624 9 1.3558126632926644 3.1080725601580643 2.3869898780006777 0 0 0
2630 1 4.214255133965136 2.5481813352896747 1.5416834472993703 0 0 0
2633 3 2.675856619277001 5.43249183769932 2.7042186782093265 0 0 0
2639 11 4.622595669759122 5.487340832014658 2.1783467250695545 0 0 0
2410 16 6.990493605200897 0.2566519800652923 1.2450272561655378 0 0 0
2418 4 8.42094332924856 0.6952025326179118 0.10535634482121971 0 0 0
2416 14 9.572827553084066 0.6688015945764012 1.592909125217177 0 0 0
2424 12 10.885457575117483 0.7799717770394851 0.016654497211730346 0 0 0
2641 13 7.8099132346164 2.005131205691893 1.3078294100563495 0 0 0
2647 15 10.739012209189735 2.347337372476348 1.1780994717457276 0 0 0
2637 10 6.729578763705149 3.1083273616825173 0.01955644800238179 0 0 0
2643 2 9.44957420942994 3.0922876300127227 0.029496384256063032 0 0 0
2638 16 6.9904936052008955 4.919187333689292 1.2450272561655364 0 0 0
2646 4 8.420943329248557 5.357737886241915 0.10535634482121847 0 0 0
2644 14 9.572827553084064 5.331336948200401 1.592909125217175 0 0 0
2652 12 10.88545757511748 5.442507130663488 0.016654497211730252 0 0 0
2417 3 8.059688702319006 0.7699564840753222 2.704218678209331 0 0 0
2423 11 10.006427752801113 0.8248054783906539 2.1783467250695603 0 0 0
2636 9 6.739644746334665 3.1080725601580643 2.3869898780006773 0 0 0
2642 1 9.598087217007148 2.548181335289664 1.5416834472993692 0 0 0
2645 3 8.059688702319004 5.432491837699321 2.7042186782093287 0 0 0
2651 11 10.00642775280111 5.487340832014654 2.17834672506956 0 0 0
2422 16 12.3743256882429 0.2566519800652935 1.2450272561655262 0 0 0
2430 4 13.804775412290567 0.6952025326179205 0.10535634482122135 0 0 0
2428 14 14.95665963612607 0.6688015945764253 1.592909125217186 0 0 0
2436 12 16.269289658159494 0.7799717770394861 0.016654497211729864 0 0 0
2653 13 13.19374531765839 2.0051312056918915 1.3078294100563452 0 0 0
2659 15 16.12284429223173 2.3473373724763498 1.1780994717457254 0 0 0
2649 10 12.113410846747147 3.1083273616825173 0.019556448002381786 0 0 0
2655 2 14.83340629247193 3.0922876300127204 0.029496384256064843 0 0 0
2650 16 12.3743256882429 4.919187333689284 1.2450272561655324 0 0 0
2658 4 13.804775412290567 5.357737886241904 0.10535634482122738 0 0 0
2656 14 14.956659636126071 5.331336948200418 1.5929091252171914 0 0 0
2664 12 16.269289658159494 5.44250713066349 0.016654497211729288 0 0 0
2429 3 13.443520785360997 0.7699564840753285 2.7042186782093225 0 0 0
2435 11 15.390259835843132 0.8248054783906702 2.1783467250695483 0 0 0
2648 9 12.123476829376658 3.1080725601580643 2.3869898780006773 0 0 0
2654 1 14.981919300049126 2.5481813352896854 1.5416834472993732 0 0 0
2657 3 13.443520785360997 5.432491837699322 2.7042186782093243 0 0 0
2663 11 15.390259835843137 5.487340832014666 2.178346725069549 0 0 0
2434 16 17.758157771284893 0.2566519800653071 1.2450272561655225 0 0 0
2442 4 19.18860749533255 0.6952025326179433 0.10535634482120958 0 0 0
2448 12 21.653121741201474 0.7799717770394832 0.01665449721173113 0 0 0
2440 14 20.34049171916806 0.6688015945764085 1.5929091252171659 0 0 0
2665 13 18.577577400700402 2.0051312056919173 1.3078294100563514 0 0 0
2671 15 21.506676375273734 2.3473373724763507 1.1780994717457245 0 0 0
2661 10 17.497242929789156 3.1083273616825173 0.01955644800238176 0 0 0
2667 2 20.217238375513933 3.0922876300127204 0.029496384256065544 0 0 0
2662 16 17.758157771284893 4.919187333689292 1.2450272561655358 0 0 0
2670 4 19.18860749533256 5.357737886241915 0.10535634482121808 0 0 0
2676 12 21.653121741201478 5.442507130663489 0.016654497211730297 0 0 0
2668 14 20.340491719168064 5.331336948200406 1.5929091252171763 0 0 0
2441 3 18.827352868403 0.7699564840753289 2.704218678209319 0 0 0
2447 11 20.774091918885105 0.8248054783906555 2.17834672506956 0 0 0
2660 9 17.507308912418665 3.1080725601580643 2.386989878000678 0 0 0
2666 1 20.365751383091155 2.548181335289673 1.5416834472993777 0 0 0
2669 3 18.827352868403 5.432491837699323 2.704218678209328 0 0 0
2675 11 20.774091918885112 5.487340832014658 2.178346725069558 0 0 0
2446 16 23.1419898543269 0.2566519800652849 1.2450272561655384 0 0 0
2454 4 24.572439578374567 0.6952025326179005 0.10535634482122239 0 0 0
2452 14 25.72432380221007 0.6688015945763988 1.5929091252171839 0 0 0
2460 12 27.036953824243486 0.7799717770394855 0.01665449721173013 0 0 0
2677 13 23.9614094837424 2.005131205691885 1.3078294100563461 0 0 0
2683 15 26.890508458315736 2.347337372476352 1.1780994717457247 0 0 0
2673 10 22.88107501283115 3.1083273616825173 0.01955644800238176 0 0 0
2679 2 25.601070458555935 3.0922876300127213 0.029496384256066002 0 0 0
2685 10 28.264907095873145 3.1083273616825173 0.019556448002381766 0 0 0
2674 16 23.1419898543269 4.919187333689291 1.245027256165535 0 0 0
2682 4 24.57243957837456 5.3577378862419165 0.10535634482121915 0 0 0
2680 14 25.72432380221007 5.331336948200402 1.5929091252171763 0 0 0
2688 12 27.036953824243483 5.442507130663488 0.016654497211730207 0 0 0
2453 3 24.211184951445006 0.7699564840753208 2.704218678209334 0 0 0
2459 11 26.157924001927118 0.8248054783906533 2.1783467250695603 0 0 0
2672 9 22.89114099546066 3.1080725601580643 2.386989878000678 0 0 0
2678 1 25.749583466133146 2.548181335289661 1.541683447299368 0 0 0
2684 9 28.274973078502654 3.1080725601580643 2.3869898780006773 0 0 0
2681 3 24.211184951445006 5.432491837699321 2.7042186782093274 0 0 0
2687 11 26.15792400192712 5.487340832014653 2.1783467250695585 0 0 0
2458 16 28.52582193736889 0.2566519800653051 1.2450272561655273 0 0 0
2686 16 28.5258219373689 4.919187333689294 1.2450272561655382 0 0 0
2466 4 29.956271661416544 0.6952025326179452 0.10535634482120979 0 0 0
2464 14 31.10815588525206 0.6688015945764121 1.5929091252171612 0 0 0
2472 12 32.42078590728547 0.7799717770394837 0.016654497211730335 0 0 0
2470 16 33.90965402041088 0.2566519800653037 1.2450272561655293 0 0 0
2689 13 29.345241566784402 2.0051312056919177 1.3078294100563554 0 0 0
2695 15 32.27434054135773 2.347337372476347 1.1780994717457278 0 0 0
2691 2 30.98490254159794 3.092287630012723 0.02949638425606195 0 0 0
2697 10 33.64873917891514 3.1083273616825173 0.01955644800238177 0 0 0
2694 4 29.956271661416558 5.357737886241915 0.10535634482121922 0 0 0
2692 14 31.10815588525207 5.331336948200405 1.5929091252171748 0 0 0
2700 12 32.420785907285484 5.442507130663489 0.016654497211729943 0 0 0
2698 16 33.909654020410905 4.919187333689288 1.2450272561655407 0 0 0
2465 3 29.595017034487 0.7699564840753278 2.7042186782093207 0 0 0
2471 11 31.541756084969112 0.8248054783906598 2.1783467250695585 0 0 0
2690 1 31.13341554917515 2.5481813352896734 1.5416834472993741 0 0 0
2696 9 33.65880516154467 3.1080725601580643 2.3869898780006773 0 0 0
2693 3 29.59501703448701 5.432491837699323 2.7042186782093283 0 0 0
2699 11 31.541756084969123 5.487340832014657 2.178346725069559 0 0 0
2478 4 35.340103744458546 0.6952025326179411 0.10535634482121194 0 0 0
2476 14 36.49198796829406 0.6688015945764151 1.5929091252171643 0 0 0
2484 12 37.80461799032747 0.7799717770394846 0.016654497211730436 0 0 0
2482 16 39.29348610345289 0.2566519800652939 1.2450272561655285 0 0 0
2701 13 34.7290736498264 2.0051312056919097 1.3078294100563543 0 0 0
2707 15 37.65817262439974 2.34733737247635 1.1780994717457258 0 0 0
2703 2 36.36873462463994 3.09228763001272 0.029496384256064802 0 0 0
2709 10 39.03257126195714 3.1083273616825173 0.01955644800238176 0 0 0
2706 4 35.34010374445857 5.357737886241905 0.10535634482122376 0 0 0
2704 14 36.491987968294076 5.331336948200405 1.5929091252171803 0 0 0
2712 12 37.80461799032749 5.44250713066349 0.01665449721172892 0 0 0
2710 16 39.29348610345289 4.9191873336892815 1.2450272561655362 0 0 0
2477 3 34.978849117529 0.7699564840753295 2.7042186782093176 0 0 0
2483 11 36.92558816801112 0.8248054783906608 2.178346725069553 0 0 0
2702 1 36.51724763221714 2.548181335289679 1.5416834472993692 0 0 0
2708 9 39.042637244586665 3.1080725601580643 2.3869898780006773 0 0 0
2705 3 34.97884911752901 5.432491837699319 2.7042186782093287 0 0 0
2711 11 36.925588168011124 5.487340832014657 2.1783467250695567 0 0 0
2490 4 40.72393582750056 0.6952025326179251 0.10535634482121982 0 0 0
2488 14 41.87582005133606 0.6688015945764225 1.5929091252171814 0 0 0
2496 12 43.188450073369495 0.7799717770394868 0.0166544972117292 0 0 0
2494 16 44.67731818649489 0.25665198006530016 1.2450272561655298 0 0 0
2713 13 40.11290573286839 2.005131205691899 1.3078294100563483 0 0 0
2719 15 43.04200470744172 2.347337372476348 1.1780994717457292 0 0 0
2715 2 41.75256670768193 3.0922876300127227 0.029496384256061773 0 0 0
2721 10 44.41640334499913 3.1083273616825173 0.01955644800238178 0 0 0
2718 4 40.72393582750056 5.357737886241904 0.10535634482122976 0 0 0
2716 14 41.87582005133606 5.3313369482004225 1.5929091252171939 0 0 0
2724 12 43.188450073369495 5.44250713066349 0.01665449721172882 0 0 0
2722 16 44.6773181864949 4.919187333689285 1.2450272561655342 0 0 0
2489 3 40.362681200571 0.7699564840753311 2.7042186782093216 0 0 0
2495 11 42.30942025105314 0.824805478390668 2.1783467250695474 0 0 0
2714 1 41.90107971525914 2.5481813352896836 1.5416834472993695 0 0 0
2720 9 44.42646932762866 3.1080725601580643 2.3869898780006773 0 0 0
2717 3 40.36268120057099 5.43249183769933 2.704218678209327 0 0 0
2723 11 42.30942025105314 5.487340832014669 2.1783467250695443 0 0 0
2502 4 46.10776791054255 0.6952025326179354 0.1053563448212146 0 0 0
2500 14 47.259652134378065 0.6688015945764192 1.5929091252171679 0 0 0
2508 12 48.57228215641148 0.7799717770394844 0.01665449721173029 0 0 0
2506 16 50.06115026953689 0.25665198006529943 1.2450272561655247 0 0 0
2725 13 45.49673781591039 2.0051312056919066 1.3078294100563546 0 0 0
2731 15 48.42583679048374 2.34733737247635 1.1780994717457258 0 0 0
2727 2 47.136398790723945 3.09228763001272 0.02949638425606481 0 0 0
2733 10 49.80023542804114 3.1083273616825173 0.019556448002381748 0 0 0
2730 4 46.10776791054256 5.357737886241908 0.10535634482122394 0 0 0
2728 14 47.25965213437807 5.331336948200409 1.5929091252171854 0 0 0
2736 12 48.5722821564115 5.442507130663488 0.01665449721172934 0 0 0
2734 16 50.06115026953689 4.919187333689288 1.2450272561655327 0 0 0
2501 3 45.746513283613 0.7699564840753261 2.704218678209319 0 0 0
2507 11 47.69325233409513 0.8248054783906673 2.1783467250695514 0 0 0
2726 1 47.28491179830114 2.5481813352896814 1.5416834472993721 0 0 0
2732 9 49.81030141067067 3.1080725601580643 2.3869898780006773 0 0 0
2729 3 45.746513283613005 5.432491837699321 2.704218678209327 0 0 0
2735 11 47.69325233409512 5.4873408320146595 2.178346725069556 0 0 0
2509 13 50.88056989895239 2.0051312056919075 1.3078294100563506 -1 0 0
2285 3 51.13034536665499 0.7699564840753305 2.7042186782093185 -1 0 0
2513 3 51.13034536665499 5.432491837699324 2.7042186782093247 -1 0 0
2286 4 51.49159999358455 0.6952025326179377 0.10535634482121489 -1 0 0
2284 14 52.64348421742006 0.6688015945764232 1.5929091252171728 -1 0 0
2292 12 53.95611423945348 0.7799717770394845 0.016654497211730023 -1 0 0
2290 16 55.44498235257889 0.2566519800652941 1.245027256165533 -1 0 0
2515 15 53.80966887352574 2.3473373724763498 1.1780994717457258 -1 0 0
2521 13 56.26440198199439 2.0051312056918995 1.3078294100563488 -1 0 0
2511 2 52.52023087376594 3.09228763001272 0.029496384256064826 -1 0 0
2517 10 55.184067511083136 3.1083273616825173 0.01955644800238175 -1 0 0
2514 4 51.49159999358455 5.357737886241911 0.10535634482122261 -1 0 0
2512 14 52.64348421742006 5.331336948200413 1.592909125217185 -1 0 0
2520 12 53.956114239453484 5.44250713066349 0.016654497211729537 -1 0 0
2518 16 55.44498235257889 4.919187333689288 1.2450272561655362 -1 0 0
2291 11 53.077084417137115 0.8248054783906673 2.17834672506955 -1 0 0
2297 3 56.514177449696994 0.7699564840753306 2.7042186782093274 -1 0 0
2510 1 52.668743881343126 2.548181335289685 1.5416834472993737 -1 0 0
2516 9 55.19413349371266 3.1080725601580643 2.3869898780006773 -1 0 0
2519 11 53.07708441713712 5.487340832014661 2.1783467250695527 -1 0 0
2525 3 56.514177449696994 5.432491837699323 2.7042186782093287 -1 0 0
2298 4 56.87543207662655 0.6952025326179242 0.10535634482121893 -1 0 0
2526 4 56.87543207662655 5.357737886241905 0.10535634482122493 -1 0 0
2296 14 58.02731630046206 0.6688015945764227 1.59290912521718 -1 0 0
2304 12 59.339946322495486 0.7799717770394856 0.016654497211729537 -1 0 0
2310 4 62.259264159668554 0.6952025326179132 0.10535634482122315 -1 0 0
2302 16 60.82881443562089 0.2566519800652891 1.2450272561655276 -1 0 0
2527 15 59.19350095656773 2.3473373724763453 1.1780994717457303 -1 0 0
2533 13 61.64823406503638 2.0051312056918897 1.3078294100563435 -1 0 0
2523 2 57.90406295680795 3.0922876300127244 0.029496384256059573 -1 0 0
2529 10 60.56789959412514 3.1083273616825173 0.019556448002381755 -1 0 0
2524 14 58.02731630046206 5.331336948200405 1.5929091252171854 -1 0 0
2532 12 59.339946322495486 5.442507130663488 0.016654497211729655 -1 0 0
2538 4 62.25926415966857 5.357737886241905 0.10535634482122377 -1 0 0
2530 16 60.8288144356209 4.919187333689289 1.2450272561655296 -1 0 0
2303 11 58.460916500179124 0.8248054783906725 2.178346725069551 -1 0 0
2309 3 61.89800953273898 0.769956484075327 2.7042186782093247 -1 0 0
2522 1 58.05257596438513 2.5481813352896805 1.5416834472993686 -1 0 0
2528 9 60.577965576754664 3.1080725601580643 2.3869898780006773 -1 0 0
2531 11 58.460916500179124 5.487340832014657 2.1783467250695523 -1 0 0
2537 3 61.898009532738996 5.43249183769932 2.7042186782093256 -1 0 0
2308 14 63.411148383504056 0.6688015945764145 1.5929091252171885 -1 0 0
2316 12 64.7237784055375 0.7799717770394857 0.016654497211729926 -1 0 0
2314 16 66.21264651866291 0.2566519800652887 1.245027256165528 -1 0 0
2322 4 67.64309624271057 0.6952025326179175 0.1053563448212231 -1 0 0
2539 15 64.5773330396097 2.347337372476343 1.1780994717457354 -1 0 0
2545 13 67.0320661480784 2.0051312056918924 1.3078294100563423 -1 0 0
2535 2 63.28789503984993 3.0922876300127276 0.029496384256055354 -1 0 0
2541 10 65.95173167716713 3.1083273616825173 0.019556448002381762 -1 0 0
2536 14 63.41114838350407 5.331336948200407 1.5929091252171887 -1 0 0
2544 12 64.7237784055375 5.442507130663487 0.016654497211730204 -1 0 0
2542 16 66.2126465186629 4.91918733368928 1.2450272561655467 -1 0 0
2550 4 67.64309624271056 5.3577378862419005 0.10535634482122723 -1 0 0
2315 11 63.84474858322111 0.824805478390663 2.1783467250695505 -1 0 0
2321 3 67.281841615781 0.7699564840753326 2.7042186782093207 -1 0 0
2534 1 63.43640804742712 2.5481813352896774 1.5416834472993748 -1 0 0
2540 9 65.96179765979662 3.1080725601580643 2.386989878000676 -1 0 0
2543 11 63.84474858322111 5.487340832014657 2.1783467250695527 -1 0 0
2549 3 67.281841615781 5.432491837699317 2.7042186782093287 -1 0 0
2320 14 68.79498046654608 0.668801594576417 1.5929091252171914 -1 0 0
2328 12 70.10761048857951 0.7799717770394857 0.01665449721172894 -1 0 0
2326 16 71.59647860170489 0.2566519800652853 1.2450272561655296 -1 0 0
2334 4 73.02692832575255 0.6952025326179153 0.10535634482122354 -1 0 0
2551 15 69.9611651226517 2.347337372476352 1.178099471745724 -1 0 0
2557 13 72.41589823112038 2.0051312056918933 1.3078294100563437 -1 0 0
2547 2 68.6717271228919 3.0922876300127204 0.02949638425606696 -1 0 0
2553 10 71.33556376020913 3.1083273616825173 0.019556448002381786 -1 0 0
2548 14 68.79498046654606 5.331336948200416 1.5929091252171812 -1 0 0
2556 12 70.1076104885795 5.442507130663486 0.016654497211729777 -1 0 0
2554 16 71.5964786017049 4.919187333689286 1.2450272561655396 -1 0 0
2562 4 73.02692832575256 5.357737886241904 0.10535634482122569 -1 0 0
2327 11 69.22858066626311 0.8248054783906557 2.1783467250695505 -1 0 0
2333 3 72.66567369882299 0.7699564840753299 2.7042186782093234 -1 0 0
2546 1 68.82024013046913 2.5481813352896827 1.5416834472993721 -1 0 0
2552 9 71.34562974283861 3.1080725601580643 2.386989878000676 -1 0 0
2555 11 69.22858066626313 5.487340832014669 2.1783467250695456 -1 0 0
2561 3 72.665673698823 5.432491837699331 2.704218678209325 -1 0 0
2332 14 74.17881254958806 0.6688015945764195 1.5929091252171907 -1 0 0
2340 12 75.4914425716215 0.7799717770394856 0.01665449721172902 -1 0 0
2338 16 76.9803106847469 0.25665198006529055 1.2450272561655384 -1 0 0
2346 4 78.41076040879457 0.6952025326178974 0.1053563448212279 -1 0 0
2563 15 75.3449972056937 2.347337372476352 1.178099471745724 -1 0 0
2569 13 77.79973031416239 2.005131205691881 1.307829410056344 -1 0 0
2559 2 74.05555920593389 3.0922876300127204 0.029496384256066963 -1 0 0
2565 10 76.71939584325114 3.1083273616825173 0.019556448002381793 -1 0 0
2571 2 79.43939128897588 3.0922876300127204 0.02949638425606672 -1 0 0
2560 14 74.17881254958807 5.331336948200412 1.5929091252171879 -1 0 0
2568 12 75.4914425716215 5.442507130663487 0.01665449721172909 -1 0 0
2566 16 76.98031068474691 4.919187333689276 1.245027256165528 -1 0 0
2574 4 78.41076040879457 5.357737886241903 0.10535634482122581 -1 0 0
2339 11 74.61241274930512 0.8248054783906668 2.1783467250695487 -1 0 0
2345 3 78.049505781865 0.769956484075324 2.704218678209328 -1 0 0
2558 1 74.20407221351113 2.5481813352896823 1.5416834472993695 -1 0 0
2564 9 76.72946182588062 3.1080725601580643 2.386989878000676 -1 0 0
2567 11 74.61241274930512 5.4873408320146595 2.178346725069555 -1 0 0
2573 3 78.049505781865 5.432491837699325 2.704218678209329 -1 0 0
2344 14 79.56264463263007 0.6688015945764035 1.5929091252171903 -1 0 0
2572 14 79.56264463263007 5.3313369482004145 1.592909125217199 -1 0 0
2570 1 79.58790429655313 2.548181335289668 1.5416834472993677 -1 0 0
2352 12 80.8752746546635 0.7799717770394856 0.01665449721172967 -1 0 0
2350 16 82.36414276778889 0.25665198006528905 1.245027256165524 -1 0 0
2358 4 83.79459249183655 0.6952025326179007 0.10535634482122917 -1 0 0
2356 14 84.94647671567206 0.6688015945764291 1.5929091252172014 -1 0 0
2575 15 80.7288292887357 2.347337372476352 1.1780994717457236 -1 0 0
2581 13 83.18356239720437 2.0051312056918738 1.3078294100563386 -1 0 0
2577 10 82.10322792629314 3.1083273616825173 0.019556448002381783 -1 0 0
2583 2 84.82322337201788 3.0922876300127204 0.029496384256066713 -1 0 0
2580 12 80.8752746546635 5.442507130663487 0.016654497211729298 -1 0 0
2578 16 82.36414276778892 4.919187333689265 1.24502725616553 -1 0 0
2586 4 83.79459249183658 5.35773788624189 0.10535634482123227 -1 0 0
2584 14 84.94647671567209 5.33133694820043 1.5929091252172054 -1 0 0
2351 11 79.99624483234712 0.8248054783906531 2.178346725069554 -1 0 0
2357 3 83.43333786490697 0.7699564840753238 2.704218678209322 -1 0 0
2576 9 82.11329390892263 3.1080725601580643 2.386989878000676 -1 0 0
2582 1 84.9717363795951 2.548181335289688 1.54168344729937 -1 0 0
2579 11 79.99624483234712 5.48734083201466 2.178346725069549 -1 0 0
2585 3 83.433337864907 5.432491837699313 2.704218678209323 -1 0 0
2364 12 86.2591067377055 0.7799717770394865 0.016654497211729836 -1 0 0
2362 16 87.74797485083089 0.25665198006528595 1.2450272561655424 -1 0 0
2370 4 89.17842457487855 0.6952025326179001 0.10535634482122684 -1 0 0
2368 14 90.33030879871406 0.6688015945764086 1.592909125217185 -1 0 0
2587 15 86.11266137177769 2.347337372476352 1.1780994717457234 -1 0 0
2593 13 88.56739448024638 2.005131205691877 1.3078294100563488 -1 0 0
2589 10 87.48706000933514 3.1083273616825173 0.01955644800238178 -1 0 0
2595 2 90.20705545505989 3.0922876300127204 0.029496384256066804 -1 0 0
2592 12 86.25910673770552 5.442507130663489 0.01665449721172839 -1 0 0
2590 16 87.7479748508309 4.919187333689284 1.2450272561655376 -1 0 0
2598 4 89.17842457487856 5.35773788624191 0.10535634482122089 -1 0 0
2596 14 90.33030879871407 5.331336948200417 1.5929091252171774 -1 0 0
2363 11 85.38007691538911 0.8248054783906722 2.178346725069542 -1 0 0
2369 3 88.817169947949 0.769956484075319 2.7042186782093327 -1 0 0
2588 9 87.49712599196462 3.1080725601580643 2.386989878000676 -1 0 0
2594 1 90.35556846263711 2.5481813352896734 1.5416834472993632 -1 0 0
2591 11 85.38007691538914 5.487340832014674 2.178346725069543 -1 0 0
2597 3 88.81716994794901 5.432491837699321 2.704218678209323 -1 0 0
2375 11 90.76390899843109 0.8248054783906617 2.178346725069554 -1 0 0
2603 11 90.7639089984311 5.487340832014665 2.1783467250695527 -1 0 0
2376 12 91.64293882074749 0.7799717770394864 0.016654497211728996 -1 0 0
2374 16 93.1318069338729 0.25665198006529605 1.2450272561655285 -1 0 0
2382 4 94.56225665792057 0.6952025326179156 0.10535634482122382 -1 0 0
2380 14 95.71414088175607 0.6688015945764263 1.5929091252171872 -1 0 0
2599 15 91.4964934548197 2.3473373724763515 1.1780994717457238 -1 0 0
2605 13 93.95122656328839 2.0051312056918857 1.3078294100563457 -1 0 0
2601 10 92.87089209237713 3.1083273616825173 0.019556448002381772 -1 0 0
2607 2 95.5908875381019 3.0922876300127204 0.02949638425606669 -1 0 0
2604 12 91.64293882074749 5.442507130663488 0.016654497211729357 -1 0 0
2602 16 93.13180693387291 4.9191873336892815 1.2450272561655449 -1 0 0
2610 4 94.56225665792057 5.357737886241906 0.10535634482122647 -1 0 0
2608 14 95.71414088175608 5.331336948200411 1.592909125217183 -1 0 0
2381 3 94.201002030991 0.7699564840753238 2.7042186782093185 -1 0 0
2600 9 92.88095807500662 3.1080725601580643 2.3869898780006764 -1 0 0
2606 1 95.73940054567912 2.5481813352896903 1.5416834472993728 -1 0 0
2609 3 94.201002030991 5.432491837699327 2.704218678209328 -1 0 0
2387 11 96.14774108147311 0.8248054783906704 2.178346725069547 -1 0 0
2615 11 96.14774108147313 5.48734083201466 2.1783467250695514 -1 0 0
2623 15 102.2641576209037 2.3473373724763515 1.1780994717457238 -1 0 0
2399 11 101.53157316451512 0.824805478390664 2.1783467250695505 -1 0 0
2627 11 101.53157316451512 5.487340832014663 2.178346725069554 -1 0 0
2388 12 97.02677090378951 0.7799717770394852 0.01665449721172923 -1 0 0
2386 16 98.51563901691489 0.2566519800652925 1.245027256165538 -1 0 0
2394 4 99.94608874096257 0.6952025326179159 0.10535634482122248 -1 0 0
2392 14 101.09797296479806 0.66880159457642 1.5929091252171799 -1 0 0
2611 15 96.88032553786171 2.347337372476352 1.1780994717457238 -1 0 0
2617 13 99.33505864633038 2.0051312056918924 1.3078294100563488 -1 0 0
2613 10 98.25472417541913 3.1083273616825173 0.019556448002381772 -1 0 0
2619 2 100.97471962114389 3.0922876300127204 0.029496384256066804 -1 0 0
2616 12 97.0267709037895 5.442507130663488 0.01665449721172887 -1 0 0
2614 16 98.51563901691492 4.919187333689289 1.245027256165534 -1 0 0
2622 4 99.94608874096258 5.3577378862419005 0.10535634482122673 -1 0 0
2620 14 101.09797296479809 5.331336948200418 1.592909125217193 -1 0 0
2393 3 99.584834114033 0.7699564840753291 2.704218678209324 -1 0 0
2612 9 98.26479015804861 3.1080725601580643 2.386989878000676 -1 0 0
2618 1 101.12323262872113 2.54818133528968 1.5416834472993657 -1 0 0
2621 3 99.58483411403301 5.4324918376993265 2.7042186782093265 -1 0 0
2857 13 2.4260811515743916 6.667666559315884 1.3078294100563466 0 0 0
2863 15 5.3551801261477365 7.009872726100353 1.1780994717457256 0 0 0
2853 10 1.3457466806631493 7.770862715306517 0.019556448002381766 0 0 0
2859 2 4.065742126387936 7.754822983636723 0.02949638425606456 0 0 0
2854 16 1.6066615221588987 9.58172268731329 1.245027256165536 0 0 0
2860 14 4.188995470042069 9.993872301824409 1.5929091252171843 0 0 0
2856 12 0.11779340903349811 10.10504248428749 0.016654497211729475 0 0 0
2862 4 3.037111246206563 10.020273239865906 0.10535634482122361 0 0 0
2868 12 5.501625492075489 10.10504248428749 0.01665449721172972 0 0 0
2852 9 1.3558126632926644 7.770607913782067 2.3869898780006777 0 0 0
2858 1 4.214255133965134 7.210716688913672 1.5416834472993692 0 0 0
2861 3 2.6758566192770017 10.095027191323323 2.7042186782093274 0 0 0
2867 11 4.622595669759123 10.14987618563866 2.1783467250695554 0 0 0
3085 13 2.4260811515743903 11.330201912939883 1.3078294100563461 0 0 0
2869 13 7.809913234616396 6.667666559315894 1.30782941005635 0 0 0
2875 15 10.739012209189735 7.009872726100348 1.1780994717457238 0 0 0
2865 10 6.729578763705149 7.770862715306517 0.019556448002381783 0 0 0
2871 2 9.449574209429933 7.754822983636721 0.029496384256066065 0 0 0
2866 16 6.9904936052008955 9.58172268731329 1.2450272561655347 0 0 0
2872 14 9.572827553084064 9.993872301824405 1.5929091252171754 0 0 0
2874 4 8.420943329248557 10.020273239865917 0.1053563448212185 0 0 0
2880 12 10.885457575117481 10.105042484287488 0.016654497211730263 0 0 0
2864 9 6.739644746334665 7.770607913782067 2.3869898780006773 0 0 0
2870 1 9.598087217007146 7.210716688913665 1.5416834472993697 0 0 0
2873 3 8.059688702319002 10.095027191323323 2.704218678209327 0 0 0
2879 11 10.006427752801113 10.149876185638657 2.1783467250695585 0 0 0
3097 13 7.809913234616396 11.330201912939897 1.3078294100563501 0 0 0
2881 13 13.193745317658385 6.667666559315877 1.3078294100563441 0 0 0
2887 15 16.12284429223173 7.009872726100351 1.1780994717457252 0 0 0
2877 10 12.113410846747147 7.770862715306517 0.019556448002381772 0 0 0
2883 2 14.83340629247193 7.754822983636723 0.02949638425606522 0 0 0
2878 16 12.374325688242902 9.581722687313286 1.2450272561655285 0 0 0
2884 14 14.956659636126071 9.993872301824423 1.592909125217195 0 0 0
2886 4 13.80477541229057 10.020273239865906 0.10535634482122735 0 0 0
2892 12 16.269289658159497 10.10504248428749 0.016654497211729295 0 0 0
2876 9 12.123476829376658 7.770607913782067 2.3869898780006773 0 0 0
2882 1 14.981919300049123 7.2107166889136804 1.5416834472993692 0 0 0
2885 3 13.443520785360993 10.095027191323325 2.704218678209322 0 0 0
2891 11 15.390259835843143 10.14987618563867 2.1783467250695456 0 0 0
3109 13 13.193745317658383 11.330201912939877 1.3078294100563432 0 0 0
2893 13 18.57757740070039 6.667666559315894 1.3078294100563492 0 0 0
2899 15 21.506676375273738 7.009872726100352 1.1780994717457252 0 0 0
2889 10 17.497242929789156 7.770862715306517 0.01955644800238176 0 0 0
2895 2 20.217238375513936 7.75482298363672 0.029496384256065537 0 0 0
2890 16 17.7581577712849 9.581722687313293 1.2450272561655353 0 0 0
2896 14 20.340491719168067 9.993872301824407 1.5929091252171774 0 0 0
2898 4 19.188607495332562 10.020273239865917 0.10535634482121847 0 0 0
2904 12 21.653121741201485 10.10504248428749 0.01665449721172998 0 0 0
2888 9 17.507308912418665 7.770607913782067 2.386989878000678 0 0 0
2894 1 20.36575138309114 7.21071668891367 1.54168344729937 0 0 0
2897 3 18.827352868403008 10.095027191323325 2.704218678209328 0 0 0
2903 11 20.774091918885116 10.149876185638659 2.1783467250695594 0 0 0
3121 13 18.577577400700395 11.330201912939893 1.307829410056349 0 0 0
2905 13 23.961409483742404 6.667666559315895 1.3078294100563506 0 0 0
2911 15 26.89050845831574 7.00987272610035 1.1780994717457254 0 0 0
2901 10 22.88107501283115 7.770862715306517 0.01955644800238176 0 0 0
2907 2 25.60107045855594 7.754822983636722 0.02949638425606496 0 0 0
2913 10 28.264907095873145 7.770862715306517 0.01955644800238177 0 0 0
2902 16 23.141989854326898 9.581722687313292 1.2450272561655327 0 0 0
2908 14 25.724323802210066 9.993872301824409 1.5929091252171792 0 0 0
2910 4 24.57243957837456 10.020273239865919 0.10535634482122003 0 0 0
2916 12 27.036953824243486 10.105042484287486 0.01665449721172992 0 0 0
2900 9 22.89114099546066 7.770607913782067 2.386989878000678 0 0 0
2906 1 25.74958346613315 7.210716688913667 1.5416834472993717 0 0 0
2912 9 28.274973078502654 7.770607913782067 2.3869898780006773 0 0 0
2909 3 24.211184951445002 10.095027191323322 2.704218678209326 0 0 0
2915 11 26.157924001927125 10.14987618563866 2.1783467250695563 0 0 0
3133 13 23.961409483742393 11.330201912939891 1.30782941005635 0 0 0
2914 16 28.5258219373689 9.581722687313292 1.245027256165537 0 0 0
2917 13 29.345241566784402 6.6676665593158955 1.307829410056351 0 0 0
2923 15 32.274340541357724 7.009872726100349 1.178099471745728 0 0 0
2919 2 30.98490254159793 7.754822983636724 0.029496384256062422 0 0 0
2925 10 33.64873917891514 7.770862715306517 0.019556448002381783 0 0 0
2920 14 31.10815588525207 9.993872301824405 1.592909125217174 0 0 0
2926 16 33.9096540204109 9.58172268731329 1.2450272561655458 0 0 0
2922 4 29.956271661416558 10.020273239865917 0.10535634482121882 0 0 0
2928 12 32.420785907285484 10.105042484287486 0.016654497211729936 0 0 0
2918 1 31.13341554917515 7.210716688913667 1.541683447299367 0 0 0
2924 9 33.65880516154467 7.770607913782067 2.3869898780006773 0 0 0
2921 3 29.59501703448701 10.095027191323323 2.7042186782093287 0 0 0
2927 11 31.541756084969123 10.149876185638657 2.178346725069559 0 0 0