LAMMPS data file via write_data, version 29 Aug 2024, timestep = 0, units = metal

2592 atoms
3 atom types

0 98.620556968107 xlo xhi
0 101.22418686784 ylo yhi
0 18.709333339869 zlo zhi

Masses

1 92.90637
2 127.6
3 127.6

Atoms # atomic

1385 1 1.8263066105205041 0 1.8546666699349998 0 0 0
1391 1 5.478919831561505 0 1.8546666699349998 0 0 0
1397 1 9.1315330526025 0 1.8546666699349998 0 0 0
1403 1 12.7841462736435 0 1.8546666699349998 0 0 0
1409 1 16.43675949468451 0 1.8546666699349998 0 0 0
1415 1 20.089372715725503 0 1.8546666699349998 0 0 0
1421 1 23.741985936766497 0 1.8546666699349998 0 0 0
1427 1 27.394599157807505 0 1.8546666699349998 0 0 0
1433 1 31.0472123788485 0 1.8546666699349998 0 0 0
1439 1 34.69982559988951 0 1.8546666699349998 0 0 0
1445 1 38.3524388209305 0 1.8546666699349998 0 0 0
1451 1 42.005052041971496 0 1.8546666699349998 0 0 0
1457 1 45.657665263012504 0 1.8546666699349998 0 0 0
1301 1 49.3102784840535 0 1.8546666699349998 -1 0 0
1307 1 52.9628917050945 0 1.8546666699349998 -1 0 0
1313 1 56.6155049261355 0 1.8546666699349998 -1 0 0
1319 1 60.268118147176494 0 1.8546666699349998 -1 0 0
1325 1 63.920731368217496 0 1.8546666699349998 -1 0 0
1331 1 67.5733445892585 0 1.8546666699349998 -1 0 0
1337 1 71.22595781029949 0 1.8546666699349998 -1 0 0
1343 1 74.8785710313405 0 1.8546666699349998 -1 0 0
1349 1 78.5311842523815 0 1.8546666699349998 -1 0 0
1355 1 82.1837974734225 0 1.8546666699349998 -1 0 0
1361 1 85.8364106944635 0 1.8546666699349998 -1 0 0
1367 1 89.4890239155045 0 1.8546666699349998 -1 0 0
1373 1 93.1416371365455 0 1.8546666699349998 -1 0 0
1379 1 96.79425035758649 0 1.8546666699349998 -1 0 0
1383 3 1.8263066105205041 2.1088372264139963 0 0 0 0
1386 1 3.652613221040504 3.1632558396199997 1.8546666699349998 0 0 0
1389 3 5.478919831561505 2.1088372264139963 0 0 0 0
1392 1 7.305226442081505 3.1632558396199997 1.8546666699349998 0 0 0
1395 3 9.1315330526025 2.1088372264139963 0 0 0 0
1398 1 10.957839663122499 3.1632558396199997 1.8546666699349998 0 0 0
1401 3 12.7841462736435 2.1088372264139963 0 0 0 0
1404 1 14.6104528841635 3.1632558396199997 1.8546666699349998 0 0 0
1407 3 16.43675949468451 2.1088372264139963 0 0 0 0
1410 1 18.2630661052045 3.1632558396199997 1.8546666699349998 0 0 0
1413 3 20.089372715725503 2.1088372264139963 0 0 0 0
1416 1 21.915679326245495 3.1632558396199997 1.8546666699349998 0 0 0
1419 3 23.741985936766497 2.1088372264139963 0 0 0 0
1422 1 25.568292547286504 3.1632558396199997 1.8546666699349998 0 0 0
1425 3 27.394599157807505 2.1088372264139963 0 0 0 0
1428 1 29.220905768327498 3.1632558396199997 1.8546666699349998 0 0 0
1431 3 31.0472123788485 2.1088372264139963 0 0 0 0
1434 1 32.873518989368506 3.1632558396199997 1.8546666699349998 0 0 0
1437 3 34.69982559988951 2.1088372264139963 0 0 0 0
1440 1 36.5261322104095 3.1632558396199997 1.8546666699349998 0 0 0
1443 3 38.3524388209305 2.1088372264139963 0 0 0 0
1446 1 40.17874543145051 3.1632558396199997 1.8546666699349998 0 0 0
1449 3 42.005052041971496 2.1088372264139963 0 0 0 0
1452 1 43.8313586524915 3.1632558396199997 1.8546666699349998 0 0 0
1455 3 45.657665263012504 2.1088372264139963 0 0 0 0
1458 1 47.4839718735325 3.1632558396199997 1.8546666699349998 0 0 0
1299 3 49.3102784840535 2.1088372264139963 0 -1 0 0
1302 1 51.1365850945735 3.1632558396199997 1.8546666699349998 -1 0 0
1305 3 52.9628917050945 2.1088372264139963 0 -1 0 0
1308 1 54.7891983156145 3.1632558396199997 1.8546666699349998 -1 0 0
1311 3 56.6155049261355 2.1088372264139963 0 -1 0 0
1314 1 58.4418115366555 3.1632558396199997 1.8546666699349998 -1 0 0
1317 3 60.268118147176494 2.1088372264139963 0 -1 0 0
1320 1 62.0944247576965 3.1632558396199997 1.8546666699349998 -1 0 0
1323 3 63.920731368217496 2.1088372264139963 0 -1 0 0
1326 1 65.7470379787375 3.1632558396199997 1.8546666699349998 -1 0 0
1329 3 67.5733445892585 2.1088372264139963 0 -1 0 0
1332 1 69.3996511997785 3.1632558396199997 1.8546666699349998 -1 0 0
1335 3 71.22595781029949 2.1088372264139963 0 -1 0 0
1341 3 74.8785710313405 2.1088372264139963 0 -1 0 0
1338 1 73.0522644208195 3.1632558396199997 1.8546666699349998 -1 0 0
1344 1 76.70487764186049 3.1632558396199997 1.8546666699349998 -1 0 0
1347 3 78.5311842523815 2.1088372264139963 0 -1 0 0
1350 1 80.3574908629015 3.1632558396199997 1.8546666699349998 -1 0 0
1353 3 82.1837974734225 2.1088372264139963 0 -1 0 0
1356 1 84.01010408394251 3.1632558396199997 1.8546666699349998 -1 0 0
1359 3 85.8364106944635 2.1088372264139963 0 -1 0 0
1362 1 87.66271730498349 3.1632558396199997 1.8546666699349998 -1 0 0
1365 3 89.4890239155045 2.1088372264139963 0 -1 0 0
1368 1 91.3153305260245 3.1632558396199997 1.8546666699349998 -1 0 0
1371 3 93.1416371365455 2.1088372264139963 0 -1 0 0
1374 1 94.9679437470655 3.1632558396199997 1.8546666699349998 -1 0 0
1377 3 96.79425035758649 2.1088372264139963 0 -1 0 0
1380 1 98.6205569681065 3.1632558396199997 1.8546666699349998 -1 0 0
1384 3 3.652613221040504 5.272093066033996 0 0 0 0
1390 3 7.305226442081505 5.272093066033996 0 0 0 0
1396 3 10.957839663122499 5.272093066033996 0 0 0 0
1402 3 14.6104528841635 5.272093066033996 0 0 0 0
1408 3 18.2630661052045 5.272093066033996 0 0 0 0
1414 3 21.915679326245495 5.272093066033996 0 0 0 0
1420 3 25.568292547286504 5.272093066033996 0 0 0 0
1426 3 29.220905768327498 5.272093066033996 0 0 0 0
1432 3 32.873518989368506 5.272093066033996 0 0 0 0
1438 3 36.5261322104095 5.272093066033996 0 0 0 0
1444 3 40.17874543145051 5.272093066033996 0 0 0 0
1450 3 43.8313586524915 5.272093066033996 0 0 0 0
1456 3 47.4839718735325 5.272093066033996 0 0 0 0
1300 3 51.1365850945735 5.272093066033996 0 -1 0 0
1306 3 54.7891983156145 5.272093066033996 0 -1 0 0
1312 3 58.4418115366555 5.272093066033996 0 -1 0 0
1318 3 62.0944247576965 5.272093066033996 0 -1 0 0
1324 3 65.7470379787375 5.272093066033996 0 -1 0 0
1330 3 69.3996511997785 5.272093066033996 0 -1 0 0
1336 3 73.0522644208195 5.272093066033996 0 -1 0 0
1342 3 76.70487764186049 5.272093066033996 0 -1 0 0
1348 3 80.3574908629015 5.272093066033996 0 -1 0 0
1354 3 84.01010408394251 5.272093066033996 0 -1 0 0
1360 3 87.66271730498349 5.272093066033996 0 -1 0 0
1366 3 91.3153305260245 5.272093066033996 0 -1 0 0
1372 3 94.9679437470655 5.272093066033996 0 -1 0 0
1378 3 98.6205569681065 5.272093066033996 0 -1 0 0
1547 1 1.8263066105205041 6.326511679239999 1.8546666699349998 0 0 0
1553 1 5.478919831561505 6.326511679239999 1.8546666699349998 0 0 0
1559 1 9.1315330526025 6.326511679239999 1.8546666699349998 0 0 0
1565 1 12.7841462736435 6.326511679239999 1.8546666699349998 0 0 0
1571 1 16.43675949468451 6.326511679239999 1.8546666699349998 0 0 0
1577 1 20.089372715725503 6.326511679239999 1.8546666699349998 0 0 0
1583 1 23.741985936766497 6.326511679239999 1.8546666699349998 0 0 0
1589 1 27.394599157807505 6.326511679239999 1.8546666699349998 0 0 0
1595 1 31.0472123788485 6.326511679239999 1.8546666699349998 0 0 0
1601 1 34.69982559988951 6.326511679239999 1.8546666699349998 0 0 0
1607 1 38.3524388209305 6.326511679239999 1.8546666699349998 0 0 0
1613 1 42.005052041971496 6.326511679239999 1.8546666699349998 0 0 0
1619 1 45.657665263012504 6.326511679239999 1.8546666699349998 0 0 0
1463 1 49.3102784840535 6.326511679239999 1.8546666699349998 -1 0 0
1469 1 52.9628917050945 6.326511679239999 1.8546666699349998 -1 0 0
1475 1 56.6155049261355 6.326511679239999 1.8546666699349998 -1 0 0
1481 1 60.268118147176494 6.326511679239999 1.8546666699349998 -1 0 0
1487 1 63.920731368217496 6.326511679239999 1.8546666699349998 -1 0 0
1493 1 67.5733445892585 6.326511679239999 1.8546666699349998 -1 0 0
1499 1 71.22595781029949 6.326511679239999 1.8546666699349998 -1 0 0
1505 1 74.8785710313405 6.326511679239999 1.8546666699349998 -1 0 0
1511 1 78.5311842523815 6.326511679239999 1.8546666699349998 -1 0 0
1517 1 82.1837974734225 6.326511679239999 1.8546666699349998 -1 0 0
1523 1 85.8364106944635 6.326511679239999 1.8546666699349998 -1 0 0
1529 1 89.4890239155045 6.326511679239999 1.8546666699349998 -1 0 0
1535 1 93.1416371365455 6.326511679239999 1.8546666699349998 -1 0 0
1541 1 96.79425035758649 6.326511679239999 1.8546666699349998 -1 0 0
1545 3 1.8263066105205041 8.435348905653996 0 0 0 0
1548 1 3.652613221040504 9.489767518859999 1.8546666699349998 0 0 0
1551 3 5.478919831561505 8.435348905653996 0 0 0 0
1554 1 7.305226442081505 9.489767518859999 1.8546666699349998 0 0 0
1557 3 9.1315330526025 8.435348905653996 0 0 0 0
1560 1 10.957839663122499 9.489767518859999 1.8546666699349998 0 0 0
1563 3 12.7841462736435 8.435348905653996 0 0 0 0
1566 1 14.6104528841635 9.489767518859999 1.8546666699349998 0 0 0
1569 3 16.43675949468451 8.435348905653996 0 0 0 0
1572 1 18.2630661052045 9.489767518859999 1.8546666699349998 0 0 0
1575 3 20.089372715725503 8.435348905653996 0 0 0 0
1578 1 21.915679326245495 9.489767518859999 1.8546666699349998 0 0 0
1581 3 23.741985936766497 8.435348905653996 0 0 0 0
1584 1 25.568292547286504 9.489767518859999 1.8546666699349998 0 0 0
1587 3 27.394599157807505 8.435348905653996 0 0 0 0
1590 1 29.220905768327498 9.489767518859999 1.8546666699349998 0 0 0
1593 3 31.0472123788485 8.435348905653996 0 0 0 0
1596 1 32.873518989368506 9.489767518859999 1.8546666699349998 0 0 0
1599 3 34.69982559988951 8.435348905653996 0 0 0 0
1602 1 36.5261322104095 9.489767518859999 1.8546666699349998 0 0 0
1605 3 38.3524388209305 8.435348905653996 0 0 0 0
1608 1 40.17874543145051 9.489767518859999 1.8546666699349998 0 0 0
1611 3 42.005052041971496 8.435348905653996 0 0 0 0
1614 1 43.8313586524915 9.489767518859999 1.8546666699349998 0 0 0
1617 3 45.657665263012504 8.435348905653996 0 0 0 0
1620 1 47.4839718735325 9.489767518859999 1.8546666699349998 0 0 0
1461 3 49.3102784840535 8.435348905653996 0 -1 0 0
1464 1 51.1365850945735 9.489767518859999 1.8546666699349998 -1 0 0
1467 3 52.9628917050945 8.435348905653996 0 -1 0 0
1470 1 54.7891983156145 9.489767518859999 1.8546666699349998 -1 0 0
1473 3 56.6155049261355 8.435348905653996 0 -1 0 0
1476 1 58.4418115366555 9.489767518859999 1.8546666699349998 -1 0 0
1479 3 60.268118147176494 8.435348905653996 0 -1 0 0
1482 1 62.0944247576965 9.489767518859999 1.8546666699349998 -1 0 0
1485 3 63.920731368217496 8.435348905653996 0 -1 0 0
1488 1 65.7470379787375 9.489767518859999 1.8546666699349998 -1 0 0
1491 3 67.5733445892585 8.435348905653996 0 -1 0 0
1494 1 69.3996511997785 9.489767518859999 1.8546666699349998 -1 0 0
1497 3 71.22595781029949 8.435348905653996 0 -1 0 0
1503 3 74.8785710313405 8.435348905653996 0 -1 0 0
1500 1 73.0522644208195 9.489767518859999 1.8546666699349998 -1 0 0
1506 1 76.70487764186049 9.489767518859999 1.8546666699349998 -1 0 0
1509 3 78.5311842523815 8.435348905653996 0 -1 0 0
1512 1 80.3574908629015 9.489767518859999 1.8546666699349998 -1 0 0
1515 3 82.1837974734225 8.435348905653996 0 -1 0 0
1518 1 84.01010408394251 9.489767518859999 1.8546666699349998 -1 0 0
1521 3 85.8364106944635 8.435348905653996 0 -1 0 0
1524 1 87.66271730498349 9.489767518859999 1.8546666699349998 -1 0 0
1527 3 89.4890239155045 8.435348905653996 0 -1 0 0
1530 1 91.3153305260245 9.489767518859999 1.8546666699349998 -1 0 0
1533 3 93.1416371365455 8.435348905653996 0 -1 0 0
1536 1 94.9679437470655 9.489767518859999 1.8546666699349998 -1 0 0
1539 3 96.79425035758649 8.435348905653996 0 -1 0 0
1542 1 98.6205569681065 9.489767518859999 1.8546666699349998 -1 0 0
1546 3 3.652613221040504 11.598604745273995 0 0 0 0
1552 3 7.305226442081505 11.598604745273995 0 0 0 0
1558 3 10.957839663122499 11.598604745273995 0 0 0 0
1564 3 14.6104528841635 11.598604745273995 0 0 0 0
1570 3 18.2630661052045 11.598604745273995 0 0 0 0
1576 3 21.915679326245495 11.598604745273995 0 0 0 0
1582 3 25.568292547286504 11.598604745273995 0 0 0 0
1588 3 29.220905768327498 11.598604745273995 0 0 0 0
1594 3 32.873518989368506 11.598604745273995 0 0 0 0
1600 3 36.5261322104095 11.598604745273995 0 0 0 0
1606 3 40.17874543145051 11.598604745273995 0 0 0 0
1612 3 43.8313586524915 11.598604745273995 0 0 0 0
1618 3 47.4839718735325 11.598604745273995 0 0 0 0
1462 3 51.1365850945735 11.598604745273995 0 -1 0 0
1468 3 54.7891983156145 11.598604745273995 0 -1 0 0
1474 3 58.4418115366555 11.598604745273995 0 -1 0 0
1480 3 62.0944247576965 11.598604745273995 0 -1 0 0
1486 3 65.7470379787375 11.598604745273995 0 -1 0 0
1492 3 69.3996511997785 11.598604745273995 0 -1 0 0
1498 3 73.0522644208195 11.598604745273995 0 -1 0 0
1504 3 76.70487764186049 11.598604745273995 0 -1 0 0
1510 3 80.3574908629015 11.598604745273995 0 -1 0 0
1516 3 84.01010408394251 11.598604745273995 0 -1 0 0
1522 3 87.66271730498349 11.598604745273995 0 -1 0 0
1528 3 91.3153305260245 11.598604745273995 0 -1 0 0
1534 3 94.9679437470655 11.598604745273995 0 -1 0 0
1540 3 98.6205569681065 11.598604745273995 0 -1 0 0
1709 1 1.8263066105205041 12.653023358479999 1.8546666699349998 0 0 0
1715 1 5.478919831561505 12.653023358479999 1.8546666699349998 0 0 0
1721 1 9.1315330526025 12.653023358479999 1.8546666699349998 0 0 0
1727 1 12.7841462736435 12.653023358479999 1.8546666699349998 0 0 0
1733 1 16.43675949468451 12.653023358479999 1.8546666699349998 0 0 0
1739 1 20.089372715725503 12.653023358479999 1.8546666699349998 0 0 0
1745 1 23.741985936766497 12.653023358479999 1.8546666699349998 0 0 0
1751 1 27.394599157807505 12.653023358479999 1.8546666699349998 0 0 0
1757 1 31.0472123788485 12.653023358479999 1.8546666699349998 0 0 0
1763 1 34.69982559988951 12.653023358479999 1.8546666699349998 0 0 0
1769 1 38.3524388209305 12.653023358479999 1.8546666699349998 0 0 0
1775 1 42.005052041971496 12.653023358479999 1.8546666699349998 0 0 0
1781 1 45.657665263012504 12.653023358479999 1.8546666699349998 0 0 0
1625 1 49.3102784840535 12.653023358479999 1.8546666699349998 -1 0 0
1631 1 52.9628917050945 12.653023358479999 1.8546666699349998 -1 0 0
1637 1 56.6155049261355 12.653023358479999 1.8546666699349998 -1 0 0
1643 1 60.268118147176494 12.653023358479999 1.8546666699349998 -1 0 0
1649 1 63.920731368217496 12.653023358479999 1.8546666699349998 -1 0 0
1655 1 67.5733445892585 12.653023358479999 1.8546666699349998 -1 0 0
1661 1 71.22595781029949 12.653023358479999 1.8546666699349998 -1 0 0
1667 1 74.8785710313405 12.653023358479999 1.8546666699349998 -1 0 0
1673 1 78.5311842523815 12.653023358479999 1.8546666699349998 -1 0 0
1679 1 82.1837974734225 12.653023358479999 1.8546666699349998 -1 0 0
1685 1 85.8364106944635 12.653023358479999 1.8546666699349998 -1 0 0
1691 1 89.4890239155045 12.653023358479999 1.8546666699349998 -1 0 0
1697 1 93.1416371365455 12.653023358479999 1.8546666699349998 -1 0 0
1703 1 96.79425035758649 12.653023358479999 1.8546666699349998 -1 0 0
1707 3 1.8263066105205041 14.761860584894002 0 0 0 0
1710 1 3.652613221040504 15.816279198099998 1.8546666699349998 0 0 0
1713 3 5.478919831561505 14.761860584894002 0 0 0 0
1716 1 7.305226442081505 15.816279198099998 1.8546666699349998 0 0 0
1719 3 9.1315330526025 14.761860584894002 0 0 0 0
1722 1 10.957839663122499 15.816279198099998 1.8546666699349998 0 0 0
1725 3 12.7841462736435 14.761860584894002 0 0 0 0
1728 1 14.6104528841635 15.816279198099998 1.8546666699349998 0 0 0
1731 3 16.43675949468451 14.761860584894002 0 0 0 0
1734 1 18.2630661052045 15.816279198099998 1.8546666699349998 0 0 0
1737 3 20.089372715725503 14.761860584894002 0 0 0 0
1740 1 21.915679326245495 15.816279198099998 1.8546666699349998 0 0 0
1743 3 23.741985936766497 14.761860584894002 0 0 0 0
1746 1 25.568292547286504 15.816279198099998 1.8546666699349998 0 0 0
1749 3 27.394599157807505 14.761860584894002 0 0 0 0
1752 1 29.220905768327498 15.816279198099998 1.8546666699349998 0 0 0
1755 3 31.0472123788485 14.761860584894002 0 0 0 0
1758 1 32.873518989368506 15.816279198099998 1.8546666699349998 0 0 0
1761 3 34.69982559988951 14.761860584894002 0 0 0 0
1764 1 36.5261322104095 15.816279198099998 1.8546666699349998 0 0 0
1767 3 38.3524388209305 14.761860584894002 0 0 0 0
1770 1 40.17874543145051 15.816279198099998 1.8546666699349998 0 0 0
1773 3 42.005052041971496 14.761860584894002 0 0 0 0
1776 1 43.8313586524915 15.816279198099998 1.8546666699349998 0 0 0
1779 3 45.657665263012504 14.761860584894002 0 0 0 0
1782 1 47.4839718735325 15.816279198099998 1.8546666699349998 0 0 0
1623 3 49.3102784840535 14.761860584894002 0 -1 0 0
1626 1 51.1365850945735 15.816279198099998 1.8546666699349998 -1 0 0
1629 3 52.9628917050945 14.761860584894002 0 -1 0 0
1632 1 54.7891983156145 15.816279198099998 1.8546666699349998 -1 0 0
1635 3 56.6155049261355 14.761860584894002 0 -1 0 0
1638 1 58.4418115366555 15.816279198099998 1.8546666699349998 -1 0 0
1641 3 60.268118147176494 14.761860584894002 0 -1 0 0
1644 1 62.0944247576965 15.816279198099998 1.8546666699349998 -1 0 0
1647 3 63.920731368217496 14.761860584894002 0 -1 0 0
1650 1 65.7470379787375 15.816279198099998 1.8546666699349998 -1 0 0
1653 3 67.5733445892585 14.761860584894002 0 -1 0 0
1656 1 69.3996511997785 15.816279198099998 1.8546666699349998 -1 0 0
1659 3 71.22595781029949 14.761860584894002 0 -1 0 0
1665 3 74.8785710313405 14.761860584894002 0 -1 0 0
1662 1 73.0522644208195 15.816279198099998 1.8546666699349998 -1 0 0
1668 1 76.70487764186049 15.816279198099998 1.8546666699349998 -1 0 0
1671 3 78.5311842523815 14.761860584894002 0 -1 0 0
1674 1 80.3574908629015 15.816279198099998 1.8546666699349998 -1 0 0
1677 3 82.1837974734225 14.761860584894002 0 -1 0 0
1680 1 84.01010408394251 15.816279198099998 1.8546666699349998 -1 0 0
1683 3 85.8364106944635 14.761860584894002 0 -1 0 0
1686 1 87.66271730498349 15.816279198099998 1.8546666699349998 -1 0 0
1689 3 89.4890239155045 14.761860584894002 0 -1 0 0
1692 1 91.3153305260245 15.816279198099998 1.8546666699349998 -1 0 0
1695 3 93.1416371365455 14.761860584894002 0 -1 0 0
1698 1 94.9679437470655 15.816279198099998 1.8546666699349998 -1 0 0
1701 3 96.79425035758649 14.761860584894002 0 -1 0 0
1704 1 98.6205569681065 15.816279198099998 1.8546666699349998 -1 0 0
1871 1 1.8263066105205041 18.979535037720005 1.8546666699349998 0 0 0
1708 3 3.652613221040504 17.925116424513995 0 0 0 0
1877 1 5.478919831561505 18.979535037720005 1.8546666699349998 0 0 0
1714 3 7.305226442081505 17.925116424513995 0 0 0 0
1883 1 9.1315330526025 18.979535037720005 1.8546666699349998 0 0 0
1720 3 10.957839663122499 17.925116424513995 0 0 0 0
1889 1 12.7841462736435 18.979535037720005 1.8546666699349998 0 0 0
1726 3 14.6104528841635 17.925116424513995 0 0 0 0
1895 1 16.43675949468451 18.979535037720005 1.8546666699349998 0 0 0
1732 3 18.2630661052045 17.925116424513995 0 0 0 0
1901 1 20.089372715725503 18.979535037720005 1.8546666699349998 0 0 0
1738 3 21.915679326245495 17.925116424513995 0 0 0 0
1744 3 25.568292547286504 17.925116424513995 0 0 0 0
1907 1 23.741985936766497 18.979535037720005 1.8546666699349998 0 0 0
1913 1 27.394599157807505 18.979535037720005 1.8546666699349998 0 0 0
1750 3 29.220905768327498 17.925116424513995 0 0 0 0
1919 1 31.0472123788485 18.979535037720005 1.8546666699349998 0 0 0
1756 3 32.873518989368506 17.925116424513995 0 0 0 0
1925 1 34.69982559988951 18.979535037720005 1.8546666699349998 0 0 0
1762 3 36.5261322104095 17.925116424513995 0 0 0 0
1931 1 38.3524388209305 18.979535037720005 1.8546666699349998 0 0 0
1768 3 40.17874543145051 17.925116424513995 0 0 0 0
1937 1 42.005052041971496 18.979535037720005 1.8546666699349998 0 0 0
1774 3 43.8313586524915 17.925116424513995 0 0 0 0
1943 1 45.657665263012504 18.979535037720005 1.8546666699349998 0 0 0
1780 3 47.4839718735325 17.925116424513995 0 0 0 0
1624 3 51.1365850945735 17.925116424513995 0 -1 0 0
1787 1 49.3102784840535 18.979535037720005 1.8546666699349998 -1 0 0
1793 1 52.9628917050945 18.979535037720005 1.8546666699349998 -1 0 0
1630 3 54.7891983156145 17.925116424513995 0 -1 0 0
1799 1 56.6155049261355 18.979535037720005 1.8546666699349998 -1 0 0
1636 3 58.4418115366555 17.925116424513995 0 -1 0 0
1805 1 60.268118147176494 18.979535037720005 1.8546666699349998 -1 0 0
1642 3 62.0944247576965 17.925116424513995 0 -1 0 0
1811 1 63.920731368217496 18.979535037720005 1.8546666699349998 -1 0 0
1648 3 65.7470379787375 17.925116424513995 0 -1 0 0
1817 1 67.5733445892585 18.979535037720005 1.8546666699349998 -1 0 0
1654 3 69.3996511997785 17.925116424513995 0 -1 0 0
1823 1 71.22595781029949 18.979535037720005 1.8546666699349998 -1 0 0
1660 3 73.0522644208195 17.925116424513995 0 -1 0 0
1829 1 74.8785710313405 18.979535037720005 1.8546666699349998 -1 0 0
1666 3 76.70487764186049 17.925116424513995 0 -1 0 0
1835 1 78.5311842523815 18.979535037720005 1.8546666699349998 -1 0 0
1672 3 80.3574908629015 17.925116424513995 0 -1 0 0
1841 1 82.1837974734225 18.979535037720005 1.8546666699349998 -1 0 0
1678 3 84.01010408394251 17.925116424513995 0 -1 0 0
1847 1 85.8364106944635 18.979535037720005 1.8546666699349998 -1 0 0
1684 3 87.66271730498349 17.925116424513995 0 -1 0 0
1853 1 89.4890239155045 18.979535037720005 1.8546666699349998 -1 0 0
1690 3 91.3153305260245 17.925116424513995 0 -1 0 0
1859 1 93.1416371365455 18.979535037720005 1.8546666699349998 -1 0 0
1696 3 94.9679437470655 17.925116424513995 0 -1 0 0
1702 3 98.6205569681065 17.925116424513995 0 -1 0 0
1865 1 96.79425035758649 18.979535037720005 1.8546666699349998 -1 0 0
1869 3 1.8263066105205041 21.088372264134 0 0 0 0
1875 3 5.478919831561505 21.088372264134 0 0 0 0
1881 3 9.1315330526025 21.088372264134 0 0 0 0
1887 3 12.7841462736435 21.088372264134 0 0 0 0
1893 3 16.43675949468451 21.088372264134 0 0 0 0
1899 3 20.089372715725503 21.088372264134 0 0 0 0
1905 3 23.741985936766497 21.088372264134 0 0 0 0
1911 3 27.394599157807505 21.088372264134 0 0 0 0
1917 3 31.0472123788485 21.088372264134 0 0 0 0
1923 3 34.69982559988951 21.088372264134 0 0 0 0
1929 3 38.3524388209305 21.088372264134 0 0 0 0
1935 3 42.005052041971496 21.088372264134 0 0 0 0
1941 3 45.657665263012504 21.088372264134 0 0 0 0
1785 3 49.3102784840535 21.088372264134 0 -1 0 0
1791 3 52.9628917050945 21.088372264134 0 -1 0 0
1797 3 56.6155049261355 21.088372264134 0 -1 0 0
1803 3 60.268118147176494 21.088372264134 0 -1 0 0
1809 3 63.920731368217496 21.088372264134 0 -1 0 0
1815 3 67.5733445892585 21.088372264134 0 -1 0 0
1821 3 71.22595781029949 21.088372264134 0 -1 0 0
1827 3 74.8785710313405 21.088372264134 0 -1 0 0
1833 3 78.5311842523815 21.088372264134 0 -1 0 0
1839 3 82.1837974734225 21.088372264134 0 -1 0 0
1845 3 85.8364106944635 21.088372264134 0 -1 0 0
1851 3 89.4890239155045 21.088372264134 0 -1 0 0
1857 3 93.1416371365455 21.088372264134 0 -1 0 0
1863 3 96.79425035758649 21.088372264134 0 -1 0 0
1872 1 3.652613221040504 22.142790877339998 1.8546666699349998 0 0 0
1878 1 7.305226442081505 22.142790877339998 1.8546666699349998 0 0 0
1884 1 10.957839663122499 22.142790877339998 1.8546666699349998 0 0 0
1890 1 14.6104528841635 22.142790877339998 1.8546666699349998 0 0 0
1896 1 18.2630661052045 22.142790877339998 1.8546666699349998 0 0 0
1902 1 21.915679326245495 22.142790877339998 1.8546666699349998 0 0 0
1908 1 25.568292547286504 22.142790877339998 1.8546666699349998 0 0 0
1914 1 29.220905768327498 22.142790877339998 1.8546666699349998 0 0 0
1920 1 32.873518989368506 22.142790877339998 1.8546666699349998 0 0 0
1926 1 36.5261322104095 22.142790877339998 1.8546666699349998 0 0 0
1932 1 40.17874543145051 22.142790877339998 1.8546666699349998 0 0 0
1938 1 43.8313586524915 22.142790877339998 1.8546666699349998 0 0 0
1944 1 47.4839718735325 22.142790877339998 1.8546666699349998 0 0 0
1788 1 51.1365850945735 22.142790877339998 1.8546666699349998 -1 0 0
1794 1 54.7891983156145 22.142790877339998 1.8546666699349998 -1 0 0
1800 1 58.4418115366555 22.142790877339998 1.8546666699349998 -1 0 0
1806 1 62.0944247576965 22.142790877339998 1.8546666699349998 -1 0 0
1812 1 65.7470379787375 22.142790877339998 1.8546666699349998 -1 0 0
1818 1 69.3996511997785 22.142790877339998 1.8546666699349998 -1 0 0
1824 1 73.0522644208195 22.142790877339998 1.8546666699349998 -1 0 0
1830 1 76.70487764186049 22.142790877339998 1.8546666699349998 -1 0 0
1836 1 80.3574908629015 22.142790877339998 1.8546666699349998 -1 0 0
1842 1 84.01010408394251 22.142790877339998 1.8546666699349998 -1 0 0
1848 1 87.66271730498349 22.142790877339998 1.8546666699349998 -1 0 0
1854 1 91.3153305260245 22.142790877339998 1.8546666699349998 -1 0 0
1860 1 94.9679437470655 22.142790877339998 1.8546666699349998 -1 0 0
1866 1 98.6205569681065 22.142790877339998 1.8546666699349998 -1 0 0
2033 1 1.8263066105205041 25.306046716960005 1.8546666699349998 0 0 0
1870 3 3.652613221040504 24.251628103753994 0 0 0 0
2039 1 5.478919831561505 25.306046716960005 1.8546666699349998 0 0 0
1876 3 7.305226442081505 24.251628103753994 0 0 0 0
2045 1 9.1315330526025 25.306046716960005 1.8546666699349998 0 0 0
1882 3 10.957839663122499 24.251628103753994 0 0 0 0
2051 1 12.7841462736435 25.306046716960005 1.8546666699349998 0 0 0
1888 3 14.6104528841635 24.251628103753994 0 0 0 0
2057 1 16.43675949468451 25.306046716960005 1.8546666699349998 0 0 0
1894 3 18.2630661052045 24.251628103753994 0 0 0 0
2063 1 20.089372715725503 25.306046716960005 1.8546666699349998 0 0 0
1900 3 21.915679326245495 24.251628103753994 0 0 0 0
1906 3 25.568292547286504 24.251628103753994 0 0 0 0
2069 1 23.741985936766497 25.306046716960005 1.8546666699349998 0 0 0
2075 1 27.394599157807505 25.306046716960005 1.8546666699349998 0 0 0
1912 3 29.220905768327498 24.251628103753994 0 0 0 0
2081 1 31.0472123788485 25.306046716960005 1.8546666699349998 0 0 0
1918 3 32.873518989368506 24.251628103753994 0 0 0 0
2087 1 34.69982559988951 25.306046716960005 1.8546666699349998 0 0 0
1924 3 36.5261322104095 24.251628103753994 0 0 0 0
2093 1 38.3524388209305 25.306046716960005 1.8546666699349998 0 0 0
1930 3 40.17874543145051 24.251628103753994 0 0 0 0
2099 1 42.005052041971496 25.306046716960005 1.8546666699349998 0 0 0
1936 3 43.8313586524915 24.251628103753994 0 0 0 0
2105 1 45.657665263012504 25.306046716960005 1.8546666699349998 0 0 0
1942 3 47.4839718735325 24.251628103753994 0 0 0 0
1786 3 51.1365850945735 24.251628103753994 0 -1 0 0
1949 1 49.3102784840535 25.306046716960005 1.8546666699349998 -1 0 0
1955 1 52.9628917050945 25.306046716960005 1.8546666699349998 -1 0 0
1792 3 54.7891983156145 24.251628103753994 0 -1 0 0
1961 1 56.6155049261355 25.306046716960005 1.8546666699349998 -1 0 0
1798 3 58.4418115366555 24.251628103753994 0 -1 0 0
1967 1 60.268118147176494 25.306046716960005 1.8546666699349998 -1 0 0
1804 3 62.0944247576965 24.251628103753994 0 -1 0 0
1973 1 63.920731368217496 25.306046716960005 1.8546666699349998 -1 0 0
1810 3 65.7470379787375 24.251628103753994 0 -1 0 0
1979 1 67.5733445892585 25.306046716960005 1.8546666699349998 -1 0 0
1816 3 69.3996511997785 24.251628103753994 0 -1 0 0
1985 1 71.22595781029949 25.306046716960005 1.8546666699349998 -1 0 0
1822 3 73.0522644208195 24.251628103753994 0 -1 0 0
1991 1 74.8785710313405 25.306046716960005 1.8546666699349998 -1 0 0
1828 3 76.70487764186049 24.251628103753994 0 -1 0 0
1997 1 78.5311842523815 25.306046716960005 1.8546666699349998 -1 0 0
1834 3 80.3574908629015 24.251628103753994 0 -1 0 0
2003 1 82.1837974734225 25.306046716960005 1.8546666699349998 -1 0 0
1840 3 84.01010408394251 24.251628103753994 0 -1 0 0
2009 1 85.8364106944635 25.306046716960005 1.8546666699349998 -1 0 0
1846 3 87.66271730498349 24.251628103753994 0 -1 0 0
2015 1 89.4890239155045 25.306046716960005 1.8546666699349998 -1 0 0
1852 3 91.3153305260245 24.251628103753994 0 -1 0 0
2021 1 93.1416371365455 25.306046716960005 1.8546666699349998 -1 0 0
1858 3 94.9679437470655 24.251628103753994 0 -1 0 0
1864 3 98.6205569681065 24.251628103753994 0 -1 0 0
2027 1 96.79425035758649 25.306046716960005 1.8546666699349998 -1 0 0
2031 3 1.8263066105205041 27.414883943374 0 0 0 0
2037 3 5.478919831561505 27.414883943374 0 0 0 0
2043 3 9.1315330526025 27.414883943374 0 0 0 0
2049 3 12.7841462736435 27.414883943374 0 0 0 0
2055 3 16.43675949468451 27.414883943374 0 0 0 0
2061 3 20.089372715725503 27.414883943374 0 0 0 0
2067 3 23.741985936766497 27.414883943374 0 0 0 0
2073 3 27.394599157807505 27.414883943374 0 0 0 0
2079 3 31.0472123788485 27.414883943374 0 0 0 0
2085 3 34.69982559988951 27.414883943374 0 0 0 0
2091 3 38.3524388209305 27.414883943374 0 0 0 0
2097 3 42.005052041971496 27.414883943374 0 0 0 0
2103 3 45.657665263012504 27.414883943374 0 0 0 0
1947 3 49.3102784840535 27.414883943374 0 -1 0 0
1953 3 52.9628917050945 27.414883943374 0 -1 0 0
1959 3 56.6155049261355 27.414883943374 0 -1 0 0
1965 3 60.268118147176494 27.414883943374 0 -1 0 0
1971 3 63.920731368217496 27.414883943374 0 -1 0 0
1977 3 67.5733445892585 27.414883943374 0 -1 0 0
1983 3 71.22595781029949 27.414883943374 0 -1 0 0
1989 3 74.8785710313405 27.414883943374 0 -1 0 0
1995 3 78.5311842523815 27.414883943374 0 -1 0 0
2001 3 82.1837974734225 27.414883943374 0 -1 0 0
2007 3 85.8364106944635 27.414883943374 0 -1 0 0
2013 3 89.4890239155045 27.414883943374 0 -1 0 0
2019 3 93.1416371365455 27.414883943374 0 -1 0 0
2025 3 96.79425035758649 27.414883943374 0 -1 0 0
2034 1 3.652613221040504 28.469302556579997 1.8546666699349998 0 0 0
2040 1 7.305226442081505 28.469302556579997 1.8546666699349998 0 0 0
2046 1 10.957839663122499 28.469302556579997 1.8546666699349998 0 0 0
2052 1 14.6104528841635 28.469302556579997 1.8546666699349998 0 0 0
2058 1 18.2630661052045 28.469302556579997 1.8546666699349998 0 0 0
2064 1 21.915679326245495 28.469302556579997 1.8546666699349998 0 0 0
2070 1 25.568292547286504 28.469302556579997 1.8546666699349998 0 0 0
2076 1 29.220905768327498 28.469302556579997 1.8546666699349998 0 0 0
2082 1 32.873518989368506 28.469302556579997 1.8546666699349998 0 0 0
2088 1 36.5261322104095 28.469302556579997 1.8546666699349998 0 0 0
2094 1 40.17874543145051 28.469302556579997 1.8546666699349998 0 0 0
2100 1 43.8313586524915 28.469302556579997 1.8546666699349998 0 0 0
2106 1 47.4839718735325 28.469302556579997 1.8546666699349998 0 0 0
1950 1 51.1365850945735 28.469302556579997 1.8546666699349998 -1 0 0