LAMMPS data file via write_data, version 29 Aug 2024, timestep = 2, units = metal

5184 atoms
6 atom types

0 98.620556968107 xlo xhi
0 101.22418686784 ylo yhi
-50 50 zlo zhi

Masses

1 92.90637
2 92.90637
3 127.6
4 127.6
5 127.6
6 127.6

Atoms # atomic

1383 4 1.8263128044365804 2.108838274249106 0.004719407163131695 0 0 0
1386 1 3.652404344392897 3.163041999460678 1.8533123465847035 0 0 0
1389 4 5.478926025477581 2.108838274249106 0.0047194071631322 0 0 0
1384 4 3.652619414956896 5.272094113869106 0.004719407163132398 0 0 0
1378 4 6.193915893959456e-06 5.272094113869107 0.004719407163133205 0 0 0
1392 1 7.3050175654338965 3.1630419994606784 1.8533123465847037 0 0 0
1395 4 9.131539246518576 2.108838274249106 0.004719407163131887 0 0 0
1398 1 10.957630786474894 3.163041999460678 1.8533123465847037 0 0 0
1390 4 7.305232635997896 5.272094113869106 0.004719407163132493 0 0 0
1396 4 10.957845857038892 5.272094113869106 0.004719407163132718 0 0 0
1401 4 12.784152467559577 2.108838274249106 0.004719407163131996 0 0 0
1404 1 14.610244007515895 3.163041999460678 1.8533123465847035 0 0 0
1407 4 16.43676568860058 2.108838274249106 0.0047194071631319785 0 0 0
1402 4 14.610459078079893 5.272094113869107 0.004719407163132759 0 0 0
1410 1 18.262857228556896 3.163041999460678 1.8533123465847037 0 0 0
1413 4 20.089378909641578 2.108838274249106 0.004719407163132169 0 0 0
1416 1 21.915470449597894 3.163041999460678 1.8533123465847035 0 0 0
1408 4 18.263072299120896 5.272094113869106 0.004719407163132471 0 0 0
1414 4 21.91568552016189 5.272094113869106 0.004719407163132067 0 0 0
1419 4 23.741992130682576 2.1088382742491065 0.004719407163132227 0 0 0
1422 1 25.568083670638895 3.1630419994606784 1.8533123465847037 0 0 0
1425 4 27.394605351723577 2.1088382742491056 0.004719407163132034 0 0 0
1420 4 25.568298741202895 5.272094113869107 0.004719407163133009 0 0 0
1428 1 29.220696891679896 3.163041999460678 1.8533123465847032 0 0 0
1431 4 31.047218572764578 2.1088382742491065 0.004719407163132151 0 0 0
1434 1 32.873310112720894 3.163041999460678 1.8533123465847035 0 0 0
1437 4 34.699831793805586 2.1088382742491056 0.004719407163132057 0 0 0
1426 4 29.220911962243893 5.272094113869106 0.004719407163131963 0 0 0
1432 4 32.8735251832849 5.272094113869107 0.004719407163132782 0 0 0
1440 1 36.525923333761895 3.163041999460678 1.8533123465847035 0 0 0
1443 4 38.35244501484658 2.1088382742491065 0.004719407163132733 0 0 0
1446 1 40.178536554802896 3.163041999460678 1.8533123465847035 0 0 0
1438 4 36.52613840432589 5.272094113869106 0.0047194071631323255 0 0 0
1444 4 40.17875162536689 5.272094113869105 0.004719407163131668 0 0 0
1449 4 42.005058235887574 2.1088382742491056 0.004719407163131384 0 0 0
1452 1 43.83114977584389 3.163041999460678 1.8533123465847037 0 0 0
1455 4 45.65767145692858 2.1088382742491056 0.004719407163132074 0 0 0
1450 4 43.831364846407894 5.272094113869107 0.004719407163133342 0 0 0
1458 1 47.48376299688489 3.163041999460678 1.8533123465847035 0 0 0
1299 4 49.31028467796958 2.108838274249106 0.004719407163132247 -1 0 0
1302 1 51.13637621792589 3.163041999460678 1.8533123465847037 -1 0 0
1456 4 47.48397806744889 5.272094113869106 0.004719407163132586 0 0 0
1300 4 51.13659128848989 5.272094113869106 0.004719407163132433 -1 0 0
1305 4 52.96289789901058 2.108838274249106 0.004719407163132045 -1 0 0
1308 1 54.788989438966894 3.163041999460678 1.8533123465847037 -1 0 0
1311 4 56.61551112005158 2.108838274249106 0.004719407163131856 -1 0 0
1306 4 54.78920450953089 5.272094113869106 0.004719407163132521 -1 0 0
1314 1 58.44160266000789 3.163041999460678 1.8533123465847037 -1 0 0
1317 4 60.26812434109257 2.108838274249106 0.004719407163132342 -1 0 0
1320 1 62.09421588104889 3.163041999460678 1.8533123465847037 -1 0 0
1312 4 58.44181773057189 5.272094113869105 0.0047194071631318155 -1 0 0
1318 4 62.094430951612885 5.272094113869106 0.004719407163132539 -1 0 0
1323 4 63.920737562133574 2.1088382742491056 0.004719407163131807 -1 0 0
1326 1 65.74682910208989 3.163041999460678 1.853312346584704 -1 0 0
1329 4 67.57335078317458 2.1088382742491065 0.004719407163132121 -1 0 0
1332 1 69.39944232313088 3.163041999460678 1.8533123465847037 -1 0 0
1324 4 65.74704417265389 5.272094113869106 0.004719407163132515 -1 0 0
1330 4 69.3996573936949 5.272094113869105 0.004719407163132094 -1 0 0
1335 4 71.22596400421557 2.1088382742491056 0.004719407163132515 -1 0 0
1341 4 74.87857722525658 2.1088382742491056 0.0047194071631315145 -1 0 0
1338 1 73.05205554417189 3.163041999460678 1.8533123465847026 -1 0 0
1336 4 73.05227061473589 5.272094113869107 0.004719407163133814 -1 0 0
1344 1 76.70466876521289 3.1630419994606784 1.8533123465847043 -1 0 0
1347 4 78.53119044629757 2.1088382742491065 0.00471940716313258 -1 0 0
1350 1 80.3572819862539 3.163041999460678 1.8533123465847028 -1 0 0
1342 4 76.70488383577688 5.272094113869105 0.004719407163131612 -1 0 0
1348 4 80.35749705681789 5.272094113869106 0.004719407163132591 -1 0 0
1353 4 82.18380366733858 2.1088382742491065 0.004719407163132046 -1 0 0
1356 1 84.00989520729489 3.1630419994606784 1.8533123465847043 -1 0 0
1359 4 85.83641688837957 2.1088382742491047 0.004719407163131195 -1 0 0
1354 4 84.0101102778589 5.272094113869106 0.004719407163132502 -1 0 0
1362 1 87.66250842833588 3.163041999460678 1.8533123465847028 -1 0 0
1365 4 89.48903010942058 2.1088382742491065 0.004719407163132574 -1 0 0
1368 1 91.31512164937689 3.1630419994606784 1.8533123465847043 -1 0 0
1360 4 87.66272349889988 5.272094113869107 0.004719407163132764 -1 0 0
1366 4 91.31533671994089 5.272094113869106 0.004719407163132142 -1 0 0
1371 4 93.14164333046158 2.1088382742491065 0.004719407163132441 -1 0 0
1374 1 94.96773487041789 3.163041999460678 1.8533123465847035 -1 0 0
1377 4 96.79425655150257 2.1088382742491056 0.0047194071631323645 -1 0 0
1380 1 98.6203480914589 3.163041999460678 1.8533123465847028 -1 0 0
1372 4 94.9679499409819 5.272094113869105 0.004719407163131922 -1 0 0
1547 1 1.8260977338725044 6.326297839080678 1.8533123465847035 0 0 0
1553 1 5.478710954913504 6.326297839080678 1.8533123465847037 0 0 0
1545 4 1.8263128044365804 8.435349953489105 0.004719407163132019 0 0 0
1548 1 3.652404344392897 9.489553678700677 1.8533123465847037 0 0 0
1551 4 5.478926025477581 8.435349953489105 0.004719407163132669 0 0 0
1546 4 3.652619414956896 11.598605793109105 0.004719407163131977 0 0 0
1540 4 6.193915893959456e-06 11.598605793109106 0.004719407163132843 0 0 0
1559 1 9.131324175954502 6.326297839080678 1.8533123465847043 0 0 0
1554 1 7.3050175654338965 9.489553678700677 1.8533123465847037 0 0 0
1557 4 9.131539246518576 8.435349953489105 0.0047194071631323714 0 0 0
1560 1 10.957630786474894 9.489553678700677 1.853312346584704 0 0 0
1552 4 7.305232635997896 11.598605793109105 0.004719407163132058 0 0 0
1558 4 10.957845857038892 11.598605793109105 0.004719407163132467 0 0 0
1565 1 12.783937396995503 6.326297839080678 1.853312346584704 0 0 0
1571 1 16.436550618036506 6.326297839080678 1.8533123465847035 0 0 0
1563 4 12.784152467559577 8.435349953489105 0.004719407163132385 0 0 0
1566 1 14.610244007515895 9.489553678700677 1.8533123465847037 0 0 0
1569 4 16.43676568860058 8.435349953489105 0.0047194071631323775 0 0 0
1564 4 14.610459078079893 11.598605793109105 0.004719407163132482 0 0 0
1577 1 20.089163839077504 6.326297839080678 1.8533123465847048 0 0 0
1572 1 18.262857228556896 9.489553678700677 1.853312346584704 0 0 0
1575 4 20.089378909641578 8.435349953489105 0.004719407163132542 0 0 0
1578 1 21.915470449597894 9.489553678700677 1.8533123465847037 0 0 0
1570 4 18.263072299120896 11.598605793109105 0.004719407163132047 0 0 0
1576 4 21.91568552016189 11.598605793109105 0.004719407163131688 0 0 0
1583 1 23.7417770601185 6.326297839080678 1.853312346584703 0 0 0
1589 1 27.394390281159506 6.326297839080678 1.8533123465847046 0 0 0
1581 4 23.741992130682576 8.435349953489105 0.0047194071631325935 0 0 0
1584 1 25.568083670638895 9.489553678700677 1.853312346584704 0 0 0
1587 4 27.39460535172358 8.435349953489105 0.004719407163132439 0 0 0
1582 4 25.568298741202895 11.598605793109105 0.004719407163132636 0 0 0
1595 1 31.047003502200504 6.326297839080677 1.8533123465847028 0 0 0
1601 1 34.699616723241505 6.326297839080678 1.853312346584705 0 0 0
1590 1 29.220696891679896 9.489553678700677 1.8533123465847035 0 0 0
1593 4 31.047218572764578 8.435349953489105 0.004719407163132508 0 0 0
1596 1 32.873310112720894 9.489553678700677 1.8533123465847037 0 0 0
1599 4 34.699831793805586 8.435349953489105 0.004719407163132482 0 0 0
1588 4 29.220911962243893 11.598605793109105 0.00471940716313159 0 0 0
1594 4 32.8735251832849 11.598605793109105 0.0047194071631324564 0 0 0
1607 1 38.352229944282506 6.326297839080678 1.853312346584703 0 0 0
1602 1 36.525923333761895 9.489553678700677 1.8533123465847037 0 0 0
1605 4 38.35244501484658 8.435349953489105 0.0047194071631330315 0 0 0
1608 1 40.178536554802896 9.489553678700677 1.8533123465847037 0 0 0
1600 4 36.52613840432589 11.598605793109105 0.004719407163131951 0 0 0
1606 4 40.17875162536689 11.598605793109105 0.004719407163131233 0 0 0
1613 1 42.0048431653235 6.326297839080678 1.8533123465847035 0 0 0
1619 1 45.6574563863645 6.326297839080678 1.853312346584705 0 0 0
1611 4 42.005058235887574 8.435349953489105 0.0047194071631317955 0 0 0
1614 1 43.83114977584389 9.489553678700677 1.8533123465847037 0 0 0
1617 4 45.65767145692858 8.435349953489105 0.004719407163132487 0 0 0
1612 4 43.831364846407894 11.598605793109106 0.004719407163132976 0 0 0
1463 1 49.3100696074055 6.326297839080677 1.8533123465847032 -1 0 0
1620 1 47.48376299688489 9.489553678700677 1.8533123465847037 0 0 0
1461 4 49.31028467796958 8.435349953489105 0.0047194071631326395 -1 0 0
1464 1 51.13637621792589 9.489553678700677 1.8533123465847037 -1 0 0
1618 4 47.48397806744889 11.598605793109105 0.004719407163132208 0 0 0
1462 4 51.13659128848989 11.598605793109105 0.004719407163132063 -1 0 0
1469 1 52.9626828284465 6.326297839080678 1.853312346584704 -1 0 0
1475 1 56.615296049487505 6.326297839080678 1.853312346584704 -1 0 0
1467 4 52.96289789901058 8.435349953489105 0.004719407163132512 -1 0 0
1470 1 54.788989438966894 9.489553678700677 1.8533123465847037 -1 0 0
1473 4 56.61551112005158 8.435349953489105 0.004719407163132364 -1 0 0
1468 4 54.78920450953089 11.598605793109105 0.004719407163132166 -1 0 0
1481 1 60.2679092705285 6.326297839080678 1.8533123465847037 -1 0 0
1476 1 58.44160266000789 9.489553678700677 1.8533123465847037 -1 0 0
1479 4 60.26812434109257 8.435349953489105 0.0047194071631326585 -1 0 0
1482 1 62.09421588104889 9.489553678700677 1.8533123465847037 -1 0 0
1474 4 58.44181773057189 11.598605793109105 0.004719407163131479 -1 0 0
1480 4 62.094430951612885 11.598605793109105 0.004719407163132293 -1 0 0
1487 1 63.9205224915695 6.326297839080678 1.853312346584704 -1 0 0
1493 1 67.5731357126105 6.326297839080677 1.853312346584703 -1 0 0
1485 4 63.920737562133574 8.435349953489105 0.0047194071631321485 -1 0 0
1488 1 65.74682910208989 9.489553678700677 1.8533123465847041 -1 0 0
1491 4 67.57335078317458 8.435349953489105 0.004719407163132562 -1 0 0
1494 1 69.39944232313088 9.489553678700677 1.8533123465847037 -1 0 0
1486 4 65.74704417265389 11.598605793109105 0.00471940716313208 -1 0 0
1492 4 69.3996573936949 11.598605793109105 0.004719407163131755 -1 0 0
1499 1 71.2257489336515 6.326297839080678 1.853312346584705 -1 0 0
1505 1 74.8783621546925 6.326297839080678 1.8533123465847037 -1 0 0
1497 4 71.22596400421557 8.435349953489105 0.0047194071631328285 -1 0 0
1503 4 74.87857722525658 8.435349953489105 0.00471940716313188 -1 0 0
1500 1 73.05205554417189 9.489553678700677 1.8533123465847028 -1 0 0
1498 4 73.05227061473589 11.598605793109106 0.0047194071631335545 -1 0 0
1511 1 78.5309753757335 6.326297839080678 1.8533123465847035 -1 0 0
1506 1 76.70466876521289 9.489553678700677 1.8533123465847046 -1 0 0
1509 4 78.53119044629757 8.435349953489105 0.004719407163132973 -1 0 0
1512 1 80.3572819862539 9.489553678700677 1.8533123465847028 -1 0 0
1504 4 76.70488383577688 11.598605793109105 0.004719407163131258 -1 0 0
1510 4 80.35749705681789 11.598605793109105 0.004719407163132325 -1 0 0
1517 1 82.1835885967745 6.326297839080677 1.853312346584703 -1 0 0
1523 1 85.83620181781549 6.326297839080679 1.853312346584705 -1 0 0
1515 4 82.18380366733858 8.435349953489105 0.004719407163132336 -1 0 0
1518 1 84.00989520729489 9.489553678700677 1.8533123465847046 -1 0 0
1521 4 85.83641688837957 8.435349953489105 0.00471940716313151 -1 0 0
1516 4 84.0101102778589 11.598605793109105 0.004719407163132162 -1 0 0
1529 1 89.4888150388565 6.326297839080678 1.8533123465847035 -1 0 0
1524 1 87.66250842833588 9.489553678700677 1.853312346584703 -1 0 0
1527 4 89.48903010942058 8.435349953489105 0.004719407163132945 -1 0 0
1530 1 91.31512164937689 9.489553678700677 1.8533123465847046 -1 0 0
1522 4 87.66272349889988 11.598605793109106 0.004719407163132435 -1 0 0
1528 4 91.31533671994089 11.598605793109105 0.004719407163131716 -1 0 0
1535 1 93.1414282598975 6.326297839080677 1.853312346584703 -1 0 0
1541 1 96.7940414809385 6.326297839080678 1.8533123465847046 -1 0 0
1533 4 93.14164333046158 8.435349953489105 0.0047194071631327765 -1 0 0
1536 1 94.96773487041789 9.489553678700677 1.8533123465847037 -1 0 0
1539 4 96.79425655150257 8.435349953489105 0.004719407163132726 -1 0 0
1542 1 98.6203480914589 9.489553678700677 1.853312346584703 -1 0 0
1534 4 94.9679499409819 11.598605793109105 0.004719407163131614 -1 0 0
1709 1 1.8260977338725044 12.652809518320678 1.853312346584703 0 0 0
1715 1 5.478710954913504 12.652809518320678 1.8533123465847032 0 0 0
1707 4 1.8263128044365802 14.76186163272911 0.004719407163132422 0 0 0
1710 1 3.6524043443928975 15.81606535794068 1.8533123465847043 0 0 0
1713 4 5.478926025477581 14.76186163272911 0.004719407163132937 0 0 0
1721 1 9.131324175954502 12.652809518320678 1.853312346584704 0 0 0
1716 1 7.3050175654338965 15.81606535794068 1.8533123465847043 0 0 0
1719 4 9.131539246518576 14.761861632729108 0.004719407163132714 0 0 0
1722 1 10.957630786474894 15.81606535794068 1.8533123465847046 0 0 0
1727 1 12.783937396995503 12.652809518320678 1.8533123465847032 0 0 0
1733 1 16.436550618036506 12.652809518320678 1.8533123465847028 0 0 0
1725 4 12.784152467559576 14.76186163272911 0.00471940716313271 0 0 0
1728 1 14.610244007515895 15.81606535794068 1.8533123465847041 0 0 0
1731 4 16.43676568860058 14.76186163272911 0.004719407163132747 0 0 0
1739 1 20.089163839077504 12.652809518320678 1.8533123465847041 0 0 0
1734 1 18.262857228556896 15.81606535794068 1.8533123465847048 0 0 0
1737 4 20.089378909641578 14.76186163272911 0.004719407163133059 0 0 0
1740 1 21.915470449597894 15.81606535794068 1.8533123465847043 0 0 0
1745 1 23.7417770601185 12.652809518320678 1.8533123465847023 0 0 0
1751 1 27.394390281159506 12.652809518320678 1.8533123465847041 0 0 0
1743 4 23.741992130682576 14.76186163272911 0.004719407163133114 0 0 0
1746 1 25.568083670638895 15.81606535794068 1.8533123465847043 0 0 0
1749 4 27.39460535172358 14.761861632729108 0.004719407163132809 0 0 0
1757 1 31.047003502200504 12.652809518320678 1.8533123465847023 0 0 0
1763 1 34.699616723241505 12.652809518320678 1.8533123465847043 0 0 0
1752 1 29.220696891679896 15.81606535794068 1.8533123465847046 0 0 0
1755 4 31.047218572764578 14.76186163272911 0.004719407163133043 0 0 0
1758 1 32.873310112720894 15.81606535794068 1.8533123465847043 0 0 0
1761 4 34.699831793805586 14.761861632729108 0.004719407163132826 0 0 0
1769 1 38.352229944282506 12.652809518320678 1.8533123465847026 0 0 0
1764 1 36.525923333761895 15.81606535794068 1.8533123465847043 0 0 0
1767 4 38.35244501484658 14.76186163272911 0.004719407163133554 0 0 0
1770 1 40.178536554802896 15.81606535794068 1.8533123465847046 0 0 0
1775 1 42.0048431653235 12.652809518320678 1.853312346584703 0 0 0
1781 1 45.6574563863645 12.652809518320678 1.8533123465847046 0 0 0
1773 4 42.005058235887574 14.761861632729108 0.0047194071631322075 0 0 0
1776 1 43.83114977584389 15.81606535794068 1.8533123465847043 0 0 0
1779 4 45.65767145692858 14.761861632729108 0.004719407163132867 0 0 0
1625 1 49.3100696074055 12.652809518320678 1.8533123465847026 -1 0 0
1782 1 47.48376299688489 15.81606535794068 1.8533123465847046 0 0 0
1623 4 49.31028467796958 14.76186163272911 0.004719407163132946 -1 0 0
1626 1 51.13637621792589 15.81606535794068 1.8533123465847043 -1 0 0
1631 1 52.9626828284465 12.652809518320678 1.8533123465847032 -1 0 0
1637 1 56.615296049487505 12.652809518320678 1.8533123465847032 -1 0 0
1629 4 52.96289789901058 14.76186163272911 0.004719407163132897 -1 0 0
1632 1 54.788989438966894 15.81606535794068 1.8533123465847043 -1 0 0
1635 4 56.61551112005158 14.76186163272911 0.004719407163132678 -1 0 0
1643 1 60.2679092705285 12.652809518320678 1.853312346584703 -1 0 0
1638 1 58.44160266000789 15.81606535794068 1.8533123465847048 -1 0 0
1641 4 60.26812434109257 14.76186163272911 0.004719407163133049 -1 0 0
1644 1 62.09421588104889 15.81606535794068 1.8533123465847046 -1 0 0
1649 1 63.9205224915695 12.652809518320678 1.8533123465847032 -1 0 0
1655 1 67.5731357126105 12.652809518320678 1.8533123465847026 -1 0 0
1647 4 63.920737562133574 14.761861632729108 0.004719407163132431 -1 0 0
1650 1 65.74682910208989 15.81606535794068 1.8533123465847048 -1 0 0
1653 4 67.57335078317458 14.76186163272911 0.004719407163133081 -1 0 0
1656 1 69.39944232313088 15.81606535794068 1.8533123465847043 -1 0 0
1661 1 71.2257489336515 12.652809518320678 1.8533123465847046 -1 0 0
1667 1 74.8783621546925 12.652809518320678 1.8533123465847032 -1 0 0
1659 4 71.22596400421557 14.761861632729108 0.004719407163133338 -1 0 0
1665 4 74.87857722525658 14.761861632729108 0.004719407163132285 -1 0 0
1662 1 73.05205554417189 15.81606535794068 1.8533123465847035 -1 0 0
1673 1 78.5309753757335 12.652809518320678 1.8533123465847026 -1 0 0
1668 1 76.70466876521289 15.81606535794068 1.8533123465847055 -1 0 0
1671 4 78.53119044629757 14.76186163272911 0.004719407163133459 -1 0 0
1674 1 80.3572819862539 15.81606535794068 1.8533123465847037 -1 0 0
1679 1 82.1835885967745 12.652809518320678 1.8533123465847026 -1 0 0
1685 1 85.83620181781549 12.652809518320678 1.8533123465847046 -1 0 0
1677 4 82.18380366733858 14.76186163272911 0.004719407163132793 -1 0 0
1680 1 84.00989520729489 15.81606535794068 1.853312346584705 -1 0 0
1683 4 85.83641688837957 14.761861632729108 0.004719407163131961 -1 0 0
1691 1 89.4888150388565 12.652809518320678 1.8533123465847028 -1 0 0
1686 1 87.66250842833588 15.81606535794068 1.8533123465847035 -1 0 0
1689 4 89.48903010942058 14.76186163272911 0.004719407163133366 -1 0 0
1692 1 91.31512164937689 15.81606535794068 1.8533123465847052 -1 0 0
1697 1 93.1414282598975 12.652809518320678 1.8533123465847026 -1 0 0
1703 1 96.7940414809385 12.652809518320678 1.8533123465847041 -1 0 0
1695 4 93.14164333046158 14.76186163272911 0.0047194071631331365 -1 0 0
1698 1 94.96773487041789 15.81606535794068 1.8533123465847046 -1 0 0
1701 4 96.79425655150257 14.761861632729108 0.004719407163133129 -1 0 0
1704 1 98.6203480914589 15.81606535794068 1.8533123465847037 -1 0 0
1871 1 1.8260977338725044 18.979321197560683 1.853312346584703 0 0 0
1708 4 3.652619414956896 17.925117472349108 0.004719407163132793 0 0 0
1877 1 5.478710954913504 18.979321197560683 1.853312346584703 0 0 0
1869 4 1.8263128044365802 21.08837331196911 0.00471940716313175 0 0 0
1875 4 5.478926025477581 21.08837331196911 0.00471940716313232 0 0 0
1872 1 3.6524043443928975 22.142577037180683 1.8533123465847041 0 0 0
1702 4 6.193915893959456e-06 17.925117472349108 0.004719407163133519 0 0 0
1714 4 7.305232635997896 17.925117472349104 0.004719407163132803 0 0 0
1883 1 9.131324175954502 18.979321197560683 1.8533123465847037 0 0 0
1720 4 10.957845857038892 17.925117472349108 0.0047194071631330966 0 0 0
1881 4 9.131539246518576 21.088373311969107 0.00471940716313202 0 0 0
1878 1 7.3050175654338965 22.14257703718068 1.8533123465847043 0 0 0
1884 1 10.957630786474894 22.14257703718068 1.8533123465847041 0 0 0
1889 1 12.783937396995503 18.979321197560683 1.8533123465847032 0 0 0
1726 4 14.610459078079893 17.925117472349108 0.004719407163133229 0 0 0
1895 1 16.436550618036506 18.97932119756068 1.8533123465847026 0 0 0
1887 4 12.784152467559576 21.08837331196911 0.004719407163132122 0 0 0
1893 4 16.43676568860058 21.08837331196911 0.004719407163131991 0 0 0
1890 1 14.610244007515895 22.14257703718068 1.8533123465847043 0 0 0
1732 4 18.263072299120896 17.925117472349104 0.004719407163132746 0 0 0
1901 1 20.089163839077504 18.979321197560683 1.853312346584704 0 0 0
1738 4 21.91568552016189 17.925117472349104 0.004719407163132467 0 0 0
1899 4 20.089378909641578 21.08837331196911 0.004719407163132212 0 0 0
1896 1 18.262857228556896 22.14257703718068 1.8533123465847046 0 0 0
1902 1 21.915470449597894 22.14257703718068 1.8533123465847043 0 0 0
1744 4 25.568298741202895 17.925117472349108 0.004719407163133462 0 0 0
1907 1 23.7417770601185 18.979321197560683 1.8533123465847023 0 0 0
1913 1 27.394390281159506 18.979321197560683 1.8533123465847041 0 0 0
1905 4 23.741992130682576 21.08837331196911 0.004719407163132275 0 0 0
1911 4 27.39460535172358 21.088373311969107 0.004719407163132024 0 0 0
1908 1 25.568083670638895 22.14257703718068 1.8533123465847041 0 0 0
1750 4 29.220911962243893 17.925117472349104 0.004719407163132358 0 0 0
1919 1 31.047003502200504 18.979321197560683 1.8533123465847021 0 0 0
1756 4 32.8735251832849 17.925117472349108 0.004719407163133222 0 0 0
1925 1 34.699616723241505 18.979321197560683 1.8533123465847046 0 0 0
1917 4 31.047218572764578 21.08837331196911 0.004719407163132216 0 0 0
1923 4 34.699831793805586 21.088373311969107 0.0047194071631320635 0 0 0
1914 1 29.220696891679896 22.14257703718068 1.8533123465847043 0 0 0
1920 1 32.873310112720894 22.142577037180683 1.8533123465847041 0 0 0
1762 4 36.52613840432589 17.925117472349104 0.004719407163132737 0 0 0
1931 1 38.352229944282506 18.97932119756068 1.8533123465847021 0 0 0
1768 4 40.17875162536689 17.925117472349104 0.004719407163132067 0 0 0
1929 4 38.35244501484658 21.08837331196911 0.00471940716313267 0 0 0
1926 1 36.525923333761895 22.14257703718068 1.8533123465847043 0 0 0
1932 1 40.178536554802896 22.14257703718068 1.8533123465847043 0 0 0
1937 1 42.0048431653235 18.97932119756068 1.853312346584703 0 0 0
1774 4 43.831364846407894 17.925117472349108 0.004719407163133768 0 0 0
1943 1 45.6574563863645 18.979321197560683 1.8533123465847046 0 0 0
1935 4 42.005058235887574 21.088373311969107 0.004719407163131422 0 0 0
1941 4 45.65767145692858 21.088373311969107 0.004719407163132096 0 0 0
1938 1 43.83114977584389 22.14257703718068 1.8533123465847041 0 0 0
1780 4 47.48397806744889 17.925117472349104 0.0047194071631329855 0 0 0
1624 4 51.13659128848989 17.925117472349108 0.004719407163132793 -1 0 0
1787 1 49.3100696074055 18.979321197560683 1.8533123465847026 -1 0 0
1785 4 49.31028467796958 21.08837331196911 0.004719407163132315 -1 0 0
1944 1 47.48376299688489 22.14257703718068 1.8533123465847043 0 0 0
1788 1 51.13637621792589 22.142577037180683 1.8533123465847041 -1 0 0
1793 1 52.9626828284465 18.979321197560683 1.8533123465847032 -1 0 0
1630 4 54.78920450953089 17.925117472349108 0.004719407163132952 -1 0 0
1799 1 56.615296049487505 18.979321197560683 1.853312346584703 -1 0 0
1791 4 52.96289789901058 21.08837331196911 0.0047194071631321876 -1 0 0
1797 4 56.61551112005158 21.08837331196911 0.00471940716313205 -1 0 0
1794 1 54.788989438966894 22.142577037180683 1.8533123465847041 -1 0 0
1636 4 58.44181773057189 17.925117472349104 0.00471940716313217 -1 0 0
1805 1 60.2679092705285 18.979321197560683 1.853312346584703 -1 0 0
1642 4 62.094430951612885 17.925117472349108 0.0047194071631330116 -1 0 0
1803 4 60.26812434109257 21.08837331196911 0.004719407163132419 -1 0 0
1800 1 58.44160266000789 22.14257703718068 1.8533123465847046 -1 0 0
1806 1 62.09421588104889 22.14257703718068 1.8533123465847041 -1 0 0
1811 1 63.9205224915695 18.979321197560683 1.8533123465847035 -1 0 0
1648 4 65.74704417265389 17.925117472349108 0.004719407163132857 -1 0 0
1817 1 67.5731357126105 18.979321197560683 1.8533123465847023 -1 0 0
1654 4 69.3996573936949 17.925117472349104 0.004719407163132513 -1 0 0
1809 4 63.920737562133574 21.088373311969107 0.004719407163131874 -1 0 0
1815 4 67.57335078317458 21.08837331196911 0.004719407163132268 -1 0 0
1812 1 65.74682910208989 22.142577037180683 1.8533123465847046 -1 0 0
1818 1 69.39944232313088 22.14257703718068 1.8533123465847043 -1 0 0
1823 1 71.2257489336515 18.979321197560683 1.8533123465847046 -1 0 0
1660 4 73.05227061473589 17.925117472349108 0.004719407163134225 -1 0 0
1829 1 74.8783621546925 18.97932119756068 1.8533123465847032 -1 0 0
1821 4 71.22596400421557 21.088373311969107 0.004719407163132524 -1 0 0
1827 4 74.87857722525658 21.088373311969107 0.00471940716313155 -1 0 0
1824 1 73.05205554417189 22.14257703718068 1.8533123465847032 -1 0 0
1666 4 76.70488383577688 17.925117472349104 0.004719407163132029 -1 0 0
1835 1 78.5309753757335 18.979321197560683 1.8533123465847028 -1 0 0
1672 4 80.35749705681789 17.925117472349108 0.0047194071631329985 -1 0 0
1833 4 78.53119044629757 21.08837331196911 0.004719407163132624 -1 0 0
1830 1 76.70466876521289 22.14257703718068 1.8533123465847052 -1 0 0
1836 1 80.3572819862539 22.14257703718068 1.8533123465847035 -1 0 0
1841 1 82.1835885967745 18.979321197560683 1.8533123465847023 -1 0 0
1678 4 84.0101102778589 17.925117472349108 0.004719407163132881 -1 0 0
1847 1 85.83620181781549 18.979321197560683 1.8533123465847046 -1 0 0
1839 4 82.18380366733858 21.08837331196911 0.004719407163132103 -1 0 0
1845 4 85.83641688837957 21.088373311969107 0.004719407163131293 -1 0 0
1842 1 84.00989520729489 22.142577037180683 1.853312346584705 -1 0 0
1684 4 87.66272349889988 17.925117472349108 0.004719407163133181 -1 0 0
1853 1 89.4888150388565 18.979321197560683 1.8533123465847026 -1 0 0
1690 4 91.31533671994089 17.925117472349104 0.004719407163132543 -1 0 0
1851 4 89.48903010942058 21.08837331196911 0.004719407163132624 -1 0 0
1848 1 87.66250842833588 22.14257703718068 1.8533123465847035 -1 0 0
1854 1 91.31512164937689 22.142577037180683 1.853312346584705 -1 0 0
1859 1 93.1414282598975 18.97932119756068 1.8533123465847021 -1 0 0
1696 4 94.9679499409819 17.925117472349104 0.00471940716313239 -1 0 0
1865 1 96.7940414809385 18.979321197560683 1.8533123465847041 -1 0 0
1857 4 93.14164333046158 21.08837331196911 0.004719407163132413 -1 0 0
1863 4 96.79425655150257 21.088373311969107 0.004719407163132347 -1 0 0
1860 1 94.96773487041789 22.14257703718068 1.8533123465847043 -1 0 0
1866 1 98.6203480914589 22.14257703718068 1.8533123465847035 -1 0 0
2033 1 1.8260977338725044 25.305832876800682 1.853312346584703 0 0 0
1870 4 3.652619414956896 24.251629151589107 0.004719407163132702 0 0 0
2039 1 5.478710954913504 25.305832876800682 1.853312346584703 0 0 0
2031 4 1.8263128044365802 27.41488499120911 0.00471940716313175 0 0 0
2037 4 5.478926025477581 27.41488499120911 0.00471940716313232 0 0 0
2034 1 3.6524043443928975 28.469088716420682 1.8533123465847041 0 0 0
1864 4 6.193915893959456e-06 24.251629151589107 0.004719407163133464 0 0 0
1876 4 7.305232635997896 24.251629151589103 0.004719407163132753 0 0 0
2045 1 9.131324175954502 25.305832876800682 1.853312346584704 0 0 0
1882 4 10.957845857038892 24.251629151589107 0.004719407163133041 0 0 0
2043 4 9.131539246518576 27.414884991209107 0.00471940716313202 0 0 0
2040 1 7.3050175654338965 28.46908871642068 1.8533123465847043 0 0 0
2046 1 10.957630786474894 28.46908871642068 1.8533123465847041 0 0 0
2051 1 12.783937396995503 25.305832876800682 1.8533123465847032 0 0 0
1888 4 14.610459078079893 24.251629151589107 0.004719407163133216 0 0 0
2057 1 16.436550618036506 25.305832876800682 1.8533123465847026 0 0 0
2049 4 12.784152467559576 27.41488499120911 0.004719407163132122 0 0 0
2055 4 16.43676568860058 27.41488499120911 0.004719407163131991 0 0 0
2052 1 14.610244007515895 28.46908871642068 1.8533123465847043 0 0 0
1894 4 18.263072299120896 24.251629151589103 0.004719407163132701 0 0 0
2063 1 20.089163839077504 25.305832876800682 1.853312346584704 0 0 0
1900 4 21.91568552016189 24.251629151589103 0.004719407163132426 0 0 0
2061 4 20.089378909641578 27.41488499120911 0.004719407163132212 0 0 0
2058 1 18.262857228556896 28.46908871642068 1.8533123465847046 0 0 0
2064 1 21.915470449597894 28.46908871642068 1.8533123465847043 0 0 0
1906 4 25.568298741202895 24.251629151589107 0.0047194071631334 0 0 0
2069 1 23.7417770601185 25.305832876800682 1.8533123465847023 0 0 0
2075 1 27.394390281159506 25.305832876800682 1.8533123465847041 0 0 0
2067 4 23.741992130682576 27.41488499120911 0.004719407163132275 0 0 0
2073 4 27.39460535172358 27.414884991209107 0.004719407163132024 0 0 0
2070 1 25.568083670638895 28.46908871642068 1.8533123465847041 0 0 0
1912 4 29.220911962243893 24.251629151589103 0.004719407163132295 0 0 0
2081 1 31.047003502200504 25.305832876800682 1.8533123465847021 0 0 0
1918 4 32.8735251832849 24.251629151589107 0.004719407163133166 0 0 0
2087 1 34.699616723241505 25.305832876800682 1.8533123465847046 0 0 0
2079 4 31.047218572764578 27.41488499120911 0.004719407163132216 0 0 0
2085 4 34.699831793805586 27.414884991209107 0.0047194071631320635 0 0 0
2076 1 29.220696891679896 28.46908871642068 1.8533123465847043 0 0 0
2082 1 32.873310112720894 28.469088716420682 1.8533123465847041 0 0 0
1924 4 36.52613840432589 24.251629151589103 0.004719407163132666 0 0 0
2093 1 38.352229944282506 25.305832876800682 1.8533123465847023 0 0 0
1930 4 40.17875162536689 24.251629151589103 0.004719407163131999 0 0 0
2091 4 38.35244501484658 27.41488499120911 0.00471940716313267 0 0 0
2088 1 36.525923333761895 28.46908871642068 1.8533123465847043 0 0 0
2094 1 40.178536554802896 28.46908871642068 1.8533123465847043 0 0 0
2099 1 42.0048431653235 25.30583287680068 1.853312346584703 0 0 0