LAMMPS data file via write_data, version 29 Aug 2024, timestep = 2, units = metal

7776 atoms
9 atom types

0 98.620556968107 xlo xhi
0 101.22418686784 ylo yhi
-50 50 zlo zhi

Masses

1 92.90637
2 92.90637
3 92.90637
4 127.6
5 127.6
6 127.6
7 127.6
8 127.6
9 127.6

Atoms # atomic

1383 5 1.8263127144701334 2.108838264938839 0.004585593468230449 0 0 0
1386 1 3.6523971615501973 3.1630347444655054 1.8532341656122595 0 0 0
1389 5 5.478925935511134 2.108838264938839 0.004585593468230802 0 0 0
1384 5 3.6526193249904417 5.272094104558838 0.004585593468230891 0 0 0
1378 5 6.103949431235378e-06 5.272094104558839 0.004585593468231664 0 0 0
1392 1 7.305010382591196 3.1630347444655054 1.8532341656122595 0 0 0
1395 5 9.13153915655213 2.1088382649388384 0.004585593468230299 0 0 0
1398 1 10.957623603632193 3.163034744465506 1.8532341656122595 0 0 0
1390 5 7.305232546031442 5.272094104558838 0.004585593468230955 0 0 0
1396 5 10.957845767072437 5.272094104558839 0.004585593468231271 0 0 0
1401 5 12.78415237759313 2.1088382649388384 0.00458559346823059 0 0 0
1404 1 14.610236824673196 3.1630347444655054 1.8532341656122595 0 0 0
1407 5 16.436765598634135 2.1088382649388384 0.004585593468230408 0 0 0
1402 5 14.61045898811344 5.272094104558839 0.0045855934682314 0 0 0
1410 1 18.262850045714195 3.163034744465506 1.8532341656122595 0 0 0
1413 5 20.08937881967513 2.1088382649388384 0.004585593468230681 0 0 0
1416 1 21.915463266755193 3.163034744465506 1.8532341656122595 0 0 0
1408 5 18.26307220915444 5.272094104558838 0.004585593468230975 0 0 0
1414 5 21.915685430195435 5.272094104558838 0.004585593468230709 0 0 0
1419 5 23.741992040716127 2.108838264938839 0.0045855934682306875 0 0 0
1422 1 25.568076487796194 3.1630347444655054 1.8532341656122595 0 0 0
1425 5 27.394605261757132 2.1088382649388384 0.004585593468230521 0 0 0
1420 5 25.56829865123644 5.272094104558839 0.0045855934682316815 0 0 0
1428 1 29.220689708837195 3.1630347444655054 1.8532341656122595 0 0 0
1431 5 31.047218482798133 2.1088382649388393 0.004585593468230778 0 0 0
1434 1 32.8733029298782 3.1630347444655054 1.8532341656122593 0 0 0
1437 5 34.69983170383914 2.1088382649388384 0.0045855934682301385 0 0 0
1426 5 29.220911872277437 5.272094104558838 0.004585593468230611 0 0 0
1432 5 32.87352509331844 5.272094104558839 0.004585593468231402 0 0 0
1440 1 36.525916150919194 3.163034744465506 1.8532341656122593 0 0 0
1443 5 38.35244492488013 2.108838264938839 0.00458559346823122 0 0 0
1446 1 40.178529371960195 3.163034744465506 1.85323416561226 0 0 0
1438 5 36.52613831435944 5.272094104558838 0.004585593468231021 0 0 0
1444 5 40.17875153540044 5.272094104558838 0.00458559346823022 0 0 0
1449 5 42.005058145921126 2.1088382649388384 0.004585593468230313 0 0 0
1452 1 43.831142593001196 3.1630347444655054 1.853234165612259 0 0 0
1455 5 45.657671366962134 2.1088382649388384 0.004585593468230145 0 0 0
1450 5 43.83136475644144 5.272094104558839 0.0045855934682318454 0 0 0
1458 1 47.48375581404219 3.163034744465506 1.8532341656122595 0 0 0
1299 5 49.31028458800313 2.108838264938839 0.004585593468230796 -1 0 0
1302 1 51.13636903508319 3.1630347444655054 1.8532341656122595 -1 0 0
1456 5 47.48397797748244 5.272094104558838 0.00458559346823115 0 0 0
1300 5 51.13659119852344 5.272094104558838 0.004585593468231042 -1 0 0
1305 5 52.96289780904413 2.1088382649388384 0.004585593468230647 -1 0 0
1308 1 54.78898225612419 3.1630347444655054 1.8532341656122593 -1 0 0
1311 5 56.61551103008513 2.108838264938839 0.00458559346823087 -1 0 0
1306 5 54.78920441956444 5.272094104558838 0.004585593468231156 -1 0 0
1314 1 58.441595477165194 3.163034744465506 1.8532341656122595 -1 0 0
1317 5 60.268124251126125 2.108838264938839 0.0045855934682303414 -1 0 0
1320 1 62.09420869820619 3.163034744465506 1.8532341656122595 -1 0 0
1312 5 58.441817640605436 5.272094104558838 0.004585593468230371 -1 0 0
1318 5 62.09443086164644 5.272094104558839 0.004585593468231285 -1 0 0
1323 5 63.920737472167126 2.1088382649388384 0.004585593468230606 -1 0 0
1326 1 65.74682191924718 3.163034744465506 1.85323416561226 -1 0 0
1329 5 67.57335069320813 2.1088382649388393 0.004585593468231471 -1 0 0
1332 1 69.39943514028819 3.163034744465506 1.8532341656122586 -1 0 0
1324 5 65.74704408268742 5.272094104558838 0.004585593468231336 -1 0 0
1330 5 69.39965730372843 5.272094104558838 0.004585593468230543 -1 0 0
1335 5 71.22596391424914 2.1088382649388384 0.004585593468230246 -1 0 0
1341 5 74.87857713529013 2.108838264938839 0.004585593468229976 -1 0 0
1338 1 73.05204836132918 3.163034744465506 1.8532341656122604 -1 0 0
1336 5 73.05227052476943 5.272094104558839 0.0045855934682323156 -1 0 0
1344 1 76.70466158237019 3.1630347444655054 1.8532341656122595 -1 0 0
1347 5 78.53119035633112 2.108838264938839 0.004585593468231238 -1 0 0
1350 1 80.35727480341119 3.1630347444655054 1.8532341656122595 -1 0 0
1342 5 76.70488374581043 5.272094104558838 0.00458559346823022 -1 0 0
1348 5 80.35749696685143 5.272094104558839 0.004585593468231338 -1 0 0
1353 5 82.18380357737213 2.1088382649388393 0.004585593468231295 -1 0 0
1356 1 84.0098880244522 3.163034744465506 1.8532341656122595 -1 0 0
1359 5 85.83641679841313 2.1088382649388375 0.004585593468229636 -1 0 0
1354 5 84.01011018789244 5.272094104558838 0.004585593468230927 -1 0 0
1362 1 87.66250124549319 3.163034744465506 1.8532341656122593 -1 0 0
1365 5 89.48903001945413 2.108838264938839 0.004585593468230494 -1 0 0
1368 1 91.31511446653418 3.163034744465506 1.8532341656122593 -1 0 0
1360 5 87.66272340893343 5.27209410455884 0.004585593468232174 -1 0 0
1366 5 91.31533662997442 5.272094104558838 0.0045855934682300335 -1 0 0
1371 5 93.14164324049513 2.1088382649388393 0.00458559346823151 -1 0 0
1374 1 94.96772768757519 3.1630347444655054 1.8532341656122588 -1 0 0
1377 5 96.79425646153614 2.1088382649388384 0.0045855934682301055 -1 0 0
1380 1 98.62034090861619 3.1630347444655054 1.85323416561226 -1 0 0
1372 5 94.96794985101543 5.272094104558838 0.0045855934682303 -1 0 0
1547 1 1.8260905510298147 6.3262905840855055 1.853234165612259 0 0 0
1553 1 5.478703772070816 6.3262905840855055 1.8532341656122597 0 0 0
1545 5 1.8263127144701334 8.435349944178839 0.004585593468231064 0 0 0
1548 1 3.652397161550197 9.489546423705505 1.8532341656122595 0 0 0
1551 5 5.478925935511134 8.435349944178839 0.004585593468231253 0 0 0
1546 5 3.6526193249904417 11.598605783798838 0.0045855934682304655 0 0 0
1540 5 6.103949431235378e-06 11.59860578379884 0.004585593468231327 0 0 0
1559 1 9.131316993111813 6.3262905840855055 1.8532341656122602 0 0 0
1554 1 7.305010382591196 9.489546423705505 1.8532341656122597 0 0 0
1557 5 9.13153915655213 8.435349944178839 0.0045855934682309096 0 0 0
1560 1 10.957623603632193 9.489546423705505 1.8532341656122597 0 0 0
1552 5 7.305232546031442 11.598605783798838 0.004585593468230552 0 0 0
1558 5 10.957845767072437 11.598605783798838 0.004585593468230795 0 0 0
1565 1 12.783930214152813 6.3262905840855055 1.8532341656122597 0 0 0
1571 1 16.436543435193816 6.3262905840855055 1.8532341656122593 0 0 0
1563 5 12.78415237759313 8.435349944178839 0.004585593468231159 0 0 0
1566 1 14.610236824673196 9.489546423705505 1.8532341656122595 0 0 0
1569 5 16.436765598634135 8.435349944178839 0.004585593468231005 0 0 0
1564 5 14.61045898811344 11.59860578379884 0.0045855934682309234 0 0 0
1577 1 20.089156656234813 6.326290584085506 1.8532341656122606 0 0 0
1572 1 18.262850045714195 9.489546423705505 1.8532341656122595 0 0 0
1575 5 20.08937881967513 8.435349944178839 0.004585593468231154 0 0 0
1578 1 21.915463266755193 9.489546423705505 1.8532341656122595 0 0 0
1570 5 18.26307220915444 11.598605783798838 0.004585593468230512 0 0 0
1576 5 21.915685430195435 11.598605783798838 0.004585593468230232 0 0 0
1583 1 23.74176987727581 6.3262905840855055 1.853234165612259 0 0 0
1589 1 27.394383098316816 6.326290584085506 1.8532341656122604 0 0 0
1581 5 23.741992040716127 8.435349944178839 0.004585593468231239 0 0 0
1584 1 25.568076487796194 9.489546423705505 1.8532341656122595 0 0 0
1587 5 27.394605261757132 8.435349944178839 0.004585593468231036 0 0 0
1582 5 25.56829865123644 11.59860578379884 0.004585593468231176 0 0 0
1595 1 31.046996319357813 6.3262905840855055 1.8532341656122586 0 0 0
1601 1 34.69960954039882 6.326290584085506 1.8532341656122608 0 0 0
1590 1 29.220689708837195 9.489546423705505 1.8532341656122595 0 0 0
1593 5 31.047218482798133 8.435349944178839 0.004585593468231344 0 0 0
1596 1 32.8733029298782 9.489546423705505 1.8532341656122593 0 0 0
1599 5 34.69983170383914 8.435349944178839 0.0045855934682306485 0 0 0
1588 5 29.220911872277437 11.598605783798838 0.00458559346823013 0 0 0
1594 5 32.87352509331844 11.59860578379884 0.004585593468230948 0 0 0
1607 1 38.35222276143981 6.3262905840855055 1.853234165612259 0 0 0
1602 1 36.525916150919194 9.489546423705505 1.8532341656122595 0 0 0
1605 5 38.35244492488013 8.435349944178839 0.004585593468231623 0 0 0
1608 1 40.178529371960195 9.489546423705505 1.85323416561226 0 0 0
1600 5 36.52613831435944 11.598605783798838 0.004585593468230589 0 0 0
1606 5 40.17875153540044 11.598605783798838 0.004585593468229859 0 0 0
1613 1 42.00483598248081 6.3262905840855055 1.8532341656122593 0 0 0
1619 1 45.657449203521814 6.326290584085506 1.8532341656122608 0 0 0
1611 5 42.005058145921126 8.435349944178839 0.004585593468230882 0 0 0
1614 1 43.831142593001196 9.489546423705505 1.853234165612259 0 0 0
1617 5 45.657671366962134 8.435349944178839 0.004585593468230652 0 0 0
1612 5 43.83136475644144 11.59860578379884 0.004585593468231368 0 0 0
1463 1 49.31006242456281 6.3262905840855055 1.8532341656122593 -1 0 0
1620 1 47.48375581404219 9.489546423705505 1.8532341656122595 0 0 0
1461 5 49.31028458800313 8.435349944178839 0.004585593468231258 -1 0 0
1464 1 51.13636903508319 9.489546423705505 1.8532341656122595 -1 0 0
1618 5 47.48397797748244 11.598605783798838 0.004585593468230691 0 0 0
1462 5 51.13659119852344 11.598605783798838 0.004585593468230556 -1 0 0
1469 1 52.96267564560381 6.3262905840855055 1.8532341656122597 -1 0 0
1475 1 56.61528886664481 6.3262905840855055 1.8532341656122597 -1 0 0
1467 5 52.96289780904413 8.435349944178839 0.0045855934682312366 -1 0 0
1470 1 54.78898225612419 9.489546423705505 1.8532341656122595 -1 0 0
1473 5 56.61551103008513 8.435349944178839 0.004585593468231369 -1 0 0
1468 5 54.78920441956444 11.598605783798838 0.004585593468230668 -1 0 0
1481 1 60.26790208768581 6.3262905840855055 1.8532341656122593 -1 0 0
1476 1 58.441595477165194 9.489546423705505 1.8532341656122595 -1 0 0
1479 5 60.268124251126125 8.435349944178839 0.004585593468230919 -1 0 0
1482 1 62.09420869820619 9.489546423705505 1.8532341656122595 -1 0 0
1474 5 58.441817640605436 11.598605783798838 0.004585593468229855 -1 0 0
1480 5 62.09443086164644 11.598605783798838 0.0045855934682308835 -1 0 0
1487 1 63.920515308726806 6.3262905840855055 1.8532341656122602 -1 0 0
1493 1 67.57312852976781 6.3262905840855055 1.8532341656122597 -1 0 0
1485 5 63.920737472167126 8.435349944178839 0.004585593468231171 -1 0 0
1488 1 65.74682191924718 9.489546423705505 1.85323416561226 -1 0 0
1491 5 67.57335069320813 8.435349944178839 0.00458559346823191 -1 0 0
1494 1 69.39943514028819 9.489546423705505 1.8532341656122586 -1 0 0
1486 5 65.74704408268742 11.598605783798838 0.004585593468230949 -1 0 0
1492 5 69.39965730372843 11.598605783798838 0.004585593468230116 -1 0 0
1499 1 71.22574175080881 6.326290584085506 1.8532341656122608 -1 0 0
1505 1 74.87835497184982 6.3262905840855055 1.8532341656122588 -1 0 0
1497 5 71.22596391424914 8.435349944178839 0.004585593468230804 -1 0 0
1503 5 74.87857713529013 8.435349944178839 0.004585593468230515 -1 0 0
1500 1 73.05204836132918 9.489546423705505 1.8532341656122604 -1 0 0
1498 5 73.05227052476943 11.59860578379884 0.004585593468231918 -1 0 0
1511 1 78.53096819289081 6.3262905840855055 1.8532341656122595 -1 0 0
1506 1 76.70466158237019 9.489546423705505 1.8532341656122595 -1 0 0
1509 5 78.53119035633112 8.435349944178839 0.004585593468231784 -1 0 0
1512 1 80.35727480341119 9.489546423705505 1.8532341656122595 -1 0 0
1504 5 76.70488374581043 11.598605783798838 0.0045855934682298176 -1 0 0
1510 5 80.35749696685143 11.598605783798838 0.004585593468230905 -1 0 0
1517 1 82.18358141393182 6.3262905840855055 1.8532341656122597 -1 0 0
1523 1 85.83619463497281 6.326290584085506 1.85323416561226 -1 0 0
1515 5 82.18380357737213 8.435349944178839 0.004585593468231857 -1 0 0
1518 1 84.0098880244522 9.489546423705505 1.8532341656122595 -1 0 0
1521 5 85.83641679841313 8.435349944178839 0.0045855934682301385 -1 0 0
1516 5 84.01011018789244 11.598605783798838 0.004585593468230444 -1 0 0
1529 1 89.4888078560138 6.3262905840855055 1.8532341656122593 -1 0 0
1524 1 87.66250124549319 9.489546423705505 1.8532341656122595 -1 0 0
1527 5 89.48903001945413 8.435349944178839 0.004585593468230977 -1 0 0
1530 1 91.31511446653418 9.489546423705505 1.8532341656122593 -1 0 0
1522 5 87.66272340893343 11.59860578379884 0.004585593468231657 -1 0 0
1528 5 91.31533662997442 11.598605783798838 0.004585593468229622 -1 0 0
1535 1 93.14142107705482 6.3262905840855055 1.8532341656122597 -1 0 0
1541 1 96.79403429809581 6.3262905840855055 1.8532341656122604 -1 0 0
1533 5 93.14164324049513 8.435349944178839 0.004585593468232009 -1 0 0
1536 1 94.96772768757519 9.489546423705505 1.8532341656122588 -1 0 0
1539 5 96.79425646153614 8.435349944178839 0.004585593468230676 -1 0 0
1542 1 98.62034090861619 9.489546423705505 1.85323416561226 -1 0 0
1534 5 94.96794985101543 11.598605783798838 0.0045855934682299425 -1 0 0
1709 1 1.8260905510298147 12.652802263325507 1.8532341656122586 0 0 0
1715 1 5.478703772070816 12.652802263325507 1.8532341656122593 0 0 0
1707 5 1.8263127144701334 14.761861623418842 0.004585593468231261 0 0 0
1710 1 3.6523971615501973 15.816058102945506 1.8532341656122604 0 0 0
1713 5 5.478925935511134 14.761861623418842 0.004585593468231509 0 0 0
1721 1 9.131316993111813 12.652802263325507 1.8532341656122597 0 0 0
1716 1 7.305010382591196 15.816058102945506 1.8532341656122604 0 0 0
1719 5 9.13153915655213 14.761861623418842 0.004585593468231257 0 0 0
1722 1 10.957623603632195 15.816058102945506 1.8532341656122602 0 0 0
1727 1 12.783930214152813 12.652802263325507 1.8532341656122593 0 0 0
1733 1 16.436543435193816 12.652802263325507 1.853234165612259 0 0 0
1725 5 12.78415237759313 14.761861623418842 0.004585593468231316 0 0 0
1728 1 14.610236824673196 15.816058102945506 1.8532341656122602 0 0 0
1731 5 16.436765598634135 14.761861623418842 0.004585593468231283 0 0 0
1739 1 20.089156656234813 12.652802263325507 1.8532341656122602 0 0 0
1734 1 18.262850045714195 15.816058102945506 1.8532341656122602 0 0 0
1737 5 20.08937881967513 14.761861623418842 0.0045855934682315636 0 0 0
1740 1 21.915463266755193 15.816058102945506 1.8532341656122602 0 0 0
1745 1 23.74176987727581 12.652802263325507 1.8532341656122586 0 0 0
1751 1 27.394383098316816 12.652802263325507 1.85323416561226 0 0 0
1743 5 23.741992040716127 14.761861623418842 0.0045855934682315375 0 0 0
1746 1 25.568076487796194 15.816058102945506 1.8532341656122604 0 0 0
1749 5 27.394605261757132 14.761861623418842 0.004585593468231427 0 0 0
1757 1 31.046996319357813 12.652802263325507 1.8532341656122582 0 0 0
1763 1 34.69960954039882 12.652802263325507 1.8532341656122604 0 0 0
1752 1 29.220689708837195 15.816058102945506 1.8532341656122604 0 0 0
1755 5 31.047218482798133 14.761861623418842 0.004585593468231632 0 0 0
1758 1 32.8733029298782 15.816058102945506 1.8532341656122602 0 0 0
1761 5 34.69983170383914 14.761861623418842 0.004585593468231048 0 0 0
1769 1 38.35222276143981 12.652802263325507 1.8532341656122586 0 0 0
1764 1 36.525916150919194 15.816058102945506 1.8532341656122602 0 0 0
1767 5 38.35244492488013 14.761861623418842 0.004585593468231933 0 0 0
1770 1 40.178529371960195 15.816058102945506 1.8532341656122606 0 0 0
1775 1 42.00483598248081 12.652802263325507 1.853234165612259 0 0 0
1781 1 45.657449203521814 12.652802263325507 1.8532341656122604 0 0 0
1773 5 42.005058145921126 14.761861623418842 0.004585593468231163 0 0 0
1776 1 43.831142593001196 15.816058102945506 1.85323416561226 0 0 0
1779 5 45.657671366962134 14.761861623418842 0.004585593468231052 0 0 0
1625 1 49.31006242456281 12.652802263325507 1.8532341656122588 -1 0 0
1782 1 47.48375581404219 15.816058102945506 1.8532341656122604 0 0 0
1623 5 49.31028458800313 14.761861623418842 0.004585593468231453 -1 0 0
1626 1 51.13636903508319 15.816058102945508 1.8532341656122602 -1 0 0
1631 1 52.96267564560381 12.652802263325507 1.8532341656122593 -1 0 0
1637 1 56.61528886664481 12.652802263325507 1.8532341656122593 -1 0 0
1629 5 52.96289780904413 14.761861623418842 0.0045855934682313415 -1 0 0
1632 1 54.78898225612419 15.816058102945508 1.8532341656122604 -1 0 0
1635 5 56.61551103008513 14.761861623418842 0.004585593468231556 -1 0 0
1643 1 60.26790208768581 12.652802263325507 1.8532341656122588 -1 0 0
1638 1 58.441595477165194 15.816058102945506 1.8532341656122604 -1 0 0
1641 5 60.268124251126125 14.761861623418842 0.004585593468231134 -1 0 0
1644 1 62.09420869820619 15.816058102945506 1.8532341656122602 -1 0 0
1649 1 63.920515308726806 12.652802263325507 1.85323416561226 -1 0 0
1655 1 67.57312852976781 12.652802263325507 1.8532341656122593 -1 0 0
1647 5 63.920737472167126 14.76186162341884 0.00458559346823143 -1 0 0
1650 1 65.74682191924718 15.816058102945506 1.8532341656122604 -1 0 0
1653 5 67.57335069320813 14.761861623418842 0.00458559346823224 -1 0 0
1656 1 69.39943514028819 15.816058102945506 1.8532341656122595 -1 0 0
1661 1 71.22574175080881 12.652802263325507 1.8532341656122606 -1 0 0
1667 1 74.87835497184982 12.652802263325507 1.8532341656122586 -1 0 0
1659 5 71.22596391424914 14.761861623418842 0.0045855934682310735 -1 0 0
1665 5 74.87857713529013 14.761861623418842 0.004585593468231036 -1 0 0
1662 1 73.05204836132918 15.816058102945508 1.853234165612261 -1 0 0
1673 1 78.53096819289081 12.652802263325507 1.8532341656122588 -1 0 0
1668 1 76.70466158237019 15.816058102945506 1.8532341656122602 -1 0 0
1671 5 78.53119035633112 14.761861623418842 0.00458559346823187 -1 0 0
1674 1 80.35727480341119 15.816058102945506 1.8532341656122602 -1 0 0
1679 1 82.18358141393182 12.652802263325507 1.8532341656122593 -1 0 0
1685 1 85.83619463497281 12.652802263325507 1.8532341656122597 -1 0 0
1677 5 82.18380357737213 14.761861623418842 0.004585593468232131 -1 0 0
1680 1 84.0098880244522 15.816058102945506 1.8532341656122602 -1 0 0
1683 5 85.83641679841313 14.76186162341884 0.004585593468230437 -1 0 0
1691 1 89.4888078560138 12.652802263325507 1.853234165612259 -1 0 0
1686 1 87.66250124549319 15.816058102945506 1.8532341656122602 -1 0 0
1689 5 89.48903001945413 14.761861623418842 0.0045855934682312695 -1 0 0
1692 1 91.31511446653418 15.816058102945506 1.85323416561226 -1 0 0
1697 1 93.14142107705482 12.652802263325507 1.8532341656122595 -1 0 0
1703 1 96.79403429809581 12.652802263325507 1.8532341656122602 -1 0 0
1695 5 93.14164324049513 14.761861623418842 0.004585593468232279 -1 0 0
1698 1 94.96772768757519 15.816058102945506 1.8532341656122595 -1 0 0
1701 5 96.79425646153614 14.761861623418842 0.004585593468230898 -1 0 0
1704 1 98.62034090861619 15.816058102945506 1.8532341656122608 -1 0 0
1871 1 1.8260905510298147 18.979313942565508 1.8532341656122584 0 0 0
1708 5 3.6526193249904417 17.925117463038838 0.0045855934682310796 0 0 0
1877 1 5.478703772070816 18.979313942565508 1.853234165612259 0 0 0
1869 5 1.8263127144701334 21.08837330265884 0.004585593468230602 0 0 0
1875 5 5.478925935511134 21.08837330265884 0.004585593468230963 0 0 0
1872 1 3.6523971615501973 22.142569782185507 1.8532341656122604 0 0 0
1702 5 6.103949431235378e-06 17.925117463038838 0.004585593468231956 0 0 0
1714 5 7.3052325460314425 17.925117463038838 0.004585593468231245 0 0 0
1883 1 9.131316993111813 18.979313942565508 1.8532341656122595 0 0 0
1720 5 10.957845767072437 17.925117463038838 0.004585593468231572 0 0 0
1881 5 9.13153915655213 21.08837330265884 0.004585593468230682 0 0 0
1878 1 7.305010382591196 22.142569782185507 1.8532341656122604 0 0 0
1884 1 10.957623603632195 22.142569782185507 1.8532341656122602 0 0 0
1889 1 12.783930214152813 18.979313942565508 1.8532341656122588 0 0 0
1726 5 14.61045898811344 17.925117463038838 0.004585593468231581 0 0 0
1895 1 16.436543435193816 18.979313942565508 1.8532341656122586 0 0 0
1887 5 12.78415237759313 21.08837330265884 0.004585593468230608 0 0 0
1893 5 16.436765598634135 21.08837330265884 0.004585593468230694 0 0 0
1890 1 14.610236824673196 22.142569782185507 1.8532341656122602 0 0 0
1732 5 18.26307220915444 17.925117463038838 0.00458559346823123 0 0 0
1901 1 20.089156656234813 18.979313942565508 1.8532341656122602 0 0 0
1738 5 21.915685430195435 17.925117463038838 0.004585593468230907 0 0 0
1899 5 20.08937881967513 21.08837330265884 0.0045855934682309295 0 0 0
1896 1 18.262850045714195 22.142569782185507 1.8532341656122602 0 0 0
1902 1 21.915463266755193 22.142569782185507 1.8532341656122602 0 0 0
1744 5 25.56829865123644 17.925117463038838 0.004585593468231842 0 0 0
1907 1 23.74176987727581 18.979313942565508 1.8532341656122584 0 0 0
1913 1 27.394383098316816 18.979313942565508 1.8532341656122597 0 0 0
1905 5 23.741992040716127 21.08837330265884 0.004585593468230876 0 0 0
1911 5 27.394605261757132 21.08837330265884 0.004585593468230778 0 0 0
1908 1 25.568076487796194 22.142569782185507 1.8532341656122604 0 0 0
1750 5 29.220911872277437 17.925117463038838 0.004585593468230815 0 0 0
1919 1 31.046996319357813 18.979313942565508 1.853234165612258 0 0 0
1756 5 32.87352509331844 17.925117463038838 0.004585593468231574 0 0 0
1925 1 34.69960954039882 18.979313942565508 1.8532341656122602 0 0 0
1917 5 31.047218482798133 21.08837330265884 0.0045855934682309755 0 0 0
1923 5 34.69983170383914 21.08837330265884 0.00458559346823039 0 0 0
1914 1 29.220689708837195 22.142569782185507 1.8532341656122602 0 0 0
1920 1 32.8733029298782 22.142569782185507 1.8532341656122602 0 0 0
1762 5 36.52613831435944 17.925117463038838 0.004585593468231192 0 0 0
1931 1 38.35222276143981 18.979313942565508 1.8532341656122586 0 0 0
1768 5 40.17875153540044 17.925117463038838 0.004585593468230448 0 0 0
1929 5 38.35244492488013 21.08837330265884 0.004585593468231327 0 0 0
1926 1 36.525916150919194 22.142569782185507 1.8532341656122602 0 0 0
1932 1 40.178529371960195 22.142569782185507 1.8532341656122606 0 0 0
1937 1 42.00483598248081 18.979313942565508 1.8532341656122586 0 0 0
1774 5 43.83136475644144 17.925117463038838 0.004585593468232149 0 0 0
1943 1 45.657449203521814 18.979313942565508 1.8532341656122602 0 0 0
1935 5 42.005058145921126 21.08837330265884 0.004585593468230483 0 0 0
1941 5 45.657671366962134 21.08837330265884 0.004585593468230398 0 0 0
1938 1 43.831142593001196 22.142569782185507 1.85323416561226 0 0 0
1780 5 47.48397797748244 17.925117463038838 0.004585593468231405 0 0 0
1624 5 51.13659119852344 17.925117463038838 0.004585593468231213 -1 0 0
1787 1 49.31006242456281 18.979313942565508 1.8532341656122584 -1 0 0
1785 5 49.31028458800313 21.08837330265884 0.004585593468230884 -1 0 0
1944 1 47.48375581404219 22.142569782185507 1.8532341656122602 0 0 0
1788 1 51.13636903508319 22.142569782185507 1.8532341656122602 -1 0 0
1793 1 52.96267564560381 18.979313942565508 1.853234165612259 -1 0 0
1630 5 54.78920441956444 17.925117463038838 0.004585593468231318 -1 0 0
1799 1 56.61528886664481 18.979313942565508 1.853234165612259 -1 0 0
1791 5 52.96289780904413 21.08837330265884 0.004585593468230847 -1 0 0
1797 5 56.61551103008513 21.08837330265884 0.004585593468230988 -1 0 0
1794 1 54.78898225612419 22.142569782185507 1.8532341656122602 -1 0 0
1636 5 58.441817640605436 17.925117463038838 0.004585593468230654 -1 0 0
1805 1 60.26790208768581 18.979313942565508 1.8532341656122584 -1 0 0
1642 5 62.09443086164644 17.925117463038838 0.004585593468231413 -1 0 0
1803 5 60.268124251126125 21.08837330265884 0.004585593468230512 -1 0 0
1800 1 58.441595477165194 22.142569782185507 1.8532341656122602 -1 0 0
1806 1 62.09420869820619 22.142569782185507 1.8532341656122604 -1 0 0
1811 1 63.920515308726806 18.979313942565508 1.8532341656122595 -1 0 0
1648 5 65.74704408268742 17.925117463038838 0.0045855934682314595 -1 0 0
1817 1 67.57312852976781 18.979313942565508 1.8532341656122593 -1 0 0
1654 5 69.39965730372843 17.925117463038838 0.004585593468230718 -1 0 0
1809 5 63.920737472167126 21.08837330265884 0.004585593468230711 -1 0 0
1815 5 67.57335069320813 21.08837330265884 0.004585593468231569 -1 0 0
1812 1 65.74682191924718 22.142569782185507 1.8532341656122604 -1 0 0
1818 1 69.39943514028819 22.142569782185507 1.8532341656122595 -1 0 0
1823 1 71.22574175080881 18.979313942565508 1.8532341656122602 -1 0 0
1660 5 73.05227052476943 17.925117463038838 0.004585593468232792 -1 0 0
1829 1 74.87835497184982 18.979313942565508 1.8532341656122588 -1 0 0
1821 5 71.22596391424914 21.08837330265884 0.0045855934682304455 -1 0 0
1827 5 74.87857713529013 21.08837330265884 0.004585593468230391 -1 0 0
1824 1 73.05204836132918 22.142569782185507 1.853234165612261 -1 0 0
1666 5 76.70488374581042 17.925117463038838 0.004585593468230525 -1 0 0
1835 1 78.53096819289081 18.979313942565508 1.8532341656122577 -1 0 0
1672 5 80.35749696685143 17.925117463038838 0.004585593468231308 -1 0 0
1833 5 78.53119035633112 21.08837330265884 0.0045855934682312765 -1 0 0
1830 1 76.70466158237019 22.142569782185507 1.8532341656122602 -1 0 0
1836 1 80.35727480341119 22.142569782185507 1.85323416561226 -1 0 0
1841 1 82.18358141393182 18.979313942565508 1.8532341656122593 -1 0 0
1678 5 84.01011018789244 17.925117463038838 0.004585593468231135 -1 0 0
1847 1 85.83619463497281 18.979313942565508 1.8532341656122593 -1 0 0
1839 5 82.18380357737213 21.08837330265884 0.0045855934682315245 -1 0 0
1845 5 85.83641679841313 21.08837330265884 0.004585593468229834 -1 0 0
1842 1 84.0098880244522 22.142569782185507 1.8532341656122602 -1 0 0
1684 5 87.66272340893343 17.925117463038838 0.004585593468232355 -1 0 0
1853 1 89.4888078560138 18.979313942565508 1.8532341656122586 -1 0 0
1690 5 91.31533662997442 17.925117463038838 0.004585593468230299 -1 0 0
1851 5 89.48903001945413 21.08837330265884 0.004585593468230559 -1 0 0
1848 1 87.66250124549319 22.142569782185507 1.8532341656122602 -1 0 0
1854 1 91.31511446653418 22.142569782185507 1.8532341656122602 -1 0 0
1859 1 93.14142107705482 18.979313942565508 1.8532341656122593 -1 0 0
1696 5 94.96794985101543 17.925117463038838 0.00458559346823058 -1 0 0
1865 1 96.79403429809581 18.979313942565508 1.8532341656122597 -1 0 0
1857 5 93.14164324049513 21.08837330265884 0.0045855934682317145 -1 0 0
1863 5 96.79425646153614 21.08837330265884 0.004585593468230305 -1 0 0
1860 1 94.96772768757519 22.142569782185507 1.8532341656122595 -1 0 0
1866 1 98.62034090861619 22.142569782185507 1.8532341656122606 -1 0 0
2033 1 1.8260905510298147 25.305825621805507 1.8532341656122584 0 0 0
1870 5 3.6526193249904417 24.251629142278837 0.004585593468231111 0 0 0
2039 1 5.478703772070816 25.305825621805507 1.853234165612259 0 0 0
2031 5 1.8263127144701334 27.41488498189884 0.004585593468230602 0 0 0
2037 5 5.478925935511134 27.41488498189884 0.004585593468230963 0 0 0
2034 1 3.6523971615501973 28.469081461425507 1.8532341656122604 0 0 0
1864 5 6.103949431235378e-06 24.251629142278837 0.004585593468231992 0 0 0
1876 5 7.3052325460314425 24.251629142278837 0.004585593468231264 0 0 0
2045 1 9.131316993111813 25.305825621805507 1.8532341656122595 0 0 0
1882 5 10.957845767072437 24.251629142278837 0.004585593468231609 0 0 0
2043 5 9.13153915655213 27.41488498189884 0.004585593468230682 0 0 0
2040 1 7.305010382591196 28.469081461425507 1.8532341656122604 0 0 0
2046 1 10.957623603632195 28.469081461425507 1.8532341656122602 0 0 0
2051 1 12.783930214152813 25.305825621805507 1.8532341656122588 0 0 0
1888 5 14.61045898811344 24.251629142278837 0.004585593468231618 0 0 0
2057 1 16.436543435193816 25.305825621805507 1.8532341656122586 0 0 0
2049 5 12.78415237759313 27.41488498189884 0.004585593468230608 0 0 0
2055 5 16.436765598634135 27.41488498189884 0.004585593468230694 0 0 0
2052 1 14.610236824673196 28.469081461425507 1.8532341656122602 0 0 0
1894 5 18.26307220915444 24.251629142278837 0.0045855934682312695 0 0 0
2063 1 20.089156656234813 25.305825621805507 1.8532341656122602 0 0 0
1900 5 21.915685430195435 24.251629142278837 0.004585593468230984 0 0 0
2061 5 20.08937881967513 27.41488498189884 0.0045855934682309295 0 0 0
2058 1 18.262850045714195 28.469081461425507 1.8532341656122602 0 0 0
2064 1 21.915463266755193 28.469081461425507 1.8532341656122602 0 0 0
1906 5 25.56829865123644 24.251629142278837 0.004585593468231881 0 0 0
2069 1 23.74176987727581 25.305825621805507 1.8532341656122584 0 0 0
2075 1 27.394383098316816 25.305825621805507 1.8532341656122597 0 0 0
2067 5 23.741992040716127 27.41488498189884 0.004585593468230876 0 0 0
2073 5 27.394605261757132 27.41488498189884 0.004585593468230778 0 0 0
2070 1 25.568076487796194 28.469081461425507 1.8532341656122604 0 0 0
1912 5 29.220911872277437 24.251629142278837 0.0045855934682308905 0 0 0
2081 1 31.046996319357813 25.305825621805507 1.853234165612258 0 0 0
1918 5 32.87352509331844 24.251629142278837 0.004585593468231613 0 0 0
2087 1 34.69960954039882 25.305825621805507 1.8532341656122602 0 0 0
2079 5 31.047218482798133 27.41488498189884 0.0045855934682309755 0 0 0
2085 5 34.69983170383914 27.41488498189884 0.00458559346823039 0 0 0
2076 1 29.220689708837195 28.469081461425507 1.8532341656122602 0 0 0
2082 1 32.8733029298782 28.469081461425507 1.8532341656122602 0 0 0
1924 5 36.52613831435944 24.251629142278837 0.004585593468231268 0 0 0
2093 1 38.35222276143981 25.305825621805507 1.8532341656122586 0 0 0
1930 5 40.17875153540044 24.251629142278837 0.0045855934682304915 0 0 0
2091 5 38.35244492488013 27.41488498189884 0.004585593468231328 0 0 0
2088 1 36.525916150919194 28.469081461425507 1.8532341656122602 0 0 0