LAMMPS data file via write_data, version 29 Aug 2024, timestep = 2, units = metal

3000 atoms
4 atom types

0 98.5863464582 xlo xhi
0 102.45393659892 ylo yhi
-50 50 zlo zhi

Masses

1 72.63
2 72.63
3 127.6
4 127.6

Atoms # atomic

750 3 0.0025663308252236805 1.1357711765386893 -0.010067484505456675 0 0 0
754 3 3.9460201891532196 1.135771176538688 -0.010067484505452142 0 0 0
851 1 0.0054357130952160035 3.409586599908919 1.56605167419905 0 0 0
855 1 3.948889571423224 3.409586599908916 1.5660516741990569 0 0 0
853 3 1.9742932599892182 4.550902396502684 -0.010067484505457172 0 0 0
758 3 7.889474047481219 1.1357711765386869 -0.010067484505451856 0 0 0
859 1 7.892343429751225 3.4095865999089177 1.5660516741990542 0 0 0
857 3 5.917747118317223 4.550902396502681 -0.010067484505455472 0 0 0
861 3 9.861200976645222 4.550902396502684 -0.010067484505457485 0 0 0
762 3 11.83292790580922 1.1357711765386882 -0.010067484505452274 0 0 0
766 3 15.776381764137216 1.1357711765386902 -0.010067484505454291 0 0 0
863 1 11.83579728807923 3.409586599908916 1.5660516741990562 0 0 0
867 1 15.779251146407223 3.4095865999089146 1.5660516741990578 0 0 0
865 3 13.80465483497322 4.550902396502682 -0.010067484505455297 0 0 0
770 3 19.71983562246522 1.1357711765386853 -0.010067484505449729 0 0 0
871 1 19.72270500473523 3.40958659990892 1.5660516741990527 0 0 0
869 3 17.748108693301223 4.550902396502683 -0.010067484505458421 0 0 0
873 3 21.691562551629215 4.550902396502684 -0.010067484505456888 0 0 0
774 3 23.663289480793225 1.1357711765386889 -0.010067484505453054 0 0 0
778 3 27.606743339121223 1.1357711765386886 -0.010067484505452824 0 0 0
875 1 23.66615886306323 3.409586599908916 1.5660516741990567 0 0 0
879 1 27.609612721391233 3.409586599908916 1.5660516741990569 0 0 0
877 3 25.635016409957217 4.550902396502683 -0.010067484505457625 0 0 0
782 3 31.550197197449222 1.1357711765386886 -0.010067484505452834 0 0 0
883 1 31.553066579719232 3.409586599908916 1.566051674199057 0 0 0
881 3 29.578470268285216 4.550902396502683 -0.010067484505457656 0 0 0
885 3 33.521924126613214 4.550902396502683 -0.010067484505457658 0 0 0
786 3 35.49365105577722 1.1357711765386886 -0.010067484505452818 0 0 0
790 3 39.43710491410523 1.1357711765386866 -0.010067484505449828 0 0 0
887 1 35.49652043804723 3.409586599908916 1.5660516741990569 0 0 0
891 1 39.439974296375226 3.409586599908914 1.5660516741990607 0 0 0
889 3 37.46537798494121 4.550902396502684 -0.010067484505457767 0 0 0
794 3 43.38055877243322 1.1357711765386902 -0.010067484505456716 0 0 0
895 1 43.383428154703225 3.409586599908918 1.566051674199054 0 0 0
893 3 41.408831843269226 4.550902396502679 -0.01006748450545407 0 0 0
897 3 45.352285701597225 4.550902396502683 -0.010067484505457504 0 0 0
798 3 47.32401263076122 1.1357711765386869 -0.010067484505450296 0 0 0
702 3 51.26746648908923 1.1357711765386875 -0.010067484505449992 -1 0 0
899 1 47.32688201303123 3.4095865999089168 1.5660516741990553 0 0 0
803 1 51.270335871359215 3.4095865999089137 1.5660516741990609 -1 0 0
801 3 49.295739559925224 4.550902396502683 -0.01006748450545508 -1 0 0
706 3 55.21092034741723 1.1357711765386884 -0.01006748450545243 -1 0 0
807 1 55.21378972968721 3.409586599908916 1.5660516741990564 -1 0 0
805 3 53.23919341825323 4.550902396502683 -0.010067484505456664 -1 0 0
809 3 57.18264727658123 4.550902396502684 -0.010067484505458298 -1 0 0
710 3 59.15437420574522 1.1357711765386878 -0.010067484505453441 -1 0 0
714 3 63.09782806407322 1.1357711765386884 -0.010067484505452536 -1 0 0
811 1 59.15724358801522 3.40958659990892 1.5660516741990507 -1 0 0
815 1 63.100697446343226 3.4095865999089154 1.5660516741990576 -1 0 0
813 3 61.12610113490921 4.550902396502684 -0.010067484505459051 -1 0 0
718 3 67.04128192240123 1.1357711765386902 -0.010067484505455753 -1 0 0
819 1 67.04415130467122 3.4095865999089137 1.5660516741990609 -1 0 0
817 3 65.06955499323722 4.55090239650268 -0.010067484505450733 -1 0 0
821 3 69.01300885156523 4.550902396502683 -0.01006748450546065 -1 0 0
722 3 70.98473578072921 1.1357711765386884 -0.010067484505452697 -1 0 0
726 3 74.92818963905722 1.135771176538688 -0.01006748450545218 -1 0 0
823 1 70.98760516299922 3.4095865999089154 1.566051674199057 -1 0 0
827 1 74.9310590213272 3.4095865999089154 1.566051674199057 -1 0 0
825 3 72.95646270989323 4.550902396502685 -0.010067484505454059 -1 0 0
730 3 78.87164349738521 1.135771176538689 -0.010067484505453571 -1 0 0
831 1 78.87451287965521 3.4095865999089154 1.566051674199057 -1 0 0
829 3 76.89991656822123 4.550902396502683 -0.010067484505460605 -1 0 0
833 3 80.84337042654923 4.550902396502686 -0.010067484505458777 -1 0 0
734 3 82.81509735571322 1.1357711765386806 -0.010067484505443137 -1 0 0
738 3 86.75855121404123 1.1357711765386904 -0.01006748450545248 -1 0 0
835 1 82.81796673798323 3.4095865999089234 1.5660516741990478 -1 0 0
839 1 86.76142059631123 3.4095865999089074 1.5660516741990689 -1 0 0
837 3 84.7868242848772 4.550902396502683 -0.010067484505459506 -1 0 0
742 3 90.70200507236923 1.135771176538688 -0.010067484505455816 -1 0 0
843 1 90.70487445463922 3.4095865999089225 1.5660516741990467 -1 0 0
841 3 88.73027814320523 4.550902396502683 -0.010067484505457242 -1 0 0
845 3 92.67373200153321 4.550902396502683 -0.010067484505457015 -1 0 0
746 3 94.64545893069723 1.1357711765386886 -0.01006748450544923 -1 0 0
847 1 94.64832831296722 3.409586599908909 1.5660516741990658 -1 0 0
849 3 96.61718585986122 4.550902396502681 -0.010067484505454536 -1 0 0
850 3 0.0025663308252231254 7.96603361646669 -0.010067484505457403 0 0 0
856 1 1.977162642259224 6.824717819872918 1.5660516741990607 0 0 0
854 3 3.94602018915322 7.966033616466687 -0.010067484505454433 0 0 0
951 1 0.005435713095215917 10.239849039836916 1.566051674199053 0 0 0
955 1 3.9488895714232237 10.239849039836916 1.5660516741990589 0 0 0
953 3 1.9742932599892193 11.381164836430687 -0.010067484505456152 0 0 0
860 1 5.9206165005872275 6.824717819872921 1.566051674199058 0 0 0
858 3 7.889474047481218 7.966033616466687 -0.01006748450545233 0 0 0
864 1 9.86407035891523 6.824717819872918 1.5660516741990607 0 0 0
959 1 7.892343429751224 10.239849039836916 1.5660516741990553 0 0 0
957 3 5.917747118317223 11.381164836430685 -0.010067484505452313 0 0 0
961 3 9.861200976645222 11.381164836430687 -0.010067484505455825 0 0 0
862 3 11.83292790580922 7.966033616466687 -0.01006748450545432 0 0 0
868 1 13.807524217243229 6.8247178198729195 1.5660516741990596 0 0 0
866 3 15.776381764137216 7.966033616466689 -0.010067484505454583 0 0 0
963 1 11.83579728807923 10.239849039836916 1.566051674199058 0 0 0
967 1 15.779251146407223 10.239849039836912 1.5660516741990598 0 0 0
965 3 13.80465483497322 11.381164836430687 -0.010067484505452966 0 0 0
872 1 17.75097807557123 6.824717819872919 1.5660516741990607 0 0 0
870 3 19.71983562246522 7.966033616466683 -0.010067484505451266 0 0 0
876 1 21.694431933899224 6.824717819872919 1.5660516741990602 0 0 0
971 1 19.72270500473523 10.239849039836919 1.566051674199056 0 0 0
969 3 17.748108693301223 11.381164836430688 -0.010067484505457344 0 0 0
973 3 21.691562551629215 11.381164836430688 -0.01006748450545535 0 0 0
874 3 23.663289480793225 7.966033616466687 -0.010067484505454399 0 0 0
880 1 25.637885792227227 6.824717819872919 1.5660516741990607 0 0 0
878 3 27.606743339121223 7.966033616466687 -0.010067484505454182 0 0 0
975 1 23.666158863063234 10.239849039836916 1.5660516741990589 0 0 0
979 1 27.609612721391233 10.239849039836916 1.5660516741990584 0 0 0
977 3 25.635016409957217 11.381164836430687 -0.010067484505454848 0 0 0
884 1 29.581339650555226 6.824717819872919 1.5660516741990607 0 0 0
882 3 31.550197197449222 7.966033616466687 -0.010067484505454246 0 0 0
888 1 33.52479350888322 6.824717819872919 1.5660516741990607 0 0 0
983 1 31.553066579719232 10.239849039836916 1.5660516741990587 0 0 0
981 3 29.578470268285216 11.381164836430687 -0.01006748450545487 0 0 0
985 3 33.521924126613214 11.381164836430687 -0.01006748450545487 0 0 0
886 3 35.49365105577722 7.966033616466687 -0.010067484505454225 0 0 0
892 1 37.46824736721123 6.824717819872919 1.5660516741990609 0 0 0
890 3 39.43710491410523 7.966033616466685 -0.010067484505451304 0 0 0
987 1 35.49652043804723 10.239849039836916 1.5660516741990584 0 0 0
991 1 39.439974296375226 10.239849039836914 1.5660516741990624 0 0 0
989 3 37.46537798494121 11.381164836430687 -0.010067484505454898 0 0 0
896 1 41.41170122553922 6.824717819872922 1.5660516741990567 0 0 0
894 3 43.38055877243322 7.966033616466688 -0.010067484505457653 0 0 0
900 1 45.35515508386723 6.824717819872919 1.5660516741990609 0 0 0
995 1 43.38342815470322 10.239849039836917 1.566051674199056 0 0 0
993 3 41.408831843269226 11.381164836430683 -0.010067484505450764 0 0 0
997 3 45.352285701597225 11.381164836430687 -0.010067484505455204 0 0 0
898 3 47.32401263076122 7.966033616466684 -0.01006748450545237 0 0 0
802 3 51.26746648908923 7.966033616466686 -0.010067484505451354 -1 0 0
804 1 49.29860894219522 6.824717819872916 1.5660516741990649 -1 0 0
999 1 47.32688201303123 10.239849039836917 1.566051674199057 0 0 0
903 1 51.270335871359215 10.239849039836914 1.5660516741990624 -1 0 0
901 3 49.295739559925224 11.381164836430685 -0.010067484505452532 -1 0 0
808 1 53.24206280052321 6.8247178198729195 1.56605167419906 -1 0 0
806 3 55.21092034741723 7.966033616466687 -0.010067484505453984 -1 0 0
812 1 57.18551665885121 6.824717819872921 1.566051674199055 -1 0 0
907 1 55.21378972968721 10.239849039836916 1.566051674199058 -1 0 0
905 3 53.23919341825323 11.381164836430687 -0.010067484505453623 -1 0 0
909 3 57.18264727658123 11.381164836430687 -0.010067484505457202 -1 0 0
810 3 59.15437420574522 7.966033616466689 -0.010067484505455042 -1 0 0
816 1 61.128970517179226 6.824717819872918 1.5660516741990624 -1 0 0
814 3 63.09782806407322 7.966033616466687 -0.010067484505453826 -1 0 0
911 1 59.15724358801522 10.239849039836917 1.5660516741990533 -1 0 0
915 1 63.100697446343226 10.239849039836916 1.5660516741990589 -1 0 0
913 3 61.12610113490921 11.381164836430688 -0.01006748450545734 -1 0 0
820 1 65.07242437550721 6.824717819872916 1.566051674199067 -1 0 0
818 3 67.04128192240123 7.966033616466688 -0.010067484505457266 -1 0 0
824 1 69.01587823383522 6.824717819872926 1.5660516741990496 -1 0 0
919 1 67.04415130467122 10.239849039836914 1.5660516741990627 -1 0 0
917 3 65.06955499323722 11.381164836430683 -0.010067484505447932 -1 0 0
921 3 69.01300885156523 11.381164836430687 -0.01006748450545739 -1 0 0
822 3 70.98473578072921 7.966033616466686 -0.010067484505453538 -1 0 0
828 1 72.95933209216322 6.8247178198729115 1.5660516741990693 -1 0 0
826 3 74.92818963905722 7.966033616466686 -0.010067484505453693 -1 0 0
923 1 70.98760516299922 10.239849039836916 1.5660516741990582 -1 0 0
927 1 74.9310590213272 10.239849039836916 1.5660516741990587 -1 0 0
925 3 72.95646270989323 11.381164836430688 -0.010067484505450152 -1 0 0
832 1 76.90278595049122 6.824717819872926 1.5660516741990496 -1 0 0
830 3 78.87164349738521 7.966033616466686 -0.01006748450545376 -1 0 0
836 1 80.84623980881923 6.824717819872917 1.5660516741990607 -1 0 0
931 1 78.87451287965521 10.239849039836916 1.5660516741990582 -1 0 0
929 3 76.89991656822123 11.381164836430687 -0.010067484505457322 -1 0 0
933 3 80.84337042654923 11.381164836430687 -0.01006748450545654 -1 0 0
834 3 82.81509735571322 7.966033616466678 -0.010067484505444625 -1 0 0
840 1 84.78969366714722 6.824717819872918 1.5660516741990638 -1 0 0
838 3 86.75855121404123 7.966033616466687 -0.010067484505455079 -1 0 0
935 1 82.81796673798323 10.239849039836923 1.5660516741990493 -1 0 0
939 1 86.76142059631123 10.239849039836908 1.5660516741990722 -1 0 0
937 3 84.7868242848772 11.381164836430688 -0.010067484505456404 -1 0 0
844 1 88.7331475254752 6.824717819872919 1.5660516741990607 -1 0 0
842 3 90.70200507236923 7.966033616466686 -0.010067484505457166 -1 0 0
848 1 92.67660138380322 6.8247178198729195 1.5660516741990602 -1 0 0
943 1 90.70487445463922 10.239849039836923 1.566051674199048 -1 0 0
941 3 88.73027814320523 11.381164836430687 -0.010067484505454256 -1 0 0
945 3 92.67373200153321 11.381164836430687 -0.01006748450545474 -1 0 0
846 3 94.64545893069723 7.966033616466685 -0.010067484505451795 -1 0 0
852 1 96.62005524213122 6.824717819872921 1.5660516741990567 -1 0 0
947 1 94.64832831296722 10.23984903983691 1.566051674199069 -1 0 0
949 3 96.61718585986122 11.381164836430687 -0.01006748450545292 -1 0 0
956 1 1.9771626422592237 13.654980259800915 1.5660516741990593 0 0 0
950 3 0.0025663308252234247 14.796296056394688 -0.010067484505461476 0 0 0
954 3 3.9460201891532196 14.79629605639469 -0.010067484505456796 0 0 0
1051 1 0.005435713095215996 17.070111479764925 1.5660516741990484 0 0 0
1055 1 3.9488895714232237 17.07011147976492 1.5660516741990536 0 0 0
960 1 5.920616500587227 13.654980259800915 1.5660516741990569 0 0 0
964 1 9.864070358915228 13.654980259800915 1.5660516741990589 0 0 0
958 3 7.88947404748122 14.796296056394686 -0.010067484505456633 0 0 0
1059 1 7.892343429751223 17.070111479764925 1.5660516741990516 0 0 0
968 1 13.807524217243229 13.654980259800915 1.5660516741990582 0 0 0
962 3 11.83292790580922 14.79629605639469 -0.010067484505456817 0 0 0
966 3 15.776381764137216 14.79629605639469 -0.010067484505457136 0 0 0
1063 1 11.83579728807923 17.07011147976492 1.5660516741990536 0 0 0
1067 1 15.779251146407223 17.07011147976492 1.566051674199056 0 0 0
972 1 17.75097807557123 13.654980259800915 1.5660516741990582 0 0 0
976 1 21.694431933899224 13.654980259800913 1.5660516741990584 0 0 0
970 3 19.71983562246522 14.796296056394684 -0.010067484505453209 0 0 0
1071 1 19.72270500473523 17.070111479764925 1.566051674199049 0 0 0
980 1 25.637885792227227 13.654980259800915 1.5660516741990589 0 0 0
974 3 23.663289480793225 14.79629605639469 -0.010067484505456008 0 0 0
978 3 27.606743339121223 14.79629605639469 -0.010067484505455755 0 0 0
1075 1 23.666158863063234 17.07011147976492 1.5660516741990527 0 0 0
1079 1 27.609612721391233 17.07011147976492 1.5660516741990524 0 0 0
984 1 29.581339650555226 13.654980259800915 1.5660516741990587 0 0 0
988 1 33.52479350888322 13.654980259800915 1.5660516741990587 0 0 0
982 3 31.550197197449222 14.79629605639469 -0.010067484505455766 0 0 0
1083 1 31.553066579719232 17.07011147976492 1.5660516741990524 0 0 0
992 1 37.46824736721122 13.654980259800915 1.566051674199059 0 0 0
986 3 35.49365105577722 14.79629605639469 -0.010067484505455747 0 0 0
990 3 39.43710491410523 14.796296056394688 -0.010067484505453148 0 0 0
1087 1 35.49652043804723 17.07011147976492 1.5660516741990522 0 0 0
1091 1 39.439974296375226 17.070111479764915 1.566051674199057 0 0 0
996 1 41.41170122553922 13.654980259800917 1.5660516741990549 0 0 0
1000 1 45.35515508386723 13.654980259800915 1.566051674199059 0 0 0
994 3 43.38055877243322 14.796296056394691 -0.010067484505458897 0 0 0
1095 1 43.383428154703225 17.07011147976492 1.5660516741990507 0 0 0
904 1 49.29860894219522 13.654980259800912 1.566051674199065 -1 0 0
998 3 47.32401263076122 14.79629605639469 -0.010067484505454161 0 0 0
902 3 51.26746648908923 14.796296056394688 -0.010067484505454189 -1 0 0
1099 1 47.32688201303123 17.07011147976492 1.5660516741990513 0 0 0
1003 1 51.270335871359215 17.070111479764915 1.5660516741990584 -1 0 0
908 1 53.24206280052321 13.654980259800915 1.5660516741990584 -1 0 0
912 1 57.18551665885121 13.654980259800919 1.5660516741990533 -1 0 0
906 3 55.21092034741723 14.79629605639469 -0.010067484505455826 -1 0 0
1007 1 55.21378972968721 17.07011147976492 1.5660516741990531 -1 0 0
916 1 61.12897051717922 13.654980259800915 1.5660516741990598 -1 0 0
910 3 59.15437420574522 14.796296056394686 -0.010067484505458172 -1 0 0
914 3 63.09782806407322 14.79629605639469 -0.010067484505455401 -1 0 0
1011 1 59.15724358801522 17.070111479764925 1.566051674199049 -1 0 0
1015 1 63.100697446343226 17.07011147976492 1.5660516741990527 -1 0 0
920 1 65.07242437550721 13.654980259800912 1.5660516741990653 -1 0 0
924 1 69.01587823383522 13.65498025980092 1.5660516741990484 -1 0 0
918 3 67.04128192240123 14.796296056394691 -0.010067484505459242 -1 0 0
1019 1 67.0441513046712 17.070111479764915 1.5660516741990573 -1 0 0
928 1 72.95933209216322 13.654980259800906 1.5660516741990684 -1 0 0
922 3 70.98473578072921 14.79629605639469 -0.01006748450545665 -1 0 0
926 3 74.92818963905722 14.79629605639469 -0.010067484505456168 -1 0 0
1023 1 70.98760516299922 17.07011147976492 1.5660516741990542 -1 0 0
1027 1 74.9310590213272 17.07011147976492 1.5660516741990547 -1 0 0
932 1 76.90278595049122 13.65498025980092 1.5660516741990484 -1 0 0
936 1 80.84623980881923 13.654980259800913 1.5660516741990598 -1 0 0
930 3 78.87164349738521 14.79629605639469 -0.010067484505456428 -1 0 0
1031 1 78.87451287965521 17.07011147976492 1.5660516741990542 -1 0 0
940 1 84.78969366714722 13.654980259800913 1.5660516741990622 -1 0 0
934 3 82.81509735571322 14.79629605639468 -0.010067484505447515 -1 0 0
938 3 86.75855121404123 14.796296056394693 -0.010067484505453628 -1 0 0
1035 1 82.81796673798323 17.070111479764925 1.5660516741990445 -1 0 0
1039 1 86.76142059631123 17.070111479764908 1.5660516741990664 -1 0 0
944 1 88.7331475254752 13.654980259800915 1.5660516741990582 -1 0 0
948 1 92.67660138380322 13.654980259800915 1.5660516741990589 -1 0 0
942 3 90.70200507236923 14.796296056394688 -0.010067484505459679 -1 0 0
1043 1 90.70487445463922 17.07011147976493 1.566051674199042 -1 0 0
952 1 96.62005524213122 13.654980259800917 1.5660516741990549 -1 0 0
946 3 94.64545893069723 14.796296056394691 -0.010067484505451614 -1 0 0
1047 1 94.64832831296722 17.07011147976491 1.5660516741990622 -1 0 0
1053 3 1.9742932599892182 18.211427276358677 -0.01006748450545927 0 0 0
1050 3 0.002566330825222704 21.626558496322673 -0.01006748450546159 0 0 0
1056 1 1.9771626422592241 20.485242699728925 1.5660516741990596 0 0 0
1054 3 3.9460201891532196 21.626558496322676 -0.010067484505456473 0 0 0
1057 3 5.917747118317224 18.211427276358673 -0.010067484505457797 0 0 0
1061 3 9.861200976645222 18.211427276358677 -0.01006748450545958 0 0 0
1060 1 5.9206165005872275 20.485242699728932 1.566051674199059 0 0 0
1058 3 7.889474047481219 21.626558496322673 -0.010067484505457514 0 0 0
1064 1 9.86407035891523 20.48524269972893 1.5660516741990598 0 0 0
1065 3 13.80465483497322 18.211427276358677 -0.010067484505457105 0 0 0
1062 3 11.83292790580922 21.626558496322676 -0.010067484505456513 0 0 0
1068 1 13.807524217243229 20.485242699728925 1.5660516741990596 0 0 0
1066 3 15.776381764137216 21.62655849632268 -0.01006748450545745 0 0 0
1069 3 17.748108693301226 18.211427276358677 -0.010067484505459157 0 0 0
1073 3 21.691562551629215 18.211427276358677 -0.010067484505457283 0 0 0
1072 1 17.75097807557123 20.485242699728925 1.5660516741990609 0 0 0
1070 3 19.71983562246522 21.62655849632268 -0.010067484505450775 0 0 0
1076 1 21.694431933899228 20.485242699728925 1.5660516741990598 0 0 0
1077 3 25.635016409957217 18.211427276358677 -0.010067484505457224 0 0 0
1074 3 23.663289480793225 21.626558496322676 -0.010067484505456192 0 0 0
1080 1 25.637885792227227 20.485242699728925 1.5660516741990584 0 0 0
1078 3 27.606743339121223 21.626558496322676 -0.010067484505455835 0 0 0
1081 3 29.578470268285216 18.211427276358677 -0.010067484505457233 0 0 0
1085 3 33.521924126613214 18.211427276358677 -0.010067484505457237 0 0 0
1084 1 29.581339650555226 20.485242699728925 1.5660516741990584 0 0 0
1082 3 31.550197197449222 21.626558496322676 -0.010067484505455849 0 0 0
1088 1 33.52479350888322 20.485242699728925 1.5660516741990582 0 0 0
1089 3 37.46537798494121 18.211427276358677 -0.010067484505457297 0 0 0
1086 3 35.49365105577722 21.626558496322676 -0.010067484505455814 0 0 0
1092 1 37.46824736721123 20.485242699728925 1.5660516741990587 0 0 0
1090 3 39.43710491410523 21.626558496322673 -0.010067484505451639 0 0 0
1093 3 41.408831843269226 18.211427276358673 -0.010067484505456034 0 0 0
1097 3 45.352285701597225 18.211427276358677 -0.010067484505457662 0 0 0
1096 1 41.41170122553922 20.48524269972893 1.5660516741990538 0 0 0
1094 3 43.38055877243322 21.626558496322676 -0.010067484505458536 0 0 0
1100 1 45.35515508386723 20.485242699728925 1.5660516741990584 0 0 0
1001 3 49.295739559925224 18.21142727635868 -0.010067484505455524 -1 0 0
1098 3 47.32401263076122 21.626558496322676 -0.010067484505454439 0 0 0
1002 3 51.26746648908923 21.626558496322676 -0.010067484505454643 -1 0 0
1004 1 49.29860894219522 20.48524269972892 1.5660516741990638 -1 0 0
1005 3 53.23919341825323 18.211427276358677 -0.010067484505458064 -1 0 0
1009 3 57.18264727658123 18.211427276358677 -0.010067484505460312 -1 0 0
1008 1 53.24206280052321 20.485242699728925 1.56605167419906 -1 0 0
1006 3 55.21092034741723 21.626558496322676 -0.010067484505457367 -1 0 0
1012 1 57.18551665885121 20.48524269972893 1.5660516741990544 -1 0 0
1013 3 61.12610113490921 18.21142727635868 -0.010067484505459415 -1 0 0
1010 3 59.15437420574522 21.626558496322673 -0.0100674845054596 -1 0 0
1016 1 61.128970517179226 20.485242699728925 1.5660516741990602 -1 0 0
1014 3 63.09782806407322 21.626558496322676 -0.010067484505455509 -1 0 0
1017 3 65.06955499323722 18.211427276358673 -0.010067484505450424 -1 0 0
1021 3 69.01300885156523 18.211427276358677 -0.010067484505462717 -1 0 0
1020 1 65.07242437550721 20.48524269972892 1.5660516741990649 -1 0 0
1018 3 67.04128192240123 21.626558496322676 -0.010067484505457764 -1 0 0
1024 1 69.01587823383522 20.485242699728932 1.566051674199047 -1 0 0
1025 3 72.95646270989323 18.211427276358684 -0.010067484505453498 -1 0 0
1022 3 70.9847357807292 21.626558496322676 -0.010067484505456352 -1 0 0
1028 1 72.95933209216322 20.485242699728914 1.5660516741990669 -1 0 0
1026 3 74.92818963905722 21.626558496322676 -0.010067484505455927 -1 0 0
1029 3 76.89991656822123 18.211427276358677 -0.010067484505462694 -1 0 0
1033 3 80.84337042654923 18.211427276358684 -0.010067484505456824 -1 0 0
1032 1 76.90278595049122 20.485242699728932 1.5660516741990471 -1 0 0
1030 3 78.87164349738521 21.626558496322676 -0.010067484505456631 -1 0 0
1036 1 80.84623980881923 20.485242699728918 1.5660516741990589 -1 0 0
1037 3 84.7868242848772 18.21142727635868 -0.01006748450546177 -1 0 0
1034 3 82.81509735571322 21.626558496322673 -0.010067484505444094 -1 0 0
1040 1 84.78969366714722 20.48524269972892 1.5660516741990629 -1 0 0
1038 3 86.75855121404123 21.626558496322684 -0.010067484505454154 -1 0 0
1041 3 88.73027814320523 18.211427276358677 -0.010067484505457924 -1 0 0
1045 3 92.6737320015332 18.211427276358677 -0.010067484505456921 -1 0 0
1044 1 88.7331475254752 20.485242699728925 1.5660516741990613 -1 0 0
1042 3 90.70200507236923 21.626558496322684 -0.010067484505457355 -1 0 0
1048 1 92.67660138380322 20.485242699728925 1.5660516741990607 -1 0 0
1049 3 96.61718585986122 18.211427276358677 -0.01006748450545656 -1 0 0
1046 3 94.64545893069723 21.62655849632268 -0.010067484505451169 -1 0 0
1052 1 96.62005524213122 20.48524269972893 1.5660516741990556 -1 0 0
1151 1 0.005435713095215973 23.90037391969293 1.566051674199057 0 0 0
1155 1 3.9488895714232237 23.900373919692925 1.5660516741990624 0 0 0
1153 3 1.9742932599892185 25.04168971628668 -0.010067484505452255 0 0 0
1156 1 1.977162642259225 27.315505139656914 1.5660516741990609 0 0 0
1150 3 0.0025663308252233978 28.45682093625069 -0.010067484505460666 0 0 0
1154 3 3.9460201891532205 28.456820936250683 -0.010067484505456276 0 0 0
1159 1 7.892343429751223 23.900373919692928 1.5660516741990604 0 0 0
1157 3 5.917747118317224 25.041689716286676 -0.010067484505450182 0 0 0
1161 3 9.861200976645222 25.04168971628668 -0.010067484505452636 0 0 0
1160 1 5.920616500587226 27.315505139656917 1.5660516741990589 0 0 0
1164 1 9.864070358915232 27.315505139656914 1.5660516741990607 0 0 0
1158 3 7.889474047481219 28.456820936250686 -0.010067484505455243 0 0 0
1163 1 11.83579728807923 23.900373919692925 1.5660516741990618 0 0 0
1167 1 15.779251146407223 23.90037391969292 1.5660516741990624 0 0 0
1165 3 13.80465483497322 25.04168971628668 -0.01006748450545045 0 0 0
1168 1 13.807524217243229 27.315505139656917 1.5660516741990584 0 0 0
1162 3 11.83292790580922 28.456820936250683 -0.010067484505456296 0 0 0
1166 3 15.776381764137216 28.45682093625069 -0.0100674845054565 0 0 0
1171 1 19.72270500473523 23.90037391969292 1.5660516741990558 0 0 0
1169 3 17.748108693301223 25.041689716286683 -0.010067484505454069 0 0 0
1173 3 21.691562551629218 25.041689716286683 -0.010067484505452843 0 0 0
1172 1 17.75097807557123 27.315505139656914 1.5660516741990593 0 0 0
1176 1 21.694431933899224 27.315505139656914 1.566051674199059 0 0 0
1170 3 19.71983562246522 28.456820936250683 -0.010067484505453155 0 0 0
1175 1 23.666158863063234 23.900373919692925 1.5660516741990615 0 0 0
1179 1 27.609612721391233 23.900373919692925 1.566051674199061 0 0 0
1177 3 25.635016409957217 25.04168971628668 -0.01006748450545052 0 0 0
1180 1 25.637885792227227 27.315505139656917 1.566051674199058 0 0 0
1174 3 23.663289480793225 28.456820936250683 -0.010067484505456031 0 0 0
1178 3 27.606743339121223 28.456820936250683 -0.01006748450545567 0 0 0
1183 1 31.553066579719232 23.900373919692925 1.566051674199061 0 0 0
1181 3 29.578470268285216 25.04168971628668 -0.01006748450545052 0 0 0
1185 3 33.521924126613214 25.04168971628668 -0.010067484505450511 0 0 0
1184 1 29.581339650555226 27.315505139656917 1.566051674199058 0 0 0
1188 1 33.52479350888322 27.315505139656917 1.5660516741990578 0 0 0
1182 3 31.550197197449222 28.456820936250686 -0.01006748450545493 0 0 0
1187 1 35.49652043804723 23.900373919692925 1.5660516741990609 0 0 0
1191 1 39.439974296375226 23.90037391969292 1.5660516741990655 0 0 0
1189 3 37.46537798494121 25.04168971628668 -0.010067484505450603 0 0 0
1192 1 37.46824736721122 27.315505139656917 1.5660516741990582 0 0 0
1186 3 35.49365105577722 28.456820936250683 -0.010067484505455653 0 0 0
1190 3 39.43710491410523 28.456820936250683 -0.010067484505453628 0 0 0
1195 1 43.383428154703225 23.900373919692925 1.566051674199059 0 0 0
1193 3 41.408831843269226 25.041689716286683 -0.010067484505445423 0 0 0
1197 3 45.352285701597225 25.04168971628668 -0.010067484505450957 0 0 0
1196 1 41.411701225539225 27.315505139656914 1.5660516741990527 0 0 0
1200 1 45.35515508386723 27.315505139656917 1.5660516741990582 0 0 0
1194 3 43.38055877243322 28.456820936250686 -0.010067484505459476 0 0 0
1199 1 47.32688201303123 23.900373919692925 1.56605167419906 0 0 0
1103 1 51.270335871359215 23.90037391969292 1.5660516741990667 -1 0 0
1101 3 49.295739559925224 25.041689716286683 -0.0100674845054488 -1 0 0
1104 1 49.29860894219522 27.31550513965691 1.5660516741990627 -1 0 0
1198 3 47.32401263076122 28.456820936250683 -0.0100674845054542 0 0 0
1102 3 51.26746648908923 28.456820936250683 -0.01006748450545382 -1 0 0
1107 1 55.21378972968721 23.900373919692925 1.5660516741990618 -1 0 0
1105 3 53.23919341825323 25.04168971628668 -0.010067484505451349 -1 0 0
1109 3 57.18264727658123 25.04168971628668 -0.010067484505453306 -1 0 0
1108 1 53.24206280052321 27.315505139656917 1.5660516741990584 -1 0 0
1112 1 57.18551665885121 27.315505139656917 1.5660516741990558 -1 0 0
1106 3 55.21092034741723 28.456820936250683 -0.010067484505456123 -1 0 0
1111 1 59.15724358801522 23.90037391969293 1.5660516741990576 -1 0 0
1115 1 63.100697446343226 23.900373919692925 1.5660516741990615 -1 0 0
1113 3 61.12610113490921 25.041689716286683 -0.01006748450545249 -1 0 0
1116 1 61.128970517179226 27.315505139656914 1.5660516741990613 -1 0 0
1110 3 59.15437420574522 28.45682093625069 -0.010067484505458805 -1 0 0
1114 3 63.09782806407322 28.456820936250683 -0.01006748450545545 -1 0 0
1119 1 67.0441513046712 23.90037391969292 1.5660516741990658 -1 0 0
1117 3 65.06955499323722 25.041689716286676 -0.010067484505443727 -1 0 0
1121 3 69.01300885156523 25.041689716286687 -0.01006748450545213 -1 0 0
1120 1 65.07242437550721 27.315505139656914 1.5660516741990647 -1 0 0
1124 1 69.01587823383522 27.315505139656917 1.5660516741990465 -1 0 0
1118 3 67.04128192240123 28.456820936250686 -0.010067484505459754 -1 0 0
1123 1 70.98760516299922 23.900373919692925 1.566051674199063 -1 0 0
1127 1 74.9310590213272 23.900373919692925 1.5660516741990635 -1 0 0
1125 3 72.95646270989323 25.041689716286687 -0.010067484505446764 -1 0 0
1128 1 72.95933209216322 27.315505139656903 1.5660516741990667 -1 0 0
1122 3 70.98473578072921 28.456820936250686 -0.010067484505457852 -1 0 0
1126 3 74.92818963905722 28.456820936250686 -0.010067484505457861 -1 0 0
1131 1 78.87451287965521 23.900373919692925 1.566051674199063 -1 0 0
1129 3 76.89991656822123 25.041689716286687 -0.01006748450545213 -1 0 0
1133 3 80.84337042654923 25.04168971628669 -0.010067484505451385 -1 0 0
1132 1 76.90278595049122 27.315505139656917 1.5660516741990465 -1 0 0
1136 1 80.84623980881923 27.315505139656906 1.5660516741990584 -1 0 0
1130 3 78.87164349738521 28.456820936250686 -0.01006748450545866 -1 0 0
1135 1 82.81796673798323 23.900373919692925 1.5660516741990516 -1 0 0
1139 1 86.76142059631123 23.90037391969291 1.5660516741990738 -1 0 0
1137 3 84.7868242848772 25.04168971628669 -0.01006748450545351 -1 0 0
1140 1 84.78969366714722 27.315505139656906 1.5660516741990613 -1 0 0
1134 3 82.81509735571322 28.45682093625068 -0.01006748450544909 -1 0 0
1138 3 86.75855121404123 28.456820936250693 -0.010067484505454381 -1 0 0
1143 1 90.70487445463922 23.900373919692925 1.5660516741990484 -1 0 0
1141 3 88.73027814320523 25.041689716286683 -0.01006748450545231 -1 0 0
1145 3 92.67373200153321 25.041689716286683 -0.010067484505452088 -1 0 0
1144 1 88.7331475254752 27.315505139656914 1.5660516741990596 -1 0 0
1148 1 92.67660138380322 27.315505139656914 1.5660516741990596 -1 0 0
1142 3 90.70200507236923 28.456820936250686 -0.01006748450545962 -1 0 0
1147 1 94.64832831296722 23.900373919692914 1.5660516741990689 -1 0 0
1149 3 96.61718585986122 25.04168971628668 -0.010067484505449685 -1 0 0