LAMMPS data file via write_data, version 29 Aug 2024, timestep = 2, units = metal

4500 atoms
6 atom types

0 98.5863464582 xlo xhi
0 102.45393659892 ylo yhi
-50 50 zlo zhi

Masses

1 72.63
2 72.63
3 72.63
4 127.6
5 127.6
6 127.6

Atoms # atomic

750 4 0.0013324646442900647 1.1370323599485863 -0.008500547915578069 0 0 0
754 4 3.9447863229722935 1.1370323599485883 -0.008500547915580395 0 0 0
851 1 0.003252172443699713 3.411827580474727 1.5666569354576787 0 0 0
855 1 3.9467060307717023 3.411827580474725 1.5666569354576814 0 0 0
853 4 1.9730593938082932 4.552163579912586 -0.008500547915583995 0 0 0
758 4 7.888240181300295 1.137032359948587 -0.008500547915579453 0 0 0
859 1 7.890159889099705 3.4118275804747267 1.5666569354576796 0 0 0
857 4 5.916513252136295 4.552163579912584 -0.00850054791558259 0 0 0
861 4 9.859967110464298 4.552163579912587 -0.008500547915583193 0 0 0
762 4 11.831694039628296 1.1370323599485879 -0.00850054791558081 0 0 0
766 4 15.775147897956295 1.1370323599485892 -0.008500547915581342 0 0 0
863 1 11.833613747427707 3.411827580474726 1.5666569354576811 0 0 0
867 1 15.777067605755704 3.411827580474724 1.5666569354576823 0 0 0
865 4 13.803420968792297 4.552163579912586 -0.008500547915582963 0 0 0
770 4 19.718601756284297 1.1370323599485854 -0.008500547915578225 0 0 0
871 1 19.720521464083703 3.411827580474728 1.5666569354576787 0 0 0
869 4 17.746874827120298 4.552163579912586 -0.00850054791558359 0 0 0
873 4 21.690328685448296 4.552163579912587 -0.008500547915584052 0 0 0
774 4 23.6620556146123 1.1370323599485879 -0.0085005479155807 0 0 0
778 4 27.605509472940298 1.137032359948588 -0.008500547915580907 0 0 0
875 1 23.66397532241171 3.411827580474726 1.5666569354576814 0 0 0
879 1 27.607429180739707 3.411827580474726 1.5666569354576811 0 0 0
877 4 25.633782543776295 4.552163579912586 -0.008500547915583296 0 0 0
782 4 31.548963331268297 1.1370323599485892 -0.008500547915582668 0 0 0
883 1 31.550883039067706 3.411827580474726 1.566656935457681 0 0 0
881 4 29.577236402104294 4.552163579912586 -0.0085005479155833 0 0 0
885 4 33.52069026043229 4.5521635799125875 -0.008500547915585053 0 0 0
786 4 35.49241718959629 1.137032359948588 -0.008500547915580909 0 0 0
790 4 39.435871047924294 1.1370323599485874 -0.008500547915579056 0 0 0
887 1 35.494336897395705 3.411827580474726 1.566656935457681 0 0 0
891 1 39.437790755723704 3.411827580474724 1.566656935457683 0 0 0
889 4 37.46414411876029 4.552163579912586 -0.008500547915583061 0 0 0
794 4 43.37932490625229 1.1370323599485892 -0.008500547915582402 0 0 0
895 1 43.3812446140517 3.4118275804747262 1.5666569354576796 0 0 0
893 4 41.407597977088294 4.552163579912584 -0.00850054791558099 0 0 0
897 4 45.35105183541629 4.552163579912587 -0.008500547915583516 0 0 0
798 4 47.32277876458029 1.1370323599485876 -0.008500547915579547 0 0 0
702 4 51.26623262290829 1.1370323599485876 -0.008500547915579505 -1 0 0
899 1 47.32469847237971 3.411827580474726 1.56665693545768 0 0 0
803 1 51.2681523307077 3.4118275804747245 1.5666569354576836 -1 0 0
801 4 49.29450569374429 4.552163579912587 -0.00850054791558257 -1 0 0
706 4 55.2096864812363 1.1370323599485883 -0.00850054791558065 -1 0 0
807 1 55.2116061890357 3.4118275804747253 1.5666569354576811 -1 0 0
805 4 53.2379595520723 4.552163579912586 -0.008500547915583257 -1 0 0
809 4 57.18141341040029 4.552163579912586 -0.008500547915585036 -1 0 0
710 4 59.15314033956429 1.1370323599485879 -0.008500547915580891 -1 0 0
714 4 63.096594197892294 1.1370323599485856 -0.00850054791557757 -1 0 0
811 1 59.1550600473637 3.411827580474727 1.5666569354576778 -1 0 0
815 1 63.09851390569171 3.411827580474728 1.5666569354576783 -1 0 0
813 4 61.12486726872829 4.552163579912587 -0.008500547915584643 -1 0 0
718 4 67.0400480562203 1.1370323599485892 -0.008500547915582118 -1 0 0
819 1 67.04196776401972 3.411827580474724 1.566656935457683 -1 0 0
817 4 65.06832112705628 4.552163579912586 -0.008500547915583275 -1 0 0
821 4 69.01177498538429 4.552163579912581 -0.00850054791557713 -1 0 0
722 4 70.9835019145483 1.137032359948588 -0.008500547915580385 -1 0 0
726 4 74.9269557728763 1.137032359948588 -0.008500547915580376 -1 0 0
823 1 70.9854216223477 3.4118275804747253 1.5666569354576816 -1 0 0
827 1 74.92887548067571 3.411827580474725 1.5666569354576816 -1 0 0
825 4 72.95522884371229 4.55216357991259 -0.008500547915590415 -1 0 0
730 4 78.8704096312043 1.137032359948588 -0.008500547915580489 -1 0 0
831 1 78.8723293390037 3.411827580474726 1.566656935457681 -1 0 0
829 4 76.89868270204029 4.552163579912582 -0.008500547915577347 -1 0 0
833 4 80.84213656036829 4.552163579912591 -0.008500547915590828 -1 0 0
734 4 82.8138634895323 1.1370323599485843 -0.00850054791557443 -1 0 0
738 4 86.7573173478603 1.1370323599485934 -0.008500547915589123 -1 0 0
835 1 82.81578319733171 3.4118275804747262 1.5666569354576816 -1 0 0
839 1 86.7592370556597 3.4118275804747236 1.5666569354576823 -1 0 0
837 4 84.78559041869629 4.552163579912581 -0.008500547915577496 -1 0 0
742 4 90.70077120618829 1.137032359948584 -0.008500547915574305 -1 0 0
843 1 90.7026909139877 3.4118275804747262 1.5666569354576818 -1 0 0
841 4 88.7290442770243 4.552163579912586 -0.00850054791558319 -1 0 0
845 4 92.6724981353523 4.552163579912586 -0.008500547915583426 -1 0 0
746 4 94.64422506451629 1.1370323599485928 -0.008500547915586956 -1 0 0
847 1 94.6461447723157 3.4118275804747245 1.56665693545768 -1 0 0
849 4 96.6159519936803 4.552163579912586 -0.008500547915582229 -1 0 0
850 4 0.001332464644290033 7.967294799876585 -0.008500547915578754 0 0 0
856 1 1.9749791016077025 6.826958800438726 1.5666569354576843 0 0 0
854 4 3.9447863229722935 7.967294799876587 -0.008500547915581004 0 0 0
951 1 0.0032521724436997265 10.242090020402726 1.5666569354576796 0 0 0
955 1 3.9467060307717023 10.242090020402724 1.5666569354576825 0 0 0
953 4 1.9730593938082928 11.382426019840588 -0.008500547915581358 0 0 0
860 1 5.918432959935704 6.826958800438727 1.5666569354576823 0 0 0
858 4 7.8882401813002945 7.967294799876586 -0.008500547915580548 0 0 0
864 1 9.861886818263708 6.826958800438726 1.5666569354576838 0 0 0
959 1 7.890159889099705 10.242090020402726 1.5666569354576805 0 0 0
957 4 5.916513252136296 11.382426019840587 -0.008500547915580879 0 0 0
961 4 9.859967110464297 11.382426019840588 -0.008500547915581148 0 0 0
862 4 11.831694039628296 7.967294799876587 -0.00850054791558086 0 0 0
868 1 13.805340676591706 6.826958800438726 1.5666569354576836 0 0 0
866 4 15.775147897956295 7.967294799876588 -0.008500547915582326 0 0 0
963 1 11.833613747427707 10.242090020402724 1.5666569354576823 0 0 0
967 1 15.777067605755704 10.242090020402724 1.5666569354576838 0 0 0
965 4 13.803420968792297 11.382426019840588 -0.008500547915581306 0 0 0
872 1 17.748794534919703 6.826958800438726 1.566656935457684 0 0 0
870 4 19.718601756284297 7.967294799876585 -0.008500547915578287 0 0 0
876 1 21.692248393247706 6.826958800438726 1.5666569354576843 0 0 0
971 1 19.720521464083706 10.242090020402726 1.5666569354576796 0 0 0
969 4 17.746874827120294 11.382426019840588 -0.00850054791558157 0 0 0
973 4 21.690328685448296 11.38242601984059 -0.008500547915581892 0 0 0
874 4 23.6620556146123 7.967294799876588 -0.008500547915581224 0 0 0
880 1 25.635702251575704 6.826958800438726 1.5666569354576838 0 0 0
878 4 27.605509472940298 7.967294799876587 -0.008500547915581056 0 0 0
975 1 23.66397532241171 10.242090020402724 1.5666569354576825 0 0 0
979 1 27.607429180739707 10.242090020402724 1.5666569354576823 0 0 0
977 4 25.633782543776295 11.382426019840588 -0.00850054791558127 0 0 0
884 1 29.579156109903703 6.826958800438726 1.5666569354576838 0 0 0
882 4 31.548963331268297 7.967294799876589 -0.008500547915582815 0 0 0
888 1 33.522609968231706 6.826958800438726 1.5666569354576836 0 0 0
983 1 31.550883039067706 10.242090020402724 1.566656935457682 0 0 0
981 4 29.577236402104294 11.382426019840588 -0.008500547915581275 0 0 0
985 4 33.52069026043229 11.38242601984059 -0.008500547915583053 0 0 0
886 4 35.49241718959629 7.967294799876587 -0.008500547915581405 0 0 0
892 1 37.466063826559704 6.826958800438725 1.566656935457684 0 0 0
890 4 39.435871047924294 7.967294799876586 -0.008500547915579653 0 0 0
987 1 35.494336897395705 10.242090020402724 1.5666569354576825 0 0 0
991 1 39.437790755723704 10.242090020402724 1.5666569354576838 0 0 0
989 4 37.46414411876029 11.382426019840588 -0.008500547915581394 0 0 0
896 1 41.4095176848877 6.826958800438728 1.5666569354576814 0 0 0
894 4 43.37932490625229 7.967294799876588 -0.008500547915583339 0 0 0
900 1 45.35297154321571 6.826958800438726 1.566656935457684 0 0 0
995 1 43.3812446140517 10.242090020402726 1.566656935457681 0 0 0
993 4 41.407597977088294 11.382426019840587 -0.00850054791557892 0 0 0
997 4 45.35105183541629 11.38242601984059 -0.008500547915581816 0 0 0
898 4 47.32277876458029 7.967294799876586 -0.008500547915580317 0 0 0
802 4 51.26623262290829 7.967294799876587 -0.008500547915579658 -1 0 0
804 1 49.2964254015437 6.826958800438724 1.566656935457687 -1 0 0
999 1 47.32469847237971 10.242090020402726 1.5666569354576816 0 0 0
903 1 51.2681523307077 10.242090020402722 1.5666569354576847 -1 0 0
901 4 49.29450569374429 11.382426019840588 -0.008500547915581809 -1 0 0
808 1 53.2398792598717 6.826958800438726 1.5666569354576836 -1 0 0
806 4 55.2096864812363 7.967294799876587 -0.008500547915580837 -1 0 0
812 1 57.1833331181997 6.826958800438728 1.566656935457681 -1 0 0
907 1 55.2116061890357 10.242090020402724 1.5666569354576823 -1 0 0
905 4 53.2379595520723 11.382426019840588 -0.008500547915581235 -1 0 0
909 4 57.181413410400296 11.382426019840588 -0.008500547915582475 -1 0 0
810 4 59.15314033956429 7.967294799876586 -0.008500547915581639 -1 0 0
816 1 61.126786976527704 6.826958800438725 1.566656935457685 -1 0 0
814 4 63.096594197892294 7.967294799876584 -0.008500547915578156 -1 0 0
911 1 59.1550600473637 10.242090020402726 1.5666569354576791 -1 0 0
915 1 63.09851390569171 10.242090020402728 1.5666569354576798 -1 0 0
913 4 61.12486726872829 11.38242601984059 -0.008500547915582654 -1 0 0
820 1 65.0702408348557 6.826958800438726 1.566656935457684 -1 0 0
818 4 67.0400480562203 7.967294799876588 -0.008500547915582678 -1 0 0
824 1 69.0136946931837 6.826958800438726 1.5666569354576843 -1 0 0
919 1 67.04196776401972 10.242090020402724 1.5666569354576843 -1 0 0
917 4 65.06832112705628 11.38242601984059 -0.008500547915581871 -1 0 0
921 4 69.01177498538429 11.382426019840585 -0.008500547915575018 -1 0 0
822 4 70.9835019145483 7.967294799876587 -0.008500547915581254 -1 0 0
828 1 72.9571485515117 6.8269588004387245 1.5666569354576831 -1 0 0
826 4 74.9269557728763 7.967294799876587 -0.008500547915580933 -1 0 0
923 1 70.9854216223477 10.242090020402724 1.5666569354576823 -1 0 0
927 1 74.92887548067571 10.242090020402724 1.566656935457682 -1 0 0
925 4 72.95522884371229 11.382426019840594 -0.008500547915587894 -1 0 0
832 1 76.90060240983969 6.826958800438727 1.5666569354576843 -1 0 0
830 4 78.8704096312043 7.967294799876587 -0.008500547915580957 -1 0 0
836 1 80.84405626816769 6.826958800438724 1.566656935457685 -1 0 0
931 1 78.8723293390037 10.242090020402724 1.5666569354576825 -1 0 0
929 4 76.89868270204029 11.382426019840585 -0.00850054791557495 -1 0 0
933 4 80.84213656036829 11.382426019840594 -0.008500547915589818 -1 0 0
834 4 82.8138634895323 7.9672947998765835 -0.008500547915574959 -1 0 0
840 1 84.7875101264957 6.826958800438731 1.5666569354576783 -1 0 0
838 4 86.7573173478603 7.967294799876592 -0.008500547915589709 -1 0 0
935 1 82.81578319733171 10.242090020402726 1.5666569354576827 -1 0 0
939 1 86.7592370556597 10.242090020402722 1.5666569354576834 -1 0 0
937 4 84.78559041869629 11.382426019840585 -0.008500547915575215 -1 0 0
844 1 88.73096398482372 6.826958800438726 1.5666569354576838 -1 0 0
842 4 90.70077120618829 7.9672947998765835 -0.008500547915574712 -1 0 0
848 1 92.6744178431517 6.826958800438726 1.566656935457684 -1 0 0
943 1 90.7026909139877 10.242090020402724 1.5666569354576831 -1 0 0
941 4 88.7290442770243 11.38242601984059 -0.008500547915581767 -1 0 0
945 4 92.6724981353523 11.38242601984059 -0.008500547915581738 -1 0 0
846 4 94.64422506451629 7.9672947998765915 -0.00850054791558741 -1 0 0
852 1 96.6178717014797 6.8269588004387245 1.5666569354576851 -1 0 0
947 1 94.6461447723157 10.242090020402724 1.5666569354576818 -1 0 0
949 4 96.6159519936803 11.382426019840588 -0.008500547915580215 -1 0 0
956 1 1.9749791016077027 13.657221240366724 1.566656935457683 0 0 0
950 4 0.0013324646442895425 14.797557239804586 -0.008500547915581485 0 0 0
954 4 3.944786322972293 14.797557239804588 -0.008500547915583433 0 0 0
1051 1 0.003252172443699866 17.072352460330727 1.566656935457678 0 0 0
1055 1 3.9467060307717023 17.072352460330727 1.5666569354576796 0 0 0
960 1 5.918432959935705 13.657221240366727 1.5666569354576814 0 0 0
964 1 9.861886818263708 13.657221240366725 1.5666569354576827 0 0 0
958 4 7.8882401813002945 14.797557239804586 -0.00850054791558293 0 0 0
1059 1 7.890159889099705 17.072352460330727 1.566656935457678 0 0 0
968 1 13.805340676591706 13.657221240366725 1.5666569354576827 0 0 0
962 4 11.831694039628296 14.797557239804588 -0.008500547915583497 0 0 0
966 4 15.775147897956295 14.79755723980459 -0.008500547915584106 0 0 0
1063 1 11.833613747427707 17.072352460330727 1.5666569354576791 0 0 0
1067 1 15.777067605755704 17.072352460330727 1.5666569354576811 0 0 0
972 1 17.748794534919703 13.657221240366725 1.5666569354576825 0 0 0
976 1 21.692248393247706 13.657221240366725 1.5666569354576825 0 0 0
970 4 19.718601756284297 14.797557239804586 -0.008500547915579625 0 0 0
1071 1 19.720521464083703 17.072352460330727 1.5666569354576771 0 0 0
980 1 25.635702251575704 13.657221240366724 1.5666569354576827 0 0 0
974 4 23.6620556146123 14.797557239804588 -0.008500547915583615 0 0 0
978 4 27.605509472940298 14.797557239804588 -0.008500547915583518 0 0 0
1075 1 23.66397532241171 17.072352460330727 1.5666569354576794 0 0 0
1079 1 27.607429180739707 17.072352460330727 1.5666569354576791 0 0 0
984 1 29.579156109903703 13.657221240366724 1.5666569354576827 0 0 0
988 1 33.522609968231706 13.657221240366724 1.5666569354576823 0 0 0
982 4 31.548963331268297 14.79755723980459 -0.008500547915584989 0 0 0
1083 1 31.550883039067706 17.072352460330727 1.5666569354576791 0 0 0
992 1 37.466063826559704 13.657221240366724 1.5666569354576825 0 0 0
986 4 35.49241718959629 14.797557239804588 -0.008500547915583273 0 0 0
990 4 39.435871047924294 14.797557239804588 -0.008500547915581991 0 0 0
1087 1 35.494336897395705 17.072352460330727 1.566656935457679 0 0 0
1091 1 39.437790755723704 17.072352460330727 1.5666569354576805 0 0 0
996 1 41.4095176848877 13.657221240366727 1.5666569354576807 0 0 0
1000 1 45.35297154321571 13.657221240366724 1.5666569354576827 0 0 0
994 4 43.37932490625229 14.79755723980459 -0.00850054791558538 0 0 0
1095 1 43.3812446140517 17.072352460330727 1.5666569354576774 0 0 0
904 1 49.2964254015437 13.657221240366724 1.5666569354576867 -1 0 0
998 4 47.32277876458029 14.797557239804588 -0.008500547915582158 0 0 0
902 4 51.26623262290829 14.797557239804588 -0.008500547915582204 -1 0 0
1099 1 47.32469847237971 17.072352460330727 1.5666569354576785 0 0 0
1003 1 51.2681523307077 17.072352460330723 1.5666569354576823 -1 0 0
908 1 53.2398792598717 13.657221240366724 1.5666569354576827 -1 0 0
912 1 57.1833331181997 13.657221240366725 1.56665693545768 -1 0 0
906 4 55.2096864812363 14.797557239804588 -0.008500547915583662 -1 0 0
1007 1 55.2116061890357 17.072352460330727 1.5666569354576794 -1 0 0
916 1 61.126786976527704 13.657221240366724 1.5666569354576836 -1 0 0
910 4 59.15314033956429 14.797557239804588 -0.008500547915584715 -1 0 0
914 4 63.096594197892294 14.797557239804586 -0.008500547915580265 -1 0 0
1011 1 59.1550600473637 17.072352460330727 1.566656935457677 -1 0 0
1015 1 63.09851390569171 17.072352460330727 1.566656935457676 -1 0 0
920 1 65.0702408348557 13.657221240366724 1.5666569354576831 -1 0 0
924 1 69.0136946931837 13.657221240366725 1.566656935457684 -1 0 0
918 4 67.0400480562203 14.79755723980459 -0.008500547915585313 -1 0 0
1019 1 67.04196776401972 17.072352460330723 1.5666569354576811 -1 0 0
928 1 72.9571485515117 13.657221240366724 1.566656935457682 -1 0 0
922 4 70.9835019145483 14.797557239804588 -0.00850054791558361 -1 0 0
926 4 74.9269557728763 14.797557239804588 -0.008500547915583332 -1 0 0
1023 1 70.9854216223477 17.072352460330727 1.5666569354576783 -1 0 0
1027 1 74.92887548067571 17.072352460330727 1.5666569354576785 -1 0 0
932 1 76.90060240983969 13.657221240366725 1.566656935457684 -1 0 0
936 1 80.84405626816769 13.657221240366724 1.5666569354576838 -1 0 0
930 4 78.8704096312043 14.797557239804588 -0.008500547915583658 -1 0 0
1031 1 78.8723293390037 17.072352460330727 1.5666569354576785 -1 0 0
940 1 84.78751012649569 13.65722124036673 1.5666569354576776 -1 0 0
934 4 82.8138634895323 14.797557239804586 -0.00850054791557654 -1 0 0
938 4 86.7573173478603 14.797557239804595 -0.008500547915591428 -1 0 0
1035 1 82.81578319733171 17.072352460330727 1.56665693545768 -1 0 0
1039 1 86.7592370556597 17.072352460330723 1.5666569354576803 -1 0 0
944 1 88.73096398482372 13.657221240366725 1.5666569354576825 -1 0 0
948 1 92.6744178431517 13.657221240366725 1.5666569354576825 -1 0 0
942 4 90.70077120618829 14.797557239804586 -0.008500547915576402 -1 0 0
1043 1 90.7026909139877 17.072352460330727 1.5666569354576811 -1 0 0
952 1 96.6178717014797 13.657221240366724 1.5666569354576838 -1 0 0
946 4 94.64422506451629 14.797557239804593 -0.008500547915588883 -1 0 0
1047 1 94.6461447723157 17.072352460330723 1.566656935457679 -1 0 0
1053 4 1.9730593938082932 18.212688459768586 -0.008500547915584335 0 0 0
1050 4 0.0013324646442900193 21.627819679732582 -0.008500547915578683 0 0 0
1056 1 1.9749791016077018 20.487483680294726 1.5666569354576834 0 0 0
1054 4 3.944786322972294 21.627819679732582 -0.008500547915583065 0 0 0
1057 4 5.916513252136296 18.212688459768582 -0.00850054791558321 0 0 0
1061 4 9.859967110464298 18.212688459768582 -0.008500547915583488 0 0 0
1060 1 5.918432959935704 20.48748368029473 1.5666569354576818 0 0 0
1058 4 7.8882401813002945 21.627819679732582 -0.00850054791558072 0 0 0
1064 1 9.861886818263708 20.48748368029473 1.5666569354576834 0 0 0
1065 4 13.803420968792297 18.212688459768586 -0.00850054791558426 0 0 0
1062 4 11.831694039628296 21.627819679732582 -0.008500547915583027 0 0 0
1068 1 13.805340676591708 20.48748368029473 1.5666569354576827 0 0 0
1066 4 15.775147897956293 21.627819679732582 -0.008500547915583415 0 0 0
1069 4 17.746874827120298 18.212688459768586 -0.008500547915584645 0 0 0
1073 4 21.690328685448296 18.212688459768586 -0.008500547915584722 0 0 0
1072 1 17.748794534919703 20.48748368029473 1.5666569354576823 0 0 0
1070 4 19.718601756284297 21.627819679732582 -0.008500547915579509 0 0 0
1076 1 21.692248393247706 20.48748368029473 1.5666569354576831 0 0 0
1077 4 25.633782543776295 18.212688459768586 -0.008500547915583835 0 0 0
1074 4 23.6620556146123 21.627819679732582 -0.008500547915582898 0 0 0
1080 1 25.635702251575704 20.487483680294726 1.566656935457683 0 0 0
1078 4 27.605509472940298 21.627819679732582 -0.008500547915582768 0 0 0
1081 4 29.577236402104294 18.212688459768586 -0.00850054791558384 0 0 0
1085 4 33.52069026043229 18.212688459768586 -0.008500547915585601 0 0 0
1084 1 29.579156109903703 20.487483680294726 1.566656935457683 0 0 0
1082 4 31.548963331268297 21.627819679732582 -0.008500547915584501 0 0 0
1088 1 33.522609968231706 20.487483680294726 1.5666569354576827 0 0 0
1089 4 37.46414411876029 18.212688459768586 -0.008500547915583884 0 0 0
1086 4 35.49241718959629 21.627819679732582 -0.00850054791558275 0 0 0
1092 1 37.466063826559704 20.487483680294726 1.5666569354576831 0 0 0
1090 4 39.435871047924294 21.627819679732582 -0.008500547915582149 0 0 0
1093 4 41.407597977088294 18.212688459768582 -0.008500547915579993 0 0 0
1097 4 45.35105183541629 18.212688459768586 -0.008500547915584066 0 0 0
1096 1 41.4095176848877 20.48748368029473 1.5666569354576814 0 0 0
1094 4 43.37932490625229 21.627819679732582 -0.008500547915585532 0 0 0
1100 1 45.35297154321571 20.487483680294726 1.5666569354576836 0 0 0
1001 4 49.29450569374429 18.212688459768586 -0.008500547915583356 -1 0 0
1098 4 47.32277876458029 21.627819679732582 -0.008500547915582506 0 0 0
1002 4 51.26623262290829 21.627819679732582 -0.008500547915582225 -1 0 0
1004 1 49.2964254015437 20.487483680294726 1.5666569354576858 -1 0 0
1005 4 53.2379595520723 18.212688459768586 -0.008500547915583894 -1 0 0
1009 4 57.18141341040029 18.212688459768586 -0.00850054791558543 -1 0 0
1008 1 53.2398792598717 20.487483680294726 1.5666569354576831 -1 0 0
1006 4 55.2096864812363 21.627819679732582 -0.008500547915583285 -1 0 0
1012 1 57.1833331181997 20.48748368029473 1.5666569354576805 -1 0 0
1013 4 61.12486726872829 18.212688459768586 -0.008500547915585157 -1 0 0
1010 4 59.15314033956429 21.627819679732582 -0.008500547915581873 -1 0 0
1016 1 61.126786976527704 20.487483680294726 1.5666569354576836 -1 0 0
1014 4 63.096594197892294 21.62781967973258 -0.008500547915579772 -1 0 0
1017 4 65.06832112705628 18.212688459768586 -0.008500547915584439 -1 0 0
1021 4 69.01177498538429 18.212688459768582 -0.008500547915576352 -1 0 0
1020 1 65.0702408348557 20.487483680294726 1.5666569354576834 -1 0 0
1018 4 67.0400480562203 21.627819679732582 -0.008500547915585167 -1 0 0
1024 1 69.0136946931837 20.48748368029473 1.5666569354576847 -1 0 0
1025 4 72.95522884371229 18.21268845976859 -0.00850054791558956 -1 0 0
1022 4 70.9835019145483 21.627819679732582 -0.008500547915584054 -1 0 0
1028 1 72.9571485515117 20.48748368029473 1.5666569354576836 -1 0 0
1026 4 74.9269557728763 21.627819679732582 -0.008500547915584076 -1 0 0
1029 4 76.89868270204029 18.212688459768582 -0.00850054791557659 -1 0 0
1033 4 80.84213656036829 18.21268845976859 -0.008500547915591631 -1 0 0
1032 1 76.90060240983969 20.48748368029473 1.5666569354576847 -1 0 0
1030 4 78.8704096312043 21.627819679732582 -0.008500547915584054 -1 0 0
1036 1 80.84405626816769 20.487483680294726 1.5666569354576847 -1 0 0
1037 4 84.78559041869629 18.212688459768582 -0.008500547915577781 -1 0 0
1034 4 82.8138634895323 21.62781967973258 -0.008500547915576934 -1 0 0
1040 1 84.7875101264957 20.487483680294734 1.5666569354576774 -1 0 0
1038 4 86.7573173478603 21.62781967973259 -0.008500547915590647 -1 0 0
1041 4 88.7290442770243 18.212688459768586 -0.008500547915585223 -1 0 0
1045 4 92.6724981353523 18.212688459768586 -0.00850054791558517 -1 0 0
1044 1 88.73096398482372 20.48748368029473 1.566656935457682 -1 0 0
1042 4 90.70077120618829 21.62781967973258 -0.008500547915575874 -1 0 0
1048 1 92.6744178431517 20.48748368029473 1.5666569354576825 -1 0 0
1049 4 96.6159519936803 18.212688459768586 -0.008500547915583759 -1 0 0
1046 4 94.64422506451629 21.627819679732585 -0.00850054791558882 -1 0 0
1052 1 96.6178717014797 20.487483680294726 1.5666569354576838 -1 0 0
1151 1 0.003252172443699501 23.902614900258726 1.5666569354576823 0 0 0
1155 1 3.9467060307717023 23.902614900258726 1.566656935457685 0 0 0
1153 4 1.973059393808294 25.042950899696585 -0.008500547915580203 0 0 0
1156 1 1.974979101607702 27.317746120222722 1.5666569354576827 0 0 0
1150 4 0.0013324646442900048 28.45808211966058 -0.008500547915580215 0 0 0
1154 4 3.944786322972293 28.458082119660588 -0.008500547915583509 0 0 0
1159 1 7.890159889099705 23.902614900258726 1.5666569354576827 0 0 0
1157 4 5.916513252136295 25.042950899696585 -0.008500547915577457 0 0 0
1161 4 9.859967110464298 25.042950899696585 -0.008500547915579302 0 0 0
1160 1 5.918432959935704 27.317746120222722 1.5666569354576811 0 0 0
1164 1 9.861886818263708 27.317746120222722 1.5666569354576825 0 0 0
1158 4 7.888240181300295 28.458082119660585 -0.008500547915583023 0 0 0
1163 1 11.833613747427707 23.902614900258726 1.566656935457684 0 0 0
1167 1 15.777067605755704 23.902614900258726 1.566656935457687 0 0 0
1165 4 13.803420968792297 25.042950899696585 -0.008500547915579089 0 0 0
1168 1 13.805340676591706 27.317746120222722 1.566656935457683 0 0 0
1162 4 11.831694039628296 28.458082119660585 -0.008500547915582348 0 0 0
1166 4 15.775147897956295 28.458082119660588 -0.008500547915583048 0 0 0
1171 1 19.720521464083703 23.90261490025873 1.566656935457682 0 0 0
1169 4 17.746874827120298 25.042950899696585 -0.008500547915579571 0 0 0
1173 4 21.690328685448296 25.042950899696585 -0.008500547915579778 0 0 0
1172 1 17.748794534919707 27.317746120222722 1.5666569354576823 0 0 0
1176 1 21.692248393247706 27.317746120222722 1.5666569354576825 0 0 0
1170 4 19.718601756284297 28.458082119660585 -0.008500547915578794 0 0 0
1175 1 23.66397532241171 23.902614900258726 1.5666569354576843 0 0 0
1179 1 27.607429180739707 23.902614900258726 1.566656935457684 0 0 0
1177 4 25.633782543776295 25.042950899696585 -0.008500547915578954 0 0 0
1180 1 25.635702251575704 27.317746120222722 1.5666569354576823 0 0 0
1174 4 23.6620556146123 28.458082119660585 -0.008500547915582251 0 0 0
1178 4 27.605509472940298 28.458082119660585 -0.008500547915582173 0 0 0
1183 1 31.550883039067706 23.902614900258726 1.566656935457684 0 0 0
1181 4 29.577236402104294 25.042950899696585 -0.008500547915578964 0 0 0
1185 4 33.52069026043229 25.042950899696585 -0.008500547915580688 0 0 0
1184 1 29.579156109903703 27.317746120222722 1.5666569354576823 0 0 0
1188 1 33.522609968231706 27.317746120222722 1.5666569354576823 0 0 0
1182 4 31.548963331268297 28.458082119660588 -0.008500547915583911 0 0 0
1187 1 35.494336897395705 23.902614900258726 1.5666569354576838 0 0 0
1191 1 39.437790755723704 23.902614900258726 1.5666569354576856 0 0 0
1189 4 37.46414411876029 25.042950899696585 -0.008500547915578933 0 0 0
1192 1 37.466063826559704 27.317746120222722 1.5666569354576827 0 0 0
1186 4 35.49241718959629 28.458082119660585 -0.008500547915582456 0 0 0
1190 4 39.435871047924294 28.458082119660585 -0.00850054791558144 0 0 0
1195 1 43.3812446140517 23.902614900258726 1.5666569354576825 0 0 0
1193 4 41.407597977088294 25.04295089969658 -0.00850054791557503 0 0 0
1197 4 45.35105183541629 25.042950899696585 -0.008500547915579047 0 0 0
1196 1 41.4095176848877 27.317746120222726 1.5666569354576805 0 0 0
1200 1 45.35297154321571 27.317746120222722 1.5666569354576827 0 0 0
1194 4 43.37932490625229 28.458082119660588 -0.008500547915584845 0 0 0
1199 1 47.32469847237971 23.902614900258726 1.5666569354576827 0 0 0
1103 1 51.2681523307077 23.902614900258726 1.5666569354576863 -1 0 0
1101 4 49.29450569374429 25.042950899696585 -0.008500547915578355 -1 0 0
1104 1 49.2964254015437 27.317746120222722 1.5666569354576871 -1 0 0
1198 4 47.32277876458029 28.458082119660585 -0.008500547915581557 0 0 0
1102 4 51.2662326229083 28.458082119660585 -0.0085005479155817 -1 0 0
1107 1 55.2116061890357 23.902614900258726 1.5666569354576845 -1 0 0
1105 4 53.2379595520723 25.042950899696585 -0.008500547915578896 -1 0 0
1109 4 57.18141341040029 25.042950899696585 -0.008500547915581008 -1 0 0
1108 1 53.2398792598717 27.317746120222722 1.5666569354576825 -1 0 0
1112 1 57.1833331181997 27.317746120222726 1.5666569354576798 -1 0 0
1106 4 55.2096864812363 28.458082119660585 -0.008500547915582576 -1 0 0
1111 1 59.1550600473637 23.902614900258726 1.5666569354576814 -1 0 0
1115 1 63.09851390569171 23.902614900258726 1.5666569354576811 -1 0 0
1113 4 61.12486726872829 25.042950899696585 -0.00850054791558106 -1 0 0
1116 1 61.126786976527704 27.317746120222722 1.5666569354576834 -1 0 0
1110 4 59.15314033956429 28.458082119660585 -0.008500547915583669 -1 0 0
1114 4 63.096594197892294 28.458082119660585 -0.00850054791557947 -1 0 0
1119 1 67.04196776401972 23.902614900258726 1.566656935457686 -1 0 0
1117 4 65.06832112705628 25.042950899696585 -0.008500547915579486 -1 0 0
1121 4 69.01177498538429 25.04295089969658 -0.008500547915571739 -1 0 0
1120 1 65.0702408348557 27.317746120222722 1.5666569354576827 -1 0 0
1124 1 69.0136946931837 27.317746120222726 1.5666569354576843 -1 0 0
1118 4 67.0400480562203 28.458082119660588 -0.008500547915584527 -1 0 0
1123 1 70.9854216223477 23.902614900258726 1.5666569354576831 -1 0 0
1127 1 74.92887548067571 23.902614900258726 1.5666569354576834 -1 0 0
1125 4 72.95522884371229 25.04295089969659 -0.008500547915584751 -1 0 0
1128 1 72.9571485515117 27.317746120222722 1.5666569354576831 -1 0 0
1122 4 70.9835019145483 28.458082119660588 -0.0085005479155837 -1 0 0
1126 4 74.9269557728763 28.458082119660588 -0.008500547915583424 -1 0 0
1131 1 78.8723293390037 23.902614900258726 1.5666569354576831 -1 0 0
1129 4 76.89868270204029 25.04295089969658 -0.008500547915571992 -1 0 0
1133 4 80.84213656036829 25.04295089969659 -0.008500547915587138 -1 0 0
1132 1 76.90060240983969 27.317746120222726 1.5666569354576843 -1 0 0
1136 1 80.84405626816769 27.317746120222722 1.5666569354576847 -1 0 0
1130 4 78.8704096312043 28.458082119660588 -0.0085005479155837 -1 0 0
1135 1 82.81578319733171 23.902614900258726 1.566656935457685 -1 0 0
1139 1 86.7592370556597 23.902614900258726 1.566656935457686 -1 0 0
1137 4 84.78559041869629 25.04295089969658 -0.008500547915572757 -1 0 0
1140 1 84.7875101264957 27.31774612022273 1.5666569354576763 -1 0 0
1134 4 82.8138634895323 28.458082119660585 -0.008500547915575933 -1 0 0
1138 4 86.7573173478603 28.45808211966059 -0.008500547915590698 -1 0 0
1143 1 90.7026909139877 23.902614900258726 1.566656935457686 -1 0 0
1141 4 88.7290442770243 25.042950899696585 -0.008500547915580246 -1 0 0
1145 4 92.6724981353523 25.042950899696585 -0.008500547915580189 -1 0 0
1144 1 88.73096398482372 27.317746120222722 1.5666569354576816 -1 0 0
1148 1 92.6744178431517 27.317746120222722 1.5666569354576818 -1 0 0
1142 4 90.70077120618829 28.45808211966058 -0.008500547915575153 -1 0 0
1147 1 94.6461447723157 23.902614900258726 1.5666569354576851 -1 0 0
1149 4 96.6159519936803 25.042950899696585 -0.008500547915579663 -1 0 0
1152 1 96.6178717014797 27.317746120222722 1.5666569354576831 -1 0 0