LAMMPS data file via write_data, version 29 Aug 2024, timestep = 3, units = metal

7168 atoms
8 atom types

0 100.352145929504 xlo xhi
0 99.322865941984 ylo yhi
-50 50 zlo zhi

Masses

1 26.9815385
2 26.9815385
3 26.9815385
4 26.9815385
5 32.06
6 32.06
7 32.06
8 32.06

Atoms # atomic

1907 5 0 1.0346131868953379 0.017876099571404593 0 0 0
1915 5 3.584005211767995 1.0346131868953379 0.017876099571402054 0 0 0
1906 1 0 3.103839560686647 1.0744445665046003 0 0 0
1914 1 3.5840052117679964 3.1038395606866485 1.0744445665045976 0 0 0
1908 5 1.7920026058839962 4.138452747582335 0.017876099571402057 0 0 0
1916 5 5.376007817651997 4.138452747582336 0.017876099571402723 0 0 0
1923 5 7.168010423535997 1.034613186895339 0.017876099571402102 0 0 0
1931 5 10.752015635303998 1.034613186895339 0.017876099571402144 0 0 0
1922 1 7.168010423535996 3.1038395606866485 1.074444566504598 0 0 0
1930 1 10.752015635303998 3.103839560686649 1.0744445665045979 0 0 0
1924 5 8.960013029419997 4.138452747582336 0.01787609957140298 0 0 0
1939 5 14.336020847071998 1.0346131868953392 0.017876099571401318 0 0 0
1938 1 14.336020847071998 3.1038395606866485 1.0744445665045976 0 0 0
1932 5 12.544018241187997 4.138452747582336 0.017876099571402737 0 0 0
1940 5 16.128023452955997 4.138452747582335 0.017876099571403098 0 0 0
1947 5 17.920026058839998 1.0346131868953397 0.017876099571401988 0 0 0
1955 5 21.504031270608 1.0346131868953392 0.017876099571402224 0 0 0
1946 1 17.920026058839998 3.1038395606866476 1.0744445665045983 0 0 0
1954 1 21.504031270608 3.1038395606866485 1.0744445665045979 0 0 0
1948 5 19.712028664724 4.138452747582335 0.01787609957140305 0 0 0
1956 5 23.296033876492 4.138452747582336 0.01787609957140264 0 0 0
1963 5 25.088036482376 1.034613186895338 0.017876099571402303 0 0 0
1971 5 28.672041694143996 1.0346131868953388 0.017876099571402335 0 0 0
1962 1 25.088036482376 3.1038395606866485 1.074444566504598 0 0 0
1970 1 28.672041694143996 3.1038395606866485 1.0744445665045979 0 0 0
1964 5 26.88003908826 4.138452747582335 0.017876099571401252 0 0 0
1979 5 32.256046905911994 1.03461318689534 0.017876099571402293 0 0 0
1978 1 32.256046905912 3.103839560686648 1.0744445665045979 0 0 0
1972 5 30.464044300027997 4.138452747582335 0.017876099571402473 0 0 0
1980 5 34.048049511796 4.138452747582336 0.017876099571402633 0 0 0
1987 5 35.840052117679996 1.034613186895339 0.017876099571401308 0 0 0
1995 5 39.424057329448 1.0346131868953385 0.017876099571401734 0 0 0
1986 1 35.840052117679996 3.103839560686649 1.0744445665045985 0 0 0
1994 1 39.424057329448 3.103839560686648 1.0744445665045959 0 0 0
1988 5 37.632054723563996 4.138452747582336 0.0178760995714031 0 0 0
1996 5 41.216059935332 4.138452747582336 0.01787609957140318 0 0 0
2003 5 43.008062541216 1.03461318689534 0.017876099571400246 0 0 0
2011 5 46.592067752984 1.0346131868953374 0.01787609957140443 0 0 0
2002 1 43.008062541216 3.103839560686649 1.0744445665045985 0 0 0
2010 1 46.592067752984 3.103839560686648 1.0744445665045979 0 0 0
2004 5 44.8000651471 4.138452747582335 0.01787609957140307 0 0 0
1795 5 50.176072964752 1.0346131868953394 0.017876099571403157 -1 0 0
1794 1 50.176072964752 3.103839560686649 1.0744445665045987 -1 0 0
2012 5 48.384070358868 4.138452747582335 0.017876099571402924 0 0 0
1796 5 51.968075570636 4.138452747582335 0.017876099571403025 -1 0 0
1803 5 53.760078176520004 1.0346131868953377 0.017876099571403688 -1 0 0
1811 5 57.344083388288 1.0346131868953377 0.017876099571403306 -1 0 0
1802 1 53.760078176520004 3.103839560686649 1.0744445665045979 -1 0 0
1810 1 57.344083388288 3.1038395606866485 1.0744445665045979 -1 0 0
1804 5 55.552080782404005 4.138452747582334 0.017876099571401488 -1 0 0
1819 5 60.928088600056 1.034613186895339 0.01787609957140013 -1 0 0
1827 5 64.512093811824 1.0346131868953392 0.01787609957140006 -1 0 0
1818 1 60.928088600056 3.103839560686649 1.0744445665045976 -1 0 0
1826 1 64.512093811824 3.1038395606866485 1.0744445665045974 -1 0 0
1812 5 59.136085994172 4.138452747582335 0.017876099571402865 -1 0 0
1820 5 62.72009120594 4.1384527475823365 0.01787609957140248 -1 0 0
1835 5 68.096099023592 1.0346131868953388 0.017876099571402328 -1 0 0
1834 1 68.096099023592 3.1038395606866485 1.0744445665045979 -1 0 0
1828 5 66.304096417708 4.138452747582334 0.017876099571404312 -1 0 0
1836 5 69.888101629476 4.138452747582335 0.017876099571403136 -1 0 0
1843 5 71.68010423536 1.034613186895339 0.01787609957140252 -1 0 0
1851 5 75.264109447128 1.034613186895339 0.01787609957140253 -1 0 0
1842 1 71.68010423536 3.1038395606866485 1.0744445665045979 -1 0 0
1850 1 75.264109447128 3.1038395606866485 1.0744445665045979 -1 0 0
1844 5 73.472106841244 4.138452747582335 0.017876099571403056 -1 0 0
1859 5 78.84811465889601 1.0346131868953385 0.017876099571403566 -1 0 0
1867 5 82.43211987066401 1.0346131868953325 0.01787609957140446 -1 0 0
1858 1 78.84811465889601 3.1038395606866485 1.074444566504598 -1 0 0
1866 1 82.43211987066401 3.1038395606866507 1.074444566504599 -1 0 0
1852 5 77.056112053012 4.138452747582335 0.017876099571402886 -1 0 0
1860 5 80.64011726478 4.138452747582334 0.017876099571400007 -1 0 0
1875 5 86.016125082432 1.0346131868953325 0.017876099571404333 -1 0 0
1874 1 86.016125082432 3.1038395606866502 1.0744445665045992 -1 0 0
1868 5 84.224122476548 4.1384527475823365 0.017876099571405304 -1 0 0
1876 5 87.808127688316 4.138452747582335 0.017876099571400697 -1 0 0
1883 5 89.6001302942 1.0346131868953394 0.017876099571399386 -1 0 0
1891 5 93.184135505968 1.034613186895338 0.01787609957140673 -1 0 0
1882 1 89.6001302942 3.103839560686649 1.0744445665045965 -1 0 0
1890 1 93.184135505968 3.1038395606866476 1.0744445665045996 -1 0 0
1884 5 91.39213290008401 4.138452747582335 0.017876099571402668 -1 0 0
1899 5 96.768140717736 1.0346131868953365 0.017876099571400808 -1 0 0
1898 1 96.768140717736 3.1038395606866493 1.0744445665045963 -1 0 0
1892 5 94.976138111852 4.138452747582335 0.017876099571403 -1 0 0
1900 5 98.56014332362 4.1384527475823365 0.017876099571401894 -1 0 0
2131 5 0 7.242292308269337 0.017876099571402897 0 0 0
2129 1 1.7920026058839966 6.20767912137365 1.0744445665045985 0 0 0
2139 5 3.584005211767997 7.242292308269335 0.01787609957140182 0 0 0
2137 1 5.376007817651996 6.20767912137365 1.074444566504599 0 0 0
2130 1 0 9.31151868206065 1.074444566504601 0 0 0
2138 1 3.5840052117679964 9.311518682060651 1.0744445665045983 0 0 0
2132 5 1.7920026058839962 10.346131868956336 0.017876099571402383 0 0 0
2140 5 5.376007817651997 10.346131868956336 0.017876099571402883 0 0 0
2147 5 7.168010423535997 7.242292308269335 0.01787609957140264 0 0 0
2145 1 8.960013029419997 6.20767912137365 1.0744445665045987 0 0 0
2155 5 10.752015635303998 7.242292308269335 0.01787609957140256 0 0 0
2146 1 7.168010423535996 9.311518682060651 1.0744445665045987 0 0 0
2154 1 10.752015635303998 9.311518682060651 1.0744445665045987 0 0 0
2148 5 8.960013029419997 10.346131868956336 0.017876099571403212 0 0 0
2153 1 12.544018241187997 6.20767912137365 1.074444566504599 0 0 0
2163 5 14.336020847071998 7.242292308269335 0.017876099571402123 0 0 0
2161 1 16.128023452955997 6.207679121373651 1.0744445665045985 0 0 0
2162 1 14.336020847071998 9.311518682060651 1.0744445665045985 0 0 0
2156 5 12.544018241187997 10.346131868956336 0.01787609957140301 0 0 0
2164 5 16.128023452955997 10.346131868956336 0.01787609957140282 0 0 0
2171 5 17.920026058839998 7.242292308269336 0.01787609957140215 0 0 0
2169 1 19.712028664724 6.20767912137365 1.0744445665045987 0 0 0
2179 5 21.504031270608 7.242292308269335 0.017876099571402824 0 0 0
2177 1 23.296033876492 6.20767912137365 1.074444566504599 0 0 0
2170 1 17.920026058839998 9.311518682060651 1.074444566504599 0 0 0
2178 1 21.504031270608 9.311518682060651 1.0744445665045985 0 0 0
2172 5 19.712028664724 10.346131868956336 0.01787609957140329 0 0 0
2180 5 23.296033876492 10.346131868956336 0.017876099571402827 0 0 0
2187 5 25.088036482375998 7.242292308269335 0.017876099571402168 0 0 0
2185 1 26.88003908826 6.20767912137365 1.0744445665045983 0 0 0
2195 5 28.672041694144 7.242292308269335 0.017876099571402265 0 0 0
2186 1 25.088036482375998 9.311518682060651 1.0744445665045987 0 0 0
2194 1 28.672041694143996 9.311518682060651 1.0744445665045987 0 0 0
2188 5 26.88003908826 10.346131868956336 0.01787609957140128 0 0 0
2193 1 30.464044300027997 6.207679121373651 1.0744445665045983 0 0 0
2203 5 32.256046905912 7.242292308269335 0.01787609957140379 0 0 0
2201 1 34.048049511796 6.20767912137365 1.0744445665045992 0 0 0
2202 1 32.256046905912 9.311518682060651 1.0744445665045987 0 0 0
2196 5 30.464044300027997 10.346131868956336 0.017876099571402643 0 0 0
2204 5 34.048049511796 10.346131868956338 0.017876099571402765 0 0 0
2211 5 35.840052117679996 7.242292308269335 0.017876099571401308 0 0 0
2209 1 37.632054723563996 6.207679121373651 1.074444566504599 0 0 0
2219 5 39.424057329448 7.2422923082693345 0.017876099571402237 0 0 0
2217 1 41.216059935332 6.207679121373651 1.074444566504599 0 0 0
2210 1 35.840052117679996 9.311518682060651 1.0744445665045999 0 0 0
2218 1 39.424057329448 9.311518682060651 1.0744445665045965 0 0 0
2212 5 37.632054723563996 10.346131868956336 0.017876099571403483 0 0 0
2220 5 41.216059935332 10.346131868956336 0.017876099571403483 0 0 0
2227 5 43.008062541216 7.242292308269335 0.017876099571401335 0 0 0
2225 1 44.8000651471 6.20767912137365 1.0744445665045985 0 0 0
2235 5 46.592067752984 7.242292308269335 0.017876099571403157 0 0 0
2226 1 43.008062541216 9.311518682060651 1.0744445665045999 0 0 0
2234 1 46.592067752984 9.311518682060651 1.0744445665045983 0 0 0
2228 5 44.8000651471 10.346131868956336 0.017876099571403282 0 0 0
2233 1 48.384070358868 6.20767912137365 1.0744445665045985 0 0 0
2019 5 50.176072964752 7.242292308269336 0.01787609957140435 -1 0 0
2017 1 51.968075570636 6.20767912137365 1.0744445665045987 -1 0 0
2018 1 50.176072964752 9.311518682060651 1.0744445665045996 -1 0 0
2236 5 48.384070358868 10.346131868956336 0.01787609957140241 0 0 0
2020 5 51.968075570636 10.346131868956336 0.017876099571402956 -1 0 0
2027 5 53.760078176520004 7.242292308269335 0.017876099571403313 -1 0 0
2025 1 55.552080782404005 6.207679121373651 1.0744445665045983 -1 0 0
2035 5 57.344083388288006 7.242292308269335 0.017876099571402307 -1 0 0
2026 1 53.760078176520004 9.311518682060651 1.0744445665045983 -1 0 0
2034 1 57.344083388288 9.311518682060651 1.0744445665045987 -1 0 0
2028 5 55.552080782404005 10.346131868956336 0.017876099571401488 -1 0 0
2033 1 59.136085994172 6.207679121373651 1.074444566504599 -1 0 0
2043 5 60.928088600056 7.242292308269335 0.01787609957140152 -1 0 0
2041 1 62.72009120594 6.2076791213736495 1.0744445665045999 -1 0 0
2051 5 64.512093811824 7.242292308269335 0.017876099571401283 -1 0 0
2042 1 60.928088600056 9.311518682060651 1.0744445665045983 -1 0 0
2050 1 64.512093811824 9.311518682060651 1.0744445665045983 -1 0 0
2036 5 59.136085994172 10.346131868956336 0.01787609957140321 -1 0 0
2044 5 62.72009120594 10.346131868956338 0.017876099571401845 -1 0 0
2049 1 66.304096417708 6.207679121373652 1.0744445665045976 -1 0 0
2059 5 68.096099023592 7.242292308269336 0.01787609957140258 -1 0 0
2057 1 69.888101629476 6.20767912137365 1.0744445665045985 -1 0 0
2058 1 68.096099023592 9.311518682060651 1.074444566504599 -1 0 0
2052 5 66.304096417708 10.346131868956336 0.017876099571404284 -1 0 0
2060 5 69.888101629476 10.346131868956336 0.017876099571403244 -1 0 0
2067 5 71.68010423536 7.242292308269335 0.017876099571402945 -1 0 0
2065 1 73.472106841244 6.20767912137365 1.0744445665045985 -1 0 0
2075 5 75.264109447128 7.242292308269335 0.01787609957140291 -1 0 0
2066 1 71.68010423536 9.311518682060651 1.0744445665045987 -1 0 0
2074 1 75.264109447128 9.311518682060651 1.0744445665045987 -1 0 0
2068 5 73.472106841244 10.346131868956336 0.017876099571403247 -1 0 0
2073 1 77.056112053012 6.20767912137365 1.0744445665045987 -1 0 0
2083 5 78.84811465889601 7.242292308269335 0.017876099571402973 -1 0 0
2081 1 80.64011726478 6.207679121373651 1.0744445665045974 -1 0 0
2091 5 82.43211987066401 7.242292308269335 0.017876099571402806 -1 0 0
2082 1 78.84811465889601 9.31151868206065 1.074444566504599 -1 0 0
2090 1 82.43211987066401 9.311518682060651 1.0744445665045987 -1 0 0
2076 5 77.056112053012 10.346131868956336 0.01787609957140277 -1 0 0
2084 5 80.64011726478 10.346131868956336 0.01787609957140015 -1 0 0
2089 1 84.224122476548 6.20767912137365 1.0744445665046005 -1 0 0
2099 5 86.016125082432 7.242292308269335 0.01787609957140244 -1 0 0
2097 1 87.808127688316 6.20767912137365 1.0744445665045976 -1 0 0
2098 1 86.016125082432 9.311518682060651 1.074444566504599 -1 0 0
2092 5 84.224122476548 10.346131868956338 0.017876099571405565 -1 0 0
2100 5 87.808127688316 10.346131868956336 0.017876099571400773 -1 0 0
2107 5 89.6001302942 7.2422923082693345 0.01787609957139987 -1 0 0
2105 1 91.39213290008401 6.20767912137365 1.074444566504599 -1 0 0
2115 5 93.184135505968 7.242292308269336 0.01787609957140552 -1 0 0
2106 1 89.6001302942 9.311518682060651 1.0744445665045974 -1 0 0
2114 1 93.184135505968 9.311518682060651 1.0744445665046007 -1 0 0
2108 5 91.39213290008401 10.346131868956336 0.01787609957140284 -1 0 0
2113 1 94.97613811185201 6.207679121373651 1.0744445665045987 -1 0 0
2123 5 96.768140717736 7.2422923082693345 0.01787609957139987 -1 0 0
2121 1 98.56014332362 6.2076791213736495 1.0744445665046003 -1 0 0
2122 1 96.768140717736 9.311518682060651 1.0744445665045967 -1 0 0
2116 5 94.976138111852 10.346131868956336 0.0178760995714031 -1 0 0
2124 5 98.56014332362 10.346131868956338 0.01787609957140232 -1 0 0
2353 1 1.7920026058839964 12.415358242747653 1.0744445665045985 0 0 0
2361 1 5.376007817651996 12.41535824274765 1.074444566504599 0 0 0
2355 5 0 13.44997142964334 0.01787609957140337 0 0 0
2363 5 3.584005211767997 13.449971429643337 0.017876099571402 0 0 0
2356 5 1.7920026058839962 16.553810990330337 0.017876099571402525 0 0 0
2354 1 0 15.51919780343465 1.0744445665046012 0 0 0
2362 1 3.5840052117679964 15.519197803434652 1.0744445665045983 0 0 0
2364 5 5.376007817651997 16.553810990330337 0.017876099571402553 0 0 0
2369 1 8.960013029419997 12.41535824274765 1.074444566504599 0 0 0
2371 5 7.168010423535996 13.449971429643336 0.01787609957140312 0 0 0
2379 5 10.752015635303998 13.449971429643336 0.01787609957140299 0 0 0
2370 1 7.168010423535997 15.519197803434652 1.0744445665045992 0 0 0
2372 5 8.960013029419997 16.553810990330337 0.01787609957140296 0 0 0
2378 1 10.752015635303998 15.519197803434652 1.0744445665045992 0 0 0
2377 1 12.544018241187997 12.41535824274765 1.0744445665045987 0 0 0
2385 1 16.128023452955997 12.41535824274765 1.0744445665045987 0 0 0
2387 5 14.336020847071998 13.449971429643337 0.01787609957140228 0 0 0
2380 5 12.544018241187997 16.553810990330337 0.017876099571402654 0 0 0
2386 1 14.336020847071998 15.519197803434652 1.0744445665045983 0 0 0
2388 5 16.128023452956 16.553810990330337 0.01787609957140263 0 0 0
2393 1 19.712028664724 12.41535824274765 1.074444566504599 0 0 0
2401 1 23.296033876492 12.41535824274765 1.0744445665045992 0 0 0
2395 5 17.920026058839998 13.449971429643336 0.017876099571403094 0 0 0
2403 5 21.504031270608 13.449971429643336 0.017876099571403018 0 0 0
2394 1 17.920026058839998 15.51919780343465 1.0744445665045992 0 0 0
2396 5 19.712028664724 16.553810990330337 0.017876099571403094 0 0 0
2402 1 21.504031270608 15.519197803434652 1.0744445665045987 0 0 0
2404 5 23.296033876492 16.553810990330337 0.01787609957140258 0 0 0
2409 1 26.88003908826 12.41535824274765 1.074444566504598 0 0 0
2411 5 25.088036482375998 13.449971429643337 0.01787609957140284 0 0 0
2419 5 28.672041694144 13.449971429643337 0.017876099571402876 0 0 0
2412 5 26.88003908826 16.553810990330337 0.017876099571401655 0 0 0
2410 1 25.088036482376 15.519197803434652 1.074444566504599 0 0 0
2418 1 28.672041694143996 15.519197803434652 1.074444566504599 0 0 0
2417 1 30.464044300027997 12.415358242747653 1.0744445665045983 0 0 0
2425 1 34.048049511796 12.41535824274765 1.0744445665045994 0 0 0
2427 5 32.256046905912 13.449971429643337 0.017876099571403903 0 0 0
2420 5 30.464044300027997 16.553810990330337 0.01787609957140271 0 0 0
2426 1 32.256046905912 15.519197803434652 1.0744445665045987 0 0 0
2428 5 34.048049511796 16.553810990330337 0.017876099571402328 0 0 0
2433 1 37.632054723563996 12.41535824274765 1.074444566504599 0 0 0
2441 1 41.216059935332 12.41535824274765 1.074444566504599 0 0 0
2435 5 35.840052117679996 13.449971429643336 0.017876099571401596 0 0 0
2443 5 39.424057329448 13.449971429643337 0.01787609957140252 0 0 0
2434 1 35.840052117679996 15.51919780343465 1.0744445665046 0 0 0
2436 5 37.632054723563996 16.553810990330337 0.017876099571403004 0 0 0
2442 1 39.424057329448 15.51919780343465 1.0744445665045965 0 0 0
2444 5 41.216059935332 16.553810990330337 0.017876099571403 0 0 0
2449 1 44.8000651471 12.41535824274765 1.074444566504599 0 0 0
2451 5 43.008062541216 13.449971429643336 0.017876099571401495 0 0 0
2459 5 46.592067752984 13.449971429643336 0.017876099571403393 0 0 0
2450 1 43.008062541216 15.51919780343465 1.0744445665046 0 0 0
2452 5 44.8000651471 16.553810990330337 0.01787609957140272 0 0 0
2458 1 46.592067752984 15.519197803434652 1.0744445665045985 0 0 0
2457 1 48.384070358868 12.41535824274765 1.074444566504599 0 0 0
2241 1 51.968075570636 12.41535824274765 1.074444566504599 -1 0 0
2243 5 50.176072964752 13.449971429643336 0.017876099571404847 -1 0 0
2460 5 48.384070358868 16.553810990330337 0.01787609957140304 0 0 0
2244 5 51.968075570636 16.553810990330337 0.017876099571402765 -1 0 0
2242 1 50.176072964752 15.51919780343465 1.0744445665045996 -1 0 0
2249 1 55.552080782404005 12.41535824274765 1.0744445665045985 -1 0 0
2251 5 53.760078176520004 13.449971429643336 0.017876099571403303 -1 0 0
2259 5 57.344083388288006 13.449971429643336 0.017876099571403133 -1 0 0
2250 1 53.760078176520004 15.51919780343465 1.0744445665045987 -1 0 0
2252 5 55.552080782404005 16.553810990330337 0.01787609957140161 -1 0 0
2258 1 57.344083388288006 15.51919780343465 1.074444566504599 -1 0 0
2257 1 59.13608599417201 12.41535824274765 1.0744445665045992 -1 0 0
2265 1 62.72009120594 12.41535824274765 1.0744445665046003 -1 0 0
2267 5 60.928088600056 13.449971429643337 0.017876099571401897 -1 0 0
2275 5 64.512093811824 13.449971429643337 0.01787609957140176 -1 0 0
2260 5 59.136085994172 16.553810990330337 0.01787609957140273 -1 0 0
2266 1 60.928088600056 15.519197803434652 1.0744445665045985 -1 0 0
2268 5 62.72009120594 16.55381099033034 0.017876099571402546 -1 0 0
2274 1 64.512093811824 15.519197803434652 1.0744445665045985 -1 0 0
2273 1 66.304096417708 12.415358242747653 1.074444566504598 -1 0 0
2281 1 69.888101629476 12.41535824274765 1.0744445665045987 -1 0 0
2283 5 68.096099023592 13.449971429643336 0.017876099571402973 -1 0 0
2276 5 66.304096417708 16.553810990330337 0.017876099571403965 -1 0 0
2282 1 68.096099023592 15.519197803434652 1.074444566504599 -1 0 0
2284 5 69.888101629476 16.553810990330337 0.017876099571402793 -1 0 0
2289 1 73.472106841244 12.41535824274765 1.0744445665045987 -1 0 0
2291 5 71.68010423536 13.449971429643336 0.017876099571403174 -1 0 0
2299 5 75.264109447128 13.449971429643336 0.017876099571403157 -1 0 0
2290 1 71.68010423536 15.519197803434652 1.0744445665045987 -1 0 0
2292 5 73.472106841244 16.553810990330337 0.01787609957140292 -1 0 0
2298 1 75.264109447128 15.519197803434652 1.0744445665045987 -1 0 0
2297 1 77.056112053012 12.41535824274765 1.0744445665045992 -1 0 0
2305 1 80.64011726478 12.415358242747653 1.0744445665045972 -1 0 0
2307 5 78.84811465889601 13.449971429643336 0.01787609957140336 -1 0 0
2315 5 82.43211987066401 13.449971429643336 0.017876099571402914 -1 0 0
2300 5 77.056112053012 16.553810990330337 0.017876099571402505 -1 0 0
2306 1 78.84811465889601 15.519197803434652 1.074444566504599 -1 0 0
2308 5 80.64011726478 16.553810990330337 0.01787609957140032 -1 0 0
2314 1 82.432119870664 15.519197803434652 1.0744445665045985 -1 0 0
2313 1 84.224122476548 12.41535824274765 1.074444566504601 -1 0 0
2321 1 87.808127688316 12.41535824274765 1.0744445665045974 -1 0 0
2323 5 86.016125082432 13.449971429643336 0.017876099571402657 -1 0 0
2316 5 84.224122476548 16.553810990330337 0.01787609957140582 -1 0 0
2322 1 86.016125082432 15.519197803434652 1.0744445665045987 -1 0 0
2324 5 87.808127688316 16.553810990330337 0.01787609957140116 -1 0 0
2329 1 91.39213290008401 12.41535824274765 1.0744445665045994 -1 0 0
2331 5 89.6001302942 13.449971429643336 0.017876099571400895 -1 0 0
2339 5 93.184135505968 13.449971429643337 0.017876099571405995 -1 0 0
2330 1 89.6001302942 15.519197803434652 1.0744445665045979 -1 0 0
2332 5 91.39213290008401 16.553810990330337 0.01787609957140291 -1 0 0
2338 1 93.184135505968 15.51919780343465 1.0744445665046003 -1 0 0
2337 1 94.97613811185201 12.41535824274765 1.074444566504599 -1 0 0
2345 1 98.56014332362 12.41535824274765 1.0744445665046003 -1 0 0
2347 5 96.768140717736 13.449971429643336 0.017876099571400298 -1 0 0
2340 5 94.976138111852 16.55381099033034 0.017876099571403136 -1 0 0
2346 1 96.768140717736 15.519197803434652 1.0744445665045972 -1 0 0
2348 5 98.56014332362 16.55381099033034 0.01787609957140197 -1 0 0
2577 1 1.7920026058839968 18.623037364121654 1.0744445665045987 0 0 0
2585 1 5.376007817651997 18.623037364121654 1.0744445665045985 0 0 0
2579 5 0 19.65765055101734 0.017876099571402865 0 0 0
2587 5 3.5840052117679972 19.657650551017337 0.01787609957140165 0 0 0
2580 5 1.7920026058839964 22.761490111704337 0.017876099571402307 0 0 0
2578 1 0 21.72687692480865 1.0744445665046007 0 0 0
2586 1 3.584005211767997 21.726876924808654 1.0744445665045985 0 0 0
2588 5 5.376007817651997 22.761490111704337 0.017876099571402834 0 0 0
2593 1 8.960013029419997 18.623037364121654 1.0744445665045987 0 0 0
2595 5 7.168010423535997 19.657650551017337 0.017876099571402466 0 0 0
2603 5 10.752015635303998 19.657650551017337 0.017876099571402553 0 0 0
2594 1 7.168010423535996 21.726876924808654 1.0744445665045987 0 0 0
2596 5 8.960013029419997 22.761490111704337 0.017876099571403122 0 0 0
2602 1 10.752015635303998 21.726876924808654 1.0744445665045987 0 0 0
2601 1 12.544018241187999 18.623037364121654 1.0744445665045983 0 0 0
2609 1 16.128023452955997 18.623037364121654 1.0744445665045983 0 0 0
2611 5 14.336020847071998 19.657650551017337 0.017876099571402064 0 0 0
2604 5 12.544018241187997 22.761490111704337 0.0178760995714028 0 0 0
2610 1 14.336020847071998 21.726876924808654 1.0744445665045985 0 0 0
2612 5 16.128023452955997 22.761490111704337 0.017876099571402626 0 0 0
2617 1 19.712028664724 18.623037364121654 1.0744445665045985 0 0 0
2625 1 23.296033876492 18.623037364121654 1.074444566504599 0 0 0
2619 5 17.920026058839998 19.657650551017337 0.01787609957140231 0 0 0
2627 5 21.504031270608 19.657650551017337 0.017876099571403025 0 0 0
2618 1 17.920026058839998 21.726876924808654 1.074444566504599 0 0 0
2620 5 19.712028664724 22.761490111704337 0.01787609957140287 0 0 0
2626 1 21.504031270608 21.726876924808654 1.0744445665045983 0 0 0
2628 5 23.296033876492 22.761490111704337 0.01787609957140257 0 0 0
2633 1 26.88003908826 18.623037364121654 1.0744445665045992 0 0 0
2635 5 25.088036482375998 19.657650551017337 0.017876099571402293 0 0 0
2643 5 28.672041694144 19.657650551017337 0.017876099571402154 0 0 0
2636 5 26.88003908826 22.761490111704337 0.017876099571401183 0 0 0
2634 1 25.088036482375998 21.726876924808654 1.0744445665045983 0 0 0
2642 1 28.672041694143996 21.726876924808654 1.0744445665045985 0 0 0
2641 1 30.464044300027997 18.623037364121654 1.0744445665045983 0 0 0
2649 1 34.048049511796 18.62303736412165 1.0744445665045992 0 0 0
2651 5 32.256046905912 19.657650551017337 0.017876099571403764 0 0 0
2644 5 30.464044300027997 22.761490111704337 0.017876099571402546 0 0 0
2650 1 32.256046905912 21.726876924808654 1.0744445665045985 0 0 0
2652 5 34.048049511796 22.76149011170434 0.0178760995714023 0 0 0
2657 1 37.632054723563996 18.623037364121654 1.074444566504599 0 0 0
2665 1 41.216059935332 18.623037364121654 1.074444566504599 0 0 0
2659 5 35.840052117679996 19.657650551017337 0.017876099571401176 0 0 0
2667 5 39.424057329448 19.657650551017337 0.017876099571402584 0 0 0
2658 1 35.840052117679996 21.726876924808654 1.0744445665045999 0 0 0
2660 5 37.632054723563996 22.76149011170434 0.01787609957140295 0 0 0
2666 1 39.424057329448 21.726876924808654 1.0744445665045956 0 0 0
2668 5 41.216059935332 22.76149011170434 0.017876099571402945 0 0 0
2673 1 44.8000651471 18.623037364121654 1.074444566504599 0 0 0
2675 5 43.008062541216 19.657650551017337 0.017876099571401217 0 0 0
2683 5 46.592067752984 19.657650551017337 0.01787609957140296 0 0 0
2674 1 43.008062541216 21.726876924808654 1.0744445665045999 0 0 0
2676 5 44.8000651471 22.761490111704337 0.017876099571402737 0 0 0
2682 1 46.592067752984 21.726876924808654 1.0744445665045983 0 0 0
2681 1 48.384070358868 18.623037364121654 1.0744445665045985 0 0 0
2465 1 51.968075570636 18.623037364121654 1.0744445665045985 -1 0 0
2467 5 50.176072964752 19.657650551017337 0.017876099571404108 -1 0 0
2684 5 48.384070358868 22.761490111704337 0.01787609957140286 0 0 0
2468 5 51.968075570636 22.761490111704337 0.017876099571403042 -1 0 0
2466 1 50.176072964752 21.726876924808654 1.0744445665045992 -1 0 0
2473 1 55.552080782404005 18.623037364121654 1.0744445665045983 -1 0 0
2475 5 53.760078176520004 19.657650551017337 0.01787609957140275 -1 0 0
2483 5 57.344083388288006 19.657650551017337 0.017876099571402754 -1 0 0
2474 1 53.760078176520004 21.726876924808654 1.0744445665045987 -1 0 0
2476 5 55.552080782404005 22.761490111704337 0.01787609957140108 -1 0 0
2482 1 57.344083388288006 21.726876924808654 1.0744445665045987 -1 0 0
2481 1 59.136085994172 18.623037364121654 1.074444566504599 -1 0 0
2489 1 62.72009120594 18.623037364121654 1.0744445665046 -1 0 0
2491 5 60.928088600056 19.657650551017337 0.017876099571401294 -1 0 0
2499 5 64.512093811824 19.657650551017337 0.017876099571401214 -1 0 0
2484 5 59.136085994172 22.761490111704337 0.017876099571402664 -1 0 0
2490 1 60.928088600056 21.726876924808654 1.0744445665045983 -1 0 0
2492 5 62.72009120594 22.76149011170434 0.017876099571402092 -1 0 0
2498 1 64.512093811824 21.726876924808654 1.0744445665045985 -1 0 0
2497 1 66.304096417708 18.623037364121654 1.0744445665045979 -1 0 0
2505 1 69.888101629476 18.623037364121654 1.0744445665045987 -1 0 0
2507 5 68.096099023592 19.657650551017337 0.01787609957140284 -1 0 0
2500 5 66.304096417708 22.761490111704337 0.017876099571403736 -1 0 0
2506 1 68.096099023592 21.726876924808654 1.0744445665045985 -1 0 0
2508 5 69.888101629476 22.761490111704337 0.017876099571402765 -1 0 0
2513 1 73.472106841244 18.623037364121654 1.0744445665045987 -1 0 0
2515 5 71.68010423536 19.657650551017337 0.017876099571402827 -1 0 0
2523 5 75.264109447128 19.657650551017337 0.017876099571402813 -1 0 0
2514 1 71.68010423536 21.726876924808654 1.0744445665045985 -1 0 0
2516 5 73.472106841244 22.761490111704337 0.01787609957140277 -1 0 0
2522 1 75.264109447128 21.726876924808654 1.0744445665045985 -1 0 0
2521 1 77.056112053012 18.623037364121654 1.0744445665045987 -1 0 0
2529 1 80.64011726478 18.623037364121654 1.0744445665045979 -1 0 0
2531 5 78.84811465889601 19.657650551017337 0.01787609957140282 -1 0 0
2539 5 82.43211987066401 19.657650551017337 0.017876099571402886 -1 0 0
2524 5 77.056112053012 22.761490111704337 0.017876099571402702 -1 0 0
2530 1 78.84811465889601 21.726876924808654 1.074444566504599 -1 0 0
2532 5 80.64011726478 22.761490111704337 0.01787609957139985 -1 0 0
2538 1 82.432119870664 21.726876924808654 1.074444566504598 -1 0 0
2537 1 84.224122476548 18.623037364121654 1.0744445665046012 -1 0 0
2545 1 87.808127688316 18.623037364121654 1.0744445665045983 -1 0 0
2547 5 86.016125082432 19.657650551017337 0.017876099571401956 -1 0 0
2540 5 84.224122476548 22.76149011170434 0.017876099571405343 -1 0 0
2546 1 86.016125082432 21.726876924808654 1.074444566504599 -1 0 0
2548 5 87.808127688316 22.76149011170434 0.017876099571400756 -1 0 0
2553 1 91.39213290008401 18.62303736412165 1.0744445665045994 -1 0 0
2555 5 89.6001302942 19.657650551017337 0.01787609957140046 -1 0 0
2563 5 93.184135505968 19.65765055101734 0.017876099571405037 -1 0 0
2554 1 89.6001302942 21.726876924808654 1.0744445665045963 -1 0 0
2556 5 91.39213290008401 22.76149011170434 0.01787609957140292 -1 0 0
2562 1 93.184135505968 21.72687692480865 1.0744445665046003 -1 0 0
2561 1 94.97613811185201 18.623037364121654 1.0744445665045992 -1 0 0
2569 1 98.56014332362 18.62303736412165 1.0744445665046005 -1 0 0
2571 5 96.768140717736 19.657650551017337 0.017876099571399788 -1 0 0
2564 5 94.976138111852 22.76149011170434 0.017876099571403306 -1 0 0
2570 1 96.768140717736 21.726876924808654 1.0744445665045967 -1 0 0
2572 5 98.56014332362 22.76149011170434 0.017876099571401904 -1 0 0
2803 5 0 25.86532967239134 0.017876099571402775 0 0 0
2801 1 1.792002605883997 24.830716485495653 1.0744445665045987 0 0 0
2811 5 3.5840052117679972 25.865329672391336 0.017876099571401637 0 0 0
2809 1 5.376007817651996 24.830716485495653 1.0744445665045992 0 0 0
2802 1 0 27.93455604618265 1.0744445665046007 0 0 0
2810 1 3.584005211767997 27.934556046182653 1.0744445665045985 0 0 0
2804 5 1.7920026058839962 28.969169233078336 0.01787609957140214 0 0 0
2812 5 5.376007817651997 28.969169233078336 0.017876099571402647 0 0 0
2819 5 7.168010423535997 25.865329672391336 0.017876099571402473 0 0 0
2817 1 8.960013029419997 24.830716485495653 1.0744445665045985 0 0 0
2827 5 10.752015635303998 25.865329672391336 0.017876099571402442 0 0 0
2818 1 7.168010423535996 27.934556046182653 1.0744445665045987 0 0 0
2826 1 10.752015635303998 27.934556046182653 1.0744445665045987 0 0 0
2820 5 8.960013029419997 28.969169233078336 0.017876099571403122 0 0 0
2825 1 12.544018241187999 24.830716485495653 1.074444566504599 0 0 0