LAMMPS data file via write_data, version 29 Aug 2024, timestep = 3, units = metal

10752 atoms
12 atom types

0 100.352145929504 xlo xhi
0 99.322865941984 ylo yhi
-50 50 zlo zhi

Masses

1 26.9815385
2 26.9815385
3 26.9815385
4 26.9815385
5 26.9815385
6 26.9815385
7 32.06
8 32.06
9 32.06
10 32.06
11 32.06
12 32.06

Atoms # atomic

1907 7 0 1.0346131868953365 0.017213137259914073 0 0 0
1915 7 3.584005211767997 1.0346131868953334 0.017213137259914135 0 0 0
1906 1 0 3.1038395606866516 1.0740059771604806 0 0 0
1914 1 3.584005211767997 3.1038395606866525 1.0740059771604777 0 0 0
1908 7 1.7920026058839962 4.138452747582332 0.01721313725991389 0 0 0
1916 7 5.376007817651997 4.138452747582333 0.01721313725991451 0 0 0
1923 7 7.168010423535996 1.0346131868953323 0.01721313725991609 0 0 0
1931 7 10.752015635303998 1.0346131868953323 0.01721313725991606 0 0 0
1922 1 7.168010423535996 3.103839560686653 1.0740059771604782 0 0 0
1930 1 10.752015635303998 3.103839560686653 1.0740059771604782 0 0 0
1924 7 8.960013029419997 4.138452747582332 0.017213137259914538 0 0 0
1939 7 14.336020847071998 1.034613186895333 0.017213137259914787 0 0 0
1938 1 14.336020847071998 3.1038395606866525 1.0740059771604782 0 0 0
1932 7 12.544018241187999 4.138452747582332 0.017213137259914565 0 0 0
1940 7 16.128023452955997 4.138452747582332 0.01721313725991459 0 0 0
1947 7 17.920026058839998 1.0346131868953325 0.01721313725991595 0 0 0
1955 7 21.504031270608 1.034613186895332 0.01721313725991606 0 0 0
1946 1 17.920026058839998 3.103839560686653 1.0740059771604782 0 0 0
1954 1 21.504031270608 3.103839560686653 1.0740059771604782 0 0 0
1948 7 19.712028664724 4.138452747582332 0.01721313725991495 0 0 0
1956 7 23.296033876492 4.138452747582333 0.017213137259914517 0 0 0
1963 7 25.088036482375998 1.0346131868953337 0.01721313725991494 0 0 0
1971 7 28.672041694144 1.034613186895334 0.01721313725991465 0 0 0
1962 1 25.088036482375998 3.103839560686653 1.0740059771604782 0 0 0
1970 1 28.672041694143996 3.1038395606866525 1.0740059771604786 0 0 0
1964 7 26.88003908826 4.138452747582332 0.017213137259913178 0 0 0
1979 7 32.256046905911994 1.0346131868953365 0.01721313725991316 0 0 0
1978 1 32.256046905911994 3.103839560686653 1.074005977160478 0 0 0
1972 7 30.464044300027997 4.138452747582331 0.017213137259914347 0 0 0
1980 7 34.048049511796 4.138452747582333 0.01721313725991449 0 0 0
1987 7 35.840052117679996 1.0346131868953319 0.017213137259915436 0 0 0
1995 7 39.424057329448 1.0346131868953357 0.017213137259912744 0 0 0
1986 1 35.840052117679996 3.103839560686653 1.0740059771604786 0 0 0
1994 1 39.424057329448 3.1038395606866525 1.0740059771604762 0 0 0
1988 7 37.632054723563996 4.138452747582333 0.017213137259914593 0 0 0
1996 7 41.216059935332 4.138452747582333 0.01721313725991467 0 0 0
2003 7 43.008062541216 1.034613186895333 0.017213137259914375 0 0 0
2011 7 46.592067752984 1.0346131868953348 0.017213137259914933 0 0 0
2002 1 43.008062541216 3.103839560686653 1.0740059771604786 0 0 0
2010 1 46.592067752984 3.1038395606866525 1.0740059771604777 0 0 0
2004 7 44.80006514709999 4.138452747582332 0.017213137259914794 0 0 0
1795 7 50.176072964752 1.0346131868953352 0.01721313725991514 -1 0 0
1794 1 50.176072964752 3.1038395606866525 1.0740059771604786 -1 0 0
2012 7 48.384070358867994 4.138452747582331 0.017213137259914423 0 0 0
1796 7 51.968075570636 4.138452747582332 0.017213137259914513 -1 0 0
1803 7 53.760078176520004 1.0346131868953332 0.0172131372599155 -1 0 0
1811 7 57.344083388288 1.0346131868953374 0.017213137259912234 -1 0 0
1802 1 53.760078176520004 3.103839560686653 1.0740059771604782 -1 0 0
1810 1 57.344083388288006 3.103839560686652 1.0740059771604784 -1 0 0
1804 7 55.552080782404005 4.138452747582332 0.017213137259913535 -1 0 0
1819 7 60.928088600056 1.0346131868953319 0.017213137259915162 -1 0 0
1827 7 64.512093811824 1.0346131868953328 0.017213137259914323 -1 0 0
1818 1 60.928088600056 3.103839560686653 1.0740059771604775 -1 0 0
1826 1 64.512093811824 3.103839560686653 1.0740059771604775 -1 0 0
1812 7 59.13608599417201 4.138452747582333 0.01721313725991462 -1 0 0
1820 7 62.72009120594 4.138452747582334 0.01721313725991388 -1 0 0
1835 7 68.096099023592 1.034613186895332 0.01721313725991616 -1 0 0
1834 1 68.096099023592 3.103839560686653 1.0740059771604784 -1 0 0
1828 7 66.304096417708 4.138452747582332 0.017213137259915905 -1 0 0
1836 7 69.888101629476 4.138452747582332 0.017213137259914853 -1 0 0
1843 7 71.68010423536 1.0346131868953323 0.01721313725991609 -1 0 0
1851 7 75.264109447128 1.0346131868953325 0.017213137259915953 -1 0 0
1842 1 71.68010423536 3.103839560686653 1.074005977160478 -1 0 0
1850 1 75.264109447128 3.103839560686653 1.0740059771604782 -1 0 0
1844 7 73.472106841244 4.138452747582332 0.017213137259914753 -1 0 0
1859 7 78.84811465889601 1.0346131868953354 0.01721313725991408 -1 0 0
1867 7 82.432119870664 1.0346131868953323 0.017213137259915634 -1 0 0
1858 1 78.84811465889601 3.1038395606866525 1.0740059771604789 -1 0 0
1866 1 82.432119870664 3.103839560686653 1.0740059771604782 -1 0 0
1852 7 77.056112053012 4.138452747582332 0.01721313725991445 -1 0 0
1860 7 80.64011726478 4.138452747582331 0.01721313725991239 -1 0 0
1875 7 86.01612508243201 1.034613186895332 0.017213137259915884 -1 0 0
1874 1 86.01612508243201 3.103839560686653 1.0740059771604784 -1 0 0
1868 7 84.224122476548 4.138452747582333 0.017213137259916758 -1 0 0
1876 7 87.808127688316 4.138452747582332 0.017213137259912366 -1 0 0
1883 7 89.6001302942 1.0346131868953325 0.017213137259912848 -1 0 0
1891 7 93.184135505968 1.0346131868953348 0.017213137259917004 -1 0 0
1882 1 89.6001302942 3.1038395606866533 1.0740059771604769 -1 0 0
1890 1 93.184135505968 3.1038395606866516 1.0740059771604802 -1 0 0
1884 7 91.39213290008401 4.138452747582332 0.01721313725991439 -1 0 0
1899 7 96.768140717736 1.0346131868953337 0.017213137259911946 -1 0 0
1898 1 96.768140717736 3.103839560686654 1.0740059771604762 -1 0 0
1892 7 94.976138111852 4.138452747582332 0.017213137259914645 -1 0 0
1900 7 98.56014332362 4.138452747582334 0.01721313725991368 -1 0 0
2131 7 0 7.2422923082693345 0.017213137259914364 0 0 0
2129 1 1.7920026058839966 6.207679121373654 1.0740059771604786 0 0 0
2139 7 3.584005211767997 7.242292308269333 0.01721313725991344 0 0 0
2137 1 5.376007817651996 6.207679121373654 1.0740059771604786 0 0 0
2130 1 0 9.311518682060653 1.0740059771604809 0 0 0
2138 1 3.5840052117679964 9.311518682060655 1.074005977160478 0 0 0
2132 7 1.7920026058839962 10.346131868956332 0.017213137259914236 0 0 0
2140 7 5.376007817651997 10.346131868956332 0.01721313725991456 0 0 0
2147 7 7.168010423535997 7.242292308269333 0.017213137259914295 0 0 0
2145 1 8.960013029419997 6.207679121373654 1.0740059771604786 0 0 0
2155 7 10.752015635303998 7.242292308269333 0.017213137259914545 0 0 0
2146 1 7.168010423535996 9.311518682060655 1.0740059771604789 0 0 0
2154 1 10.752015635303998 9.311518682060655 1.0740059771604789 0 0 0
2148 7 8.960013029419997 10.346131868956332 0.017213137259914725 0 0 0
2153 1 12.544018241187999 6.207679121373654 1.0740059771604786 0 0 0
2163 7 14.336020847072 7.242292308269333 0.017213137259914205 0 0 0
2161 1 16.128023452955997 6.207679121373654 1.0740059771604784 0 0 0
2162 1 14.336020847071998 9.311518682060655 1.074005977160478 0 0 0
2156 7 12.544018241187997 10.346131868956332 0.0172131372599145 0 0 0
2164 7 16.128023452955997 10.346131868956334 0.017213137259914742 0 0 0
2171 7 17.920026058839998 7.242292308269333 0.017213137259914017 0 0 0
2169 1 19.712028664724 6.207679121373654 1.0740059771604786 0 0 0
2179 7 21.504031270608 7.242292308269333 0.017213137259914444 0 0 0
2177 1 23.296033876492 6.207679121373654 1.0740059771604793 0 0 0
2170 1 17.920026058839998 9.311518682060653 1.074005977160479 0 0 0
2178 1 21.504031270608 9.311518682060655 1.0740059771604786 0 0 0
2172 7 19.712028664724 10.346131868956334 0.017213137259915152 0 0 0
2180 7 23.296033876492 10.346131868956332 0.017213137259914232 0 0 0
2187 7 25.088036482375998 7.242292308269333 0.017213137259914153 0 0 0
2185 1 26.88003908826 6.207679121373654 1.074005977160478 0 0 0
2195 7 28.672041694144 7.242292308269333 0.01721313725991416 0 0 0
2186 1 25.088036482375998 9.311518682060655 1.0740059771604784 0 0 0
2194 1 28.672041694143996 9.311518682060653 1.0740059771604786 0 0 0
2188 7 26.88003908826 10.346131868956332 0.017213137259913556 0 0 0
2193 1 30.464044300027997 6.207679121373654 1.0740059771604782 0 0 0
2203 7 32.256046905911994 7.242292308269333 0.017213137259914992 0 0 0
2201 1 34.048049511796 6.207679121373653 1.0740059771604793 0 0 0
2202 1 32.256046905911994 9.311518682060655 1.0740059771604789 0 0 0
2196 7 30.464044300028 10.346131868956332 0.017213137259914475 0 0 0
2204 7 34.048049511796 10.346131868956334 0.01721313725991449 0 0 0
2211 7 35.840052117679996 7.242292308269333 0.01721313725991299 0 0 0
2209 1 37.632054723563996 6.207679121373654 1.074005977160479 0 0 0
2219 7 39.424057329448 7.242292308269333 0.017213137259913996 0 0 0
2217 1 41.216059935332 6.207679121373654 1.0740059771604789 0 0 0
2210 1 35.840052117679996 9.311518682060655 1.0740059771604793 0 0 0
2218 1 39.424057329448 9.311518682060653 1.0740059771604762 0 0 0
2212 7 37.632054723563996 10.346131868956334 0.017213137259915256 0 0 0
2220 7 41.216059935332 10.346131868956334 0.01721313725991526 0 0 0
2227 7 43.008062541216 7.242292308269333 0.0172131372599131 0 0 0
2225 1 44.80006514709999 6.207679121373653 1.0740059771604786 0 0 0
2235 7 46.592067752984 7.242292308269333 0.01721313725991525 0 0 0
2226 1 43.008062541216 9.311518682060655 1.0740059771604793 0 0 0
2234 1 46.592067752984 9.311518682060655 1.0740059771604782 0 0 0
2228 7 44.80006514709999 10.346131868956334 0.017213137259915082 0 0 0
2233 1 48.384070358867994 6.207679121373654 1.0740059771604784 0 0 0
2019 7 50.176072964752 7.242292308269333 0.0172131372599156 -1 0 0
2017 1 51.968075570636 6.207679121373654 1.0740059771604786 -1 0 0
2018 1 50.176072964752 9.311518682060655 1.0740059771604793 -1 0 0
2236 7 48.384070358867994 10.346131868956332 0.01721313725991444 0 0 0
2020 7 51.968075570636 10.346131868956332 0.017213137259914635 -1 0 0
2027 7 53.760078176520004 7.242292308269334 0.01721313725991499 -1 0 0
2025 1 55.552080782404005 6.207679121373654 1.074005977160478 -1 0 0
2035 7 57.344083388288 7.242292308269333 0.017213137259914142 -1 0 0
2026 1 53.760078176520004 9.311518682060655 1.0740059771604784 -1 0 0
2034 1 57.344083388288 9.311518682060653 1.0740059771604795 -1 0 0
2028 7 55.552080782404005 10.346131868956332 0.01721313725991298 -1 0 0
2033 1 59.13608599417201 6.207679121373653 1.074005977160479 -1 0 0
2043 7 60.928088600056 7.242292308269333 0.017213137259913476 -1 0 0
2041 1 62.72009120594 6.207679121373652 1.0740059771604802 -1 0 0
2051 7 64.512093811824 7.242292308269332 0.017213137259912917 -1 0 0
2042 1 60.928088600056 9.311518682060655 1.0740059771604764 -1 0 0
2050 1 64.512093811824 9.311518682060655 1.074005977160478 -1 0 0
2036 7 59.136085994172 10.346131868956332 0.01721313725991495 -1 0 0
2044 7 62.72009120594 10.346131868956334 0.017213137259913747 -1 0 0
2049 1 66.304096417708 6.207679121373655 1.0740059771604777 -1 0 0
2059 7 68.096099023592 7.242292308269333 0.01721313725991421 -1 0 0
2057 1 69.888101629476 6.207679121373654 1.0740059771604786 -1 0 0
2058 1 68.096099023592 9.311518682060655 1.0740059771604786 -1 0 0
2052 7 66.304096417708 10.346131868956332 0.01721313725991607 -1 0 0
2060 7 69.888101629476 10.346131868956334 0.017213137259914975 -1 0 0
2067 7 71.68010423536 7.242292308269333 0.017213137259914503 -1 0 0
2065 1 73.472106841244 6.207679121373654 1.0740059771604786 -1 0 0
2075 7 75.264109447128 7.242292308269333 0.017213137259914458 -1 0 0
2066 1 71.68010423536 9.311518682060655 1.0740059771604786 -1 0 0
2074 1 75.264109447128 9.311518682060655 1.0740059771604786 -1 0 0
2068 7 73.472106841244 10.346131868956334 0.017213137259914982 -1 0 0
2073 1 77.056112053012 6.207679121373654 1.074005977160479 -1 0 0
2083 7 78.84811465889601 7.242292308269334 0.017213137259914992 -1 0 0
2081 1 80.64011726478 6.207679121373654 1.0740059771604769 -1 0 0
2091 7 82.43211987066401 7.242292308269333 0.01721313725991429 -1 0 0
2082 1 78.84811465889601 9.311518682060653 1.0740059771604786 -1 0 0
2090 1 82.43211987066401 9.311518682060655 1.0740059771604784 -1 0 0
2076 7 77.056112053012 10.346131868956332 0.017213137259914267 -1 0 0
2084 7 80.64011726478 10.346131868956332 0.01721313725991245 -1 0 0
2089 1 84.224122476548 6.207679121373653 1.0740059771604804 -1 0 0
2099 7 86.016125082432 7.242292308269333 0.017213137259914017 -1 0 0
2097 1 87.808127688316 6.207679121373654 1.0740059771604773 -1 0 0
2098 1 86.016125082432 9.311518682060655 1.0740059771604786 -1 0 0
2092 7 84.224122476548 10.346131868956334 0.01721313725991701 -1 0 0
2100 7 87.808127688316 10.346131868956332 0.01721313725991285 -1 0 0
2107 7 89.6001302942 7.242292308269332 0.01721313725991209 -1 0 0
2105 1 91.39213290008401 6.207679121373653 1.0740059771604786 -1 0 0
2115 7 93.184135505968 7.242292308269334 0.017213137259916658 -1 0 0
2106 1 89.6001302942 9.311518682060655 1.0740059771604769 -1 0 0
2114 1 93.184135505968 9.311518682060653 1.0740059771604809 -1 0 0
2108 7 91.39213290008401 10.346131868956332 0.01721313725991448 -1 0 0
2113 1 94.97613811185201 6.207679121373654 1.0740059771604782 -1 0 0
2123 7 96.768140717736 7.242292308269332 0.01721313725991256 -1 0 0
2121 1 98.56014332362 6.207679121373653 1.07400597716048 -1 0 0
2122 1 96.768140717736 9.311518682060655 1.0740059771604762 -1 0 0
2116 7 94.976138111852 10.346131868956334 0.017213137259914933 -1 0 0
2124 7 98.56014332362 10.346131868956334 0.017213137259913636 -1 0 0
2353 1 1.7920026058839968 12.415358242747656 1.0740059771604786 0 0 0
2361 1 5.376007817651997 12.415358242747654 1.074005977160479 0 0 0
2355 7 0 13.449971429643336 0.017213137259914732 0 0 0
2363 7 3.584005211767997 13.449971429643334 0.017213137259913757 0 0 0
2356 7 1.7920026058839962 16.553810990330334 0.01721313725991454 0 0 0
2354 1 0 15.519197803434654 1.074005977160481 0 0 0
2362 1 3.584005211767997 15.519197803434656 1.074005977160478 0 0 0
2364 7 5.376007817651997 16.553810990330334 0.01721313725991531 0 0 0
2369 1 8.960013029419997 12.415358242747654 1.0740059771604789 0 0 0
2371 7 7.168010423535996 13.449971429643332 0.017213137259914614 0 0 0
2379 7 10.752015635303998 13.449971429643332 0.017213137259914763 0 0 0
2370 1 7.168010423535996 15.519197803434656 1.0740059771604786 0 0 0
2372 7 8.960013029419997 16.553810990330334 0.017213137259915415 0 0 0
2378 1 10.752015635303998 15.519197803434656 1.0740059771604786 0 0 0
2377 1 12.544018241187997 12.415358242747654 1.0740059771604789 0 0 0
2385 1 16.128023452956 12.415358242747654 1.0740059771604786 0 0 0
2387 7 14.336020847071998 13.449971429643332 0.017213137259914003 0 0 0
2380 7 12.544018241187997 16.553810990330334 0.017213137259915343 0 0 0
2386 1 14.336020847071998 15.519197803434654 1.074005977160478 0 0 0
2388 7 16.128023452955997 16.553810990330334 0.017213137259915374 0 0 0
2393 1 19.712028664724 12.415358242747654 1.0740059771604786 0 0 0
2401 1 23.296033876492 12.415358242747654 1.0740059771604793 0 0 0
2395 7 17.920026058839998 13.449971429643334 0.01721313725991409 0 0 0
2403 7 21.504031270608 13.449971429643334 0.017213137259914732 0 0 0
2394 1 17.920026058839998 15.519197803434656 1.0740059771604789 0 0 0
2396 7 19.712028664724 16.553810990330334 0.017213137259915363 0 0 0
2402 1 21.504031270608 15.519197803434656 1.0740059771604784 0 0 0
2404 7 23.296033876492 16.553810990330337 0.017213137259914885 0 0 0
2409 1 26.88003908826 12.415358242747654 1.0740059771604782 0 0 0
2411 7 25.088036482375998 13.449971429643334 0.01721313725991465 0 0 0
2419 7 28.672041694144 13.449971429643334 0.017213137259914392 0 0 0
2412 7 26.88003908826 16.553810990330334 0.01721313725991388 0 0 0
2410 1 25.088036482375998 15.519197803434654 1.0740059771604786 0 0 0
2418 1 28.672041694144 15.519197803434656 1.0740059771604789 0 0 0
2417 1 30.464044300028 12.415358242747654 1.0740059771604782 0 0 0
2425 1 34.048049511796 12.415358242747654 1.0740059771604793 0 0 0
2427 7 32.256046905911994 13.449971429643334 0.01721313725991549 0 0 0
2420 7 30.464044300028 16.553810990330334 0.01721313725991459 0 0 0
2426 1 32.256046905911994 15.519197803434656 1.0740059771604786 0 0 0
2428 7 34.048049511796 16.553810990330337 0.017213137259915003 0 0 0
2433 1 37.632054723563996 12.415358242747654 1.0740059771604789 0 0 0
2441 1 41.216059935332 12.415358242747654 1.0740059771604789 0 0 0
2435 7 35.840052117679996 13.449971429643334 0.017213137259913233 0 0 0
2443 7 39.424057329448 13.449971429643334 0.01721313725991417 0 0 0
2434 1 35.840052117679996 15.519197803434656 1.0740059771604789 0 0 0
2436 7 37.632054723563996 16.553810990330337 0.01721313725991511 0 0 0
2442 1 39.424057329448 15.519197803434654 1.0740059771604764 0 0 0
2444 7 41.216059935332 16.553810990330337 0.017213137259915107 0 0 0
2449 1 44.8000651471 12.415358242747654 1.0740059771604789 0 0 0
2451 7 43.008062541216 13.449971429643334 0.01721313725991324 0 0 0
2459 7 46.592067752984 13.449971429643334 0.017213137259915016 0 0 0
2450 1 43.008062541216 15.519197803434656 1.0740059771604789 0 0 0
2452 7 44.80006514709999 16.553810990330334 0.017213137259915336 0 0 0
2458 1 46.592067752984 15.519197803434656 1.074005977160478 0 0 0
2457 1 48.384070358868 12.415358242747654 1.0740059771604789 0 0 0
2241 1 51.968075570636 12.415358242747654 1.074005977160479 -1 0 0
2243 7 50.176072964752 13.449971429643332 0.017213137259916106 -1 0 0
2460 7 48.384070358868 16.553810990330337 0.017213137259915495 0 0 0
2244 7 51.968075570636 16.553810990330337 0.01721313725991552 -1 0 0
2242 1 50.176072964752 15.519197803434658 1.0740059771604786 -1 0 0
2249 1 55.552080782404005 12.415358242747654 1.0740059771604782 -1 0 0
2251 7 53.760078176520004 13.449971429643334 0.017213137259914916 -1 0 0
2259 7 57.344083388288006 13.449971429643334 0.017213137259913847 -1 0 0
2250 1 53.760078176520004 15.519197803434656 1.0740059771604784 -1 0 0
2252 7 55.552080782404005 16.553810990330334 0.017213137259914867 -1 0 0
2258 1 57.344083388288006 15.519197803434656 1.0740059771604789 -1 0 0
2257 1 59.136085994172 12.415358242747654 1.0740059771604793 -1 0 0
2265 1 62.72009120594 12.415358242747653 1.07400597716048 -1 0 0
2267 7 60.928088600056 13.449971429643332 0.017213137259914264 -1 0 0
2275 7 64.512093811824 13.449971429643334 0.017213137259913296 -1 0 0
2260 7 59.13608599417201 16.553810990330337 0.017213137259914472 -1 0 0
2266 1 60.928088600056 15.519197803434656 1.0740059771604777 -1 0 0
2268 7 62.72009120594 16.553810990330337 0.017213137259914295 -1 0 0
2274 1 64.512093811824 15.519197803434656 1.0740059771604777 -1 0 0
2273 1 66.304096417708 12.415358242747656 1.0740059771604782 -1 0 0
2281 1 69.888101629476 12.415358242747654 1.074005977160479 -1 0 0
2283 7 68.096099023592 13.449971429643334 0.01721313725991454 -1 0 0
2276 7 66.304096417708 16.553810990330334 0.01721313725991647 -1 0 0
2282 1 68.096099023592 15.519197803434656 1.0740059771604784 -1 0 0
2284 7 69.888101629476 16.553810990330337 0.017213137259915537 -1 0 0
2289 1 73.472106841244 12.415358242747654 1.074005977160479 -1 0 0
2291 7 71.68010423536 13.449971429643334 0.017213137259914642 -1 0 0
2299 7 75.264109447128 13.449971429643334 0.01721313725991488 -1 0 0
2290 1 71.68010423536 15.519197803434656 1.0740059771604784 -1 0 0
2292 7 73.472106841244 16.553810990330337 0.017213137259915544 -1 0 0
2298 1 75.264109447128 15.519197803434656 1.0740059771604784 -1 0 0
2297 1 77.056112053012 12.415358242747654 1.074005977160479 -1 0 0
2305 1 80.64011726478 12.415358242747654 1.074005977160477 -1 0 0
2307 7 78.84811465889601 13.449971429643334 0.017213137259914885 -1 0 0
2315 7 82.43211987066401 13.449971429643334 0.017213137259915103 -1 0 0
2300 7 77.056112053012 16.553810990330334 0.017213137259914982 -1 0 0
2306 1 78.84811465889601 15.519197803434654 1.0740059771604793 -1 0 0
2308 7 80.64011726478 16.553810990330334 0.017213137259913004 -1 0 0
2314 1 82.432119870664 15.519197803434654 1.0740059771604782 -1 0 0
2313 1 84.224122476548 12.415358242747654 1.0740059771604813 -1 0 0
2321 1 87.808127688316 12.415358242747654 1.0740059771604773 -1 0 0
2323 7 86.016125082432 13.449971429643334 0.01721313725991482 -1 0 0
2316 7 84.224122476548 16.553810990330337 0.017213137259916574 -1 0 0
2322 1 86.016125082432 15.519197803434654 1.0740059771604789 -1 0 0
2324 7 87.808127688316 16.553810990330334 0.017213137259912643 -1 0 0
2329 1 91.39213290008401 12.415358242747654 1.0740059771604793 -1 0 0
2331 7 89.6001302942 13.449971429643334 0.017213137259912685 -1 0 0
2339 7 93.184135505968 13.449971429643334 0.017213137259917025 -1 0 0
2330 1 89.6001302942 15.519197803434654 1.0740059771604775 -1 0 0
2332 7 91.39213290008401 16.553810990330334 0.0172131372599144 -1 0 0
2338 1 93.184135505968 15.519197803434654 1.0740059771604806 -1 0 0
2337 1 94.97613811185201 12.415358242747654 1.0740059771604789 -1 0 0
2345 1 98.56014332362 12.415358242747653 1.0740059771604802 -1 0 0
2347 7 96.768140717736 13.449971429643332 0.017213137259912473 -1 0 0
2340 7 94.976138111852 16.553810990330334 0.017213137259915103 -1 0 0
2346 1 96.768140717736 15.519197803434656 1.0740059771604764 -1 0 0
2348 7 98.56014332362 16.553810990330337 0.017213137259914264 -1 0 0
2577 1 1.7920026058839968 18.623037364121657 1.074005977160479 0 0 0
2585 1 5.376007817651996 18.623037364121657 1.0740059771604789 0 0 0
2579 7 0 19.657650551017337 0.017213137259914198 0 0 0
2587 7 3.584005211767997 19.657650551017333 0.017213137259912532 0 0 0
2580 7 1.7920026058839966 22.761490111704333 0.017213137259914725 0 0 0
2578 1 0 21.726876924808654 1.0740059771604802 0 0 0
2586 1 3.5840052117679964 21.726876924808657 1.0740059771604784 0 0 0
2588 7 5.376007817651996 22.761490111704333 0.01721313725991541 0 0 0
2593 1 8.960013029419997 18.623037364121657 1.0740059771604789 0 0 0
2595 7 7.168010423535997 19.657650551017333 0.017213137259913407 0 0 0
2603 7 10.752015635303998 19.657650551017333 0.01721313725991336 0 0 0
2594 1 7.168010423535997 21.726876924808657 1.0740059771604789 0 0 0
2596 7 8.960013029419997 22.761490111704333 0.01721313725991561 0 0 0
2602 1 10.752015635303998 21.726876924808657 1.0740059771604789 0 0 0
2601 1 12.544018241187997 18.623037364121657 1.0740059771604789 0 0 0
2609 1 16.128023452956 18.623037364121657 1.0740059771604789 0 0 0
2611 7 14.336020847071998 19.657650551017333 0.017213137259913462 0 0 0
2604 7 12.544018241187997 22.761490111704337 0.017213137259915103 0 0 0
2610 1 14.336020847071998 21.726876924808657 1.0740059771604782 0 0 0
2612 7 16.128023452956 22.761490111704337 0.017213137259915176 0 0 0
2617 1 19.712028664724 18.623037364121657 1.0740059771604786 0 0 0
2625 1 23.296033876492 18.623037364121654 1.0740059771604797 0 0 0
2619 7 17.920026058839998 19.657650551017333 0.01721313725991312 0 0 0
2627 7 21.504031270608 19.657650551017333 0.01721313725991353 0 0 0
2618 1 17.920026058839998 21.726876924808657 1.074005977160479 0 0 0
2620 7 19.712028664724 22.761490111704333 0.017213137259915655 0 0 0
2626 1 21.504031270608 21.726876924808657 1.0740059771604789 0 0 0
2628 7 23.296033876492 22.761490111704337 0.017213137259914718 0 0 0
2633 1 26.88003908826 18.623037364121654 1.074005977160478 0 0 0
2635 7 25.088036482375998 19.657650551017337 0.017213137259913937 0 0 0
2643 7 28.672041694144 19.657650551017337 0.01721313725991412 0 0 0
2636 7 26.88003908826 22.761490111704337 0.01721313725991346 0 0 0
2634 1 25.088036482375998 21.726876924808654 1.0740059771604782 0 0 0
2642 1 28.672041694144 21.726876924808654 1.074005977160478 0 0 0
2641 1 30.464044300028 18.623037364121657 1.0740059771604793 0 0 0
2649 1 34.048049511796 18.623037364121657 1.0740059771604795 0 0 0
2651 7 32.256046905911994 19.657650551017333 0.01721313725991454 0 0 0
2644 7 30.464044300028 22.761490111704337 0.017213137259914284 0 0 0
2650 1 32.256046905911994 21.726876924808657 1.0740059771604784 0 0 0
2652 7 34.048049511796 22.761490111704337 0.017213137259915072 0 0 0
2657 1 37.632054723563996 18.623037364121657 1.0740059771604793 0 0 0
2665 1 41.216059935332 18.623037364121657 1.0740059771604793 0 0 0
2659 7 35.840052117679996 19.657650551017333 0.0172131372599124 0 0 0
2667 7 39.424057329448 19.657650551017333 0.01721313725991339 0 0 0
2658 1 35.840052117679996 21.726876924808657 1.074005977160479 0 0 0
2660 7 37.632054723563996 22.761490111704333 0.017213137259915336 0 0 0
2666 1 39.424057329448 21.726876924808654 1.0740059771604766 0 0 0
2668 7 41.216059935332 22.761490111704333 0.01721313725991533 0 0 0
2673 1 44.80006514709999 18.623037364121657 1.0740059771604789 0 0 0
2675 7 43.008062541216 19.657650551017333 0.017213137259912442 0 0 0
2683 7 46.592067752984 19.657650551017333 0.01721313725991365 0 0 0
2674 1 43.008062541216 21.726876924808657 1.074005977160479 0 0 0
2676 7 44.80006514709999 22.761490111704337 0.017213137259915752 0 0 0
2682 1 46.592067752984 21.726876924808657 1.074005977160478 0 0 0
2681 1 48.384070358867994 18.623037364121657 1.0740059771604797 0 0 0
2465 1 51.968075570636 18.623037364121657 1.07400597716048 -1 0 0
2467 7 50.176072964752 19.657650551017337 0.01721313725991528 -1 0 0
2684 7 48.384070358867994 22.761490111704337 0.017213137259914742 0 0 0
2468 7 51.968075570636 22.761490111704337 0.017213137259915145 -1 0 0
2466 1 50.176072964752 21.726876924808657 1.0740059771604782 -1 0 0
2473 1 55.552080782404005 18.623037364121657 1.0740059771604786 -1 0 0
2475 7 53.760078176520004 19.657650551017333 0.017213137259914284 -1 0 0
2483 7 57.344083388288 19.657650551017333 0.017213137259913688 -1 0 0
2474 1 53.760078176520004 21.726876924808657 1.0740059771604782 -1 0 0
2476 7 55.552080782404005 22.761490111704333 0.017213137259913407 -1 0 0
2482 1 57.344083388288 21.726876924808657 1.0740059771604786 -1 0 0
2481 1 59.13608599417201 18.623037364121657 1.0740059771604793 -1 0 0
2489 1 62.72009120594 18.623037364121654 1.0740059771604806 -1 0 0
2491 7 60.928088600056 19.657650551017333 0.01721313725991252 -1 0 0
2499 7 64.512093811824 19.657650551017333 0.01721313725991256 -1 0 0
2484 7 59.13608599417201 22.761490111704337 0.017213137259915298 -1 0 0
2490 1 60.928088600056 21.726876924808657 1.074005977160478 -1 0 0
2492 7 62.72009120594 22.761490111704337 0.01721313725991424 -1 0 0
2498 1 64.512093811824 21.726876924808657 1.074005977160478 -1 0 0
2497 1 66.304096417708 18.623037364121657 1.074005977160478 -1 0 0
2505 1 69.888101629476 18.623037364121657 1.0740059771604789 -1 0 0
2507 7 68.096099023592 19.657650551017333 0.017213137259913525 -1 0 0
2500 7 66.304096417708 22.761490111704333 0.017213137259916363 -1 0 0
2506 1 68.096099023592 21.726876924808657 1.0740059771604786 -1 0 0
2508 7 69.888101629476 22.761490111704333 0.017213137259915606 -1 0 0
2513 1 73.472106841244 18.623037364121657 1.0740059771604789 -1 0 0
2515 7 71.68010423536 19.657650551017333 0.017213137259913636 -1 0 0
2523 7 75.264109447128 19.657650551017333 0.01721313725991356 -1 0 0
2514 1 71.68010423536 21.726876924808657 1.0740059771604784 -1 0 0
2516 7 73.472106841244 22.761490111704333 0.017213137259915617 -1 0 0
2522 1 75.264109447128 21.726876924808657 1.0740059771604784 -1 0 0
2521 1 77.056112053012 18.623037364121657 1.0740059771604795 -1 0 0
2529 1 80.64011726478 18.623037364121657 1.074005977160477 -1 0 0
2531 7 78.84811465889601 19.657650551017337 0.017213137259914295 -1 0 0
2539 7 82.43211987066401 19.657650551017337 0.01721313725991432 -1 0 0
2524 7 77.056112053012 22.761490111704337 0.017213137259915096 -1 0 0
2530 1 78.84811465889601 21.726876924808654 1.0740059771604789 -1 0 0
2532 7 80.64011726478 22.761490111704337 0.01721313725991279 -1 0 0
2538 1 82.432119870664 21.726876924808654 1.0740059771604784 -1 0 0
2537 1 84.224122476548 18.623037364121654 1.0740059771604815 -1 0 0
2545 1 87.808127688316 18.623037364121654 1.0740059771604766 -1 0 0
2547 7 86.016125082432 19.657650551017333 0.017213137259914326 -1 0 0
2540 7 84.224122476548 22.761490111704337 0.017213137259916807 -1 0 0
2546 1 86.016125082432 21.726876924808654 1.0740059771604784 -1 0 0
2548 7 87.808127688316 22.761490111704333 0.017213137259912747 -1 0 0
2553 1 91.39213290008401 18.623037364121657 1.074005977160479 -1 0 0
2555 7 89.6001302942 19.657650551017333 0.017213137259911918 -1 0 0
2563 7 93.184135505968 19.657650551017333 0.017213137259916488 -1 0 0
2554 1 89.6001302942 21.726876924808657 1.0740059771604777 -1 0 0
2556 7 91.39213290008401 22.761490111704333 0.017213137259914406 -1 0 0
2562 1 93.184135505968 21.726876924808657 1.0740059771604806 -1 0 0
2561 1 94.97613811185201 18.623037364121657 1.0740059771604786 -1 0 0
2569 1 98.56014332362 18.623037364121654 1.0740059771604806 -1 0 0
2571 7 96.768140717736 19.657650551017333 0.017213137259911918 -1 0 0
2564 7 94.976138111852 22.761490111704333 0.01721313725991465 -1 0 0
2570 1 96.768140717736 21.726876924808657 1.0740059771604766 -1 0 0
2572 7 98.56014332362 22.761490111704337 0.01721313725991394 -1 0 0
2803 7 0 25.865329672391336 0.017213137259914222 0 0 0
2801 1 1.792002605883997 24.830716485495657 1.0740059771604789 0 0 0
2811 7 3.584005211767997 25.865329672391333 0.017213137259912654 0 0 0
2809 1 5.376007817651996 24.830716485495657 1.0740059771604786 0 0 0
2802 1 0 27.934556046182653 1.07400597716048 0 0 0
2810 1 3.5840052117679964 27.934556046182657 1.0740059771604786 0 0 0
2804 7 1.7920026058839966 28.969169233078333 0.017213137259914697 0 0 0
2812 7 5.376007817651996 28.969169233078333 0.017213137259915322 0 0 0
2819 7 7.168010423535997 25.865329672391333 0.017213137259913407 0 0 0
2817 1 8.960013029419997 24.830716485495657 1.0740059771604786 0 0 0
2827 7 10.752015635303998 25.865329672391333 0.017213137259913358 0 0 0
2818 1 7.168010423535996 27.934556046182657 1.0740059771604789 0 0 0