LAMMPS data file via write_data, version 29 Aug 2024, timestep = 0, units = metal

3584 atoms
4 atom types

0 100.352145929504 xlo xhi
0 99.322865941984 ylo yhi
0 19.736528799006 zlo zhi

Masses

1 26.9815386
2 26.9815385
3 32.06
4 32.06

Atoms # atomic

1907 3 0 1.034613186894994 0 0 0 0
1915 3 3.5840052117679946 1.034613186894994 0 0 0 0
1923 3 7.168010423535996 1.034613186894994 0 0 0 0
1931 3 10.752015635303998 1.034613186894994 0 0 0 0
1939 3 14.336020847072 1.034613186894994 0 0 0 0
1947 3 17.92002605884 1.034613186894994 0 0 0 0
1955 3 21.504031270608003 1.034613186894994 0 0 0 0
1963 3 25.088036482376005 1.034613186894994 0 0 0 0
1971 3 28.672041694143992 1.034613186894994 0 0 0 0
1979 3 32.256046905911994 1.034613186894994 0 0 0 0
1987 3 35.840052117679996 1.034613186894994 0 0 0 0
1995 3 39.424057329448 1.034613186894994 0 0 0 0
2003 3 43.008062541216 1.034613186894994 0 0 0 0
2011 3 46.592067752984 1.034613186894994 0 0 0 0
1795 3 50.176072964752 1.034613186894994 0 -1 0 0
1803 3 53.760078176520004 1.034613186894994 0 -1 0 0
1811 3 57.344083388288 1.034613186894994 0 -1 0 0
1819 3 60.928088600056 1.034613186894994 0 -1 0 0
1827 3 64.512093811824 1.034613186894994 0 -1 0 0
1835 3 68.096099023592 1.034613186894994 0 -1 0 0
1843 3 71.68010423536 1.034613186894994 0 -1 0 0
1851 3 75.264109447128 1.034613186894994 0 -1 0 0
1859 3 78.84811465889601 1.034613186894994 0 -1 0 0
1867 3 82.432119870664 1.034613186894994 0 -1 0 0
1875 3 86.01612508243201 1.034613186894994 0 -1 0 0
1883 3 89.6001302942 1.034613186894994 0 -1 0 0
1891 3 93.184135505968 1.034613186894994 0 -1 0 0
1899 3 96.768140717736 1.034613186894994 0 -1 0 0
1906 1 0 3.1038395606869926 1.0691806254429999 0 0 0
1914 1 3.5840052117679946 3.1038395606869926 1.0691806254429999 0 0 0
1922 1 7.168010423535996 3.1038395606869926 1.0691806254429999 0 0 0
1930 1 10.752015635303998 3.1038395606869926 1.0691806254429999 0 0 0
1938 1 14.336020847072 3.1038395606869926 1.0691806254429999 0 0 0
1946 1 17.92002605884 3.1038395606869926 1.0691806254429999 0 0 0
1954 1 21.504031270608003 3.1038395606869926 1.0691806254429999 0 0 0
1962 1 25.088036482376005 3.1038395606869926 1.0691806254429999 0 0 0
1970 1 28.672041694143992 3.1038395606869926 1.0691806254429999 0 0 0
1978 1 32.256046905911994 3.1038395606869926 1.0691806254429999 0 0 0
1986 1 35.840052117679996 3.1038395606869926 1.0691806254429999 0 0 0
1994 1 39.424057329448 3.1038395606869926 1.0691806254429999 0 0 0
2002 1 43.008062541216 3.1038395606869926 1.0691806254429999 0 0 0
2010 1 46.592067752984 3.1038395606869926 1.0691806254429999 0 0 0
1794 1 50.176072964752 3.1038395606869926 1.0691806254429999 -1 0 0
1802 1 53.760078176520004 3.1038395606869926 1.0691806254429999 -1 0 0
1810 1 57.344083388288 3.1038395606869926 1.0691806254429999 -1 0 0
1818 1 60.928088600056 3.1038395606869926 1.0691806254429999 -1 0 0
1826 1 64.512093811824 3.1038395606869926 1.0691806254429999 -1 0 0
1834 1 68.096099023592 3.1038395606869926 1.0691806254429999 -1 0 0
1842 1 71.68010423536 3.1038395606869926 1.0691806254429999 -1 0 0
1850 1 75.264109447128 3.1038395606869926 1.0691806254429999 -1 0 0
1858 1 78.84811465889601 3.1038395606869926 1.0691806254429999 -1 0 0
1866 1 82.432119870664 3.1038395606869926 1.0691806254429999 -1 0 0
1874 1 86.01612508243201 3.1038395606869926 1.0691806254429999 -1 0 0
1882 1 89.6001302942 3.1038395606869926 1.0691806254429999 -1 0 0
1890 1 93.184135505968 3.1038395606869926 1.0691806254429999 -1 0 0
1898 1 96.768140717736 3.1038395606869926 1.0691806254429999 -1 0 0
1908 3 1.7920026058840008 4.138452747581994 0 0 0 0
1916 3 5.376007817651995 4.138452747581994 0 0 0 0
1924 3 8.960013029419997 4.138452747581994 0 0 0 0
1932 3 12.544018241187999 4.138452747581994 0 0 0 0
1940 3 16.128023452955993 4.138452747581994 0 0 0 0
1948 3 19.712028664723995 4.138452747581994 0 0 0 0
1956 3 23.296033876491997 4.138452747581994 0 0 0 0
1964 3 26.88003908826 4.138452747581994 0 0 0 0
1972 3 30.464044300028 4.138452747581994 0 0 0 0
1980 3 34.048049511796 4.138452747581994 0 0 0 0
1988 3 37.632054723564 4.138452747581994 0 0 0 0
1996 3 41.21605993533199 4.138452747581994 0 0 0 0
2004 3 44.80006514709999 4.138452747581994 0 0 0 0
2012 3 48.384070358867994 4.138452747581994 0 0 0 0
1796 3 51.968075570636 4.138452747581994 0 -1 0 0
1804 3 55.552080782404005 4.138452747581994 0 -1 0 0
1812 3 59.13608599417201 4.138452747581994 0 -1 0 0
1820 3 62.72009120594 4.138452747581994 0 -1 0 0
1828 3 66.304096417708 4.138452747581994 0 -1 0 0
1836 3 69.888101629476 4.138452747581994 0 -1 0 0
1844 3 73.472106841244 4.138452747581994 0 -1 0 0
1852 3 77.056112053012 4.138452747581994 0 -1 0 0
1860 3 80.64011726478 4.138452747581994 0 -1 0 0
1868 3 84.224122476548 4.138452747581994 0 -1 0 0
1876 3 87.808127688316 4.138452747581994 0 -1 0 0
1884 3 91.392132900084 4.138452747581994 0 -1 0 0
1892 3 94.97613811185201 4.138452747581994 0 -1 0 0
1900 3 98.56014332362 4.138452747581994 0 -1 0 0
2131 3 0 7.242292308268993 0 0 0 0
2129 1 1.7920026058840008 6.207679121373992 1.0691806254429999 0 0 0
2139 3 3.5840052117679946 7.242292308268993 0 0 0 0
2137 1 5.376007817651995 6.207679121373992 1.0691806254429999 0 0 0
2147 3 7.168010423535996 7.242292308268993 0 0 0 0
2145 1 8.960013029419997 6.207679121373992 1.0691806254429999 0 0 0
2155 3 10.752015635303998 7.242292308268993 0 0 0 0
2153 1 12.544018241187999 6.207679121373992 1.0691806254429999 0 0 0
2163 3 14.336020847072 7.242292308268993 0 0 0 0
2161 1 16.128023452955993 6.207679121373992 1.0691806254429999 0 0 0
2171 3 17.92002605884 7.242292308268993 0 0 0 0
2169 1 19.712028664723995 6.207679121373992 1.0691806254429999 0 0 0
2179 3 21.504031270608003 7.242292308268993 0 0 0 0
2177 1 23.296033876491997 6.207679121373992 1.0691806254429999 0 0 0
2187 3 25.088036482376005 7.242292308268993 0 0 0 0
2185 1 26.88003908826 6.207679121373992 1.0691806254429999 0 0 0
2195 3 28.672041694143992 7.242292308268993 0 0 0 0
2193 1 30.464044300028 6.207679121373992 1.0691806254429999 0 0 0
2203 3 32.256046905911994 7.242292308268993 0 0 0 0
2201 1 34.048049511796 6.207679121373992 1.0691806254429999 0 0 0
2211 3 35.840052117679996 7.242292308268993 0 0 0 0
2209 1 37.632054723564 6.207679121373992 1.0691806254429999 0 0 0
2219 3 39.424057329448 7.242292308268993 0 0 0 0
2217 1 41.21605993533199 6.207679121373992 1.0691806254429999 0 0 0
2227 3 43.008062541216 7.242292308268993 0 0 0 0
2225 1 44.80006514709999 6.207679121373992 1.0691806254429999 0 0 0
2235 3 46.592067752984 7.242292308268993 0 0 0 0
2233 1 48.384070358867994 6.207679121373992 1.0691806254429999 0 0 0
2019 3 50.176072964752 7.242292308268993 0 -1 0 0
2017 1 51.968075570636 6.207679121373992 1.0691806254429999 -1 0 0
2027 3 53.760078176520004 7.242292308268993 0 -1 0 0
2025 1 55.552080782404005 6.207679121373992 1.0691806254429999 -1 0 0
2035 3 57.344083388288 7.242292308268993 0 -1 0 0
2033 1 59.13608599417201 6.207679121373992 1.0691806254429999 -1 0 0
2043 3 60.928088600056 7.242292308268993 0 -1 0 0
2041 1 62.72009120594 6.207679121373992 1.0691806254429999 -1 0 0
2051 3 64.512093811824 7.242292308268993 0 -1 0 0
2049 1 66.304096417708 6.207679121373992 1.0691806254429999 -1 0 0
2059 3 68.096099023592 7.242292308268993 0 -1 0 0
2057 1 69.888101629476 6.207679121373992 1.0691806254429999 -1 0 0
2067 3 71.68010423536 7.242292308268993 0 -1 0 0
2065 1 73.472106841244 6.207679121373992 1.0691806254429999 -1 0 0
2075 3 75.264109447128 7.242292308268993 0 -1 0 0
2073 1 77.056112053012 6.207679121373992 1.0691806254429999 -1 0 0
2083 3 78.84811465889601 7.242292308268993 0 -1 0 0
2081 1 80.64011726478 6.207679121373992 1.0691806254429999 -1 0 0
2091 3 82.432119870664 7.242292308268993 0 -1 0 0
2089 1 84.224122476548 6.207679121373992 1.0691806254429999 -1 0 0
2099 3 86.01612508243201 7.242292308268993 0 -1 0 0
2097 1 87.808127688316 6.207679121373992 1.0691806254429999 -1 0 0
2107 3 89.6001302942 7.242292308268993 0 -1 0 0
2105 1 91.392132900084 6.207679121373992 1.0691806254429999 -1 0 0
2115 3 93.184135505968 7.242292308268993 0 -1 0 0
2113 1 94.97613811185201 6.207679121373992 1.0691806254429999 -1 0 0
2123 3 96.768140717736 7.242292308268993 0 -1 0 0
2121 1 98.56014332362 6.207679121373992 1.0691806254429999 -1 0 0
2130 1 0 9.311518682060992 1.0691806254429999 0 0 0
2138 1 3.5840052117679946 9.311518682060992 1.0691806254429999 0 0 0
2146 1 7.168010423535996 9.311518682060992 1.0691806254429999 0 0 0
2154 1 10.752015635303998 9.311518682060992 1.0691806254429999 0 0 0
2162 1 14.336020847072 9.311518682060992 1.0691806254429999 0 0 0
2170 1 17.92002605884 9.311518682060992 1.0691806254429999 0 0 0
2178 1 21.504031270608003 9.311518682060992 1.0691806254429999 0 0 0
2186 1 25.088036482376005 9.311518682060992 1.0691806254429999 0 0 0
2194 1 28.672041694143992 9.311518682060992 1.0691806254429999 0 0 0
2202 1 32.256046905911994 9.311518682060992 1.0691806254429999 0 0 0
2210 1 35.840052117679996 9.311518682060992 1.0691806254429999 0 0 0
2218 1 39.424057329448 9.311518682060992 1.0691806254429999 0 0 0
2226 1 43.008062541216 9.311518682060992 1.0691806254429999 0 0 0
2234 1 46.592067752984 9.311518682060992 1.0691806254429999 0 0 0
2018 1 50.176072964752 9.311518682060992 1.0691806254429999 -1 0 0
2026 1 53.760078176520004 9.311518682060992 1.0691806254429999 -1 0 0
2034 1 57.344083388288 9.311518682060992 1.0691806254429999 -1 0 0
2042 1 60.928088600056 9.311518682060992 1.0691806254429999 -1 0 0
2050 1 64.512093811824 9.311518682060992 1.0691806254429999 -1 0 0
2058 1 68.096099023592 9.311518682060992 1.0691806254429999 -1 0 0
2066 1 71.68010423536 9.311518682060992 1.0691806254429999 -1 0 0
2074 1 75.264109447128 9.311518682060992 1.0691806254429999 -1 0 0
2082 1 78.84811465889601 9.311518682060992 1.0691806254429999 -1 0 0
2090 1 82.432119870664 9.311518682060992 1.0691806254429999 -1 0 0
2098 1 86.01612508243201 9.311518682060992 1.0691806254429999 -1 0 0
2106 1 89.6001302942 9.311518682060992 1.0691806254429999 -1 0 0
2114 1 93.184135505968 9.311518682060992 1.0691806254429999 -1 0 0
2122 1 96.768140717736 9.311518682060992 1.0691806254429999 -1 0 0
2132 3 1.7920026058840008 10.346131868955993 0 0 0 0
2140 3 5.376007817651995 10.346131868955993 0 0 0 0
2148 3 8.960013029419997 10.346131868955993 0 0 0 0
2156 3 12.544018241187999 10.346131868955993 0 0 0 0
2164 3 16.128023452955993 10.346131868955993 0 0 0 0
2172 3 19.712028664723995 10.346131868955993 0 0 0 0
2180 3 23.296033876491997 10.346131868955993 0 0 0 0
2188 3 26.88003908826 10.346131868955993 0 0 0 0
2196 3 30.464044300028 10.346131868955993 0 0 0 0
2204 3 34.048049511796 10.346131868955993 0 0 0 0
2212 3 37.632054723564 10.346131868955993 0 0 0 0
2220 3 41.21605993533199 10.346131868955993 0 0 0 0
2228 3 44.80006514709999 10.346131868955993 0 0 0 0
2236 3 48.384070358867994 10.346131868955993 0 0 0 0
2020 3 51.968075570636 10.346131868955993 0 -1 0 0
2028 3 55.552080782404005 10.346131868955993 0 -1 0 0
2036 3 59.13608599417201 10.346131868955993 0 -1 0 0
2044 3 62.72009120594 10.346131868955993 0 -1 0 0
2052 3 66.304096417708 10.346131868955993 0 -1 0 0
2060 3 69.888101629476 10.346131868955993 0 -1 0 0
2068 3 73.472106841244 10.346131868955993 0 -1 0 0
2076 3 77.056112053012 10.346131868955993 0 -1 0 0
2084 3 80.64011726478 10.346131868955993 0 -1 0 0
2092 3 84.224122476548 10.346131868955993 0 -1 0 0
2100 3 87.808127688316 10.346131868955993 0 -1 0 0
2108 3 91.392132900084 10.346131868955993 0 -1 0 0
2116 3 94.97613811185201 10.346131868955993 0 -1 0 0
2124 3 98.56014332362 10.346131868955993 0 -1 0 0
2353 1 1.7920026058840008 12.415358242747992 1.0691806254429999 0 0 0
2361 1 5.376007817651995 12.415358242747992 1.0691806254429999 0 0 0
2369 1 8.960013029419997 12.415358242747992 1.0691806254429999 0 0 0
2377 1 12.544018241187999 12.415358242747992 1.0691806254429999 0 0 0
2385 1 16.128023452955993 12.415358242747992 1.0691806254429999 0 0 0
2393 1 19.712028664723995 12.415358242747992 1.0691806254429999 0 0 0
2401 1 23.296033876491997 12.415358242747992 1.0691806254429999 0 0 0
2409 1 26.88003908826 12.415358242747992 1.0691806254429999 0 0 0
2417 1 30.464044300028 12.415358242747992 1.0691806254429999 0 0 0
2425 1 34.048049511796 12.415358242747992 1.0691806254429999 0 0 0
2433 1 37.632054723564 12.415358242747992 1.0691806254429999 0 0 0
2441 1 41.21605993533199 12.415358242747992 1.0691806254429999 0 0 0
2449 1 44.80006514709999 12.415358242747992 1.0691806254429999 0 0 0
2457 1 48.384070358867994 12.415358242747992 1.0691806254429999 0 0 0
2241 1 51.968075570636 12.415358242747992 1.0691806254429999 -1 0 0
2249 1 55.552080782404005 12.415358242747992 1.0691806254429999 -1 0 0
2257 1 59.13608599417201 12.415358242747992 1.0691806254429999 -1 0 0
2265 1 62.72009120594 12.415358242747992 1.0691806254429999 -1 0 0
2273 1 66.304096417708 12.415358242747992 1.0691806254429999 -1 0 0
2281 1 69.888101629476 12.415358242747992 1.0691806254429999 -1 0 0
2289 1 73.472106841244 12.415358242747992 1.0691806254429999 -1 0 0
2297 1 77.056112053012 12.415358242747992 1.0691806254429999 -1 0 0
2305 1 80.64011726478 12.415358242747992 1.0691806254429999 -1 0 0
2313 1 84.224122476548 12.415358242747992 1.0691806254429999 -1 0 0
2321 1 87.808127688316 12.415358242747992 1.0691806254429999 -1 0 0
2329 1 91.392132900084 12.415358242747992 1.0691806254429999 -1 0 0
2337 1 94.97613811185201 12.415358242747992 1.0691806254429999 -1 0 0
2345 1 98.56014332362 12.415358242747992 1.0691806254429999 -1 0 0
2355 3 0 13.449971429643 0 0 0 0
2363 3 3.5840052117679946 13.449971429643 0 0 0 0
2371 3 7.168010423535996 13.449971429643 0 0 0 0
2379 3 10.752015635303998 13.449971429643 0 0 0 0
2387 3 14.336020847072 13.449971429643 0 0 0 0
2395 3 17.92002605884 13.449971429643 0 0 0 0
2403 3 21.504031270608003 13.449971429643 0 0 0 0
2411 3 25.088036482376005 13.449971429643 0 0 0 0
2419 3 28.672041694143992 13.449971429643 0 0 0 0
2427 3 32.256046905911994 13.449971429643 0 0 0 0
2435 3 35.840052117679996 13.449971429643 0 0 0 0
2443 3 39.424057329448 13.449971429643 0 0 0 0
2451 3 43.008062541216 13.449971429643 0 0 0 0
2459 3 46.592067752984 13.449971429643 0 0 0 0
2243 3 50.176072964752 13.449971429643 0 -1 0 0
2251 3 53.760078176520004 13.449971429643 0 -1 0 0
2259 3 57.344083388288 13.449971429643 0 -1 0 0
2267 3 60.928088600056 13.449971429643 0 -1 0 0
2275 3 64.512093811824 13.449971429643 0 -1 0 0
2283 3 68.096099023592 13.449971429643 0 -1 0 0
2291 3 71.68010423536 13.449971429643 0 -1 0 0
2299 3 75.264109447128 13.449971429643 0 -1 0 0
2307 3 78.84811465889601 13.449971429643 0 -1 0 0
2315 3 82.432119870664 13.449971429643 0 -1 0 0
2323 3 86.01612508243201 13.449971429643 0 -1 0 0
2331 3 89.6001302942 13.449971429643 0 -1 0 0
2339 3 93.184135505968 13.449971429643 0 -1 0 0
2347 3 96.768140717736 13.449971429643 0 -1 0 0
2356 3 1.7920026058840008 16.553810990329993 0 0 0 0
2354 1 0 15.519197803434992 1.0691806254429999 0 0 0
2362 1 3.5840052117679946 15.519197803434992 1.0691806254429999 0 0 0
2364 3 5.376007817651995 16.553810990329993 0 0 0 0
2370 1 7.168010423535996 15.519197803434992 1.0691806254429999 0 0 0
2372 3 8.960013029419997 16.553810990329993 0 0 0 0
2378 1 10.752015635303998 15.519197803434992 1.0691806254429999 0 0 0
2380 3 12.544018241187999 16.553810990329993 0 0 0 0
2386 1 14.336020847072 15.519197803434992 1.0691806254429999 0 0 0
2388 3 16.128023452955993 16.553810990329993 0 0 0 0
2394 1 17.92002605884 15.519197803434992 1.0691806254429999 0 0 0
2396 3 19.712028664723995 16.553810990329993 0 0 0 0
2402 1 21.504031270608003 15.519197803434992 1.0691806254429999 0 0 0
2404 3 23.296033876491997 16.553810990329993 0 0 0 0
2412 3 26.88003908826 16.553810990329993 0 0 0 0
2410 1 25.088036482376005 15.519197803434992 1.0691806254429999 0 0 0
2418 1 28.672041694143992 15.519197803434992 1.0691806254429999 0 0 0
2420 3 30.464044300028 16.553810990329993 0 0 0 0
2426 1 32.256046905911994 15.519197803434992 1.0691806254429999 0 0 0
2428 3 34.048049511796 16.553810990329993 0 0 0 0
2434 1 35.840052117679996 15.519197803434992 1.0691806254429999 0 0 0
2436 3 37.632054723564 16.553810990329993 0 0 0 0
2442 1 39.424057329448 15.519197803434992 1.0691806254429999 0 0 0
2444 3 41.21605993533199 16.553810990329993 0 0 0 0
2450 1 43.008062541216 15.519197803434992 1.0691806254429999 0 0 0
2452 3 44.80006514709999 16.553810990329993 0 0 0 0
2458 1 46.592067752984 15.519197803434992 1.0691806254429999 0 0 0
2460 3 48.384070358867994 16.553810990329993 0 0 0 0
2244 3 51.968075570636 16.553810990329993 0 -1 0 0
2242 1 50.176072964752 15.519197803434992 1.0691806254429999 -1 0 0
2250 1 53.760078176520004 15.519197803434992 1.0691806254429999 -1 0 0
2252 3 55.552080782404005 16.553810990329993 0 -1 0 0
2258 1 57.344083388288 15.519197803434992 1.0691806254429999 -1 0 0
2260 3 59.13608599417201 16.553810990329993 0 -1 0 0
2266 1 60.928088600056 15.519197803434992 1.0691806254429999 -1 0 0
2268 3 62.72009120594 16.553810990329993 0 -1 0 0
2274 1 64.512093811824 15.519197803434992 1.0691806254429999 -1 0 0
2276 3 66.304096417708 16.553810990329993 0 -1 0 0
2282 1 68.096099023592 15.519197803434992 1.0691806254429999 -1 0 0
2284 3 69.888101629476 16.553810990329993 0 -1 0 0
2290 1 71.68010423536 15.519197803434992 1.0691806254429999 -1 0 0
2292 3 73.472106841244 16.553810990329993 0 -1 0 0
2300 3 77.056112053012 16.553810990329993 0 -1 0 0
2298 1 75.264109447128 15.519197803434992 1.0691806254429999 -1 0 0
2306 1 78.84811465889601 15.519197803434992 1.0691806254429999 -1 0 0
2308 3 80.64011726478 16.553810990329993 0 -1 0 0
2314 1 82.432119870664 15.519197803434992 1.0691806254429999 -1 0 0
2316 3 84.224122476548 16.553810990329993 0 -1 0 0
2322 1 86.01612508243201 15.519197803434992 1.0691806254429999 -1 0 0
2324 3 87.808127688316 16.553810990329993 0 -1 0 0
2330 1 89.6001302942 15.519197803434992 1.0691806254429999 -1 0 0
2332 3 91.392132900084 16.553810990329993 0 -1 0 0
2338 1 93.184135505968 15.519197803434992 1.0691806254429999 -1 0 0
2340 3 94.97613811185201 16.553810990329993 0 -1 0 0
2346 1 96.768140717736 15.519197803434992 1.0691806254429999 -1 0 0
2348 3 98.56014332362 16.553810990329993 0 -1 0 0
2577 1 1.7920026058840008 18.623037364122 1.0691806254429999 0 0 0
2585 1 5.376007817651995 18.623037364122 1.0691806254429999 0 0 0
2593 1 8.960013029419997 18.623037364122 1.0691806254429999 0 0 0
2601 1 12.544018241187999 18.623037364122 1.0691806254429999 0 0 0
2609 1 16.128023452955993 18.623037364122 1.0691806254429999 0 0 0
2617 1 19.712028664723995 18.623037364122 1.0691806254429999 0 0 0
2625 1 23.296033876491997 18.623037364122 1.0691806254429999 0 0 0
2633 1 26.88003908826 18.623037364122 1.0691806254429999 0 0 0
2641 1 30.464044300028 18.623037364122 1.0691806254429999 0 0 0
2649 1 34.048049511796 18.623037364122 1.0691806254429999 0 0 0
2657 1 37.632054723564 18.623037364122 1.0691806254429999 0 0 0
2665 1 41.21605993533199 18.623037364122 1.0691806254429999 0 0 0
2673 1 44.80006514709999 18.623037364122 1.0691806254429999 0 0 0
2681 1 48.384070358867994 18.623037364122 1.0691806254429999 0 0 0
2465 1 51.968075570636 18.623037364122 1.0691806254429999 -1 0 0
2473 1 55.552080782404005 18.623037364122 1.0691806254429999 -1 0 0
2481 1 59.13608599417201 18.623037364122 1.0691806254429999 -1 0 0
2489 1 62.72009120594 18.623037364122 1.0691806254429999 -1 0 0
2497 1 66.304096417708 18.623037364122 1.0691806254429999 -1 0 0
2505 1 69.888101629476 18.623037364122 1.0691806254429999 -1 0 0
2513 1 73.472106841244 18.623037364122 1.0691806254429999 -1 0 0
2521 1 77.056112053012 18.623037364122 1.0691806254429999 -1 0 0
2529 1 80.64011726478 18.623037364122 1.0691806254429999 -1 0 0
2537 1 84.224122476548 18.623037364122 1.0691806254429999 -1 0 0
2545 1 87.808127688316 18.623037364122 1.0691806254429999 -1 0 0
2553 1 91.392132900084 18.623037364122 1.0691806254429999 -1 0 0
2561 1 94.97613811185201 18.623037364122 1.0691806254429999 -1 0 0
2569 1 98.56014332362 18.623037364122 1.0691806254429999 -1 0 0
2579 3 0 19.657650551017 0 0 0 0
2587 3 3.5840052117679946 19.657650551017 0 0 0 0
2595 3 7.168010423535996 19.657650551017 0 0 0 0
2603 3 10.752015635303998 19.657650551017 0 0 0 0
2611 3 14.336020847072 19.657650551017 0 0 0 0
2619 3 17.92002605884 19.657650551017 0 0 0 0
2627 3 21.504031270608003 19.657650551017 0 0 0 0
2635 3 25.088036482376005 19.657650551017 0 0 0 0
2643 3 28.672041694143992 19.657650551017 0 0 0 0
2651 3 32.256046905911994 19.657650551017 0 0 0 0
2659 3 35.840052117679996 19.657650551017 0 0 0 0
2667 3 39.424057329448 19.657650551017 0 0 0 0
2675 3 43.008062541216 19.657650551017 0 0 0 0
2683 3 46.592067752984 19.657650551017 0 0 0 0
2467 3 50.176072964752 19.657650551017 0 -1 0 0
2475 3 53.760078176520004 19.657650551017 0 -1 0 0
2483 3 57.344083388288 19.657650551017 0 -1 0 0
2491 3 60.928088600056 19.657650551017 0 -1 0 0
2499 3 64.512093811824 19.657650551017 0 -1 0 0
2507 3 68.096099023592 19.657650551017 0 -1 0 0
2515 3 71.68010423536 19.657650551017 0 -1 0 0
2523 3 75.264109447128 19.657650551017 0 -1 0 0
2531 3 78.84811465889601 19.657650551017 0 -1 0 0
2539 3 82.432119870664 19.657650551017 0 -1 0 0
2547 3 86.01612508243201 19.657650551017 0 -1 0 0
2555 3 89.6001302942 19.657650551017 0 -1 0 0
2563 3 93.184135505968 19.657650551017 0 -1 0 0
2571 3 96.768140717736 19.657650551017 0 -1 0 0
2580 3 1.7920026058840008 22.761490111703992 0 0 0 0
2578 1 0 21.72687692480899 1.0691806254429999 0 0 0
2586 1 3.5840052117679946 21.72687692480899 1.0691806254429999 0 0 0
2588 3 5.376007817651995 22.761490111703992 0 0 0 0
2594 1 7.168010423535996 21.72687692480899 1.0691806254429999 0 0 0
2596 3 8.960013029419997 22.761490111703992 0 0 0 0
2602 1 10.752015635303998 21.72687692480899 1.0691806254429999 0 0 0
2604 3 12.544018241187999 22.761490111703992 0 0 0 0
2610 1 14.336020847072 21.72687692480899 1.0691806254429999 0 0 0
2612 3 16.128023452955993 22.761490111703992 0 0 0 0
2618 1 17.92002605884 21.72687692480899 1.0691806254429999 0 0 0
2620 3 19.712028664723995 22.761490111703992 0 0 0 0
2626 1 21.504031270608003 21.72687692480899 1.0691806254429999 0 0 0
2628 3 23.296033876491997 22.761490111703992 0 0 0 0
2636 3 26.88003908826 22.761490111703992 0 0 0 0
2634 1 25.088036482376005 21.72687692480899 1.0691806254429999 0 0 0
2642 1 28.672041694143992 21.72687692480899 1.0691806254429999 0 0 0
2644 3 30.464044300028 22.761490111703992 0 0 0 0
2650 1 32.256046905911994 21.72687692480899 1.0691806254429999 0 0 0
2652 3 34.048049511796 22.761490111703992 0 0 0 0
2658 1 35.840052117679996 21.72687692480899 1.0691806254429999 0 0 0
2660 3 37.632054723564 22.761490111703992 0 0 0 0
2666 1 39.424057329448 21.72687692480899 1.0691806254429999 0 0 0
2668 3 41.21605993533199 22.761490111703992 0 0 0 0
2674 1 43.008062541216 21.72687692480899 1.0691806254429999 0 0 0
2676 3 44.80006514709999 22.761490111703992 0 0 0 0
2682 1 46.592067752984 21.72687692480899 1.0691806254429999 0 0 0
2684 3 48.384070358867994 22.761490111703992 0 0 0 0
2468 3 51.968075570636 22.761490111703992 0 -1 0 0
2466 1 50.176072964752 21.72687692480899 1.0691806254429999 -1 0 0
2474 1 53.760078176520004 21.72687692480899 1.0691806254429999 -1 0 0
2476 3 55.552080782404005 22.761490111703992 0 -1 0 0
2482 1 57.344083388288 21.72687692480899 1.0691806254429999 -1 0 0
2484 3 59.13608599417201 22.761490111703992 0 -1 0 0
2490 1 60.928088600056 21.72687692480899 1.0691806254429999 -1 0 0
2492 3 62.72009120594 22.761490111703992 0 -1 0 0
2498 1 64.512093811824 21.72687692480899 1.0691806254429999 -1 0 0
2500 3 66.304096417708 22.761490111703992 0 -1 0 0
2506 1 68.096099023592 21.72687692480899 1.0691806254429999 -1 0 0
2508 3 69.888101629476 22.761490111703992 0 -1 0 0
2514 1 71.68010423536 21.72687692480899 1.0691806254429999 -1 0 0
2516 3 73.472106841244 22.761490111703992 0 -1 0 0
2524 3 77.056112053012 22.761490111703992 0 -1 0 0
2522 1 75.264109447128 21.72687692480899 1.0691806254429999 -1 0 0
2530 1 78.84811465889601 21.72687692480899 1.0691806254429999 -1 0 0
2532 3 80.64011726478 22.761490111703992 0 -1 0 0
2538 1 82.432119870664 21.72687692480899 1.0691806254429999 -1 0 0
2540 3 84.224122476548 22.761490111703992 0 -1 0 0
2546 1 86.01612508243201 21.72687692480899 1.0691806254429999 -1 0 0
2548 3 87.808127688316 22.761490111703992 0 -1 0 0
2554 1 89.6001302942 21.72687692480899 1.0691806254429999 -1 0 0
2556 3 91.392132900084 22.761490111703992 0 -1 0 0
2562 1 93.184135505968 21.72687692480899 1.0691806254429999 -1 0 0
2564 3 94.97613811185201 22.761490111703992 0 -1 0 0
2570 1 96.768140717736 21.72687692480899 1.0691806254429999 -1 0 0
2572 3 98.56014332362 22.761490111703992 0 -1 0 0
2803 3 0 25.865329672391 0 0 0 0
2801 1 1.7920026058840008 24.830716485495998 1.0691806254429999 0 0 0
2811 3 3.5840052117679946 25.865329672391 0 0 0 0
2809 1 5.376007817651995 24.830716485495998 1.0691806254429999 0 0 0
2819 3 7.168010423535996 25.865329672391 0 0 0 0
2817 1 8.960013029419997 24.830716485495998 1.0691806254429999 0 0 0
2827 3 10.752015635303998 25.865329672391 0 0 0 0
2825 1 12.544018241187999 24.830716485495998 1.0691806254429999 0 0 0
2835 3 14.336020847072 25.865329672391 0 0 0 0
2833 1 16.128023452955993 24.830716485495998 1.0691806254429999 0 0 0
2843 3 17.92002605884 25.865329672391 0 0 0 0
2841 1 19.712028664723995 24.830716485495998 1.0691806254429999 0 0 0
2851 3 21.504031270608003 25.865329672391 0 0 0 0
2849 1 23.296033876491997 24.830716485495998 1.0691806254429999 0 0 0
2859 3 25.088036482376005 25.865329672391 0 0 0 0
2857 1 26.88003908826 24.830716485495998 1.0691806254429999 0 0 0
2867 3 28.672041694143992 25.865329672391 0 0 0 0
2865 1 30.464044300028 24.830716485495998 1.0691806254429999 0 0 0
2875 3 32.256046905911994 25.865329672391 0 0 0 0
2873 1 34.048049511796 24.830716485495998 1.0691806254429999 0 0 0
2883 3 35.840052117679996 25.865329672391 0 0 0 0
2881 1 37.632054723564 24.830716485495998 1.0691806254429999 0 0 0
2891 3 39.424057329448 25.865329672391 0 0 0 0
2889 1 41.21605993533199 24.830716485495998 1.0691806254429999 0 0 0
2899 3 43.008062541216 25.865329672391 0 0 0 0
2897 1 44.80006514709999 24.830716485495998 1.0691806254429999 0 0 0
2907 3 46.592067752984 25.865329672391 0 0 0 0
2905 1 48.384070358867994 24.830716485495998 1.0691806254429999 0 0 0
2691 3 50.176072964752 25.865329672391 0 -1 0 0
2689 1 51.968075570636 24.830716485495998 1.0691806254429999 -1 0 0
2699 3 53.760078176520004 25.865329672391 0 -1 0 0
2697 1 55.552080782404005 24.830716485495998 1.0691806254429999 -1 0 0
2707 3 57.344083388288 25.865329672391 0 -1 0 0
2705 1 59.13608599417201 24.830716485495998 1.0691806254429999 -1 0 0
2715 3 60.928088600056 25.865329672391 0 -1 0 0
2713 1 62.72009120594 24.830716485495998 1.0691806254429999 -1 0 0
2723 3 64.512093811824 25.865329672391 0 -1 0 0
2721 1 66.304096417708 24.830716485495998 1.0691806254429999 -1 0 0
2731 3 68.096099023592 25.865329672391 0 -1 0 0
2729 1 69.888101629476 24.830716485495998 1.0691806254429999 -1 0 0
2739 3 71.68010423536 25.865329672391 0 -1 0 0
2737 1 73.472106841244 24.830716485495998 1.0691806254429999 -1 0 0
2747 3 75.264109447128 25.865329672391 0 -1 0 0
2745 1 77.056112053012 24.830716485495998 1.0691806254429999 -1 0 0
2755 3 78.84811465889601 25.865329672391 0 -1 0 0
2753 1 80.64011726478 24.830716485495998 1.0691806254429999 -1 0 0
2763 3 82.432119870664 25.865329672391 0 -1 0 0
2761 1 84.224122476548 24.830716485495998 1.0691806254429999 -1 0 0
2771 3 86.01612508243201 25.865329672391 0 -1 0 0
2769 1 87.808127688316 24.830716485495998 1.0691806254429999 -1 0 0
2779 3 89.6001302942 25.865329672391 0 -1 0 0
2777 1 91.392132900084 24.830716485495998 1.0691806254429999 -1 0 0
2787 3 93.184135505968 25.865329672391 0 -1 0 0
2785 1 94.97613811185201 24.830716485495998 1.0691806254429999 -1 0 0
2795 3 96.768140717736 25.865329672391 0 -1 0 0
2793 1 98.56014332362 24.830716485495998 1.0691806254429999 -1 0 0
2802 1 0 27.93455604618299 1.0691806254429999 0 0 0
2810 1 3.5840052117679946 27.93455604618299 1.0691806254429999 0 0 0
2818 1 7.168010423535996 27.93455604618299 1.0691806254429999 0 0 0
2826 1 10.752015635303998 27.93455604618299 1.0691806254429999 0 0 0
2834 1 14.336020847072 27.93455604618299 1.0691806254429999 0 0 0
2842 1 17.92002605884 27.93455604618299 1.0691806254429999 0 0 0
2850 1 21.504031270608003 27.93455604618299 1.0691806254429999 0 0 0
2858 1 25.088036482376005 27.93455604618299 1.0691806254429999 0 0 0
2866 1 28.672041694143992 27.93455604618299 1.0691806254429999 0 0 0
2874 1 32.256046905911994 27.93455604618299 1.0691806254429999 0 0 0
2882 1 35.840052117679996 27.93455604618299 1.0691806254429999 0 0 0
2890 1 39.424057329448 27.93455604618299 1.0691806254429999 0 0 0
2898 1 43.008062541216 27.93455604618299 1.0691806254429999 0 0 0
2906 1 46.592067752984 27.93455604618299 1.0691806254429999 0 0 0
2690 1 50.176072964752 27.93455604618299 1.0691806254429999 -1 0 0
2698 1 53.760078176520004 27.93455604618299 1.0691806254429999 -1 0 0
2706 1 57.344083388288 27.93455604618299 1.0691806254429999 -1 0 0
2714 1 60.928088600056 27.93455604618299 1.0691806254429999 -1 0 0
2722 1 64.512093811824 27.93455604618299 1.0691806254429999 -1 0 0
2730 1 68.096099023592 27.93455604618299 1.0691806254429999 -1 0 0
2738 1 71.68010423536 27.93455604618299 1.0691806254429999 -1 0 0
2746 1 75.264109447128 27.93455604618299 1.0691806254429999 -1 0 0
2754 1 78.84811465889601 27.93455604618299 1.0691806254429999 -1 0 0
2762 1 82.432119870664 27.93455604618299 1.0691806254429999 -1 0 0
2770 1 86.01612508243201 27.93455604618299 1.0691806254429999 -1 0 0
2778 1 89.6001302942 27.93455604618299 1.0691806254429999 -1 0 0
2786 1 93.184135505968 27.93455604618299 1.0691806254429999 -1 0 0
2794 1 96.768140717736 27.93455604618299 1.0691806254429999 -1 0 0
2804 3 1.7920026058840008 28.96916923307799 0 0 0 0
2812 3 5.376007817651995 28.96916923307799 0 0 0 0
2820 3 8.960013029419997 28.96916923307799 0 0 0 0