LAMMPS data file via write_data, version 29 Aug 2024, timestep = 1, units = metal

4536 atoms
8 atom types

0 99.456810683949 xlo xhi
0 100.288955727261 ylo yhi
-50 50 zlo zhi

Masses

1 74.921595
2 74.921595
3 74.921595
4 74.921595
5 74.921595
6 74.921595
7 74.921595
8 74.921595

Atoms # atomic

1139 3 1.8418046211853902 1.7034635050056777 0.001254190874137769 0 0 0
1143 3 5.525390202072391 1.703463505005679 0.0012541908741377202 0 0 0
1244 4 1.1830748993171269e-05 4.774862541936856 0.0012544532777960722 0 0 0
1248 4 3.6835974116359957 4.774862541936854 0.001254453277796048 0 0 0
1245 1 1.842943882233619 2.3882557068191703 2.3966270762531394 0 0 0
1249 1 5.52652946312062 2.388255706819169 2.3966270762531394 0 0 0
1242 2 0.001151090521623961 4.090070340099321 2.3966273337759425 0 0 0
1246 2 3.6847366714086265 4.090070340099322 2.396627333775943 0 0 0
1147 3 9.20897578295939 1.703463505005679 0.0012541908741377443 0 0 0
1252 4 7.367182992522996 4.774862541936856 0.001254453277796072 0 0 0
1256 4 11.050768573409997 4.774862541936854 0.0012544532777960433 0 0 0
1253 1 9.21011504400762 2.388255706819169 2.3966270762531394 0 0 0
1250 2 7.368322252295627 4.09007034009932 2.396627333775943 0 0 0
1254 2 11.051907833182627 4.090070340099322 2.3966273337759425 0 0 0
1151 3 12.89256136384639 1.703463505005679 0.0012541908741377458 0 0 0
1155 3 16.576146944733388 1.703463505005679 0.0012541908741377308 0 0 0
1260 4 14.734354154296996 4.774862541936856 0.0012544532777960724 0 0 0
1257 1 12.893700624894619 2.388255706819169 2.3966270762531394 0 0 0
1261 1 16.57728620578162 2.388255706819169 2.3966270762531394 0 0 0
1258 2 14.735493414069627 4.09007034009932 2.396627333775943 0 0 0
1159 3 20.259732525620393 1.703463505005676 0.0012541908741377943 0 0 0
1264 4 18.417939735183996 4.774862541936854 0.0012544532777960477 0 0 0
1268 4 22.101525316070997 4.774862541936854 0.0012544532777960485 0 0 0
1265 1 20.26087178666862 2.388255706819172 2.3966270762531394 0 0 0
1262 2 18.419078994956628 4.090070340099323 2.3966273337759425 0 0 0
1266 2 22.10266457584363 4.090070340099323 2.396627333775943 0 0 0
1163 3 23.943318106507395 1.7034635050056788 0.0012541908741377204 0 0 0
1167 3 27.626903687394393 1.7034635050056788 0.00125419087413772 0 0 0
1272 4 25.785110896958 4.774862541936854 0.0012544532777960479 0 0 0
1269 1 23.944457367555625 2.388255706819169 2.3966270762531394 0 0 0
1273 1 27.628042948442623 2.388255706819169 2.3966270762531394 0 0 0
1270 2 25.786250156730627 4.090070340099322 2.396627333775943 0 0 0
1171 3 31.31048926828139 1.7034635050056788 0.00125419087413772 0 0 0
1175 3 34.994074849168385 1.7034635050056788 0.0012541908741377204 0 0 0
1276 4 29.468696477844997 4.774862541936854 0.0012544532777960479 0 0 0
1280 4 33.15228205873199 4.774862541936854 0.0012544532777960479 0 0 0
1277 1 31.31162852932962 2.388255706819169 2.3966270762531394 0 0 0
1281 1 34.995214110216615 2.388255706819169 2.3966270762531394 0 0 0
1274 2 29.469835737617625 4.090070340099322 2.3966273337759425 0 0 0
1278 2 33.15342131850463 4.090070340099322 2.396627333775943 0 0 0
1179 3 38.67766043005539 1.7034635050056794 0.0012541908741377208 0 0 0
1284 4 36.83586763961899 4.774862541936854 0.0012544532777960485 0 0 0
1288 4 40.519453220505994 4.774862541936858 0.0012544532777961032 0 0 0
1285 1 38.67879969110361 2.3882557068191685 2.3966270762531394 0 0 0
1282 2 36.837006899391625 4.090070340099322 2.396627333775943 0 0 0
1286 2 40.52059248027862 4.090070340099319 2.3966273337759425 0 0 0
1183 3 42.36124601094239 1.7034635050056794 0.0012541908741377312 0 0 0
1187 3 46.04483159182939 1.703463505005676 0.001254190874137793 0 0 0
1292 4 44.203038801393 4.774862541936854 0.0012544532777960472 0 0 0
1289 1 42.36238527199062 2.3882557068191685 2.3966270762531394 0 0 0
1293 1 46.04597085287762 2.388255706819172 2.3966270762531394 0 0 0
1290 2 44.20417806116563 4.090070340099323 2.396627333775943 0 0 0
1083 3 49.72841717271639 1.7034635050056819 0.0012541908741376966 -1 0 0
1296 4 47.88662438228 4.774862541936854 0.0012544532777960477 0 0 0
1192 4 51.570209963166995 4.774862541936854 0.0012544532777960427 -1 0 0
1189 1 49.72955643376462 2.3882557068191677 2.3966270762531394 -1 0 0
1294 2 47.88776364205263 4.090070340099322 2.396627333775943 0 0 0
1190 2 51.571349222939624 4.090070340099322 2.3966273337759425 -1 0 0
1087 3 53.41200275360339 1.7034635050056777 0.00125419087413777 -1 0 0
1091 3 57.095588334490394 1.703463505005679 0.0012541908741377453 -1 0 0
1196 4 55.253795544054 4.774862541936856 0.001254453277796073 -1 0 0
1193 1 53.41314201465162 2.3882557068191703 2.3966270762531394 -1 0 0
1197 1 57.096727595538624 2.388255706819169 2.3966270762531394 -1 0 0
1194 2 55.25493480382663 4.090070340099321 2.3966273337759425 -1 0 0
1095 3 60.77917391537739 1.7034635050056774 0.0012541908741377694 -1 0 0
1200 4 58.937381124941 4.774862541936854 0.0012544532777960429 -1 0 0
1204 4 62.620966705827996 4.774862541936854 0.0012544532777960479 -1 0 0
1201 1 60.78031317642562 2.3882557068191708 2.3966270762531394 -1 0 0
1198 2 58.93852038471363 4.090070340099322 2.396627333775943 -1 0 0
1202 2 62.62210596560063 4.090070340099322 2.396627333775943 -1 0 0
1099 3 64.4627594962644 1.7034635050056788 0.0012541908741377193 -1 0 0
1103 3 68.1463450771514 1.7034635050056788 0.0012541908741377189 -1 0 0
1208 4 66.304552286715 4.774862541936854 0.001254453277796047 -1 0 0
1212 4 69.98813786760199 4.774862541936854 0.0012544532777960468 -1 0 0
1205 1 64.46389875731262 2.388255706819169 2.3966270762531394 -1 0 0
1209 1 68.14748433819962 2.388255706819169 2.3966270762531394 -1 0 0
1206 2 66.30569154648762 4.090070340099322 2.396627333775943 -1 0 0
1210 2 69.98927712737462 4.090070340099322 2.396627333775943 -1 0 0
1107 3 71.82993065803839 1.7034635050056794 0.0012541908741377189 -1 0 0
1111 3 75.51351623892539 1.7034635050056794 0.0012541908741377312 -1 0 0
1216 4 73.67172344848899 4.774862541936858 0.001254453277796102 -1 0 0
1213 1 71.83106991908662 2.3882557068191685 2.3966270762531394 -1 0 0
1217 1 75.51465549997363 2.3882557068191685 2.3966270762531394 -1 0 0
1214 2 73.67286270826163 4.090070340099319 2.3966273337759425 -1 0 0
1115 3 79.19710181981239 1.7034635050056788 0.0012541908741377302 -1 0 0
1220 4 77.355309029376 4.774862541936854 0.0012544532777960477 -1 0 0
1224 4 81.038894610263 4.774862541936854 0.001254453277796047 -1 0 0
1221 1 79.19824108086063 2.388255706819169 2.3966270762531394 -1 0 0
1218 2 77.35644828914863 4.090070340099322 2.3966273337759425 -1 0 0
1222 2 81.04003387003563 4.090070340099323 2.3966273337759425 -1 0 0
1119 3 82.88068740069939 1.703463505005676 0.0012541908741377926 -1 0 0
1123 3 86.56427298158638 1.7034635050056817 0.0012541908741376567 -1 0 0
1228 4 84.72248019115 4.774862541936854 0.0012544532777960468 -1 0 0
1225 1 82.88182666174762 2.388255706819172 2.3966270762531394 -1 0 0
1229 1 86.56541224263462 2.3882557068191663 2.3966270762531394 -1 0 0
1226 2 84.72361945092263 4.090070340099322 2.396627333775943 -1 0 0
1127 3 90.24785856247338 1.703463505005676 0.001254190874137794 -1 0 0
1232 4 88.406065772037 4.774862541936854 0.0012544532777960477 -1 0 0
1236 4 92.089651352924 4.774862541936854 0.0012544532777960483 -1 0 0
1233 1 90.24899782352162 2.388255706819172 2.3966270762531394 -1 0 0
1230 2 88.40720503180962 4.090070340099322 2.3966273337759425 -1 0 0
1234 2 92.09079061269662 4.090070340099323 2.3966273337759425 -1 0 0
1131 3 93.9314441433604 1.7034635050056788 0.0012541908741377204 -1 0 0
1135 3 97.61502972424739 1.703463505005679 0.0012541908741377193 -1 0 0
1240 4 95.77323693381099 4.774862541936854 0.0012544532777960477 -1 0 0
1237 1 93.93258340440862 2.388255706819169 2.3966270762531394 -1 0 0
1241 1 97.61616898529562 2.388255706819169 2.3966270762531394 -1 0 0
1238 2 95.77437619358362 4.090070340099322 2.3966273337759425 -1 0 0
1247 3 1.841804621185392 6.479128063446676 0.0012541908741379303 0 0 0
1251 3 5.525390202072392 6.479128063446677 0.0012541908741378926 0 0 0
1352 4 1.1830748993171269e-05 9.550527100377856 0.0012544532777960722 0 0 0
1356 4 3.6835974116359957 9.550527100377856 0.001254453277796048 0 0 0
1355 3 1.841804621185392 11.254792621887676 0.0012541908741379305 0 0 0
1359 3 5.525390202072392 11.254792621887677 0.0012541908741378926 0 0 0
1353 1 1.842943882233619 7.163920265260171 2.3966270762531394 0 0 0
1357 1 5.52652946312062 7.1639202652601695 2.3966270762531394 0 0 0
1350 2 0.0011510905216239613 8.865734898540321 2.3966273337759425 0 0 0
1354 2 3.6847366714086265 8.865734898540323 2.396627333775943 0 0 0
1255 3 9.208975782959392 6.479128063446677 0.0012541908741379 0 0 0
1360 4 7.367182992522996 9.550527100377858 0.0012544532777960722 0 0 0
1364 4 11.050768573409997 9.550527100377856 0.0012544532777960433 0 0 0
1363 3 9.208975782959392 11.254792621887677 0.0012541908741379004 0 0 0
1361 1 9.21011504400762 7.1639202652601695 2.3966270762531394 0 0 0
1358 2 7.368322252295627 8.865734898540321 2.396627333775943 0 0 0
1362 2 11.051907833182627 8.865734898540323 2.3966273337759425 0 0 0
1259 3 12.892561363846392 6.479128063446677 0.001254190874137901 0 0 0
1263 3 16.57614694473339 6.479128063446677 0.001254190874137892 0 0 0
1368 4 14.734354154296996 9.550527100377856 0.0012544532777960722 0 0 0
1367 3 12.892561363846392 11.254792621887677 0.0012541908741379015 0 0 0
1371 3 16.57614694473339 11.254792621887677 0.0012541908741378924 0 0 0
1365 1 12.893700624894619 7.1639202652601695 2.3966270762531394 0 0 0
1369 1 16.57728620578162 7.1639202652601695 2.3966270762531394 0 0 0
1366 2 14.735493414069627 8.865734898540321 2.396627333775943 0 0 0
1267 3 20.259732525620393 6.479128063446674 0.0012541908741379609 0 0 0
1372 4 18.417939735183996 9.550527100377854 0.0012544532777960477 0 0 0
1376 4 22.101525316070997 9.550527100377854 0.0012544532777960485 0 0 0
1375 3 20.259732525620393 11.254792621887674 0.0012541908741379613 0 0 0
1373 1 20.26087178666862 7.163920265260173 2.3966270762531394 0 0 0
1370 2 18.419078994956628 8.865734898540323 2.3966273337759425 0 0 0
1374 2 22.10266457584363 8.865734898540323 2.396627333775943 0 0 0
1271 3 23.943318106507398 6.479128063446677 0.0012541908741378928 0 0 0
1275 3 27.626903687394396 6.479128063446677 0.0012541908741378924 0 0 0
1380 4 25.785110896958 9.550527100377856 0.0012544532777960479 0 0 0
1379 3 23.943318106507398 11.254792621887677 0.0012541908741378932 0 0 0
1383 3 27.626903687394396 11.254792621887677 0.001254190874137893 0 0 0
1377 1 23.944457367555625 7.16392026526017 2.3966270762531394 0 0 0
1381 1 27.628042948442623 7.16392026526017 2.3966270762531394 0 0 0
1378 2 25.786250156730627 8.865734898540323 2.396627333775943 0 0 0
1279 3 31.310489268281394 6.479128063446677 0.0012541908741378921 0 0 0
1283 3 34.99407484916839 6.479128063446677 0.0012541908741378926 0 0 0
1384 4 29.468696477844997 9.550527100377856 0.001254453277796048 0 0 0
1388 4 33.15228205873199 9.550527100377856 0.0012544532777960479 0 0 0
1387 3 31.310489268281394 11.254792621887677 0.0012541908741378928 0 0 0
1391 3 34.99407484916839 11.254792621887677 0.0012541908741378928 0 0 0
1385 1 31.31162852932962 7.16392026526017 2.3966270762531394 0 0 0
1389 1 34.995214110216615 7.16392026526017 2.3966270762531394 0 0 0
1382 2 29.469835737617625 8.865734898540323 2.3966273337759425 0 0 0
1386 2 33.15342131850463 8.865734898540323 2.396627333775943 0 0 0
1287 3 38.67766043005539 6.4791280634466775 0.001254190874137893 0 0 0
1392 4 36.83586763961899 9.550527100377856 0.0012544532777960483 0 0 0
1396 4 40.519453220505994 9.550527100377858 0.001254453277796103 0 0 0
1395 3 38.67766043005539 11.254792621887677 0.0012541908741378932 0 0 0
1393 1 38.67879969110361 7.1639202652601695 2.3966270762531394 0 0 0
1390 2 36.837006899391625 8.865734898540323 2.396627333775943 0 0 0
1394 2 40.52059248027862 8.86573489854032 2.3966273337759425 0 0 0
1291 3 42.36124601094239 6.4791280634466775 0.0012541908741378921 0 0 0
1295 3 46.04483159182939 6.479128063446674 0.0012541908741379596 0 0 0
1400 4 44.203038801393 9.550527100377854 0.001254453277796047 0 0 0
1399 3 42.36124601094239 11.254792621887677 0.0012541908741378928 0 0 0
1403 3 46.04483159182939 11.254792621887674 0.00125419087413796 0 0 0
1397 1 42.36238527199062 7.1639202652601695 2.3966270762531394 0 0 0
1401 1 46.04597085287762 7.163920265260173 2.3966270762531394 0 0 0
1398 2 44.20417806116563 8.865734898540323 2.396627333775943 0 0 0
1191 3 49.72841717271639 6.479128063446678 0.0012541908741378629 -1 0 0
1404 4 47.88662438228 9.550527100377856 0.0012544532777960479 0 0 0
1300 4 51.570209963166995 9.550527100377856 0.0012544532777960429 -1 0 0
1299 3 49.72841717271639 11.25479262188768 0.001254190874137863 -1 0 0
1297 1 49.72955643376462 7.163920265260169 2.3966270762531394 -1 0 0
1402 2 47.88776364205263 8.865734898540323 2.396627333775943 0 0 0
1298 2 51.571349222939624 8.865734898540323 2.3966273337759425 -1 0 0
1195 3 53.41200275360339 6.479128063446676 0.001254190874137931 -1 0 0
1199 3 57.095588334490394 6.479128063446677 0.001254190874137901 -1 0 0
1304 4 55.253795544054 9.550527100377856 0.001254453277796073 -1 0 0
1303 3 53.41200275360339 11.254792621887676 0.0012541908741379312 -1 0 0
1307 3 57.095588334490394 11.254792621887677 0.0012541908741379012 -1 0 0
1301 1 53.41314201465162 7.163920265260171 2.3966270762531394 -1 0 0
1305 1 57.096727595538624 7.1639202652601695 2.3966270762531394 -1 0 0
1302 2 55.25493480382663 8.865734898540321 2.3966273337759425 -1 0 0
1203 3 60.77917391537739 6.479128063446675 0.0012541908741379305 -1 0 0
1308 4 58.937381124941 9.550527100377856 0.0012544532777960429 -1 0 0
1312 4 62.620966705827996 9.550527100377856 0.0012544532777960479 -1 0 0
1311 3 60.77917391537739 11.254792621887676 0.0012541908741379307 -1 0 0
1309 1 60.78031317642562 7.163920265260171 2.3966270762531394 -1 0 0
1306 2 58.93852038471363 8.865734898540323 2.396627333775943 -1 0 0
1310 2 62.62210596560063 8.865734898540323 2.396627333775943 -1 0 0
1207 3 64.4627594962644 6.479128063446677 0.001254190874137892 -1 0 0
1211 3 68.1463450771514 6.479128063446677 0.0012541908741378915 -1 0 0
1316 4 66.304552286715 9.550527100377856 0.0012544532777960468 -1 0 0
1320 4 69.98813786760199 9.550527100377856 0.001254453277796047 -1 0 0
1315 3 64.4627594962644 11.254792621887677 0.0012541908741378921 -1 0 0
1319 3 68.1463450771514 11.254792621887677 0.0012541908741378924 -1 0 0
1313 1 64.46389875731262 7.16392026526017 2.3966270762531394 -1 0 0
1317 1 68.14748433819962 7.16392026526017 2.3966270762531394 -1 0 0
1314 2 66.30569154648762 8.865734898540323 2.396627333775943 -1 0 0
1318 2 69.98927712737462 8.865734898540323 2.396627333775943 -1 0 0
1215 3 71.82993065803839 6.4791280634466775 0.0012541908741378913 -1 0 0
1219 3 75.51351623892539 6.4791280634466775 0.0012541908741378926 -1 0 0
1324 4 73.67172344848899 9.550527100377858 0.0012544532777961025 -1 0 0
1323 3 71.82993065803839 11.254792621887677 0.0012541908741378921 -1 0 0
1327 3 75.51351623892539 11.254792621887677 0.001254190874137893 -1 0 0
1321 1 71.83106991908662 7.1639202652601695 2.3966270762531394 -1 0 0
1325 1 75.51465549997363 7.1639202652601695 2.3966270762531394 -1 0 0
1322 2 73.67286270826163 8.86573489854032 2.3966273337759425 -1 0 0
1223 3 79.19710181981239 6.479128063446677 0.0012541908741378915 -1 0 0
1328 4 77.355309029376 9.550527100377856 0.0012544532777960479 -1 0 0
1332 4 81.038894610263 9.550527100377854 0.0012544532777960472 -1 0 0
1331 3 79.19710181981239 11.254792621887677 0.0012541908741378921 -1 0 0
1329 1 79.19824108086063 7.16392026526017 2.3966270762531394 -1 0 0
1326 2 77.35644828914863 8.865734898540323 2.3966273337759425 -1 0 0
1330 2 81.04003387003563 8.865734898540323 2.3966273337759425 -1 0 0
1227 3 82.8806874006994 6.479128063446674 0.0012541908741379594 -1 0 0
1231 3 86.5642729815864 6.479128063446679 0.0012541908741378238 -1 0 0
1336 4 84.72248019115 9.550527100377856 0.0012544532777960468 -1 0 0
1335 3 82.8806874006994 11.254792621887674 0.0012541908741379598 -1 0 0
1339 3 86.5642729815864 11.254792621887681 0.0012541908741378243 -1 0 0
1333 1 82.88182666174762 7.163920265260173 2.3966270762531394 -1 0 0
1337 1 86.56541224263462 7.163920265260167 2.3966270762531394 -1 0 0
1334 2 84.72361945092263 8.865734898540323 2.396627333775943 -1 0 0
1235 3 90.2478585624734 6.479128063446674 0.0012541908741379607 -1 0 0
1340 4 88.406065772037 9.550527100377856 0.0012544532777960477 -1 0 0
1344 4 92.089651352924 9.550527100377854 0.0012544532777960483 -1 0 0
1343 3 90.2478585624734 11.254792621887674 0.001254190874137961 -1 0 0
1341 1 90.24899782352162 7.163920265260173 2.3966270762531394 -1 0 0
1338 2 88.40720503180962 8.865734898540323 2.3966273337759425 -1 0 0
1342 2 92.09079061269662 8.865734898540323 2.3966273337759425 -1 0 0
1239 3 93.9314441433604 6.479128063446677 0.0012541908741378928 -1 0 0
1243 3 97.61502972424739 6.479128063446677 0.001254190874137892 -1 0 0
1348 4 95.77323693381099 9.550527100377856 0.0012544532777960479 -1 0 0
1347 3 93.9314441433604 11.254792621887677 0.0012541908741378932 -1 0 0
1351 3 97.61502972424739 11.254792621887677 0.0012541908741378924 -1 0 0
1345 1 93.93258340440862 7.16392026526017 2.3966270762531394 -1 0 0
1349 1 97.61616898529562 7.1639202652601695 2.3966270762531394 -1 0 0
1346 2 95.77437619358362 8.865734898540323 2.3966273337759425 -1 0 0
1460 4 1.1830748993182529e-05 14.326191658818852 0.0012544532777968322 0 0 0
1464 4 3.6835974116359957 14.32619165881885 0.0012544532777968049 0 0 0
1463 3 1.841804621185392 16.03045718032868 0.001254190874138155 0 0 0
1467 3 5.525390202072392 16.03045718032868 0.001254190874138128 0 0 0
1461 1 1.842943882233619 11.939584823701171 2.3966270762531394 0 0 0
1465 1 5.52652946312062 11.939584823701171 2.3966270762531394 0 0 0
1458 2 0.001151090521623964 13.641399456981322 2.3966273337759425 0 0 0
1462 2 3.6847366714086265 13.641399456981324 2.3966273337759425 0 0 0
1569 1 1.842943882233619 16.715249382142165 2.396627076253139 0 0 0
1573 1 5.526529463120619 16.715249382142165 2.396627076253139 0 0 0
1468 4 7.367182992522996 14.326191658818852 0.0012544532777968326 0 0 0
1472 4 11.050768573409997 14.32619165881885 0.0012544532777967968 0 0 0
1471 3 9.208975782959392 16.03045718032868 0.0012541908741381302 0 0 0
1469 1 9.21011504400762 11.939584823701171 2.3966270762531394 0 0 0
1466 2 7.368322252295627 13.641399456981322 2.3966273337759425 0 0 0
1470 2 11.051907833182627 13.641399456981324 2.3966273337759425 0 0 0
1577 1 9.21011504400762 16.715249382142165 2.396627076253139 0 0 0
1476 4 14.734354154296996 14.326191658818852 0.0012544532777968326 0 0 0
1475 3 12.892561363846392 16.03045718032868 0.0012541908741381315 0 0 0
1479 3 16.57614694473339 16.03045718032868 0.0012541908741381246 0 0 0
1473 1 12.893700624894619 11.939584823701171 2.3966270762531394 0 0 0
1477 1 16.57728620578162 11.939584823701171 2.3966270762531394 0 0 0
1474 2 14.735493414069627 13.641399456981322 2.3966273337759425 0 0 0
1581 1 12.893700624894619 16.715249382142165 2.396627076253139 0 0 0
1585 1 16.57728620578162 16.715249382142165 2.396627076253139 0 0 0
1480 4 18.417939735183996 14.32619165881885 0.0012544532777968027 0 0 0
1484 4 22.101525316071 14.32619165881885 0.0012544532777968053 0 0 0
1483 3 20.259732525620393 16.030457180328675 0.00125419087413818 0 0 0
1481 1 20.26087178666862 11.939584823701173 2.3966270762531394 0 0 0
1478 2 18.419078994956628 13.641399456981324 2.3966273337759425 0 0 0
1482 2 22.10266457584363 13.641399456981324 2.3966273337759425 0 0 0
1589 1 20.26087178666862 16.71524938214217 2.396627076253139 0 0 0
1488 4 25.785110896958 14.32619165881885 0.0012544532777968049 0 0 0
1487 3 23.943318106507395 16.03045718032868 0.0012541908741381285 0 0 0
1491 3 27.626903687394393 16.03045718032868 0.0012541908741381283 0 0 0
1485 1 23.944457367555625 11.939584823701171 2.3966270762531394 0 0 0
1489 1 27.628042948442623 11.939584823701171 2.3966270762531394 0 0 0
1486 2 25.786250156730627 13.641399456981324 2.3966273337759425 0 0 0
1593 1 23.944457367555625 16.715249382142165 2.396627076253139 0 0 0
1597 1 27.628042948442623 16.715249382142165 2.396627076253139 0 0 0
1492 4 29.468696477844997 14.32619165881885 0.0012544532777968049 0 0 0
1496 4 33.15228205873199 14.32619165881885 0.0012544532777968049 0 0 0
1495 3 31.31048926828139 16.03045718032868 0.001254190874138128 0 0 0
1499 3 34.99407484916839 16.03045718032868 0.0012541908741381283 0 0 0
1493 1 31.31162852932962 11.939584823701171 2.3966270762531394 0 0 0
1497 1 34.995214110216615 11.939584823701171 2.3966270762531394 0 0 0
1490 2 29.469835737617625 13.641399456981324 2.3966273337759425 0 0 0
1494 2 33.15342131850463 13.641399456981324 2.3966273337759425 0 0 0
1601 1 31.31162852932962 16.715249382142165 2.396627076253139 0 0 0
1605 1 34.995214110216615 16.715249382142165 2.396627076253139 0 0 0
1500 4 36.83586763961899 14.32619165881885 0.0012544532777968057 0 0 0
1504 4 40.519453220505994 14.326191658818853 0.00125445327779687 0 0 0
1503 3 38.67766043005539 16.03045718032868 0.0012541908741381287 0 0 0
1501 1 38.67879969110361 11.939584823701171 2.3966270762531394 0 0 0
1498 2 36.837006899391625 13.641399456981324 2.3966273337759425 0 0 0
1502 2 40.52059248027862 13.64139945698132 2.3966273337759425 0 0 0
1609 1 38.67879969110361 16.715249382142165 2.396627076253139 0 0 0
1508 4 44.203038801393 14.32619165881885 0.001254453277796802 0 0 0
1507 3 42.36124601094239 16.03045718032868 0.001254190874138125 0 0 0
1511 3 46.04483159182939 16.030457180328675 0.0012541908741381792 0 0 0
1505 1 42.36238527199062 11.939584823701171 2.3966270762531394 0 0 0
1509 1 46.04597085287762 11.939584823701173 2.3966270762531394 0 0 0
1506 2 44.20417806116563 13.641399456981324 2.3966273337759425 0 0 0
1613 1 42.36238527199062 16.715249382142165 2.396627076253139 0 0 0
1617 1 46.04597085287762 16.71524938214217 2.396627076253139 0 0 0
1512 4 47.88662438228 14.32619165881885 0.001254453277796805 0 0 0
1408 4 51.570209963166995 14.32619165881885 0.0012544532777967966 -1 0 0
1407 3 49.72841717271639 16.03045718032868 0.001254190874138104 -1 0 0
1405 1 49.72955643376462 11.93958482370117 2.3966270762531394 -1 0 0
1510 2 47.88776364205263 13.641399456981324 2.3966273337759425 0 0 0
1406 2 51.571349222939624 13.641399456981324 2.3966273337759425 -1 0 0
1513 1 49.72955643376462 16.715249382142165 2.3966270762531394 -1 0 0
1412 4 55.253795544054 14.326191658818852 0.0012544532777968337 -1 0 0
1411 3 53.41200275360339 16.03045718032868 0.0012541908741381554 -1 0 0
1415 3 57.095588334490394 16.03045718032868 0.001254190874138131 -1 0 0
1409 1 53.41314201465162 11.939584823701171 2.3966270762531394 -1 0 0
1413 1 57.096727595538624 11.939584823701171 2.3966270762531394 -1 0 0
1410 2 55.25493480382663 13.641399456981322 2.3966273337759425 -1 0 0
1517 1 53.41314201465162 16.715249382142165 2.396627076253139 -1 0 0
1521 1 57.096727595538624 16.715249382142165 2.396627076253139 -1 0 0
1416 4 58.937381124941 14.32619165881885 0.0012544532777967966 -1 0 0
1420 4 62.620966705827996 14.32619165881885 0.0012544532777968044 -1 0 0
1419 3 60.77917391537739 16.03045718032868 0.0012541908741381552 -1 0 0
1417 1 60.78031317642562 11.939584823701173 2.3966270762531394 -1 0 0
1414 2 58.93852038471363 13.641399456981324 2.3966273337759425 -1 0 0
1418 2 62.62210596560063 13.641399456981324 2.396627333775943 -1 0 0
1525 1 60.78031317642562 16.715249382142165 2.396627076253139 -1 0 0
1424 4 66.304552286715 14.32619165881885 0.0012544532777968036 -1 0 0
1428 4 69.98813786760199 14.32619165881885 0.0012544532777968036 -1 0 0
1423 3 64.4627594962644 16.03045718032868 0.0012541908741381274 -1 0 0
1427 3 68.1463450771514 16.03045718032868 0.0012541908741381274 -1 0 0
1421 1 64.46389875731262 11.939584823701171 2.3966270762531394 -1 0 0
1425 1 68.14748433819962 11.939584823701171 2.3966270762531394 -1 0 0
1422 2 66.30569154648762 13.641399456981324 2.396627333775943 -1 0 0
1426 2 69.98927712737462 13.641399456981324 2.396627333775943 -1 0 0
1529 1 64.46389875731262 16.715249382142165 2.3966270762531394 -1 0 0
1533 1 68.14748433819962 16.715249382142165 2.396627076253139 -1 0 0
1432 4 73.67172344848899 14.326191658818853 0.0012544532777968695 -1 0 0
1431 3 71.82993065803839 16.03045718032868 0.0012541908741381272 -1 0 0
1435 3 75.51351623892539 16.03045718032868 0.001254190874138125 -1 0 0
1429 1 71.83106991908662 11.939584823701171 2.3966270762531394 -1 0 0
1433 1 75.51465549997363 11.93958482370117 2.3966270762531394 -1 0 0
1430 2 73.67286270826163 13.64139945698132 2.3966273337759425 -1 0 0
1537 1 71.83106991908662 16.715249382142165 2.396627076253139 -1 0 0
1541 1 75.51465549997363 16.715249382142165 2.396627076253139 -1 0 0
1436 4 77.355309029376 14.32619165881885 0.0012544532777968027 -1 0 0
1440 4 81.038894610263 14.32619165881885 0.0012544532777968018 -1 0 0
1439 3 79.19710181981239 16.03045718032868 0.0012541908741381242 -1 0 0
1437 1 79.19824108086063 11.939584823701171 2.3966270762531394 -1 0 0
1434 2 77.35644828914863 13.641399456981324 2.3966273337759425 -1 0 0
1438 2 81.04003387003563 13.641399456981324 2.3966273337759425 -1 0 0
1545 1 79.19824108086063 16.715249382142165 2.3966270762531394 -1 0 0
1444 4 84.72248019115 14.32619165881885 0.0012544532777968036 -1 0 0
1443 3 82.8806874006994 16.030457180328675 0.001254190874138179 -1 0 0
1447 3 86.5642729815864 16.030457180328682 0.0012541908741380728 -1 0 0
1441 1 82.88182666174762 11.939584823701173 2.3966270762531394 -1 0 0
1445 1 86.56541224263462 11.939584823701168 2.3966270762531394 -1 0 0
1442 2 84.72361945092263 13.641399456981324 2.396627333775943 -1 0 0
1549 1 82.88182666174762 16.71524938214217 2.396627076253139 -1 0 0
1553 1 86.56541224263462 16.71524938214216 2.396627076253139 -1 0 0
1448 4 88.406065772037 14.32619165881885 0.0012544532777968027 -1 0 0
1452 4 92.089651352924 14.32619165881885 0.0012544532777968053 -1 0 0
1451 3 90.2478585624734 16.030457180328675 0.0012541908741381797 -1 0 0
1449 1 90.24899782352162 11.939584823701173 2.3966270762531394 -1 0 0
1446 2 88.40720503180962 13.641399456981324 2.3966273337759425 -1 0 0
1450 2 92.09079061269662 13.641399456981324 2.3966273337759425 -1 0 0
1557 1 90.24899782352162 16.71524938214217 2.396627076253139 -1 0 0
1456 4 95.77323693381099 14.32619165881885 0.0012544532777968049 -1 0 0
1455 3 93.9314441433604 16.03045718032868 0.0012541908741381285 -1 0 0
1459 3 97.61502972424739 16.03045718032868 0.001254190874138127 -1 0 0
1453 1 93.93258340440862 11.939584823701171 2.3966270762531394 -1 0 0
1457 1 97.61616898529562 11.939584823701171 2.3966270762531394 -1 0 0
1454 2 95.77437619358362 13.641399456981324 2.3966273337759425 -1 0 0
1561 1 93.93258340440862 16.715249382142165 2.396627076253139 -1 0 0
1565 1 97.61616898529562 16.715249382142165 2.396627076253139 -1 0 0
1568 4 1.1830748993159888e-05 19.101856217259858 0.0012544532777953637 0 0 0
1572 4 3.6835974116359957 19.101856217259858 0.0012544532777953377 0 0 0
1571 3 1.841804621185392 20.806121738769672 0.0012541908741378932 0 0 0
1575 3 5.525390202072392 20.806121738769672 0.0012541908741378653 0 0 0
1566 2 0.0011510905216239834 18.417064015422323 2.396627333775942 0 0 0
1570 2 3.6847366714086265 18.417064015422323 2.396627333775942 0 0 0
1677 1 1.842943882233619 21.490913940583173 2.3966270762531394 0 0 0
1681 1 5.526529463120619 21.490913940583173 2.3966270762531394 0 0 0
1674 2 0.0011510905216239483 23.192728573863317 2.3966273337759434 0 0 0
1678 2 3.6847366714086265 23.19272857386332 2.3966273337759434 0 0 0
1576 4 7.367182992522996 19.101856217259858 0.0012544532777953642 0 0 0
1580 4 11.050768573409997 19.101856217259858 0.001254453277795328 0 0 0
1579 3 9.208975782959392 20.806121738769672 0.0012541908741378683 0 0 0
1574 2 7.368322252295627 18.417064015422323 2.396627333775942 0 0 0
1578 2 11.051907833182627 18.417064015422323 2.396627333775942 0 0 0
1685 1 9.21011504400762 21.490913940583173 2.3966270762531394 0 0 0
1682 2 7.368322252295627 23.192728573863317 2.3966273337759434 0 0 0
1686 2 11.051907833182627 23.19272857386332 2.3966273337759434 0 0 0
1584 4 14.734354154296996 19.101856217259858 0.0012544532777953642 0 0 0
1583 3 12.892561363846392 20.806121738769672 0.00125419087413787 0 0 0
1587 3 16.57614694473339 20.806121738769672 0.0012541908741378629 0 0 0
1582 2 14.735493414069627 18.417064015422323 2.396627333775942 0 0 0
1689 1 12.893700624894619 21.490913940583173 2.3966270762531394 0 0 0
1693 1 16.57728620578162 21.490913940583173 2.3966270762531394 0 0 0
1690 2 14.735493414069627 23.192728573863317 2.3966273337759434 0 0 0
1588 4 18.417939735183996 19.101856217259854 0.001254453277795334 0 0 0
1592 4 22.101525316071 19.101856217259854 0.0012544532777953384 0 0 0
1591 3 20.259732525620393 20.80612173876967 0.0012541908741379184 0 0 0
1586 2 18.419078994956628 18.417064015422323 2.396627333775942 0 0 0
1590 2 22.10266457584363 18.417064015422323 2.396627333775942 0 0 0
1697 1 20.26087178666862 21.490913940583177 2.3966270762531394 0 0 0
1694 2 18.419078994956628 23.19272857386332 2.3966273337759434 0 0 0
1698 2 22.10266457584363 23.19272857386332 2.3966273337759434 0 0 0
1596 4 25.785110896958 19.101856217259858 0.001254453277795337 0 0 0
1595 3 23.943318106507395 20.806121738769672 0.0012541908741378661 0 0 0
1599 3 27.626903687394393 20.806121738769672 0.0012541908741378655 0 0 0
1594 2 25.786250156730627 18.417064015422323 2.396627333775942 0 0 0
1701 1 23.944457367555625 21.490913940583173 2.3966270762531394 0 0 0
1705 1 27.628042948442623 21.490913940583173 2.3966270762531394 0 0 0
1702 2 25.786250156730627 23.19272857386332 2.3966273337759434 0 0 0
1600 4 29.468696477844997 19.101856217259858 0.0012544532777953375 0 0 0
1604 4 33.15228205873199 19.101856217259858 0.0012544532777953375 0 0 0
1603 3 31.31048926828139 20.806121738769672 0.0012541908741378655 0 0 0
1607 3 34.99407484916839 20.806121738769672 0.0012541908741378655 0 0 0
1598 2 29.469835737617625 18.417064015422323 2.396627333775942 0 0 0