LAMMPS data file via write_data, version 29 Aug 2024, timestep = 1, units = metal

6804 atoms
12 atom types

0 99.456810683949 xlo xhi
0 100.288955727261 ylo yhi
-50 50 zlo zhi

Masses

1 74.921595
2 74.921595
3 74.921595
4 74.921595
5 74.921595
6 74.921595
7 74.921595
8 74.921595
9 74.921595
10 74.921595
11 74.921595
12 74.921595

Atoms # atomic

1139 3 1.8418043979726093 1.703448373212719 0.0012305278244931263 0 0 0
1143 3 5.52538997885961 1.7034483732127204 0.0012305278244930783 0 0 0
1244 4 1.1607536087734003e-05 4.774877673729578 0.0012307982467109652 0 0 0
1248 4 3.6835971884230903 4.774877673729576 0.0012307982467109418 0 0 0
1245 1 1.8429221643733342 2.3882466922244108 2.3966982715851146 0 0 0
1249 1 5.526507745260335 2.3882466922244094 2.3966982715851146 0 0 0
1242 2 0.0011293726852813683 4.090079354694316 2.396698537231208 0 0 0
1246 2 3.684714953572284 4.090079354694318 2.396698537231208 0 0 0
1147 3 9.20897555974661 1.7034483732127204 0.001230527824493102 0 0 0
1252 4 7.367182769310091 4.774877673729578 0.001230798246710965 0 0 0
1256 4 11.05076835019709 4.774877673729577 0.001230798246710937 0 0 0
1253 1 9.210093326147335 2.3882466922244094 2.3966982715851146 0 0 0
1250 2 7.3683005344592845 4.090079354694316 2.396698537231208 0 0 0
1254 2 11.051886115346283 4.090079354694318 2.396698537231208 0 0 0
1151 3 12.892561140633608 1.7034483732127204 0.0012305278244931035 0 0 0
1155 3 16.576146721520608 1.7034483732127204 0.0012305278244930887 0 0 0
1260 4 14.73435393108409 4.774877673729578 0.0012307982467109654 0 0 0
1257 1 12.893678907034333 2.3882466922244094 2.3966982715851146 0 0 0
1261 1 16.577264487921333 2.3882466922244094 2.3966982715851146 0 0 0
1258 2 14.735471696233285 4.090079354694316 2.396698537231208 0 0 0
1159 3 20.25973230240761 1.7034483732127172 0.001230527824493151 0 0 0
1264 4 18.417939511971092 4.774877673729576 0.0012307982467109414 0 0 0
1268 4 22.101525092858093 4.774877673729576 0.0012307982467109422 0 0 0
1265 1 20.260850068808335 2.3882466922244125 2.3966982715851146 0 0 0
1262 2 18.419057277120285 4.090079354694318 2.396698537231208 0 0 0
1266 2 22.102642858007286 4.090079354694318 2.396698537231208 0 0 0
1163 3 23.943317883294615 1.7034483732127201 0.0012305278244930786 0 0 0
1167 3 27.626903464181613 1.7034483732127201 0.0012305278244930781 0 0 0
1272 4 25.78511067374509 4.774877673729577 0.0012307982467109416 0 0 0
1269 1 23.94443564969534 2.38824669222441 2.3966982715851146 0 0 0
1273 1 27.628021230582338 2.38824669222441 2.3966982715851146 0 0 0
1270 2 25.786228438894288 4.090079354694318 2.396698537231208 0 0 0
1171 3 31.31048904506861 1.7034483732127201 0.0012305278244930781 0 0 0
1175 3 34.994074625955605 1.7034483732127201 0.0012305278244930786 0 0 0
1276 4 29.46869625463209 4.774877673729577 0.0012307982467109416 0 0 0
1280 4 33.15228183551909 4.774877673729577 0.0012307982467109416 0 0 0
1277 1 31.311606811469336 2.38824669222441 2.3966982715851146 0 0 0
1281 1 34.99519239235633 2.38824669222441 2.3966982715851146 0 0 0
1274 2 29.469814019781285 4.090079354694318 2.396698537231208 0 0 0
1278 2 33.15339960066828 4.090079354694318 2.396698537231208 0 0 0
1179 3 38.6776602068426 1.7034483732127208 0.001230527824493079 0 0 0
1284 4 36.83586741640609 4.774877673729577 0.0012307982467109422 0 0 0
1288 4 40.51945299729309 4.77487767372958 0.0012307982467109958 0 0 0
1285 1 38.67877797324333 2.3882466922244094 2.3966982715851146 0 0 0
1282 2 36.83698518155528 4.090079354694318 2.396698537231208 0 0 0
1286 2 40.52057076244228 4.090079354694314 2.396698537231208 0 0 0
1183 3 42.36124578772961 1.7034483732127208 0.0012305278244930892 0 0 0
1187 3 46.04483136861661 1.7034483732127172 0.0012305278244931497 0 0 0
1292 4 44.20303857818009 4.774877673729576 0.001230798246710941 0 0 0
1289 1 42.36236355413033 2.3882466922244094 2.3966982715851146 0 0 0
1293 1 46.04594913501734 2.3882466922244125 2.3966982715851146 0 0 0
1290 2 44.20415634332929 4.090079354694318 2.396698537231208 0 0 0
1083 3 49.72841694950361 1.7034483732127232 0.001230527824493055 -1 0 0
1296 4 47.8866241590671 4.774877673729576 0.0012307982467109414 0 0 0
1192 4 51.57020973995409 4.774877673729577 0.0012307982467109364 -1 0 0
1189 1 49.729534715904336 2.3882466922244086 2.3966982715851146 -1 0 0
1294 2 47.887741924216286 4.090079354694318 2.396698537231208 0 0 0
1190 2 51.571327505103284 4.090079354694318 2.396698537231208 -1 0 0
1087 3 53.41200253039061 1.703448373212719 0.0012305278244931271 -1 0 0
1091 3 57.095588111277614 1.7034483732127204 0.0012305278244931028 -1 0 0
1196 4 55.25379532084109 4.774877673729578 0.001230798246710966 -1 0 0
1193 1 53.413120296791334 2.3882466922244108 2.3966982715851146 -1 0 0
1197 1 57.09670587767834 2.3882466922244094 2.3966982715851146 -1 0 0
1194 2 55.25491308599029 4.090079354694316 2.396698537231208 -1 0 0
1095 3 60.77917369216461 1.7034483732127188 0.0012305278244931267 -1 0 0
1200 4 58.93738090172809 4.774877673729576 0.0012307982467109366 -1 0 0
1204 4 62.620966482615096 4.774877673729576 0.0012307982467109416 -1 0 0
1201 1 60.78029145856534 2.388246692224411 2.3966982715851146 -1 0 0
1198 2 58.93849866687729 4.090079354694318 2.396698537231208 -1 0 0
1202 2 62.622084247764285 4.090079354694318 2.396698537231208 -1 0 0
1099 3 64.46275927305162 1.7034483732127201 0.0012305278244930773 -1 0 0
1103 3 68.14634485393861 1.7034483732127201 0.001230527824493077 -1 0 0
1208 4 66.30455206350209 4.774877673729577 0.0012307982467109405 -1 0 0
1212 4 69.98813764438908 4.774877673729577 0.0012307982467109403 -1 0 0
1205 1 64.46387703945234 2.38824669222441 2.3966982715851146 -1 0 0
1209 1 68.14746262033934 2.38824669222441 2.3966982715851146 -1 0 0
1206 2 66.30566982865129 4.090079354694318 2.396698537231208 -1 0 0
1210 2 69.98925540953829 4.090079354694318 2.396698537231208 -1 0 0
1107 3 71.82993043482561 1.7034483732127208 0.001230527824493077 -1 0 0
1111 3 75.51351601571261 1.7034483732127208 0.0012305278244930892 -1 0 0
1216 4 73.6717232252761 4.77487767372958 0.0012307982467109947 -1 0 0
1213 1 71.83104820122634 2.3882466922244094 2.3966982715851146 -1 0 0
1217 1 75.51463378211334 2.3882466922244094 2.3966982715851146 -1 0 0
1214 2 73.67284099042529 4.090079354694314 2.396698537231208 -1 0 0
1115 3 79.19710159659961 1.7034483732127201 0.001230527824493088 -1 0 0
1220 4 77.3553088061631 4.774877673729577 0.0012307982467109414 -1 0 0
1224 4 81.03889438705009 4.774877673729576 0.0012307982467109405 -1 0 0
1221 1 79.19821936300033 2.38824669222441 2.3966982715851146 -1 0 0
1218 2 77.35642657131228 4.090079354694318 2.396698537231208 -1 0 0
1222 2 81.04001215219928 4.090079354694318 2.396698537231208 -1 0 0
1119 3 82.8806871774866 1.7034483732127172 0.0012305278244931495 -1 0 0
1123 3 86.5642727583736 1.703448373212723 0.0012305278244930159 -1 0 0
1228 4 84.72247996793709 4.774877673729577 0.0012307982467109403 -1 0 0
1225 1 82.88180494388733 2.3882466922244125 2.3966982715851146 -1 0 0
1229 1 86.56539052477433 2.3882466922244068 2.3966982715851146 -1 0 0
1226 2 84.7235977330863 4.090079354694318 2.396698537231208 -1 0 0
1127 3 90.2478583392606 1.7034483732127172 0.0012305278244931505 -1 0 0
1232 4 88.40606554882409 4.774877673729577 0.0012307982467109414 -1 0 0
1236 4 92.08965112971109 4.774877673729576 0.001230798246710942 -1 0 0
1233 1 90.24897610566133 2.3882466922244125 2.3966982715851146 -1 0 0
1230 2 88.40718331397328 4.090079354694318 2.396698537231208 -1 0 0
1234 2 92.09076889486029 4.090079354694318 2.396698537231208 -1 0 0
1131 3 93.93144392014761 1.7034483732127201 0.0012305278244930786 -1 0 0
1135 3 97.61502950103461 1.7034483732127204 0.0012305278244930773 -1 0 0
1240 4 95.77323671059808 4.774877673729577 0.0012307982467109414 -1 0 0
1237 1 93.93256168654834 2.38824669222441 2.3966982715851146 -1 0 0
1241 1 97.61614726743534 2.3882466922244094 2.3966982715851146 -1 0 0
1238 2 95.77435447574729 4.090079354694318 2.396698537231208 -1 0 0
1247 3 1.8418043979726113 6.479112931653717 0.0012305278244932843 0 0 0
1251 3 5.525389978859612 6.479112931653718 0.0012305278244932475 0 0 0
1352 4 1.1607536087734003e-05 9.55054223217058 0.0012307982467109652 0 0 0
1356 4 3.6835971884230903 9.550542232170578 0.0012307982467109418 0 0 0
1355 3 1.8418043979726113 11.254777490094718 0.0012305278244932845 0 0 0
1359 3 5.525389978859612 11.25477749009472 0.0012305278244932475 0 0 0
1353 1 1.8429221643733342 7.163911250665412 2.3966982715851146 0 0 0
1357 1 5.526507745260335 7.163911250665411 2.3966982715851146 0 0 0
1350 2 0.0011293726852813686 8.865743913135317 2.396698537231208 0 0 0
1354 2 3.684714953572284 8.865743913135319 2.396698537231208 0 0 0
1255 3 9.208975559746612 6.479112931653718 0.0012305278244932546 0 0 0
1360 4 7.367182769310091 9.55054223217058 0.0012307982467109652 0 0 0
1364 4 11.05076835019709 9.550542232170578 0.001230798246710937 0 0 0
1363 3 9.208975559746612 11.25477749009472 0.001230527824493255 0 0 0
1361 1 9.210093326147335 7.163911250665411 2.3966982715851146 0 0 0
1358 2 7.3683005344592845 8.865743913135317 2.396698537231208 0 0 0
1362 2 11.051886115346283 8.865743913135319 2.396698537231208 0 0 0
1259 3 12.89256114063361 6.479112931653718 0.0012305278244932557 0 0 0
1263 3 16.57614672152061 6.479112931653718 0.0012305278244932466 0 0 0
1368 4 14.73435393108409 9.55054223217058 0.0012307982467109652 0 0 0
1367 3 12.89256114063361 11.25477749009472 0.0012305278244932561 0 0 0
1371 3 16.57614672152061 11.25477749009472 0.0012305278244932473 0 0 0
1365 1 12.893678907034333 7.163911250665411 2.3966982715851146 0 0 0
1369 1 16.577264487921333 7.163911250665411 2.3966982715851146 0 0 0
1366 2 14.735471696233285 8.865743913135317 2.396698537231208 0 0 0
1267 3 20.259732302407613 6.479112931653715 0.0012305278244933145 0 0 0
1372 4 18.417939511971092 9.550542232170578 0.0012307982467109414 0 0 0
1376 4 22.101525092858093 9.550542232170578 0.0012307982467109422 0 0 0
1375 3 20.259732302407613 11.254777490094716 0.001230527824493315 0 0 0
1373 1 20.260850068808335 7.1639112506654135 2.3966982715851146 0 0 0
1370 2 18.419057277120285 8.865743913135319 2.396698537231208 0 0 0
1374 2 22.102642858007286 8.865743913135319 2.396698537231208 0 0 0
1271 3 23.943317883294615 6.479112931653718 0.0012305278244932477 0 0 0
1275 3 27.626903464181613 6.479112931653718 0.0012305278244932473 0 0 0
1380 4 25.78511067374509 9.550542232170578 0.0012307982467109416 0 0 0
1379 3 23.943317883294615 11.25477749009472 0.0012305278244932481 0 0 0
1383 3 27.626903464181613 11.25477749009472 0.001230527824493248 0 0 0
1377 1 23.94443564969534 7.163911250665411 2.3966982715851146 0 0 0
1381 1 27.628021230582338 7.163911250665411 2.3966982715851146 0 0 0
1378 2 25.786228438894288 8.865743913135319 2.396698537231208 0 0 0
1279 3 31.31048904506861 6.479112931653718 0.0012305278244932468 0 0 0
1283 3 34.99407462595561 6.479112931653718 0.0012305278244932475 0 0 0
1384 4 29.46869625463209 9.550542232170578 0.0012307982467109418 0 0 0
1388 4 33.15228183551909 9.550542232170578 0.0012307982467109416 0 0 0
1387 3 31.31048904506861 11.25477749009472 0.0012305278244932477 0 0 0
1391 3 34.99407462595561 11.25477749009472 0.0012305278244932477 0 0 0
1385 1 31.311606811469336 7.163911250665411 2.3966982715851146 0 0 0
1389 1 34.99519239235633 7.163911250665411 2.3966982715851146 0 0 0
1382 2 29.469814019781285 8.865743913135319 2.396698537231208 0 0 0
1386 2 33.15339960066828 8.865743913135319 2.396698537231208 0 0 0
1287 3 38.67766020684261 6.479112931653718 0.001230527824493248 0 0 0
1392 4 36.83586741640609 9.550542232170578 0.001230798246710942 0 0 0
1396 4 40.51945299729309 9.550542232170582 0.0012307982467109956 0 0 0
1395 3 38.67766020684261 11.25477749009472 0.0012305278244932481 0 0 0
1393 1 38.67877797324333 7.16391125066541 2.3966982715851146 0 0 0
1390 2 36.83698518155528 8.865743913135319 2.396698537231208 0 0 0
1394 2 40.52057076244228 8.865743913135315 2.396698537231208 0 0 0
1291 3 42.36124578772961 6.479112931653718 0.0012305278244932468 0 0 0
1295 3 46.04483136861661 6.479112931653715 0.0012305278244933132 0 0 0
1400 4 44.20303857818009 9.550542232170578 0.0012307982467109405 0 0 0
1399 3 42.36124578772961 11.25477749009472 0.0012305278244932477 0 0 0
1403 3 46.04483136861661 11.254777490094716 0.0012305278244933136 0 0 0
1397 1 42.36236355413033 7.16391125066541 2.3966982715851146 0 0 0
1401 1 46.04594913501734 7.1639112506654135 2.3966982715851146 0 0 0
1398 2 44.20415634332929 8.865743913135319 2.396698537231208 0 0 0
1191 3 49.72841694950361 6.479112931653719 0.0012305278244932184 -1 0 0
1404 4 47.8866241590671 9.550542232170578 0.0012307982467109416 0 0 0
1300 4 51.57020973995409 9.550542232170578 0.0012307982467109366 -1 0 0
1299 3 49.72841694950361 11.254777490094721 0.0012305278244932186 -1 0 0
1297 1 49.729534715904336 7.163911250665409 2.3966982715851146 -1 0 0
1402 2 47.887741924216286 8.865743913135319 2.396698537231208 0 0 0
1298 2 51.571327505103284 8.865743913135319 2.396698537231208 -1 0 0
1195 3 53.41200253039061 6.479112931653717 0.001230527824493285 -1 0 0
1199 3 57.095588111277614 6.479112931653718 0.0012305278244932557 -1 0 0
1304 4 55.25379532084109 9.55054223217058 0.001230798246710966 -1 0 0
1303 3 53.41200253039061 11.254777490094718 0.0012305278244932852 -1 0 0
1307 3 57.095588111277614 11.25477749009472 0.001230527824493256 -1 0 0
1301 1 53.413120296791334 7.163911250665412 2.3966982715851146 -1 0 0
1305 1 57.09670587767834 7.163911250665411 2.3966982715851146 -1 0 0
1302 2 55.25491308599029 8.865743913135317 2.396698537231208 -1 0 0
1203 3 60.77917369216461 6.479112931653717 0.0012305278244932845 -1 0 0
1308 4 58.93738090172809 9.550542232170578 0.0012307982467109366 -1 0 0
1312 4 62.620966482615096 9.550542232170578 0.0012307982467109416 -1 0 0
1311 3 60.77917369216461 11.254777490094718 0.0012305278244932848 -1 0 0
1309 1 60.78029145856534 7.163911250665413 2.3966982715851146 -1 0 0
1306 2 58.93849866687729 8.865743913135319 2.396698537231208 -1 0 0
1310 2 62.622084247764285 8.865743913135319 2.396698537231208 -1 0 0
1207 3 64.46275927305162 6.479112931653718 0.0012305278244932466 -1 0 0
1211 3 68.14634485393861 6.479112931653718 0.0012305278244932464 -1 0 0
1316 4 66.30455206350209 9.550542232170578 0.0012307982467109403 -1 0 0
1320 4 69.98813764438908 9.550542232170578 0.0012307982467109405 -1 0 0
1315 3 64.46275927305162 11.25477749009472 0.0012305278244932468 -1 0 0
1319 3 68.14634485393861 11.25477749009472 0.0012305278244932473 -1 0 0
1313 1 64.46387703945234 7.163911250665411 2.3966982715851146 -1 0 0
1317 1 68.14746262033934 7.163911250665411 2.3966982715851146 -1 0 0
1314 2 66.30566982865129 8.865743913135319 2.396698537231208 -1 0 0
1318 2 69.98925540953829 8.865743913135319 2.396698537231208 -1 0 0
1215 3 71.82993043482561 6.479112931653718 0.0012305278244932462 -1 0 0
1219 3 75.51351601571261 6.479112931653718 0.0012305278244932475 -1 0 0
1324 4 73.6717232252761 9.550542232170582 0.001230798246710995 -1 0 0
1323 3 71.82993043482561 11.25477749009472 0.0012305278244932468 -1 0 0
1327 3 75.51351601571261 11.25477749009472 0.001230527824493248 -1 0 0
1321 1 71.83104820122634 7.16391125066541 2.3966982715851146 -1 0 0
1325 1 75.51463378211334 7.16391125066541 2.3966982715851146 -1 0 0
1322 2 73.67284099042529 8.865743913135315 2.396698537231208 -1 0 0
1223 3 79.19710159659961 6.479112931653718 0.0012305278244932464 -1 0 0
1328 4 77.3553088061631 9.550542232170578 0.0012307982467109416 -1 0 0
1332 4 81.03889438705009 9.550542232170578 0.001230798246710941 -1 0 0
1331 3 79.19710159659961 11.25477749009472 0.0012305278244932468 -1 0 0
1329 1 79.19821936300033 7.163911250665411 2.3966982715851146 -1 0 0
1326 2 77.35642657131228 8.865743913135319 2.396698537231208 -1 0 0
1330 2 81.04001215219928 8.865743913135319 2.396698537231208 -1 0 0
1227 3 82.88068717748662 6.479112931653715 0.001230527824493313 -1 0 0
1231 3 86.56427275837362 6.479112931653721 0.00123052782449318 -1 0 0
1336 4 84.72247996793709 9.550542232170578 0.0012307982467109403 -1 0 0
1335 3 82.88068717748662 11.254777490094716 0.0012305278244933134 -1 0 0
1339 3 86.56427275837362 11.254777490094721 0.0012305278244931805 -1 0 0
1333 1 82.88180494388733 7.1639112506654135 2.3966982715851146 -1 0 0
1337 1 86.56539052477433 7.163911250665408 2.3966982715851146 -1 0 0
1334 2 84.7235977330863 8.865743913135319 2.396698537231208 -1 0 0
1235 3 90.24785833926062 6.479112931653715 0.001230527824493314 -1 0 0
1340 4 88.40606554882409 9.550542232170578 0.0012307982467109414 -1 0 0
1344 4 92.08965112971109 9.550542232170578 0.001230798246710942 -1 0 0
1343 3 90.24785833926062 11.254777490094716 0.0012305278244933147 -1 0 0
1341 1 90.24897610566133 7.1639112506654135 2.3966982715851146 -1 0 0
1338 2 88.40718331397328 8.865743913135319 2.396698537231208 -1 0 0
1342 2 92.09076889486029 8.865743913135319 2.396698537231208 -1 0 0
1239 3 93.93144392014761 6.479112931653718 0.0012305278244932477 -1 0 0
1243 3 97.61502950103461 6.479112931653718 0.0012305278244932466 -1 0 0
1348 4 95.77323671059808 9.550542232170578 0.0012307982467109416 -1 0 0
1347 3 93.93144392014761 11.25477749009472 0.0012305278244932481 -1 0 0
1351 3 97.61502950103461 11.25477749009472 0.0012305278244932473 -1 0 0
1345 1 93.93256168654834 7.163911250665411 2.3966982715851146 -1 0 0
1349 1 97.61614726743534 7.163911250665411 2.3966982715851146 -1 0 0
1346 2 95.77435447574729 8.865743913135319 2.396698537231208 -1 0 0
1460 4 1.1607536087745053e-05 14.326206790611574 0.001230798246711711 0 0 0
1464 4 3.6835971884230903 14.326206790611574 0.0012307982467116842 0 0 0
1463 3 1.8418043979726113 16.03044204853572 0.0012305278244935049 0 0 0
1467 3 5.525389978859612 16.03044204853572 0.0012305278244934784 0 0 0
1461 1 1.8429221643733342 11.939575809106413 2.3966982715851146 0 0 0
1465 1 5.526507745260335 11.939575809106412 2.3966982715851146 0 0 0
1458 2 0.0011293726852813714 13.641408471576318 2.396698537231208 0 0 0
1462 2 3.684714953572284 13.64140847157632 2.396698537231208 0 0 0
1569 1 1.8429221643733342 16.715240367547405 2.396698271585114 0 0 0
1573 1 5.526507745260335 16.715240367547405 2.396698271585114 0 0 0
1468 4 7.367182769310091 14.326206790611574 0.0012307982467117114 0 0 0
1472 4 11.05076835019709 14.326206790611574 0.0012307982467116764 0 0 0
1471 3 9.208975559746612 16.03044204853572 0.0012305278244934808 0 0 0
1469 1 9.210093326147335 11.939575809106412 2.3966982715851146 0 0 0
1466 2 7.3683005344592845 13.641408471576318 2.396698537231208 0 0 0
1470 2 11.051886115346283 13.64140847157632 2.396698537231208 0 0 0
1577 1 9.210093326147335 16.715240367547405 2.396698271585114 0 0 0
1476 4 14.73435393108409 14.326206790611574 0.0012307982467117114 0 0 0
1475 3 12.89256114063361 16.03044204853572 0.0012305278244934819 0 0 0
1479 3 16.57614672152061 16.03044204853572 0.0012305278244934752 0 0 0
1473 1 12.893678907034333 11.939575809106412 2.3966982715851146 0 0 0
1477 1 16.577264487921333 11.939575809106412 2.3966982715851146 0 0 0
1474 2 14.735471696233285 13.641408471576318 2.396698537231208 0 0 0
1581 1 12.893678907034333 16.715240367547405 2.396698271585114 0 0 0
1585 1 16.577264487921333 16.715240367547405 2.3966982715851146 0 0 0
1480 4 18.417939511971092 14.326206790611572 0.001230798246711682 0 0 0
1484 4 22.101525092858093 14.326206790611572 0.0012307982467116847 0 0 0
1483 3 20.259732302407613 16.03044204853572 0.0012305278244935296 0 0 0
1481 1 20.260850068808335 11.939575809106415 2.3966982715851146 0 0 0
1478 2 18.419057277120285 13.64140847157632 2.396698537231208 0 0 0
1482 2 22.102642858007286 13.64140847157632 2.396698537231208 0 0 0
1589 1 20.260850068808335 16.71524036754741 2.396698271585114 0 0 0
1488 4 25.78511067374509 14.326206790611574 0.0012307982467116842 0 0 0
1487 3 23.943317883294615 16.03044204853572 0.0012305278244934788 0 0 0
1491 3 27.626903464181613 16.03044204853572 0.0012305278244934786 0 0 0
1485 1 23.94443564969534 11.939575809106412 2.3966982715851146 0 0 0
1489 1 27.628021230582338 11.939575809106412 2.3966982715851146 0 0 0
1486 2 25.786228438894288 13.64140847157632 2.396698537231208 0 0 0
1593 1 23.94443564969534 16.715240367547405 2.3966982715851146 0 0 0
1597 1 27.628021230582338 16.715240367547405 2.396698271585114 0 0 0
1492 4 29.46869625463209 14.326206790611574 0.0012307982467116842 0 0 0
1496 4 33.15228183551909 14.326206790611574 0.0012307982467116842 0 0 0
1495 3 31.31048904506861 16.03044204853572 0.0012305278244934784 0 0 0
1499 3 34.99407462595561 16.03044204853572 0.0012305278244934786 0 0 0
1493 1 31.311606811469336 11.939575809106412 2.3966982715851146 0 0 0
1497 1 34.99519239235633 11.939575809106412 2.3966982715851146 0 0 0
1490 2 29.469814019781285 13.64140847157632 2.396698537231208 0 0 0
1494 2 33.15339960066828 13.64140847157632 2.396698537231208 0 0 0
1601 1 31.311606811469336 16.715240367547405 2.396698271585114 0 0 0
1605 1 34.99519239235633 16.715240367547405 2.396698271585114 0 0 0
1500 4 36.83586741640609 14.326206790611574 0.001230798246711685 0 0 0
1504 4 40.51945299729309 14.326206790611575 0.001230798246711748 0 0 0
1503 3 38.67766020684261 16.03044204853572 0.001230527824493479 0 0 0
1501 1 38.67877797324333 11.939575809106412 2.3966982715851146 0 0 0
1498 2 36.83698518155528 13.64140847157632 2.396698537231208 0 0 0
1502 2 40.52057076244228 13.641408471576316 2.396698537231208 0 0 0
1609 1 38.67877797324333 16.715240367547405 2.396698271585114 0 0 0
1508 4 44.20303857818009 14.326206790611572 0.0012307982467116814 0 0 0
1507 3 42.36124578772961 16.030442048535722 0.0012305278244934756 0 0 0
1511 3 46.04483136861661 16.03044204853572 0.0012305278244935287 0 0 0
1505 1 42.36236355413033 11.939575809106412 2.3966982715851146 0 0 0
1509 1 46.04594913501734 11.939575809106415 2.3966982715851146 0 0 0
1506 2 44.20415634332929 13.64140847157632 2.396698537231208 0 0 0
1613 1 42.36236355413033 16.715240367547405 2.396698271585114 0 0 0
1617 1 46.04594913501734 16.71524036754741 2.396698271585114 0 0 0
1512 4 47.8866241590671 14.326206790611574 0.0012307982467116845 0 0 0
1408 4 51.57020973995409 14.326206790611574 0.001230798246711676 -1 0 0
1407 3 49.72841694950361 16.030442048535722 0.0012305278244934548 -1 0 0
1405 1 49.729534715904336 11.93957580910641 2.3966982715851146 -1 0 0
1510 2 47.887741924216286 13.64140847157632 2.396698537231208 0 0 0
1406 2 51.571327505103284 13.64140847157632 2.396698537231208 -1 0 0
1513 1 49.729534715904336 16.715240367547405 2.3966982715851146 -1 0 0
1412 4 55.25379532084109 14.326206790611574 0.0012307982467117124 -1 0 0
1411 3 53.41200253039061 16.03044204853572 0.0012305278244935053 -1 0 0
1415 3 57.095588111277614 16.03044204853572 0.0012305278244934814 -1 0 0
1409 1 53.413120296791334 11.939575809106413 2.3966982715851146 -1 0 0
1413 1 57.09670587767834 11.939575809106412 2.3966982715851146 -1 0 0
1410 2 55.25491308599029 13.641408471576318 2.396698537231208 -1 0 0
1517 1 53.413120296791334 16.715240367547405 2.396698271585114 -1 0 0
1521 1 57.09670587767834 16.715240367547405 2.3966982715851146 -1 0 0
1416 4 58.93738090172809 14.326206790611572 0.001230798246711676 -1 0 0
1420 4 62.620966482615096 14.326206790611574 0.0012307982467116838 -1 0 0
1419 3 60.77917369216461 16.03044204853572 0.001230527824493505 -1 0 0
1417 1 60.78029145856534 11.939575809106413 2.3966982715851146 -1 0 0
1414 2 58.93849866687729 13.64140847157632 2.396698537231208 -1 0 0
1418 2 62.622084247764285 13.64140847157632 2.396698537231208 -1 0 0
1525 1 60.78029145856534 16.715240367547405 2.3966982715851146 -1 0 0
1424 4 66.30455206350209 14.326206790611574 0.001230798246711683 -1 0 0
1428 4 69.98813764438908 14.326206790611574 0.001230798246711683 -1 0 0
1423 3 64.46275927305162 16.03044204853572 0.001230527824493478 -1 0 0
1427 3 68.14634485393861 16.03044204853572 0.001230527824493478 -1 0 0
1421 1 64.46387703945234 11.939575809106412 2.3966982715851146 -1 0 0
1425 1 68.14746262033934 11.939575809106412 2.3966982715851146 -1 0 0
1422 2 66.30566982865129 13.64140847157632 2.396698537231208 -1 0 0
1426 2 69.98925540953829 13.64140847157632 2.396698537231208 -1 0 0
1529 1 64.46387703945234 16.715240367547405 2.3966982715851146 -1 0 0
1533 1 68.14746262033934 16.715240367547405 2.396698271585114 -1 0 0
1432 4 73.6717232252761 14.326206790611575 0.0012307982467117476 -1 0 0
1431 3 71.82993043482561 16.03044204853572 0.0012305278244934778 -1 0 0
1435 3 75.51351601571261 16.030442048535722 0.0012305278244934756 -1 0 0
1429 1 71.83104820122634 11.939575809106412 2.3966982715851146 -1 0 0
1433 1 75.51463378211334 11.939575809106412 2.3966982715851146 -1 0 0
1430 2 73.67284099042529 13.641408471576316 2.396698537231208 -1 0 0
1537 1 71.83104820122634 16.715240367547405 2.396698271585114 -1 0 0
1541 1 75.51463378211334 16.715240367547405 2.3966982715851146 -1 0 0
1436 4 77.3553088061631 14.326206790611574 0.001230798246711682 -1 0 0
1440 4 81.03889438705009 14.326206790611572 0.0012307982467116812 -1 0 0
1439 3 79.19710159659961 16.03044204853572 0.0012305278244934747 -1 0 0
1437 1 79.19821936300033 11.939575809106412 2.3966982715851146 -1 0 0
1434 2 77.35642657131228 13.64140847157632 2.396698537231208 -1 0 0
1438 2 81.04001215219928 13.64140847157632 2.396698537231208 -1 0 0
1545 1 79.19821936300033 16.715240367547405 2.3966982715851146 -1 0 0
1444 4 84.72247996793709 14.326206790611574 0.001230798246711683 -1 0 0
1443 3 82.88068717748662 16.03044204853572 0.0012305278244935283 -1 0 0
1447 3 86.5642727583736 16.030442048535722 0.0012305278244934242 -1 0 0
1441 1 82.88180494388733 11.939575809106415 2.3966982715851146 -1 0 0
1445 1 86.56539052477433 11.939575809106408 2.3966982715851146 -1 0 0
1442 2 84.7235977330863 13.64140847157632 2.396698537231208 -1 0 0
1549 1 82.88180494388733 16.71524036754741 2.396698271585114 -1 0 0
1553 1 86.56539052477433 16.715240367547402 2.3966982715851146 -1 0 0
1448 4 88.40606554882409 14.326206790611574 0.001230798246711682 -1 0 0
1452 4 92.08965112971109 14.326206790611572 0.0012307982467116847 -1 0 0
1451 3 90.24785833926062 16.03044204853572 0.0012305278244935291 -1 0 0
1449 1 90.24897610566133 11.939575809106415 2.3966982715851146 -1 0 0
1446 2 88.40718331397328 13.64140847157632 2.396698537231208 -1 0 0
1450 2 92.09076889486029 13.64140847157632 2.396698537231208 -1 0 0
1557 1 90.24897610566133 16.71524036754741 2.396698271585114 -1 0 0
1456 4 95.77323671059808 14.326206790611574 0.0012307982467116842 -1 0 0
1455 3 93.93144392014761 16.03044204853572 0.0012305278244934788 -1 0 0
1459 3 97.61502950103461 16.03044204853572 0.0012305278244934775 -1 0 0
1453 1 93.93256168654834 11.939575809106412 2.3966982715851146 -1 0 0
1457 1 97.61614726743534 11.939575809106412 2.3966982715851146 -1 0 0
1454 2 95.77435447574729 13.64140847157632 2.396698537231208 -1 0 0
1561 1 93.93256168654834 16.715240367547405 2.396698271585114 -1 0 0
1565 1 97.61614726743534 16.715240367547405 2.396698271585114 -1 0 0
1568 4 1.1607536087722839e-05 19.10187134905258 0.0012307982467102702 0 0 0
1572 4 3.6835971884230903 19.10187134905258 0.0012307982467102449 0 0 0
1571 3 1.8418043979726113 20.806106606976712 0.0012305278244932481 0 0 0
1575 3 5.525389978859612 20.806106606976716 0.0012305278244932206 0 0 0
1566 2 0.0011293726852813902 18.417073030017317 2.3966985372312077 0 0 0
1570 2 3.684714953572284 18.41707303001732 2.3966985372312077 0 0 0
1677 1 1.8429221643733342 21.490904925988414 2.3966982715851146 0 0 0
1681 1 5.526507745260335 21.490904925988414 2.3966982715851146 0 0 0
1674 2 0.0011293726852813558 23.192737588458314 2.396698537231209 0 0 0
1678 2 3.684714953572284 23.192737588458314 2.396698537231209 0 0 0
1576 4 7.367182769310091 19.10187134905258 0.0012307982467102707 0 0 0
1580 4 11.05076835019709 19.10187134905258 0.001230798246710235 0 0 0
1579 3 9.208975559746612 20.806106606976716 0.0012305278244932236 0 0 0
1574 2 7.3683005344592845 18.417073030017317 2.3966985372312077 0 0 0
1578 2 11.051886115346283 18.41707303001732 2.3966985372312077 0 0 0
1685 1 9.210093326147335 21.490904925988414 2.3966982715851146 0 0 0
1682 2 7.3683005344592845 23.192737588458314 2.396698537231209 0 0 0
1686 2 11.051886115346283 23.192737588458314 2.396698537231209 0 0 0
1584 4 14.73435393108409 19.10187134905258 0.0012307982467102707 0 0 0
1583 3 12.89256114063361 20.806106606976716 0.0012305278244932254 0 0 0
1587 3 16.57614672152061 20.806106606976716 0.0012305278244932184 0 0 0
1582 2 14.735471696233285 18.417073030017317 2.3966985372312077 0 0 0
1689 1 12.893678907034333 21.490904925988414 2.3966982715851146 0 0 0
1693 1 16.577264487921333 21.490904925988414 2.3966982715851146 0 0 0
1690 2 14.735471696233285 23.192737588458314 2.396698537231209 0 0 0
1588 4 18.417939511971092 19.101871349052576 0.0012307982467102412 0 0 0
1592 4 22.101525092858093 19.101871349052576 0.0012307982467102453 0 0 0
1591 3 20.259732302407613 20.806106606976712 0.0012305278244932728 0 0 0
1586 2 18.419057277120285 18.41707303001732 2.3966985372312077 0 0 0
1590 2 22.102642858007286 18.41707303001732 2.3966985372312077 0 0 0
1697 1 20.260850068808335 21.490904925988417 2.3966982715851146 0 0 0
1694 2 18.419057277120285 23.192737588458314 2.396698537231209 0 0 0
1698 2 22.102642858007286 23.192737588458314 2.396698537231209 0 0 0
1596 4 25.78511067374509 19.10187134905258 0.0012307982467102442 0 0 0
1595 3 23.943317883294615 20.806106606976712 0.0012305278244932217 0 0 0
1599 3 27.626903464181613 20.806106606976712 0.0012305278244932208 0 0 0
1594 2 25.786228438894288 18.41707303001732 2.3966985372312077 0 0 0
1701 1 23.94443564969534 21.490904925988414 2.3966982715851146 0 0 0
1705 1 27.628021230582338 21.490904925988414 2.3966982715851146 0 0 0
1702 2 25.786228438894288 23.192737588458314 2.396698537231209 0 0 0
1600 4 29.46869625463209 19.10187134905258 0.0012307982467102446 0 0 0
1604 4 33.15228183551909 19.10187134905258 0.0012307982467102446 0 0 0
1603 3 31.31048904506861 20.806106606976712 0.0012305278244932208 0 0 0