LAMMPS data file via write_data, version 29 Aug 2024, timestep = 103, units = metal

5376 atoms
24 atom types

0 99.171489575732 xlo xhi
0 98.154319204256 ylo yhi
-50 50 zlo zhi

Masses

1 58.6934
2 58.6934
3 58.6934
4 58.6934
5 58.6934
6 58.6934
7 58.6934
8 58.6934
9 32.06
10 32.06
11 32.06
12 32.06
13 32.06
14 32.06
15 32.06
16 32.06
17 32.06
18 32.06
19 32.06
20 32.06
21 32.06
22 32.06
23 32.06
24 32.06

Atoms # atomic

1431 2 2.6361958889231545 1.478529792824935 1.1581385995908402 0 0 0
1435 15 4.521201794875311 0.32481131732171764 1.5455891749170416 0 0 0
1437 10 4.757755227863324 0.9602138741434355 1.6819534353475005 0 0 0
1432 14 1.1244285455510927 4.034996781686802 0.90276117679998 0 0 0
1438 16 5.198033636821068 3.0839239755957517 1.102299318896982 0 0 0
1440 12 2.8023046149917925 3.7163449009145055 1.096024040527824 0 0 0
1430 1 1.0468247994111475 0.08105707183881015 1.3856365399650916 0 0 0
1436 9 5.595754576015906 1.6549883475622431 1.6750638331015861 0 0 0
1439 11 2.5558676300873135 4.570202145153248 1.1733758019454938 0 0 0
1443 2 9.719873715761151 1.4785297928249694 1.1581385995908164 0 0 0
1447 15 11.604879621713295 0.32481131732167773 1.5455891749169586 0 0 0
1444 14 8.208106372389116 4.034996781686756 0.9027611767999224 0 0 0
1446 4 6.485765966904556 3.9280476712729184 -0.5761427899916706 0 0 0
1452 12 9.88598244182977 3.716344900914537 1.0960240405278192 0 0 0
1442 1 8.13050262624923 0.0810570718386515 1.3856365399650585 0 0 0
1445 3 6.9203478231258195 3.2235690324339363 2.575739583713018 0 0 0
1451 11 9.639545456925376 4.570202145153217 1.1733758019454632 0 0 0
1609 13 6.259945991544986 4.969320753475749 1.3707360387550815 0 0 0
1449 10 11.841433054701373 0.9602138741435592 1.6819534353474586 0 0 0
1455 2 16.803551542599156 1.4785297928249233 1.1581385995908031 0 0 0
1450 16 12.281711463659112 3.0839239755957526 1.102299318897005 0 0 0
1456 14 15.29178419922714 4.0349967816867895 0.9027611767999074 0 0 0
1458 4 13.569443793742565 3.928047671272943 -0.5761427899916659 0 0 0
1448 9 12.679432402853825 1.6549883475623277 1.6750638331016938 0 0 0
1454 1 15.214180453087057 0.081057071838787 1.3856365399650952 0 0 0
1457 3 14.004025649963866 3.22356903243396 2.575739583712997 0 0 0
1464 12 16.96966026866773 3.7163449009144567 1.096024040527824 0 0 0
1463 11 16.72322328376337 4.570202145153233 1.1733758019454437 0 0 0
1621 13 13.343623818383008 4.969320753475758 1.3707360387550989 0 0 0
1459 15 18.688557448551357 0.3248113173216503 1.5455891749169905 0 0 0
1461 10 18.92511088153943 0.9602138741435599 1.6819534353474883 0 0 0
1462 16 19.365389290497095 3.0839239755957237 1.1022993188970192 0 0 0
1468 14 22.375462026065104 4.034996781686797 0.9027611767998985 0 0 0
1470 4 20.653121620580514 3.928047671272939 -0.5761427899916632 0 0 0
1460 9 19.76311022969185 1.6549883475623421 1.675063833101673 0 0 0
1466 1 22.297858279925105 0.08105707183881299 1.385636539965116 0 0 0
1469 3 21.08770347680183 3.2235690324339834 2.575739583712987 0 0 0
1633 13 20.427301645220986 4.969320753475769 1.3707360387551049 0 0 0
1467 2 23.88722936943718 1.478529792824935 1.1581385995908375 0 0 0
1471 15 25.77223527538926 0.32481131732164914 1.5455891749170618 0 0 0
1473 10 26.00878870837734 0.9602138741435484 1.6819534353475811 0 0 0
1474 16 26.44906711733512 3.083923975595722 1.1022993188969932 0 0 0
1476 12 24.053338095505765 3.7163449009145144 1.096024040527807 0 0 0
1482 4 27.73679944741856 3.928047671272947 -0.5761427899916634 0 0 0
1472 9 26.846788056529892 1.6549883475622644 1.6750638331016812 0 0 0
1475 11 23.806901110601363 4.570202145153253 1.1733758019454428 0 0 0
1481 3 28.171381303639876 3.223569032433955 2.5757395837130046 0 0 0
1645 13 27.510979472058985 4.969320753475754 1.3707360387551029 0 0 0
1479 2 30.97090719627512 1.4785297928250272 1.1581385995908393 0 0 0
1483 15 32.85591310222723 0.3248113173217729 1.5455891749169786 0 0 0
1485 10 33.092466535215266 0.960213874143526 1.6819534353474739 0 0 0
1480 14 29.45913985290313 4.034996781686815 0.9027611767999102 0 0 0
1486 16 33.53274494417309 3.0839239755957792 1.1022993188970105 0 0 0
1488 12 31.137015922343764 3.7163449009146245 1.0960240405278165 0 0 0
1478 1 29.381536106763203 0.08105707183873302 1.385636539965102 0 0 0
1484 9 33.93046588336784 1.6549883475622609 1.6750638331016914 0 0 0
1487 11 30.890578937439365 4.570202145153281 1.1733758019454656 0 0 0
1494 4 34.82047727425655 3.928047671272936 -0.5761427899916668 0 0 0
1657 13 34.594657298897005 4.969320753475743 1.3707360387550938 0 0 0
1491 2 38.054585023113084 1.478529792824951 1.1581385995908104 0 0 0
1495 15 39.93959092906528 0.32481131732161594 1.5455891749170132 0 0 0
1497 10 40.17614436205334 0.9602138741434624 1.6819534353475178 0 0 0
1492 14 36.54281767974114 4.034996781686771 0.9027611767998809 0 0 0
1498 16 40.61642277101107 3.0839239755957495 1.10229931889702 0 0 0
1500 12 38.220693749181734 3.716344900914472 1.096024040527789 0 0 0
1490 1 36.46521393360113 0.08105707183873863 1.3856365399650887 0 0 0
1493 3 35.255059130477896 3.223569032433921 2.575739583713011 0 0 0
1499 11 37.97425676427738 4.5702021451532255 1.1733758019454448 0 0 0
1496 9 41.01414371020585 1.6549883475623122 1.6750638331016554 0 0 0
1503 2 45.138262849951204 1.4785297928248422 1.1581385995908395 0 0 0
1504 14 43.626495506579104 4.034996781686754 0.9027611767999353 0 0 0
1506 4 41.90415510109454 3.928047671272897 -0.5761427899916544 0 0 0
1512 12 45.3043715760197 3.7163449009144114 1.0960240405278279 0 0 0
1502 1 43.54889176043907 0.08105707183882095 1.385636539965111 0 0 0
1505 3 42.33873695731578 3.2235690324339643 2.575739583713027 0 0 0
1511 11 45.057934591115355 4.570202145153192 1.1733758019454656 0 0 0
1669 13 41.67833512573499 4.9693207534757695 1.3707360387550953 0 0 0
1507 15 47.02326875590336 0.32481131732159724 1.5455891749169768 0 0 0
1509 10 47.25982218889143 0.960213874143491 1.6819534353474959 0 0 0
1347 2 52.22194067678902 1.478529792824989 1.158138599590865 -1 0 0
1510 16 47.70010059784907 3.0839239755956895 1.1022993188970258 0 0 0
1348 14 50.71017333341708 4.034996781686773 0.9027611767998948 -1 0 0
1350 4 48.98783292793249 3.928047671272913 -0.5761427899916584 -1 0 0
1508 9 48.09782153704386 1.6549883475622726 1.6750638331016796 0 0 0
1346 1 50.63256958727715 0.08105707183860777 1.3856365399651245 -1 0 0
1349 3 49.42241478415383 3.223569032433962 2.5757395837130117 -1 0 0
1356 12 52.38804940285772 3.7163449009145215 1.096024040527808 -1 0 0
1355 11 52.14161241795334 4.570202145153222 1.1733758019454414 -1 0 0
1513 13 48.76201295257297 4.969320753475753 1.370736038755101 -1 0 0
1351 15 54.10694658274118 0.32481131732167356 1.54558917491713 -1 0 0
1353 10 54.343500015729234 0.9602138741434906 1.6819534353476535 -1 0 0
1354 16 54.78377842468704 3.0839239755957584 1.1022993188970123 -1 0 0
1362 4 56.071510754770514 3.9280476712729238 -0.5761427899916421 -1 0 0
1352 9 55.181499363881834 1.6549883475622704 1.6750638331016303 -1 0 0
1361 3 56.5060926109918 3.2235690324339323 2.5757395837130104 -1 0 0
1360 14 57.793851160255095 4.034996781686717 0.9027611767999187 -1 0 0
1358 1 57.716247414115124 0.08105707183867003 1.385636539965102 -1 0 0
1525 13 55.84569077941099 4.969320753475738 1.370736038755101 -1 0 0
1359 2 59.30561850362718 1.478529792824925 1.1581385995908349 -1 0 0
1363 15 61.190624409579286 0.32481131732169033 1.545589174917073 -1 0 0
1365 10 61.427177842567325 0.9602138741435241 1.6819534353475938 -1 0 0
1366 16 61.86745625152515 3.083923975595701 1.1022993188969366 -1 0 0
1368 12 59.471727229695745 3.7163449009145118 1.0960240405278228 -1 0 0
1374 4 63.15518858160856 3.928047671273028 -0.5761427899917007 -1 0 0
1364 9 62.26517719071991 1.6549883475622695 1.6750638331017154 -1 0 0
1367 11 59.225290244791374 4.570202145153168 1.1733758019454577 -1 0 0
1373 3 63.58977043782988 3.223569032433999 2.5757395837129877 -1 0 0
1537 13 62.92936860624893 4.96932075347581 1.3707360387550922 -1 0 0
1371 2 66.38929633046497 1.478529792825165 1.1581385995908844 -1 0 0
1375 15 68.2743022364171 0.3248113173217725 1.5455891749170474 -1 0 0
1377 10 68.51085566940517 0.9602138741435615 1.6819534353475643 -1 0 0
1372 14 64.87752898709311 4.034996781686946 0.9027611767999024 -1 0 0
1378 16 68.95113407836308 3.083923975595874 1.1022993188969878 -1 0 0
1380 12 66.55540505653376 3.716344900914687 1.0960240405277761 -1 0 0
1370 1 64.79992524095319 0.08105707183878298 1.3856365399651098 -1 0 0
1376 9 69.34885501755788 1.6549883475623413 1.6750638331016139 -1 0 0
1379 11 66.30896807162925 4.570202145153365 1.1733758019453802 -1 0 0
1383 2 73.47297415730296 1.4785297928249563 1.158138599590838 -1 0 0
1387 15 75.35798006325537 0.3248113173216568 1.5455891749171284 -1 0 0
1384 14 71.96120681393114 4.034996781686815 0.9027611767999298 -1 0 0
1386 4 70.2388664084466 3.928047671272984 -0.5761427899916499 -1 0 0
1392 12 73.6390828833718 3.7163449009143776 1.0960240405278177 -1 0 0
1382 1 71.88360306779113 0.08105707183852318 1.3856365399650956 -1 0 0
1385 3 70.67344826466783 3.22356903243401 2.5757395837130064 -1 0 0
1391 11 73.39264589846732 4.57020214515322 1.1733758019454972 -1 0 0
1389 10 75.59453349624336 0.9602138741433387 1.6819534353475685 -1 0 0
1549 13 70.013046433087 4.969320753475811 1.3707360387550835 -1 0 0
1395 2 80.55665198414115 1.4785297928247783 1.1581385995908065 -1 0 0
1390 16 76.03481190520095 3.0839239755958454 1.1022993188969683 -1 0 0
1396 14 79.04488464076903 4.034996781686687 0.9027611768000208 -1 0 0
1398 4 77.32254423528454 3.9280476712728865 -0.5761427899916493 -1 0 0
1404 12 80.72276071020963 3.7163449009143035 1.0960240405278958 -1 0 0
1388 9 76.43253284439585 1.6549883475623446 1.6750638331014738 -1 0 0
1394 1 78.96728089462908 0.08105707183871162 1.385636539965128 -1 0 0
1397 3 77.75712609150557 3.223569032434012 2.5757395837130237 -1 0 0
1403 11 80.47632372530533 4.5702021451531 1.1733758019455884 -1 0 0
1561 13 77.09672425992497 4.969320753475799 1.3707360387550749 -1 0 0
1399 15 82.44165789009348 0.3248113173216525 1.5455891749170942 -1 0 0
1401 10 82.67821132308144 0.9602138741433853 1.6819534353475771 -1 0 0
1402 16 83.11848973203908 3.083923975595655 1.1022993188969696 -1 0 0
1408 14 86.12856246760707 4.03499678168679 0.9027611767999212 -1 0 0
1410 4 84.40622206212251 3.928047671272937 -0.576142789991656 -1 0 0
1400 9 83.51621067123389 1.6549883475622846 1.6750638331016459 -1 0 0
1406 1 86.05095872146711 0.08105707183883863 1.3856365399651176 -1 0 0
1409 3 84.84080391834375 3.2235690324339767 2.575739583713012 -1 0 0
1573 13 84.18040208676295 4.9693207534757855 1.370736038755095 -1 0 0
1407 2 87.64032981097918 1.478529792824879 1.158138599590883 -1 0 0
1411 15 89.52533571693131 0.32481131732180374 1.54558917491703 -1 0 0
1413 10 89.76188914991931 0.9602138741435692 1.6819534353475305 -1 0 0
1414 16 90.20216755887698 3.083923975595823 1.1022993188969967 -1 0 0
1416 12 87.80643853704764 3.716344900914495 1.0960240405278827 -1 0 0
1422 4 91.48989988896051 3.928047671272955 -0.5761427899916232 -1 0 0
1412 9 90.59988849807183 1.654988347562327 1.6750638331015815 -1 0 0
1415 11 87.56000155214329 4.570202145153177 1.1733758019454659 -1 0 0
1421 3 91.92448174518175 3.2235690324340234 2.5757395837130987 -1 0 0
1420 14 93.21224029444505 4.034996781686759 0.902761176799971 -1 0 0
1418 1 93.13463654830518 0.08105707183862662 1.3856365399650603 -1 0 0
1585 13 91.26407991360095 4.969320753475831 1.3707360387550898 -1 0 0
1434 4 98.57357771579855 3.9280476712728998 -0.5761427899916646 -1 0 0
1433 3 99.00815957201972 3.2235690324340256 2.5757395837130286 -1 0 0
1419 2 94.72400763781714 1.4785297928248942 1.1581385995908855 -1 0 0
1423 15 96.60901354376934 0.32481131732168017 1.5455891749169948 -1 0 0
1425 10 96.8455669767574 0.9602138741435622 1.6819534353475285 -1 0 0
1426 16 97.28584538571502 3.083923975595806 1.1022993188970047 -1 0 0
1428 12 94.89011636388567 3.716344900914445 1.0960240405279182 -1 0 0
1424 9 97.68356632490989 1.6549883475623475 1.6750638331015664 -1 0 0
1427 11 94.64367937898132 4.570202145153173 1.1733758019455272 -1 0 0
1597 13 98.34775774043895 4.969320753475807 1.370736038755094 -1 0 0
1603 15 4.521201794875307 6.459456267587747 1.5455891749170445 0 0 0
1599 2 2.6361958889231 7.61317474309101 1.1581385995908586 0 0 0
1605 10 4.757755227863321 7.094858824409432 1.6819534353475047 0 0 0
1600 14 1.124428545551094 10.169641731952856 0.9027611767999648 0 0 0
1608 12 2.80230461499181 9.85098985118055 1.096024040527815 0 0 0
1606 16 5.1980336368210915 9.218568925861781 1.1022993188969479 0 0 0
1598 1 1.046824799411158 6.21570202210466 1.385636539965076 0 0 0
1604 9 5.595754576015919 7.7896332978282565 1.6750638331016017 0 0 0
1607 11 2.555867630087273 10.70484709541928 1.173375801945491 0 0 0
1615 15 11.604879621713305 6.459456267587738 1.545589174917019 0 0 0
1611 2 9.719873715761075 7.613174743091046 1.1581385995908542 0 0 0
1614 4 6.485765966904596 10.062692621538968 -0.5761427899916793 0 0 0
1612 14 8.208106372389125 10.16964173195284 0.9027611767999463 0 0 0
1620 12 9.885982441829796 9.850989851180566 1.0960240405278208 0 0 0
1610 1 8.130502626249196 6.2157020221046375 1.3856365399650723 0 0 0
1613 3 6.920347823125814 9.358213982699965 2.575739583713013 0 0 0
1619 11 9.639545456925301 10.704847095419273 1.1733758019454623 0 0 0
1777 13 6.259945991544956 11.103965703741778 1.3707360387550753 0 0 0
1617 10 11.84143305470135 7.094858824409515 1.6819534353475019 0 0 0
1623 2 16.80355154259912 7.613174743090964 1.1581385995908577 0 0 0
1618 16 12.281711463659107 9.21856892586179 1.1022993188969843 0 0 0
1626 4 13.56944379374259 10.062692621538952 -0.576142789991667 0 0 0
1624 14 15.29178419922713 10.16964173195281 0.9027611767999362 0 0 0
1616 9 12.679432402853902 7.789633297828288 1.6750638331016416 0 0 0
1622 1 15.214180453087197 6.215702022104671 1.38563653996508 0 0 0
1625 3 14.00402564996382 9.358213982699974 2.5757395837129966 0 0 0
1632 12 16.96966026866779 9.850989851180502 1.0960240405278288 0 0 0
1631 11 16.72322328376334 10.704847095419256 1.1733758019454608 0 0 0
1789 13 13.343623818382985 11.103965703741768 1.3707360387550942 0 0 0
1627 15 18.68855744855132 6.459456267587691 1.545589174917009 0 0 0
1629 10 18.925110881539375 7.094858824409503 1.6819534353474936 0 0 0
1630 16 19.365389290497077 9.218568925861787 1.1022993188969823 0 0 0
1638 4 20.653121620580574 10.062692621538947 -0.576142789991665 0 0 0
1636 14 22.375462026065104 10.169641731952812 0.9027611767999623 0 0 0
1628 9 19.763110229691893 7.789633297828313 1.6750638331016003 0 0 0
1634 1 22.29785827992517 6.2157020221046935 1.3856365399650568 0 0 0
1637 3 21.08770347680177 9.358213982699993 2.5757395837130064 0 0 0
1801 13 20.427301645220968 11.103965703741782 1.3707360387550973 0 0 0
1635 2 23.88722936943712 7.613174743090984 1.1581385995908524 0 0 0
1639 15 25.77223527538933 6.459456267587719 1.5455891749170072 0 0 0
1641 10 26.008788708377374 7.094858824409518 1.6819534353475016 0 0 0
1644 12 24.053338095505786 9.85098985118052 1.0960240405278454 0 0 0
1642 16 26.4490671173351 9.218568925861758 1.1022993188969779 0 0 0
1650 4 27.73679944741857 10.06269262153895 -0.5761427899916571 0 0 0
1640 9 26.846788056529878 7.789633297828285 1.675063833101628 0 0 0
1643 11 23.806901110601327 10.704847095419261 1.173375801945486 0 0 0
1649 3 28.171381303639823 9.358213982699963 2.575739583712981 0 0 0
1813 13 27.510979472058974 11.103965703741734 1.3707360387550904 0 0 0
1651 15 32.8559131022273 6.459456267587683 1.5455891749170234 0 0 0
1647 2 30.97090719627513 7.61317474309097 1.158138599590832 0 0 0
1653 10 33.09246653521536 7.094858824409507 1.6819534353475125 0 0 0
1648 14 29.459139852903114 10.169641731952774 0.9027611767999187 0 0 0
1656 12 31.137015922343764 9.850989851180515 1.0960240405278043 0 0 0
1654 16 33.5327449441731 9.21856892586174 1.1022993188970012 0 0 0
1646 1 29.381536106763164 6.215702022104691 1.385636539965087 0 0 0
1652 9 33.9304658833679 7.78963329782826 1.6750638331016725 0 0 0
1655 11 30.890578937439354 10.704847095419249 1.1733758019454543 0 0 0
1662 4 34.82047727425654 10.062692621538941 -0.576142789991665 0 0 0
1825 13 34.59465729889697 11.103965703741748 1.3707360387551017 0 0 0
1663 15 39.93959092906524 6.459456267587687 1.545589174916978 0 0 0
1659 2 38.05458502311311 7.613174743091034 1.158138599590872 0 0 0
1665 10 40.17614436205331 7.094858824409476 1.681953435347462 0 0 0
1660 14 36.54281767974112 10.169641731952813 0.9027611767999046 0 0 0
1668 12 38.22069374918181 9.850989851180593 1.0960240405277824 0 0 0
1666 16 40.616422771011095 9.218568925861781 1.102299318896987 0 0 0
1658 1 36.465213933601206 6.215702022104642 1.3856365399650687 0 0 0
1661 3 35.255059130477854 9.35821398269996 2.5757395837129917 0 0 0
1667 11 37.97425676427734 10.704847095419286 1.1733758019454361 0 0 0
1664 9 41.01414371020591 7.789633297828256 1.6750638331016534 0 0 0
1671 2 45.13826284995112 7.613174743091017 1.1581385995908433 0 0 0
1674 4 41.90415510109458 10.062692621538943 -0.57614278999167 0 0 0
1672 14 43.626495506579126 10.16964173195283 0.9027611767999364 0 0 0
1680 12 45.30437157601983 9.85098985118057 1.0960240405277997 0 0 0
1670 1 43.548891760439204 6.215702022104632 1.3856365399650548 0 0 0
1673 3 42.33873695731584 9.358213982699965 2.575739583713016 0 0 0
1679 11 45.05793459111532 10.704847095419298 1.1733758019454643 0 0 0
1837 13 41.67833512573496 11.103965703741766 1.3707360387550798 0 0 0
1675 15 47.02326875590327 6.459456267587687 1.5455891749169786 0 0 0
1677 10 47.259822188891334 7.094858824409491 1.681953435347459 0 0 0
1515 2 52.221940676789174 7.613174743090948 1.1581385995908202 -1 0 0
1678 16 47.70010059784911 9.218568925861748 1.1022993188969892 0 0 0
1518 4 48.987832927932594 10.06269262153891 -0.5761427899916817 -1 0 0
1516 14 50.71017333341715 10.169641731952762 0.9027611767999391 -1 0 0
1676 9 48.09782153704389 7.789633297828252 1.6750638331016394 0 0 0
1514 1 50.63256958727715 6.2157020221046535 1.3856365399650425 -1 0 0
1517 3 49.42241478415383 9.358213982699922 2.575739583712996 -1 0 0
1524 12 52.38804940285777 9.850989851180529 1.096024040527775 -1 0 0
1523 11 52.141612417953404 10.704847095419227 1.1733758019454477 -1 0 0
1681 13 48.762012952573016 11.103965703741736 1.3707360387550962 -1 0 0
1519 15 54.10694658274131 6.459456267587667 1.5455891749169821 -1 0 0
1521 10 54.343500015729354 7.094858824409487 1.681953435347474 -1 0 0
1522 16 54.783778424687114 9.218568925861737 1.1022993188970072 -1 0 0
1530 4 56.071510754770564 10.062692621538947 -0.5761427899916567 -1 0 0
1520 9 55.181499363881926 7.789633297828241 1.6750638331016816 -1 0 0
1529 3 56.506092610991885 9.358213982699949 2.5757395837130184 -1 0 0
1528 14 57.793851160255144 10.169641731952801 0.9027611767999151 -1 0 0
1526 1 57.716247414115216 6.215702022104643 1.3856365399650803 -1 0 0
1693 13 55.845690779410994 11.10396570374175 1.3707360387551069 -1 0 0
1531 15 61.19062440957926 6.4594562675876785 1.5455891749169288 -1 0 0
1527 2 59.30561850362704 7.613174743091067 1.158138599590808 -1 0 0
1533 10 61.42717784256733 7.094858824409522 1.6819534353474457 -1 0 0
1536 12 59.47172722969576 9.850989851180582 1.0960240405278017 -1 0 0
1534 16 61.86745625152508 9.21856892586179 1.102299318897039 -1 0 0
1542 4 63.155188581608535 10.062692621538913 -0.57614278999165 -1 0 0
1532 9 62.26517719071982 7.789633297828293 1.6750638331017007 -1 0 0
1535 11 59.225290244791374 10.704847095419263 1.1733758019454568 -1 0 0
1541 3 63.589770437829834 9.35821398269992 2.5757395837130024 -1 0 0
1705 13 62.92936860624904 11.103965703741734 1.3707360387551089 -1 0 0
1543 15 68.27430223641741 6.459456267587686 1.545589174917076 -1 0 0
1539 2 66.38929633046524 7.613174743090732 1.1581385995908442 -1 0 0
1545 10 68.5108556694054 7.09485882440943 1.6819534353475418 -1 0 0
1540 14 64.87752898709313 10.169641731952698 0.9027611767998984 -1 0 0
1548 12 66.55540505653366 9.85098985118034 1.0960240405278 -1 0 0
1546 16 68.95113407836297 9.218568925861756 1.1022993188969226 -1 0 0
1538 1 64.79992524095307 6.215702022104762 1.3856365399651145 -1 0 0
1544 9 69.3488550175579 7.789633297828299 1.6750638331015348 -1 0 0
1547 11 66.30896807162942 10.704847095419154 1.1733758019454554 -1 0 0
1555 15 75.35798006325521 6.459456267587786 1.54558917491705 -1 0 0
1551 2 73.47297415730304 7.613174743091009 1.158138599590919 -1 0 0
1554 4 70.23886640844651 10.062692621538975 -0.576142789991662 -1 0 0
1552 14 71.96120681393101 10.169641731952833 0.9027611767999822 -1 0 0
1560 12 73.63908288337169 9.850989851180566 1.0960240405278783 -1 0 0
1550 1 71.8836030677912 6.21570202210472 1.3856365399650898 -1 0 0
1553 3 70.67344826466768 9.358213982700068 2.575739583713088 -1 0 0
1559 11 73.39264589846726 10.704847095419275 1.1733758019455194 -1 0 0
1557 10 75.59453349624323 7.094858824409488 1.6819534353475738 -1 0 0
1717 13 70.01304643308687 11.103965703741862 1.3707360387550451 -1 0 0
1563 2 80.5566519841409 7.613174743091161 1.1581385995909013 -1 0 0
1558 16 76.03481190520104 9.218568925861854 1.1022993188969519 -1 0 0
1566 4 77.32254423528457 10.062692621538957 -0.5761427899916866 -1 0 0
1564 14 79.04488464076907 10.169641731952916 0.9027611767999788 -1 0 0
1572 12 80.72276071020983 9.850989851180632 1.0960240405277941 -1 0 0
1556 9 76.43253284439592 7.789633297828285 1.6750638331015781 -1 0 0
1562 1 78.9672808946292 6.2157020221045975 1.385636539965084 -1 0 0
1565 3 77.75712609150574 9.35821398270004 2.5757395837130326 -1 0 0
1571 11 80.47632372530518 10.704847095419362 1.1733758019454985 -1 0 0
1729 13 77.09672425992487 11.103965703741824 1.3707360387550576 -1 0 0
1567 15 82.44165789009323 6.459456267587857 1.5455891749171957 -1 0 0
1569 10 82.67821132308119 7.094858824409354 1.6819534353476207 -1 0 0
1570 16 83.11848973203901 9.218568925861847 1.1022993188969432 -1 0 0
1578 4 84.4062220621226 10.062692621538947 -0.5761427899916804 -1 0 0
1576 14 86.1285624676071 10.169641731952732 0.9027611767999727 -1 0 0
1568 9 83.51621067123386 7.789633297828231 1.6750638331015397 -1 0 0
1574 1 86.05095872146715 6.2157020221046695 1.3856365399650603 -1 0 0
1577 3 84.84080391834371 9.358213982699912 2.57573958371302 -1 0 0
1741 13 84.18040208676298 11.103965703741775 1.3707360387550773 -1 0 0
1575 2 87.6403298109792 7.613174743090782 1.158138599590886 -1 0 0
1579 15 89.52533571693138 6.45945626758769 1.5455891749170896 -1 0 0
1581 10 89.76188914991938 7.094858824409489 1.6819534353475767 -1 0 0
1584 12 87.80643853704765 9.850989851180369 1.0960240405278523 -1 0 0
1582 16 90.20216755887702 9.218568925861781 1.1022993188969572 -1 0 0
1590 4 91.48989988896054 10.062692621538973 -0.576142789991663 -1 0 0
1580 9 90.5998884980719 7.789633297828325 1.6750638331015433 -1 0 0
1583 11 87.56000155214333 10.704847095419147 1.1733758019455083 -1 0 0
1589 3 91.9244817451817 9.358213982700054 2.575739583713027 -1 0 0
1588 14 93.21224029444504 10.169641731952836 0.9027611767999797 -1 0 0
1586 1 93.1346365483052 6.21570202210467 1.385636539965091 -1 0 0
1753 13 91.2640799136009 11.103965703741814 1.3707360387550886 -1 0 0
1602 4 98.57357771579858 10.062692621538973 -0.5761427899916686 -1 0 0
1601 3 99.00815957201974 9.358213982700013 2.5757395837130086 -1 0 0
1591 15 96.60901354376925 6.459456267587723 1.545589174917091 -1 0 0
1587 2 94.72400763781698 7.6131747430910295 1.1581385995908875 -1 0 0
1593 10 96.8455669767573 7.094858824409485 1.6819534353475958 -1 0 0
1596 12 94.8901163638857 9.850989851180511 1.0960240405278614 -1 0 0
1594 16 97.28584538571505 9.218568925861835 1.1022993188969485 -1 0 0
1592 9 97.6835663249099 7.789633297828319 1.6750638331015413 -1 0 0
1595 11 94.64367937898123 10.704847095419264 1.173375801945502 -1 0 0
1765 13 98.34775774043894 11.103965703741821 1.3707360387550864 -1 0 0
1767 2 2.636195888923074 13.747819693357012 1.1581385995908298 0 0 0
1771 15 4.521201794875224 12.59410121785372 1.5455891749170598 0 0 0
1773 10 4.757755227863277 13.22950377467555 1.6819534353475776 0 0 0
1768 14 1.1244285455511311 16.30428668221883 0.9027611767998698 0 0 0
1774 16 5.198033636821085 15.353213876127752 1.102299318897027 0 0 0
1776 12 2.802304614991749 15.98563480144656 1.0960240405278217 0 0 0
1766 1 1.0468247994111175 12.350346972370708 1.3856365399651196 0 0 0
1772 9 5.595754576015835 13.924278248094287 1.6750638331016703 0 0 0
1775 11 2.555867630087367 16.83949204568527 1.1733758019454528 0 0 0
1779 2 9.719873715761135 13.747819693356943 1.158138599590798 0 0 0
1783 15 11.604879621713312 12.594101217853666 1.5455891749170334 0 0 0
1780 14 8.208106372389127 16.304286682218763 0.902761176799903 0 0 0
1782 4 6.485765966904531 16.197337571804926 -0.5761427899916615 0 0 0
1788 12 9.885982441829753 15.985634801446485 1.0960240405278017 0 0 0
1778 1 8.130502626249136 12.350346972370694 1.3856365399651158 0 0 0
1781 3 6.920347823125856 15.492858932965914 2.5757395837130024 0 0 0
1787 11 9.639545456925397 16.83949204568522 1.1733758019454534 0 0 0
1945 13 6.259945991545018 17.23861065400775 1.3707360387551193 0 0 0
1785 10 11.841433054701373 13.229503774675537 1.681953435347535 0 0 0
1791 2 16.803551542599152 13.747819693356963 1.158138599590814 0 0 0
1786 16 12.281711463659112 15.35321387612772 1.1022993188970298 0 0 0
1792 14 15.29178419922713 16.30428668221879 0.9027611767998923 0 0 0
1794 4 13.569443793742531 16.197337571804923 -0.5761427899916703 0 0 0
1784 9 12.679432402853879 13.92427824809429 1.6750638331016845 0 0 0
1790 1 15.214180453087165 12.3503469723707 1.3856365399651056 0 0 0
1793 3 14.004025649963872 15.492858932965936 2.57573958371299 0 0 0
1800 12 16.969660268667777 15.98563480144652 1.0960240405278054 0 0 0
1799 11 16.723223283763396 16.839492045685258 1.173375801945436 0 0 0
1957 13 13.343623818383012 17.23861065400775 1.3707360387551157 0 0 0
1795 15 18.688557448551286 12.594101217853668 1.5455891749170063 0 0 0
1797 10 18.925110881539364 13.229503774675566 1.6819534353475145 0 0 0
1798 16 19.365389290497113 15.353213876127736 1.1022993188969912 0 0 0
1804 14 22.375462026065115 16.304286682218812 0.9027611767999045 0 0 0
1806 4 20.65312162058055 16.19733757180497 -0.5761427899916601 0 0 0
1796 9 19.76311022969186 13.924278248094302 1.6750638331016878 0 0 0
1802 1 22.29785827992515 12.350346972370694 1.3856365399651112 0 0 0
1805 3 21.08770347680186 15.49285893296598 2.5757395837129895 0 0 0
1969 13 20.427301645220975 17.238610654007758 1.3707360387550993 0 0 0
1803 2 23.887229369437115 13.74781969335701 1.158138599590823 0 0 0
1807 15 25.7722352753893 12.594101217853712 1.5455891749170427 0 0 0
1809 10 26.008788708377367 13.229503774675583 1.6819534353475458 0 0 0
1810 16 26.449067117335126 15.35321387612774 1.1022993188970054 0 0 0
1812 12 24.053338095505772 15.985634801446544 1.0960240405278228 0 0 0
1818 4 27.736799447418548 16.19733757180497 -0.5761427899916737 0 0 0
1808 9 26.846788056529878 13.924278248094312 1.6750638331016938 0 0 0
1811 11 23.80690111060136 16.83949204568528 1.1733758019454457 0 0 0
1817 3 28.171381303639887 15.492858932965953 2.5757395837129904 0 0 0
1981 13 27.51097947205899 17.238610654007783 1.370736038755114 0 0 0
1815 2 30.97090719627506 13.747819693357052 1.1581385995908204 0 0 0
1819 15 32.85591310222729 12.594101217853671 1.5455891749169852 0 0 0
1821 10 33.09246653521538 13.229503774675559 1.6819534353474943 0 0 0
1816 14 29.45913985290314 16.30428668221886 0.9027611767998965 0 0 0
1822 16 33.53274494417314 15.35321387612774 1.1022993188970276 0 0 0
1824 12 31.13701592234378 15.985634801446546 1.0960240405278017 0 0 0
1814 1 29.381536106763154 12.35034697237073 1.3856365399651105 0 0 0
1820 9 33.930465883367866 13.924278248094296 1.6750638331017202 0 0 0
1823 11 30.890578937439354 16.839492045685308 1.1733758019454354 0 0 0
1830 4 34.820477274256554 16.19733757180493 -0.5761427899916554 0 0 0
1993 13 34.59465729889701 17.23861065400774 1.3707360387551162 0 0 0
1827 2 38.05458502311313 13.747819693356998 1.158138599590843 0 0 0
1831 15 39.93959092906524 12.594101217853677 1.5455891749170163 0 0 0
1833 10 40.17614436205332 13.229503774675518 1.6819534353475183 0 0 0
1828 14 36.542817679741134 16.304286682218795 0.9027611767998989 0 0 0
1834 16 40.616422771011116 15.353213876127747 1.1022993188969799 0 0 0
1836 12 38.22069374918178 15.985634801446565 1.096024040527784 0 0 0
1826 1 36.46521393360114 12.350346972370701 1.3856365399650767 0 0 0
1829 3 35.25505913047786 15.492858932965953 2.5757395837129726 0 0 0
1835 11 37.97425676427737 16.839492045685258 1.1733758019454215 0 0 0
1832 9 41.01414371020586 13.924278248094284 1.6750638331017136 0 0 0
1839 2 45.13826284995106 13.747819693357064 1.1581385995908542 0 0 0
1840 14 43.626495506579126 16.30428668221885 0.9027611767999076 0 0 0
1842 4 41.90415510109457 16.19733757180496 -0.57614278999167 0 0 0
1848 12 45.30437157601981 15.98563480144657 1.0960240405277937 0 0 0
1838 1 43.54889176043913 12.350346972370696 1.3856365399650856 0 0 0
1841 3 42.33873695731588 15.492858932965976 2.575739583713019 0 0 0
1847 11 45.05793459111531 16.839492045685308 1.1733758019454406 0 0 0
2005 13 41.678335125734954 17.238610654007772 1.3707360387550724 0 0 0
1843 15 47.02326875590323 12.594101217853645 1.545589174917025 0 0 0
1845 10 47.259822188891334 13.229503774675493 1.6819534353475274 0 0 0
1683 2 52.22194067678902 13.747819693357089 1.158138599590831 -1 0 0
1846 16 47.700100597849115 15.353213876127752 1.1022993188969819 0 0 0
1684 14 50.71017333341714 16.30428668221883 0.902761176799936 -1 0 0
1686 4 48.98783292793259 16.197337571804944 -0.5761427899916791 -1 0 0
1844 9 48.09782153704391 13.924278248094259 1.6750638331016654 0 0 0
1682 1 50.63256958727721 12.35034697237062 1.3856365399650938 -1 0 0
1685 3 49.42241478415384 15.492858932965946 2.575739583713009 -1 0 0
1692 12 52.388049402857774 15.985634801446558 1.0960240405278001 -1 0 0
1691 11 52.14161241795335 16.839492045685287 1.1733758019454583 -1 0 0
1849 13 48.76201295257298 17.23861065400777 1.3707360387550922 -1 0 0