LAMMPS data file via write_data, version 29 Aug 2024, timestep = 102, units = metal

8064 atoms
36 atom types

0 99.171489575732 xlo xhi
0 98.154319204256 ylo yhi
-50 50 zlo zhi

Masses

1 58.6934
2 58.6934
3 58.6934
4 58.6934
5 58.6934
6 58.6934
7 58.6934
8 58.6934
9 58.6934
10 58.6934
11 58.6934
12 58.6934
13 32.06
14 32.06
15 32.06
16 32.06
17 32.06
18 32.06
19 32.06
20 32.06
21 32.06
22 32.06
23 32.06
24 32.06
25 32.06
26 32.06
27 32.06
28 32.06
29 32.06
30 32.06
31 32.06
32 32.06
33 32.06
34 32.06
35 32.06
36 32.06

Atoms # atomic

1431 2 1.6438780493630698 1.1010117571400113 0.3023765496494995 0 0 0
1437 14 5.6359344209861995 1.1004237627823372 1.7188354505490497 0 0 0
1432 18 1.6470415478555145 4.079100020633253 1.4276904478379426 0 0 0
1438 20 5.715654765881342 3.1409666491247137 1.2316639731111838 0 0 0
1434 4 0.16004253739521218 3.895678885938542 -0.2825224807193096 0 0 0
1440 16 3.1431957749342616 3.783205958744875 1.5404914104910308 0 0 0
1430 1 1.469584595721821 0.13453098033009434 1.8040570850763908 0 0 0
1433 3 0.137421194896412 3.3018718718962488 2.9231682829805172 0 0 0
1439 15 2.9782309604378163 4.6229034705267775 1.7081016533369089 0 0 0
1436 13 6.007861895635429 1.6949494254344144 1.9311239228541717 0 0 0
1443 2 8.727555876201585 1.101011757139765 0.30237654964996385 0 0 0
1444 18 8.730719374693736 4.079100020633452 1.4276904478380898 0 0 0
1446 4 7.243720364233326 3.8956788859385174 -0.28252248071949077 0 0 0
1452 16 10.226873601773061 3.7832059587451106 1.54049141049086 0 0 0
1442 1 8.553262422559781 0.13453098032955438 1.8040570850761584 0 0 0
1445 3 7.221099021734349 3.3018718718959796 2.9231682829808348 0 0 0
1451 15 10.06190878727589 4.622903470526608 1.7081016533367595 0 0 0
1609 17 6.718322301874177 5.000393560519428 1.571627499992265 0 0 0
1449 14 12.71961224782378 1.1004237627820428 1.7188354505492893 0 0 0
1455 2 15.811233703039036 1.1010117571400142 0.3023765496494619 0 0 0
1450 20 12.799332592719027 3.1409666491247026 1.2316639731109722 0 0 0
1456 18 15.814397201531591 4.079100020633581 1.4276904478380799 0 0 0
1458 4 14.327398191071204 3.8956788859384015 -0.28252248071977826 0 0 0
1448 13 13.09153972247289 1.694949425434252 1.9311239228541388 0 0 0
1454 1 15.636940249397117 0.13453098033037114 1.8040570850763322 0 0 0
1457 3 14.304776848572038 3.301871871895593 2.9231682829808476 0 0 0
1464 16 17.31055142861079 3.7832059587446505 1.5404914104909915 0 0 0
1463 15 17.145586614113473 4.622903470526514 1.7081016533369744 0 0 0
1621 17 13.802000128711935 5.0003935605194885 1.5716274999921784 0 0 0
1461 14 19.80329007466225 1.100423762782088 1.7188354505489907 0 0 0
1467 2 22.894911529876488 1.1010117571402913 0.3023765496489503 0 0 0
1462 20 19.883010419557063 3.1409666491247137 1.231663973111243 0 0 0
1468 18 22.898075028369366 4.079100020633068 1.4276904478380905 0 0 0
1470 4 21.41107601790895 3.895678885938595 -0.2825224807192757 0 0 0
1460 13 20.175217549311267 1.694949425434217 1.9311239228541865 0 0 0
1466 1 22.720618076235642 0.13453098032941585 1.8040570850765445 0 0 0
1469 3 21.388454675410095 3.3018718718959783 2.9231682829807286 0 0 0
1633 17 20.885677955549887 5.00039356051915 1.5716274999923823 0 0 0
1473 14 26.886967901500537 1.10042376278336 1.7188354505486854 0 0 0
1474 20 26.96668824639557 3.140966649124809 1.231663973111762 0 0 0
1476 16 24.394229255447634 3.783205958743642 1.5404914104914682 0 0 0
1482 4 28.49475384474714 3.8956788859389695 -0.2825224807188792 0 0 0
1472 13 27.2588953761501 1.6949494254348734 1.9311239228544939 0 0 0
1475 15 24.229264440951567 4.622903470526136 1.7081016533374629 0 0 0
1481 3 28.472132502248623 3.3018718718967834 2.9231682829810848 0 0 0
1645 17 27.969355782388348 5.000393560519677 1.571627499992679 0 0 0
1479 2 29.978589356714664 1.101011757140187 0.3023765496491502 0 0 0
1485 14 33.97064572833839 1.1004237627826898 1.7188354505489576 0 0 0
1480 18 29.981752855207716 4.079100020633501 1.4276904478382595 0 0 0
1486 20 34.050366073233384 3.1409666491247306 1.2316639731114658 0 0 0
1488 16 31.477907082285792 3.7832059587442237 1.5404914104914673 0 0 0
1478 1 29.804295903074213 0.13453098032947303 1.8040570850764772 0 0 0
1484 13 34.34257320298778 1.694949425434559 1.9311239228542945 0 0 0
1487 15 31.312942267790262 4.622903470526806 1.7081016533372075 0 0 0
1491 2 37.06226718355303 1.1010117571400504 0.30237654964941535 0 0 0
1492 18 37.065430682045594 4.079100020633424 1.4276904478380565 0 0 0
1494 4 35.57843167158503 3.8956788859388722 -0.2825224807191721 0 0 0
1500 16 38.56158490912389 3.783205958744301 1.540491410491514 0 0 0
1490 1 36.887973729912055 0.1345309803291358 1.804057085076376 0 0 0
1493 3 35.55581032908648 3.3018718718963695 2.9231682829808405 0 0 0
1499 15 38.39662009462797 4.622903470526651 1.7081016533373048 0 0 0
1657 17 35.05303360922614 5.000393560519483 1.5716274999925033 0 0 0
1497 14 41.05432355517606 1.1004237627830407 1.7188354505488377 0 0 0
1498 20 41.134043900071205 3.1409666491248815 1.2316639731114454 0 0 0
1496 13 41.42625102982548 1.6949494254347615 1.9311239228542156 0 0 0
1503 2 44.145945010390896 1.1010117571401128 0.30237654964930255 0 0 0
1504 18 44.14910850888355 4.079100020633752 1.427690447838092 0 0 0
1506 4 42.662109498422886 3.895678885939119 -0.2825224807192856 0 0 0
1512 16 45.645262735961744 3.7832059587441305 1.5404914104917664 0 0 0
1502 1 43.97165155674968 0.13453098032963662 1.8040570850762 0 0 0
1505 3 42.63948815592433 3.301871871896335 2.9231682829809604 0 0 0
1511 15 45.480297921465834 4.622903470526752 1.708101653337472 0 0 0
1669 17 42.13671143606411 5.00039356051987 1.571627499992636 0 0 0
1509 14 48.1380013820143 1.100423762783237 1.7188354505487198 0 0 0
1347 2 51.229622837228604 1.101011757140247 0.30237654964905486 -1 0 0
1510 20 48.21772172690926 3.140966649125005 1.2316639731116523 0 0 0
1348 18 51.23278633572151 4.079100020633518 1.4276904478381174 -1 0 0
1350 4 49.74578732526079 3.895678885939326 -0.28252248071897407 -1 0 0
1508 13 48.50992885666371 1.6949494254349036 1.9311239228542114 0 0 0
1346 1 51.05532938358764 0.13453098032998057 1.8040570850765867 -1 0 0
1349 3 49.72316598276244 3.3018718718966213 2.9231682829809307 -1 0 0
1513 17 49.220389262902216 5.000393560519815 1.5716274999928117 -1 0 0
1353 14 55.221679208852606 1.1004237627834967 1.7188354505486247 -1 0 0
1354 20 55.30139955374748 3.1409666491250374 1.2316639731118344 -1 0 0
1356 16 52.72894056279933 3.7832059587437548 1.5404914104918612 -1 0 0
1362 4 56.82946515209891 3.8956788859394114 -0.28252248071876956 -1 0 0
1352 13 55.593606683502074 1.6949494254350683 1.9311239228543018 -1 0 0
1355 15 52.56397574830404 4.6229034705266 1.7081016533375586 -1 0 0
1361 3 56.806843809600636 3.3018718718969047 2.9231682829810115 -1 0 0
1359 2 58.31330066406665 1.1010117571402358 0.3023765496491327 -1 0 0
1360 18 58.31646416255964 4.079100020633533 1.427690447838191 -1 0 0
1358 1 58.13900721042606 0.134530980329076 1.8040570850764308 -1 0 0
1525 17 56.304067089740414 5.0003935605198775 1.571627499992901 -1 0 0
1365 14 62.30535703569054 1.1004237627831568 1.7188354505487213 -1 0 0
1366 20 62.385077380585564 3.14096664912502 1.231663973111524 -1 0 0
1368 16 59.812618389637535 3.7832059587440474 1.5404914104915386 -1 0 0
1374 4 63.91314297893723 3.8956788859392626 -0.2825224807193664 -1 0 0
1364 13 62.6772845103399 1.694949425435066 1.9311239228540689 -1 0 0
1367 15 59.64765357514236 4.622903470526748 1.7081016533373414 -1 0 0
1373 3 63.89052163643876 3.30187187189644 2.923168282981026 -1 0 0
1537 17 63.38774491657855 5.000393560520174 1.5716274999926751 -1 0 0
1371 2 65.39697849090719 1.1010117571390305 0.30237654965134025 -1 0 0
1377 14 69.3890348625262 1.1004237627822755 1.7188354505495935 -1 0 0
1372 18 65.40014198939798 4.079100020634041 1.4276904478380577 -1 0 0
1378 20 69.46875520742226 3.140966649125035 1.2316639731103538 -1 0 0
1380 16 66.89629621647777 3.7832059587462794 1.540491410491335 -1 0 0
1370 1 65.22268503726434 0.13453098032743818 1.8040570850756474 -1 0 0
1376 13 69.76096233717533 1.6949494254344648 1.931123922853801 -1 0 0
1379 15 66.73133140198041 4.622903470527189 1.7081016533367592 -1 0 0
1383 2 72.4806563177422 1.1010117571404092 0.30237654964865746 -1 0 0
1384 18 72.48381981623535 4.079100020634899 1.4276904478378862 -1 0 0
1386 4 70.99682080577473 3.8956788859390454 -0.2825224807208055 -1 0 0
1392 16 73.9799740433143 3.783205958744199 1.5404914104917264 -1 0 0
1382 1 72.30636286409944 0.13453098032971839 1.804057085076093 -1 0 0
1385 3 70.97419946327544 3.301871871894812 2.923168282980882 -1 0 0
1391 15 73.81500922881658 4.622903470527099 1.7081016533377025 -1 0 0
1549 17 70.47142274341547 5.000393560520595 1.5716274999922317 -1 0 0
1389 14 76.47271268936653 1.1004237627829554 1.7188354505485286 -1 0 0
1395 2 79.56433414458004 1.1010117571405456 0.30237654964850585 -1 0 0
1390 20 76.55243303426133 3.140966649124737 1.2316639731117316 -1 0 0
1396 18 79.56749764307304 4.079100020632767 1.4276904478379169 -1 0 0
1398 4 78.08049863261247 3.8956788859392892 -0.2825224807184755 -1 0 0
1404 16 81.06365187014971 3.78320595874266 1.5404914104925709 -1 0 0
1388 13 76.84464016401598 1.6949494254345039 1.9311239228543728 -1 0 0
1394 1 79.39004069094027 0.13453098032997757 1.8040570850768107 -1 0 0
1397 3 78.05787729011448 3.3018718718969713 2.923168282980468 -1 0 0
1403 15 80.89868705565586 4.622903470526254 1.7081016533383462 -1 0 0
1561 17 77.55510057025386 5.000393560518936 1.571627499992738 -1 0 0
1401 14 83.55639051620443 1.1004237627855589 1.7188354505480372 -1 0 0
1407 2 86.64801197141851 1.1010117571402844 0.3023765496490243 -1 0 0
1402 20 83.63611086109985 3.140966649125162 1.2316639731124601 -1 0 0
1408 18 86.65117546991196 4.0791000206344705 1.4276904478383745 -1 0 0
1410 4 85.16417645945087 3.895678885940055 -0.2825224807184734 -1 0 0
1400 13 83.92831799085484 1.6949494254360369 1.9311239228546684 -1 0 0
1406 1 86.47371851777855 0.1345309803299134 1.804057085076104 -1 0 0
1409 3 85.1415551169531 3.3018718718977915 2.923168282981632 -1 0 0
1573 17 84.63877839709282 5.000393560520975 1.5716274999933642 -1 0 0
1413 14 90.64006834304293 1.1004237627835476 1.7188354505485162 -1 0 0
1414 20 90.71978868793781 3.1409666491250134 1.2316639731118022 -1 0 0
1416 16 88.14732969698886 3.7832059587440714 1.5404914104918086 -1 0 0
1422 4 92.2478542862892 3.895678885939423 -0.2825224807189696 -1 0 0
1412 13 91.01199581769264 1.6949494254351143 1.9311239228540142 -1 0 0
1415 15 87.9823648824949 4.622903470527717 1.708101653337339 -1 0 0
1421 3 92.22523294379103 3.3018718718968363 2.923168282981066 -1 0 0
1585 17 91.72245622393069 5.000393560520087 1.5716274999928583 -1 0 0
1419 2 93.73168979825695 1.101011757140026 0.3023765496494524 -1 0 0
1425 14 97.7237461698801 1.1004237627821876 1.7188354505493926 -1 0 0
1420 18 93.73485329674999 4.079100020633876 1.4276904478381232 -1 0 0
1426 20 97.80346651477545 3.1409666491245076 1.2316639731111243 -1 0 0
1428 16 95.23100752382827 3.7832059587447513 1.5404914104912404 -1 0 0
1418 1 93.55739634461632 0.13453098033028604 1.8040570850762936 -1 0 0
1424 13 98.09567364452958 1.6949494254342266 1.931123922854336 -1 0 0
1427 15 95.06604270933266 4.622903470527175 1.7081016533369149 -1 0 0
1597 17 98.80613405076792 5.000393560518995 1.571627499992123 -1 0 0
1603 19 3.1804824845806507 6.0364324423411695 1.4076634593306026 0 0 0
1599 2 1.6438780493641691 7.235656707405518 0.3023765496504703 0 0 0
1605 14 5.63593442098566 7.235068713047781 1.7188354505490941 0 0 0
1602 4 0.1600425373951021 10.030323836205037 -0.28252248072058767 0 0 0
1600 18 1.6470415478559042 10.213744970901192 1.427690447838009 0 0 0
1608 16 3.143195774935869 9.91785090901204 1.5404914104906837 0 0 0
1606 20 5.71565476588067 9.275611599390976 1.2316639731107084 0 0 0
1598 1 1.4695845957203775 6.269175930596387 1.8040570850757496 0 0 0
1601 3 0.1374211948960196 9.436516822161233 2.9231682829813077 0 0 0
1607 15 2.978230960437355 10.757548420793583 1.7081016533365894 0 0 0
1604 13 6.007861895634386 7.829594375700368 1.9311239228535486 0 0 0
1615 19 10.264160311419174 6.036432442341069 1.407663459330426 0 0 0
1611 2 8.727555876202402 7.235656707405409 0.30237654965068234 0 0 0
1614 4 7.2437203642331065 10.030323836204667 -0.2825224807203565 0 0 0
1612 18 8.730719374693711 10.21374497090013 1.4276904478379877 0 0 0
1620 16 10.226873601774107 9.917850909011669 1.5404914104904583 0 0 0
1610 1 8.553262422558767 6.269175930595563 1.8040570850757396 0 0 0
1613 3 7.221099021733874 9.43651682216094 2.9231682829809493 0 0 0
1619 15 10.061908787275296 10.757548420792576 1.708101653336571 0 0 0
1777 17 6.718322301873995 11.135038510786119 1.5716274999923017 0 0 0
1617 14 12.719612247823452 7.235068713047876 1.7188354505491164 0 0 0
1623 2 15.811233703040202 7.235656707405484 0.30237654965050653 0 0 0
1618 20 12.799332592718594 9.275611599390981 1.231663973110689 0 0 0
1626 4 14.327398191071138 10.03032383620466 -0.2825224807204267 0 0 0
1624 18 15.814397201531703 10.213744970900345 1.4276904478381225 0 0 0
1616 13 13.091539722472117 7.82959437570043 1.9311239228536248 0 0 0
1622 1 15.636940249396469 6.26917593059496 1.8040570850757547 0 0 0
1625 3 14.30477684857175 9.436516822160831 2.9231682829810937 0 0 0
1627 19 17.34783813825719 6.0364324423415505 1.4076634593303738 0 0 0
1632 16 17.310551428612293 9.917850909011767 1.5404914104904572 0 0 0
1631 15 17.14558661411318 10.757548420792757 1.708101653336593 0 0 0
1789 17 13.802000128711915 11.135038510786263 1.5716274999923452 0 0 0
1629 14 19.80329007466144 7.235068713047539 1.7188354505491625 0 0 0
1635 2 22.89491152987762 7.235656707405795 0.3023765496499308 0 0 0
1630 20 19.8830104195565 9.275611599390814 1.2316639731106502 0 0 0
1638 4 21.411076017908858 10.030323836204596 -0.282522480720217 0 0 0
1636 18 22.898075028369345 10.213744970899873 1.4276904478379726 0 0 0
1628 13 20.175217549310094 7.829594375700106 1.9311239228536659 0 0 0
1634 1 22.720618076234572 6.269175930595745 1.8040570850760214 0 0 0
1637 3 21.38845467540964 9.436516822160916 2.92316828298077 0 0 0
1801 17 20.885677955549607 11.135038510785709 1.5716274999922548 0 0 0
1639 19 24.431515965092473 6.036432442340231 1.4076634593310196 0 0 0
1641 14 26.88696790149965 7.235068713048977 1.7188354505487495 0 0 0
1644 16 24.394229255449087 9.917850909010843 1.5404914104909369 0 0 0
1642 20 26.96668824639497 9.275611599390922 1.2316639731111836 0 0 0
1650 4 28.494753844747045 10.030323836204923 -0.28252248071985586 0 0 0
1640 13 27.258895376148917 7.829594375700822 1.9311239228539907 0 0 0
1643 15 24.229264440950924 10.757548420792455 1.7081016533371245 0 0 0
1649 3 28.47213250224813 9.436516822161726 2.9231682829812002 0 0 0
1813 17 27.9693557823881 11.13503851078634 1.5716274999925344 0 0 0
1651 19 31.51519379193129 6.036432442340622 1.407663459331249 0 0 0
1647 2 29.97858935671595 7.23565670740563 0.30237654965024174 0 0 0
1653 14 33.970645728337594 7.235068713048434 1.718835450548864 0 0 0
1648 18 29.981752855207723 10.213744970900338 1.4276904478381556 0 0 0
1656 16 31.477907082287174 9.917850909011328 1.5404914104909433 0 0 0
1654 20 34.05036607323269 9.275611599390974 1.231663973110994 0 0 0
1646 1 29.804295903073125 6.269175930596527 1.8040570850758826 0 0 0
1652 13 34.342573202986614 7.829594375700624 1.9311239228536692 0 0 0
1655 15 31.31294226778959 10.757548420793054 1.7081016533368962 0 0 0
1663 19 38.598871618768534 6.036432442339873 1.4076634593312458 0 0 0
1659 2 37.062267183553864 7.235656707405683 0.30237654965016664 0 0 0
1662 4 35.57843167158483 10.030323836205008 -0.28252248072008146 0 0 0
1660 18 37.06543068204559 10.213744970900294 1.4276904478380281 0 0 0
1668 16 38.56158490912501 9.917850909010962 1.5404914104911616 0 0 0
1658 1 36.88797372991085 6.269175930596188 1.8040570850758657 0 0 0
1661 3 35.55581032908594 9.436516822161302 2.9231682829810697 0 0 0
1667 15 38.39662009462731 10.757548420792778 1.7081016533371556 0 0 0
1825 17 35.053033609225935 11.135038510786323 1.5716274999925652 0 0 0
1665 14 41.05432355517563 7.2350687130489595 1.7188354505487065 0 0 0
1666 20 41.13404390007077 9.275611599391135 1.2316639731112036 0 0 0
1664 13 41.42625102982474 7.8295943757009265 1.9311239228537562 0 0 0
1675 19 45.682549445605915 6.036432442339823 1.4076634593314434 0 0 0
1671 2 44.14594501039165 7.23565670740579 0.3023765496499654 0 0 0
1674 4 42.662109498422794 10.030323836205278 -0.282522480719861 0 0 0
1672 18 44.14910850888362 10.213744970900375 1.4276904478381172 0 0 0
1680 16 45.64526273596282 9.917850909010838 1.540491410491172 0 0 0
1670 1 43.97165155674887 6.269175930595932 1.8040570850759052 0 0 0
1673 3 42.63948815592404 9.43651682216165 2.923168282981181 0 0 0
1679 15 45.48029792146555 10.757548420792881 1.7081016533371298 0 0 0
1837 17 42.136711436064104 11.13503851078655 1.571627499992752 0 0 0
1677 14 48.13800138201391 7.235068713048954 1.7188354505486132 0 0 0
1515 2 51.229622837229414 7.235656707405887 0.30237654964978333 -1 0 0
1678 20 48.217721726908835 9.275611599391091 1.2316639731113066 0 0 0
1518 4 49.74578732526082 10.03032383620523 -0.2825224807198527 -1 0 0
1516 18 51.232786335721705 10.213744970900395 1.42769044783811 -1 0 0
1676 13 48.50992885666307 7.829594375700902 1.931123922853732 0 0 0
1514 1 51.055329383587086 6.269175930596413 1.804057085076059 -1 0 0
1517 3 49.72316598276214 9.436516822161643 2.9231682829812597 -1 0 0
1681 17 49.22038926290215 11.13503851078658 1.5716274999927935 -1 0 0
1519 19 52.76622727244335 6.036432442339863 1.4076634593316526 -1 0 0
1521 14 55.221679208852066 7.235068713049078 1.718835450548557 -1 0 0
1524 16 52.72894056280062 9.917850909010612 1.540491410491111 -1 0 0
1522 20 55.30139955374705 9.275611599391025 1.2316639731113792 -1 0 0
1530 4 56.82946515209894 10.030323836205188 -0.28252248071960556 -1 0 0
1520 13 55.593606683501335 7.829594375700918 1.9311239228538002 -1 0 0
1523 15 52.56397574830361 10.757548420792887 1.7081016533371163 -1 0 0
1529 3 56.80684380960031 9.436516822161929 2.9231682829811647 -1 0 0
1527 2 58.31330066406756 7.235656707405809 0.3023765496499356 -1 0 0
1528 18 58.316464162559726 10.21374497090016 1.4276904478381336 -1 0 0
1526 1 58.13900721042533 6.269175930596733 1.8040570850760564 -1 0 0
1693 17 56.30406708974024 11.13503851078634 1.5716274999927453 -1 0 0
1531 19 59.84990509928198 6.036432442340263 1.4076634593316546 -1 0 0
1533 14 62.305357035689994 7.23506871304841 1.7188354505486625 -1 0 0
1536 16 59.81261838963875 9.917850909010882 1.5404914104910283 -1 0 0
1534 20 62.385077380584704 9.275611599391 1.2316639731111594 -1 0 0
1542 4 63.913142978936655 10.030323836205216 -0.28252248071977143 -1 0 0
1532 13 62.677284510338886 7.82959437570069 1.9311239228535388 -1 0 0
1535 15 59.64765357514184 10.7575484207929 1.7081016533369968 -1 0 0
1541 3 63.890521636437995 9.436516822161568 2.9231682829809476 -1 0 0
1705 17 63.38774491657799 11.135038510786186 1.5716274999927136 -1 0 0
1543 19 66.93358292612147 6.036432442338629 1.4076634593311392 -1 0 0
1539 2 65.3969784909068 7.235656707405292 0.3023765496509839 -1 0 0
1545 14 69.38903486252714 7.235068713049405 1.718835450548549 -1 0 0
1540 18 65.40014198939747 10.213744970899974 1.4276904478379668 -1 0 0
1548 16 66.89629621647707 9.917850909011237 1.5404914104914813 -1 0 0
1546 20 69.46875520742229 9.27561159939169 1.2316639731111443 -1 0 0
1538 1 65.22268503726329 6.269175930596033 1.8040570850757063 -1 0 0
1544 13 69.760962337176 7.829594375701483 1.9311239228533479 -1 0 0
1547 15 66.73133140197947 10.757548420792537 1.70810165333731 -1 0 0
1555 19 74.01726075295878 6.036432442340077 1.407663459331133 -1 0 0
1551 2 72.48065631774385 7.235656707405648 0.3023765496501495 -1 0 0
1554 4 70.99682080577459 10.030323836205984 -0.2825224807205673 -1 0 0
1552 18 72.48381981623585 10.213744970901661 1.4276904478381933 -1 0 0
1560 16 73.97997404331575 9.917850909011245 1.540491410491463 -1 0 0
1550 1 72.30636286409985 6.269175930593513 1.8040570850757278 -1 0 0
1553 3 70.97419946327588 9.436516822160975 2.9231682829816994 -1 0 0
1559 15 73.81500922881736 10.757548420793388 1.708101653337299 -1 0 0
1717 17 70.47142274341626 11.135038510787968 1.5716274999932294 -1 0 0
1567 19 81.1009385797912 6.0364324423370626 1.4076634593324646 -1 0 0
1557 14 76.47271268936514 7.235068713048783 1.7188354505488577 -1 0 0
1563 2 79.56433414458078 7.235656707406259 0.30237654964910615 -1 0 0
1558 20 76.55243303426033 9.275611599390933 1.2316639731110288 -1 0 0
1566 4 78.08049863261223 10.030323836205348 -0.2825224807203182 -1 0 0
1564 18 79.56749764307328 10.213744970900867 1.4276904478378118 -1 0 0
1572 16 81.06365187015093 9.917850909009523 1.5404914104921061 -1 0 0
1556 13 76.84464016401448 7.829594375700666 1.9311239228537795 -1 0 0
1562 1 79.3900406909386 6.269175930597596 1.8040570850762436 -1 0 0
1565 3 78.05787729011378 9.436516822161298 2.9231682829811185 -1 0 0
1571 15 80.89868705565475 10.757548420793102 1.7081016533381097 -1 0 0
1729 17 77.55510057025352 11.135038510786751 1.5716274999926805 -1 0 0
1569 14 83.55639051620416 7.23506871305154 1.7188354505477461 -1 0 0
1575 2 86.6480119714194 7.2356567074059015 0.30237654964973626 -1 0 0
1570 20 83.6361108610995 9.275611599391386 1.2316639731122094 -1 0 0
1578 4 85.16417645945087 10.030323836206211 -0.2825224807192948 -1 0 0
1576 18 86.65117546991222 10.213744970901494 1.4276904478383436 -1 0 0
1568 13 83.92831799085438 7.829594375702182 1.9311239228540904 -1 0 0
1574 1 86.4737185177779 6.2691759305973065 1.8040570850758673 -1 0 0
1577 3 85.14155511695297 9.436516822162952 2.9231682829819894 -1 0 0
1741 17 84.63877839709288 11.13503851078791 1.5716274999934812 -1 0 0
1579 19 88.1846164066328 6.03643244233994 1.4076634593324022 -1 0 0
1581 14 90.64006834304199 7.235068713049166 1.718835450548784 -1 0 0
1584 16 88.14732969699013 9.91785090901095 1.5404914104916005 -1 0 0
1582 20 90.71978868793714 9.27561159939101 1.23166397311129 -1 0 0
1590 4 92.24785428628897 10.030323836205362 -0.28252248072007025 -1 0 0
1580 13 91.01199581769153 7.829594375701024 1.9311239228537316 -1 0 0
1583 15 87.98236488249461 10.757548420794139 1.70810165333718 -1 0 0
1589 3 92.22523294379054 9.43651682216178 2.9231682829812597 -1 0 0
1753 17 91.72245622393031 11.135038510786876 1.5716274999926947 -1 0 0
1591 19 95.26829423347384 6.036432442340409 1.4076634593313908 -1 0 0
1587 2 93.73168979825833 7.235656707405434 0.30237654965063354 -1 0 0
1593 14 97.72374616987904 7.235068713048897 1.7188354505492052 -1 0 0
1588 18 93.73485329674998 10.213744970900935 1.4276904478379056 -1 0 0
1596 16 95.23100752382919 9.917850909011705 1.540491410491305 -1 0 0
1594 20 97.80346651477478 9.275611599391034 1.231663973110806 -1 0 0
1586 1 93.5573963446155 6.269175930596563 1.8040570850758537 -1 0 0
1592 13 98.09567364452838 7.829594375700926 1.931123922853853 -1 0 0
1595 15 95.06604270933185 10.757548420793574 1.708101653336965 -1 0 0
1765 17 98.80613405076807 11.135038510787012 1.571627499992399 -1 0 0
1767 2 1.6438780493644007 13.37030165767139 0.3023765496506969 0 0 0
1771 19 3.1804824845812054 12.171077392607174 1.4076634593305302 0 0 0
1773 14 5.635934420985669 13.369713663313515 1.7188354505493149 0 0 0
1768 18 1.647041547856061 16.348389921167257 1.427690447838187 0 0 0
1774 20 5.7156547658806245 15.410256549657168 1.23166397311055 0 0 0
1770 4 0.16004253739501523 16.16496878647187 -0.2825224807201257 0 0 0
1776 16 3.1431957749361925 16.05249585927814 1.54049141049083 0 0 0
1766 1 1.4695845957206124 12.403820880859756 1.8040570850755113 0 0 0
1769 3 0.13742119489626325 15.571161772427777 2.9231682829814907 0 0 0
1775 15 2.9782309604379833 16.892193371059527 1.7081016533365272 0 0 0
1772 13 6.007861895634167 13.964239325966348 1.9311239228534447 0 0 0
1779 2 8.727555876202345 13.37030165767142 0.3023765496506227 0 0 0
1783 19 10.26416031141926 12.171077392607156 1.4076634593302497 0 0 0
1780 18 8.730719374693628 16.34838992116617 1.4276904478378822 0 0 0
1782 4 7.243720364233042 16.164968786470943 -0.2825224807204162 0 0 0
1788 16 10.22687360177419 16.052495859277784 1.540491410490991 0 0 0
1778 1 8.553262422558616 12.40382088085982 1.8040570850758004 0 0 0
1781 3 7.221099021733846 15.571161772426953 2.9231682829807326 0 0 0
1787 15 10.061908787275247 16.892193371058625 1.7081016533368427 0 0 0
1945 17 6.718322301873931 17.26968346105211 1.5716274999922804 0 0 0
1785 14 12.719612247823166 13.369713663314005 1.7188354505494898 0 0 0
1791 2 15.811233703040594 13.370301657671302 0.3023765496508324 0 0 0
1786 20 12.799332592718667 15.410256549657053 1.2316639731105852 0 0 0
1792 18 15.814397201531719 16.348389921166515 1.4276904478379868 0 0 0
1794 4 14.327398191071195 16.1649687864707 -0.28252248072054686 0 0 0
1784 13 13.091539722471934 13.964239325966531 1.9311239228539907 0 0 0
1790 1 15.636940249396469 12.40382088085958 1.80405708507584 0 0 0
1793 3 14.304776848571786 15.571161772427073 2.923168282980975 0 0 0
1795 19 17.347838138258012 12.17107739260741 1.4076634593301733 0 0 0
1800 16 17.310551428612385 16.052495859278185 1.5404914104909848 0 0 0
1799 15 17.14558661411317 16.89219337105898 1.708101653336752 0 0 0
1957 17 13.802000128711892 17.26968346105234 1.5716274999921316 0 0 0
1797 14 19.80329007466095 13.369713663313663 1.7188354505494734 0 0 0
1803 2 22.89491152987801 13.37030165767162 0.30237654965028643 0 0 0
1798 20 19.883010419556353 15.410256549657046 1.2316639731104906 0 0 0
1804 18 22.89807502836931 16.348389921166124 1.4276904478378927 0 0 0
1806 4 21.41107601790879 16.164968786470833 -0.2825224807204226 0 0 0
1796 13 20.175217549309526 13.964239325966306 1.931123922853785 0 0 0
1802 1 22.72061807623409 12.403820880860112 1.8040570850759376 0 0 0
1805 3 21.38845467540952 15.571161772426924 2.9231682829807095 0 0 0
1969 17 20.885677955549575 17.269683461051997 1.5716274999922157 0 0 0
1807 19 24.43151596509336 12.171077392605943 1.407663459330583 0 0 0
1809 14 26.886967901499425 13.369713663314947 1.7188354505488808 0 0 0
1810 20 26.96668824639476 15.41025654965722 1.231663973111066 0 0 0
1812 16 24.394229255449407 16.05249585927723 1.5404914104912073 0 0 0
1818 4 28.494753844746953 16.16496878647123 -0.28252248072006236 0 0 0
1808 13 27.25889537614844 13.964239325967 1.9311239228538988 0 0 0
1811 15 24.229264440950825 16.892193371058553 1.7081016533371938 0 0 0
1817 3 28.472132502247987 15.571161772427581 2.9231682829812056 0 0 0
1981 17 27.96935578238811 17.269683461052697 1.5716274999926225 0 0 0
1815 2 29.978589356716146 13.370301657671531 0.30237654965043476 0 0 0
1819 19 31.515193791931846 12.171077392606415 1.4076634593308481 0 0 0
1821 14 33.97064572833747 13.369713663314384 1.7188354505490755 0 0 0
1816 18 29.98175285520772 16.348389921166586 1.4276904478381214 0 0 0
1822 20 34.05036607323257 15.410256549657177 1.2316639731109247 0 0 0
1824 16 31.477907082287537 16.052495859277503 1.5404914104912304 0 0 0
1814 1 29.804295903072727 12.403820880860751 1.8040570850757351 0 0 0
1820 13 34.34257320298629 13.964239325966734 1.9311239228537456 0 0 0
1823 15 31.31294226778951 16.89219337105903 1.7081016533370075 0 0 0
1827 2 37.062267183553864 13.370301657671678 0.3023765496501718 0 0 0
1831 19 38.59887161876871 12.171077392605875 1.4076634593310227 0 0 0
1828 18 37.06543068204557 16.348389921166444 1.4276904478380252 0 0 0
1830 4 35.57843167158479 16.164968786471178 -0.2825224807202005 0 0 0
1836 16 38.561584909125166 16.05249585927703 1.5404914104913066 0 0 0
1826 1 36.88797372991063 12.403820880860307 1.8040570850758817 0 0 0
1829 3 35.55581032908586 15.57116177242729 2.92316828298108 0 0 0
1835 15 38.39662009462726 16.892193371058784 1.7081016533371747 0 0 0
1993 17 35.05303360922594 17.269683461052537 1.5716274999925897 0 0 0
1833 14 41.054323555175706 13.369713663314874 1.7188354505488335 0 0 0
1834 20 41.13404390007071 15.410256549657221 1.2316639731111814 0 0 0
1832 13 41.426251029824684 13.964239325966979 1.9311239228538253 0 0 0
1839 2 44.14594501039181 13.3703016576717 0.30237654965013316 0 0 0
1843 19 45.6825494456067 12.171077392606135 1.4076634593311723 0 0 0
1840 18 44.14910850888377 16.348389921166703 1.4276904478381283 0 0 0
1842 4 42.662109498422865 16.164968786471267 -0.2825224807201148 0 0 0
1848 16 45.64526273596318 16.052495859277066 1.5404914104912948 0 0 0
1838 1 43.97165155674885 12.403820880860623 1.8040570850759428 0 0 0
1841 3 42.63948815592404 15.571161772427484 2.923168282981361 0 0 0
1847 15 45.48029792146548 16.892193371059005 1.7081016533371294 0 0 0
2005 17 42.13671143606415 17.26968346105287 1.5716274999927498 0 0 0
1845 14 48.13800138201374 13.369713663314728 1.7188354505488925 0 0 0
1683 2 51.22962283722974 13.370301657671726 0.30237654965007554 -1 0 0
1846 20 48.21772172690883 15.410256549657175 1.2316639731111259 0 0 0
1684 18 51.23278633572164 16.348389921166266 1.4276904478380552 -1 0 0
1686 4 49.745787325260885 16.164968786471253 -0.2825224807198867 -1 0 0
1844 13 48.50992885666273 13.96423932596688 1.9311239228538306 0 0 0
1682 1 51.055329383586965 12.403820880860577 1.8040570850759132 -1 0 0
1685 3 49.72316598276209 15.571161772427695 2.9231682829810657 -1 0 0
1849 17 49.2203892629021 17.26968346105243 1.571627499992655 -1 0 0
1687 19 52.76622727244463 12.171077392606247 1.4076634593311932 -1 0 0
1689 14 55.22167920885171 13.36971366331485 1.7188354505489247 -1 0 0
1690 20 55.30139955374693 15.410256549657138 1.231663973111148 -1 0 0
1692 16 52.728940562800986 16.052495859277013 1.5404914104912777 -1 0 0
1698 4 56.82946515209898 16.164968786471196 -0.2825224807198782 -1 0 0
1688 13 55.59360668350084 13.96423932596691 1.931123922853892 -1 0 0
1691 15 52.5639757483036 16.89219337105884 1.7081016533371252 -1 0 0
1697 3 56.80684380960017 15.571161772427738 2.923168282981115 -1 0 0
1695 2 58.313300664067924 13.370301657671643 0.3023765496502313 -1 0 0
1696 18 58.31646416255973 16.34838992116635 1.4276904478380688 -1 0 0
1694 1 58.139007210425014 12.403820880861117 1.8040570850758897 -1 0 0