LAMMPS data file via write_data, version 29 Aug 2024, timestep = 0, units = metal

2688 atoms
12 atom types

0 99.171489575732 xlo xhi
0 98.154319204256 ylo yhi
0 17.137256525367 zlo zhi

Masses

1 32.06
2 32.06
3 32.06
4 58.6934
5 32.06
6 32.06
7 32.06
8 32.06
9 58.6934
10 58.6934
11 58.6934
12 32.06

Atoms # atomic

1429 9 0 0 1.067510887047999 0 0 0
1431 2 1.7709194567090023 1.0224408250440007 0 0 0 0
1435 11 3.5418389134189994 0 1.067510887047999 0 0 0
1437 6 5.312758370128002 1.0224408250440007 0 0 0 0
1441 9 7.083677826837999 0 1.067510887047999 0 0 0
1443 2 8.854597283547001 1.0224408250440007 0 0 0 0
1447 11 10.625516740257005 0 1.067510887047999 0 0 0
1449 6 12.396436196966 1.0224408250440007 0 0 0 0
1453 9 14.167355653676005 0 1.067510887047999 0 0 0
1455 2 15.938275110385 1.0224408250440007 0 0 0 0
1459 11 17.709194567095004 0 1.067510887047999 0 0 0
1461 6 19.480114023804 1.0224408250440007 0 0 0 0
1465 9 21.251033480514003 0 1.067510887047999 0 0 0
1467 2 23.021952937223 1.0224408250440007 0 0 0 0
1471 11 24.792872393933003 0 1.067510887047999 0 0 0
1473 6 26.563791850641998 1.0224408250440007 0 0 0 0
1477 9 28.334711307352002 0 1.067510887047999 0 0 0
1479 2 30.105630764060997 1.0224408250440007 0 0 0 0
1483 11 31.876550220771 0 1.067510887047999 0 0 0
1485 6 33.64746967748 1.0224408250440007 0 0 0 0
1489 9 35.41838913419 0 1.067510887047999 0 0 0
1491 2 37.189308590898996 1.0224408250440007 0 0 0 0
1495 11 38.960228047609 0 1.067510887047999 0 0 0
1497 6 40.731147504317995 1.0224408250440007 0 0 0 0
1501 9 42.502066961028 0 1.067510887047999 0 0 0
1503 2 44.272986417736995 1.0224408250440007 0 0 0 0
1507 11 46.043905874447 0 1.067510887047999 0 0 0
1509 6 47.81482533115601 1.0224408250440007 0 0 0 0
1345 9 49.585744787866 0 1.067510887047999 -1 0 0
1347 2 51.356664244575 1.0224408250440007 0 -1 0 0
1351 11 53.127583701285 0 1.067510887047999 -1 0 0
1353 6 54.898503157994 1.0224408250440007 0 -1 0 0
1357 9 56.669422614704 0 1.067510887047999 -1 0 0
1359 2 58.440342071413 1.0224408250440007 0 -1 0 0
1363 11 60.211261528122996 0 1.067510887047999 -1 0 0
1365 6 61.982180984832 1.0224408250440007 0 -1 0 0
1369 9 63.753100441541996 0 1.067510887047999 -1 0 0
1371 2 65.524019898251 1.0224408250440007 0 -1 0 0
1375 11 67.294939354961 0 1.067510887047999 -1 0 0
1377 6 69.06585881167 1.0224408250440007 0 -1 0 0
1381 9 70.83677826838 0 1.067510887047999 -1 0 0
1383 2 72.607697725089 1.0224408250440007 0 -1 0 0
1387 11 74.378617181799 0 1.067510887047999 -1 0 0
1389 6 76.149536638508 1.0224408250440007 0 -1 0 0
1393 9 77.920456095218 0 1.067510887047999 -1 0 0
1395 2 79.691375551927 1.0224408250440007 0 -1 0 0
1399 11 81.462295008637 0 1.067510887047999 -1 0 0
1401 6 83.233214465346 1.0224408250440007 0 -1 0 0
1405 9 85.004133922056 0 1.067510887047999 -1 0 0
1407 2 86.775053378765 1.0224408250440007 0 -1 0 0
1411 11 88.545972835475 0 1.067510887047999 -1 0 0
1413 6 90.31689229218401 1.0224408250440007 0 -1 0 0
1417 9 92.087811748894 0 1.067510887047999 -1 0 0
1419 2 93.858731205603 1.0224408250440007 0 -1 0 0
1423 11 95.629650662313 0 1.067510887047999 -1 0 0
1425 6 97.400570119022 1.0224408250440007 0 -1 0 0
1432 10 1.7709194567100042 3.067322475133004 1.067510887047999 0 0 0
1438 12 5.3127583701290035 3.067322475133004 1.067510887047999 0 0 0
1444 10 8.854597283548003 3.067322475133004 1.067510887047999 0 0 0
1450 12 12.396436196967002 3.067322475133004 1.067510887047999 0 0 0
1456 10 15.938275110386009 3.067322475133004 1.067510887047999 0 0 0
1462 12 19.480114023805008 3.067322475133004 1.067510887047999 0 0 0
1468 10 23.021952937224007 3.067322475133004 1.067510887047999 0 0 0
1474 12 26.563791850643007 3.067322475133004 1.067510887047999 0 0 0
1480 10 30.105630764062006 3.067322475133004 1.067510887047999 0 0 0
1486 12 33.647469677481006 3.067322475133004 1.067510887047999 0 0 0
1492 10 37.189308590900005 3.067322475133004 1.067510887047999 0 0 0
1498 12 40.731147504319004 3.067322475133004 1.067510887047999 0 0 0
1504 10 44.272986417738004 3.067322475133004 1.067510887047999 0 0 0
1510 12 47.814825331157 3.067322475133004 1.067510887047999 0 0 0
1348 10 51.356664244575995 3.067322475133004 1.067510887047999 -1 0 0
1354 12 54.898503157994995 3.067322475133004 1.067510887047999 -1 0 0
1360 10 58.440342071413994 3.067322475133004 1.067510887047999 -1 0 0
1366 12 61.982180984833 3.067322475133004 1.067510887047999 -1 0 0
1372 10 65.52401989825199 3.067322475133004 1.067510887047999 -1 0 0
1378 12 69.065858811671 3.067322475133004 1.067510887047999 -1 0 0
1384 10 72.60769772508999 3.067322475133004 1.067510887047999 -1 0 0
1390 12 76.149536638509 3.067322475133004 1.067510887047999 -1 0 0
1396 10 79.69137555192799 3.067322475133004 1.067510887047999 -1 0 0
1402 12 83.233214465347 3.067322475133004 1.067510887047999 -1 0 0
1408 10 86.77505337876599 3.067322475133004 1.067510887047999 -1 0 0
1414 12 90.316892292185 3.067322475133004 1.067510887047999 -1 0 0
1420 10 93.85873120560399 3.067322475133004 1.067510887047999 -1 0 0
1426 12 97.400570119023 3.067322475133004 1.067510887047999 -1 0 0
1434 4 0 4.0897633001769975 0 0 0 0
1440 8 3.5418389134189994 4.0897633001769975 0 0 0 0
1446 4 7.083677826837999 4.0897633001769975 0 0 0 0
1452 8 10.625516740257005 4.0897633001769975 0 0 0 0
1458 4 14.167355653676005 4.0897633001769975 0 0 0 0
1464 8 17.709194567095004 4.0897633001769975 0 0 0 0
1470 4 21.251033480514003 4.0897633001769975 0 0 0 0
1476 8 24.792872393933003 4.0897633001769975 0 0 0 0
1482 4 28.334711307352002 4.0897633001769975 0 0 0 0
1488 8 31.876550220771 4.0897633001769975 0 0 0 0
1494 4 35.41838913419 4.0897633001769975 0 0 0 0
1500 8 38.960228047609 4.0897633001769975 0 0 0 0
1506 4 42.502066961028 4.0897633001769975 0 0 0 0
1512 8 46.043905874447 4.0897633001769975 0 0 0 0
1350 4 49.585744787866 4.0897633001769975 0 -1 0 0
1356 8 53.127583701285 4.0897633001769975 0 -1 0 0
1362 4 56.669422614704 4.0897633001769975 0 -1 0 0
1368 8 60.211261528122996 4.0897633001769975 0 -1 0 0
1374 4 63.753100441541996 4.0897633001769975 0 -1 0 0
1380 8 67.294939354961 4.0897633001769975 0 -1 0 0
1386 4 70.83677826838 4.0897633001769975 0 -1 0 0
1392 8 74.378617181799 4.0897633001769975 0 -1 0 0
1398 4 77.920456095218 4.0897633001769975 0 -1 0 0
1404 8 81.462295008637 4.0897633001769975 0 -1 0 0
1410 4 85.004133922056 4.0897633001769975 0 -1 0 0
1416 8 88.545972835475 4.0897633001769975 0 -1 0 0
1422 4 92.087811748894 4.0897633001769975 0 -1 0 0
1428 8 95.629650662313 4.0897633001769975 0 -1 0 0
1597 9 0 6.134644950266001 1.067510887047999 0 0 0
1603 11 3.5418389134189994 6.134644950266001 1.067510887047999 0 0 0
1609 9 7.083677826837999 6.134644950266001 1.067510887047999 0 0 0
1615 11 10.625516740257005 6.134644950266001 1.067510887047999 0 0 0
1621 9 14.167355653676005 6.134644950266001 1.067510887047999 0 0 0
1627 11 17.709194567095004 6.134644950266001 1.067510887047999 0 0 0
1633 9 21.251033480514003 6.134644950266001 1.067510887047999 0 0 0
1639 11 24.792872393933003 6.134644950266001 1.067510887047999 0 0 0
1645 9 28.334711307352002 6.134644950266001 1.067510887047999 0 0 0
1651 11 31.876550220771 6.134644950266001 1.067510887047999 0 0 0
1657 9 35.41838913419 6.134644950266001 1.067510887047999 0 0 0
1663 11 38.960228047609 6.134644950266001 1.067510887047999 0 0 0
1669 9 42.502066961028 6.134644950266001 1.067510887047999 0 0 0
1675 11 46.043905874447 6.134644950266001 1.067510887047999 0 0 0
1513 9 49.585744787866 6.134644950266001 1.067510887047999 -1 0 0
1519 11 53.127583701285 6.134644950266001 1.067510887047999 -1 0 0
1525 9 56.669422614704 6.134644950266001 1.067510887047999 -1 0 0
1531 11 60.211261528122996 6.134644950266001 1.067510887047999 -1 0 0
1537 9 63.753100441541996 6.134644950266001 1.067510887047999 -1 0 0
1543 11 67.294939354961 6.134644950266001 1.067510887047999 -1 0 0
1549 9 70.83677826838 6.134644950266001 1.067510887047999 -1 0 0
1555 11 74.378617181799 6.134644950266001 1.067510887047999 -1 0 0
1561 9 77.920456095218 6.134644950266001 1.067510887047999 -1 0 0
1567 11 81.462295008637 6.134644950266001 1.067510887047999 -1 0 0
1573 9 85.004133922056 6.134644950266001 1.067510887047999 -1 0 0
1579 11 88.545972835475 6.134644950266001 1.067510887047999 -1 0 0
1585 9 92.087811748894 6.134644950266001 1.067510887047999 -1 0 0
1591 11 95.629650662313 6.134644950266001 1.067510887047999 -1 0 0
1599 2 1.7709194567090023 7.1570857753100015 0 0 0 0
1605 6 5.312758370128002 7.1570857753100015 0 0 0 0
1611 2 8.854597283547001 7.1570857753100015 0 0 0 0
1617 6 12.396436196966 7.1570857753100015 0 0 0 0
1623 2 15.938275110385 7.1570857753100015 0 0 0 0
1629 6 19.480114023804 7.1570857753100015 0 0 0 0
1635 2 23.021952937223 7.1570857753100015 0 0 0 0
1641 6 26.563791850641998 7.1570857753100015 0 0 0 0
1647 2 30.105630764060997 7.1570857753100015 0 0 0 0
1653 6 33.64746967748 7.1570857753100015 0 0 0 0
1659 2 37.189308590898996 7.1570857753100015 0 0 0 0
1665 6 40.731147504317995 7.1570857753100015 0 0 0 0
1671 2 44.272986417736995 7.1570857753100015 0 0 0 0
1677 6 47.81482533115601 7.1570857753100015 0 0 0 0
1515 2 51.356664244575 7.1570857753100015 0 -1 0 0
1521 6 54.898503157994 7.1570857753100015 0 -1 0 0
1527 2 58.440342071413 7.1570857753100015 0 -1 0 0
1533 6 61.982180984832 7.1570857753100015 0 -1 0 0
1539 2 65.524019898251 7.1570857753100015 0 -1 0 0
1545 6 69.06585881167 7.1570857753100015 0 -1 0 0
1551 2 72.607697725089 7.1570857753100015 0 -1 0 0
1557 6 76.149536638508 7.1570857753100015 0 -1 0 0
1563 2 79.691375551927 7.1570857753100015 0 -1 0 0
1569 6 83.233214465346 7.1570857753100015 0 -1 0 0
1575 2 86.775053378765 7.1570857753100015 0 -1 0 0
1581 6 90.31689229218401 7.1570857753100015 0 -1 0 0
1587 2 93.858731205603 7.1570857753100015 0 -1 0 0
1593 6 97.400570119022 7.1570857753100015 0 -1 0 0
1602 4 0 10.224408250442998 0 0 0 0
1600 10 1.7709194567100042 9.201967425398998 1.067510887047999 0 0 0
1608 8 3.5418389134189994 10.224408250442998 0 0 0 0
1606 12 5.3127583701290035 9.201967425398998 1.067510887047999 0 0 0
1614 4 7.083677826837999 10.224408250442998 0 0 0 0
1612 10 8.854597283548003 9.201967425398998 1.067510887047999 0 0 0
1620 8 10.625516740257005 10.224408250442998 0 0 0 0
1618 12 12.396436196967002 9.201967425398998 1.067510887047999 0 0 0
1626 4 14.167355653676005 10.224408250442998 0 0 0 0
1624 10 15.938275110386009 9.201967425398998 1.067510887047999 0 0 0
1632 8 17.709194567095004 10.224408250442998 0 0 0 0
1630 12 19.480114023805008 9.201967425398998 1.067510887047999 0 0 0
1638 4 21.251033480514003 10.224408250442998 0 0 0 0
1636 10 23.021952937224007 9.201967425398998 1.067510887047999 0 0 0
1644 8 24.792872393933003 10.224408250442998 0 0 0 0
1642 12 26.563791850643007 9.201967425398998 1.067510887047999 0 0 0
1650 4 28.334711307352002 10.224408250442998 0 0 0 0
1648 10 30.105630764062006 9.201967425398998 1.067510887047999 0 0 0
1656 8 31.876550220771 10.224408250442998 0 0 0 0
1654 12 33.647469677481006 9.201967425398998 1.067510887047999 0 0 0
1662 4 35.41838913419 10.224408250442998 0 0 0 0
1660 10 37.189308590900005 9.201967425398998 1.067510887047999 0 0 0
1668 8 38.960228047609 10.224408250442998 0 0 0 0
1666 12 40.731147504319004 9.201967425398998 1.067510887047999 0 0 0
1674 4 42.502066961028 10.224408250442998 0 0 0 0
1672 10 44.272986417738004 9.201967425398998 1.067510887047999 0 0 0
1680 8 46.043905874447 10.224408250442998 0 0 0 0
1678 12 47.814825331157 9.201967425398998 1.067510887047999 0 0 0
1518 4 49.585744787866 10.224408250442998 0 -1 0 0
1516 10 51.356664244575995 9.201967425398998 1.067510887047999 -1 0 0
1524 8 53.127583701285 10.224408250442998 0 -1 0 0
1522 12 54.898503157994995 9.201967425398998 1.067510887047999 -1 0 0
1530 4 56.669422614704 10.224408250442998 0 -1 0 0
1528 10 58.440342071413994 9.201967425398998 1.067510887047999 -1 0 0
1536 8 60.211261528122996 10.224408250442998 0 -1 0 0
1534 12 61.982180984833 9.201967425398998 1.067510887047999 -1 0 0
1542 4 63.753100441541996 10.224408250442998 0 -1 0 0
1540 10 65.52401989825199 9.201967425398998 1.067510887047999 -1 0 0
1548 8 67.294939354961 10.224408250442998 0 -1 0 0
1546 12 69.065858811671 9.201967425398998 1.067510887047999 -1 0 0
1554 4 70.83677826838 10.224408250442998 0 -1 0 0
1552 10 72.60769772508999 9.201967425398998 1.067510887047999 -1 0 0
1560 8 74.378617181799 10.224408250442998 0 -1 0 0
1558 12 76.149536638509 9.201967425398998 1.067510887047999 -1 0 0
1566 4 77.920456095218 10.224408250442998 0 -1 0 0
1564 10 79.69137555192799 9.201967425398998 1.067510887047999 -1 0 0
1572 8 81.462295008637 10.224408250442998 0 -1 0 0
1570 12 83.233214465347 9.201967425398998 1.067510887047999 -1 0 0
1578 4 85.004133922056 10.224408250442998 0 -1 0 0
1576 10 86.77505337876599 9.201967425398998 1.067510887047999 -1 0 0
1584 8 88.545972835475 10.224408250442998 0 -1 0 0
1582 12 90.316892292185 9.201967425398998 1.067510887047999 -1 0 0
1590 4 92.087811748894 10.224408250442998 0 -1 0 0
1588 10 93.85873120560399 9.201967425398998 1.067510887047999 -1 0 0
1596 8 95.629650662313 10.224408250442998 0 -1 0 0
1594 12 97.400570119023 9.201967425398998 1.067510887047999 -1 0 0
1765 9 0 12.269289900532002 1.067510887047999 0 0 0
1767 2 1.7709194567090023 13.291730725576002 0 0 0 0
1771 11 3.5418389134189994 12.269289900532002 1.067510887047999 0 0 0
1773 6 5.312758370128002 13.291730725576002 0 0 0 0
1777 9 7.083677826837999 12.269289900532002 1.067510887047999 0 0 0
1779 2 8.854597283547001 13.291730725576002 0 0 0 0
1783 11 10.625516740257005 12.269289900532002 1.067510887047999 0 0 0
1785 6 12.396436196966 13.291730725576002 0 0 0 0
1789 9 14.167355653676005 12.269289900532002 1.067510887047999 0 0 0
1791 2 15.938275110385 13.291730725576002 0 0 0 0
1795 11 17.709194567095004 12.269289900532002 1.067510887047999 0 0 0
1797 6 19.480114023804 13.291730725576002 0 0 0 0
1801 9 21.251033480514003 12.269289900532002 1.067510887047999 0 0 0
1803 2 23.021952937223 13.291730725576002 0 0 0 0
1807 11 24.792872393933003 12.269289900532002 1.067510887047999 0 0 0
1809 6 26.563791850641998 13.291730725576002 0 0 0 0
1813 9 28.334711307352002 12.269289900532002 1.067510887047999 0 0 0
1815 2 30.105630764060997 13.291730725576002 0 0 0 0
1819 11 31.876550220771 12.269289900532002 1.067510887047999 0 0 0
1821 6 33.64746967748 13.291730725576002 0 0 0 0
1825 9 35.41838913419 12.269289900532002 1.067510887047999 0 0 0
1827 2 37.189308590898996 13.291730725576002 0 0 0 0
1831 11 38.960228047609 12.269289900532002 1.067510887047999 0 0 0
1833 6 40.731147504317995 13.291730725576002 0 0 0 0
1837 9 42.502066961028 12.269289900532002 1.067510887047999 0 0 0
1839 2 44.272986417736995 13.291730725576002 0 0 0 0
1843 11 46.043905874447 12.269289900532002 1.067510887047999 0 0 0
1845 6 47.81482533115601 13.291730725576002 0 0 0 0
1681 9 49.585744787866 12.269289900532002 1.067510887047999 -1 0 0
1683 2 51.356664244575 13.291730725576002 0 -1 0 0
1687 11 53.127583701285 12.269289900532002 1.067510887047999 -1 0 0
1689 6 54.898503157994 13.291730725576002 0 -1 0 0
1693 9 56.669422614704 12.269289900532002 1.067510887047999 -1 0 0
1695 2 58.440342071413 13.291730725576002 0 -1 0 0
1699 11 60.211261528122996 12.269289900532002 1.067510887047999 -1 0 0
1701 6 61.982180984832 13.291730725576002 0 -1 0 0
1705 9 63.753100441541996 12.269289900532002 1.067510887047999 -1 0 0
1707 2 65.524019898251 13.291730725576002 0 -1 0 0
1711 11 67.294939354961 12.269289900532002 1.067510887047999 -1 0 0
1713 6 69.06585881167 13.291730725576002 0 -1 0 0
1717 9 70.83677826838 12.269289900532002 1.067510887047999 -1 0 0
1719 2 72.607697725089 13.291730725576002 0 -1 0 0
1723 11 74.378617181799 12.269289900532002 1.067510887047999 -1 0 0
1725 6 76.149536638508 13.291730725576002 0 -1 0 0
1729 9 77.920456095218 12.269289900532002 1.067510887047999 -1 0 0
1731 2 79.691375551927 13.291730725576002 0 -1 0 0
1735 11 81.462295008637 12.269289900532002 1.067510887047999 -1 0 0
1737 6 83.233214465346 13.291730725576002 0 -1 0 0
1741 9 85.004133922056 12.269289900532002 1.067510887047999 -1 0 0
1743 2 86.775053378765 13.291730725576002 0 -1 0 0
1747 11 88.545972835475 12.269289900532002 1.067510887047999 -1 0 0
1749 6 90.31689229218401 13.291730725576002 0 -1 0 0
1753 9 92.087811748894 12.269289900532002 1.067510887047999 -1 0 0
1755 2 93.858731205603 13.291730725576002 0 -1 0 0
1759 11 95.629650662313 12.269289900532002 1.067510887047999 -1 0 0
1761 6 97.400570119022 13.291730725576002 0 -1 0 0
1768 10 1.7709194567100042 15.336612375665005 1.067510887047999 0 0 0
1774 12 5.3127583701290035 15.336612375665005 1.067510887047999 0 0 0
1780 10 8.854597283548003 15.336612375665005 1.067510887047999 0 0 0
1786 12 12.396436196967002 15.336612375665005 1.067510887047999 0 0 0
1792 10 15.938275110386009 15.336612375665005 1.067510887047999 0 0 0
1798 12 19.480114023805008 15.336612375665005 1.067510887047999 0 0 0
1804 10 23.021952937224007 15.336612375665005 1.067510887047999 0 0 0
1810 12 26.563791850643007 15.336612375665005 1.067510887047999 0 0 0
1816 10 30.105630764062006 15.336612375665005 1.067510887047999 0 0 0
1822 12 33.647469677481006 15.336612375665005 1.067510887047999 0 0 0
1828 10 37.189308590900005 15.336612375665005 1.067510887047999 0 0 0
1834 12 40.731147504319004 15.336612375665005 1.067510887047999 0 0 0
1840 10 44.272986417738004 15.336612375665005 1.067510887047999 0 0 0
1846 12 47.814825331157 15.336612375665005 1.067510887047999 0 0 0
1684 10 51.356664244575995 15.336612375665005 1.067510887047999 -1 0 0
1690 12 54.898503157994995 15.336612375665005 1.067510887047999 -1 0 0
1696 10 58.440342071413994 15.336612375665005 1.067510887047999 -1 0 0
1702 12 61.982180984833 15.336612375665005 1.067510887047999 -1 0 0
1708 10 65.52401989825199 15.336612375665005 1.067510887047999 -1 0 0
1714 12 69.065858811671 15.336612375665005 1.067510887047999 -1 0 0
1720 10 72.60769772508999 15.336612375665005 1.067510887047999 -1 0 0
1726 12 76.149536638509 15.336612375665005 1.067510887047999 -1 0 0
1732 10 79.69137555192799 15.336612375665005 1.067510887047999 -1 0 0
1738 12 83.233214465347 15.336612375665005 1.067510887047999 -1 0 0
1744 10 86.77505337876599 15.336612375665005 1.067510887047999 -1 0 0
1750 12 90.316892292185 15.336612375665005 1.067510887047999 -1 0 0
1756 10 93.85873120560399 15.336612375665005 1.067510887047999 -1 0 0
1762 12 97.400570119023 15.336612375665005 1.067510887047999 -1 0 0
1770 4 0 16.359053200709006 0 0 0 0
1776 8 3.5418389134189994 16.359053200709006 0 0 0 0
1782 4 7.083677826837999 16.359053200709006 0 0 0 0
1788 8 10.625516740257005 16.359053200709006 0 0 0 0
1794 4 14.167355653676005 16.359053200709006 0 0 0 0
1800 8 17.709194567095004 16.359053200709006 0 0 0 0
1806 4 21.251033480514003 16.359053200709006 0 0 0 0
1812 8 24.792872393933003 16.359053200709006 0 0 0 0
1818 4 28.334711307352002 16.359053200709006 0 0 0 0
1824 8 31.876550220771 16.359053200709006 0 0 0 0
1830 4 35.41838913419 16.359053200709006 0 0 0 0
1836 8 38.960228047609 16.359053200709006 0 0 0 0
1842 4 42.502066961028 16.359053200709006 0 0 0 0
1848 8 46.043905874447 16.359053200709006 0 0 0 0
1686 4 49.585744787866 16.359053200709006 0 -1 0 0
1692 8 53.127583701285 16.359053200709006 0 -1 0 0
1698 4 56.669422614704 16.359053200709006 0 -1 0 0
1704 8 60.211261528122996 16.359053200709006 0 -1 0 0
1710 4 63.753100441541996 16.359053200709006 0 -1 0 0
1716 8 67.294939354961 16.359053200709006 0 -1 0 0
1722 4 70.83677826838 16.359053200709006 0 -1 0 0
1728 8 74.378617181799 16.359053200709006 0 -1 0 0
1734 4 77.920456095218 16.359053200709006 0 -1 0 0
1740 8 81.462295008637 16.359053200709006 0 -1 0 0
1746 4 85.004133922056 16.359053200709006 0 -1 0 0
1752 8 88.545972835475 16.359053200709006 0 -1 0 0
1758 4 92.087811748894 16.359053200709006 0 -1 0 0
1764 8 95.629650662313 16.359053200709006 0 -1 0 0
1933 9 0 18.403934850798002 1.067510887047999 0 0 0
1939 11 3.5418389134189994 18.403934850798002 1.067510887047999 0 0 0
1945 9 7.083677826837999 18.403934850798002 1.067510887047999 0 0 0
1951 11 10.625516740257005 18.403934850798002 1.067510887047999 0 0 0
1957 9 14.167355653676005 18.403934850798002 1.067510887047999 0 0 0
1963 11 17.709194567095004 18.403934850798002 1.067510887047999 0 0 0
1969 9 21.251033480514003 18.403934850798002 1.067510887047999 0 0 0
1975 11 24.792872393933003 18.403934850798002 1.067510887047999 0 0 0
1981 9 28.334711307352002 18.403934850798002 1.067510887047999 0 0 0
1987 11 31.876550220771 18.403934850798002 1.067510887047999 0 0 0
1993 9 35.41838913419 18.403934850798002 1.067510887047999 0 0 0
1999 11 38.960228047609 18.403934850798002 1.067510887047999 0 0 0
2005 9 42.502066961028 18.403934850798002 1.067510887047999 0 0 0
2011 11 46.043905874447 18.403934850798002 1.067510887047999 0 0 0
1849 9 49.585744787866 18.403934850798002 1.067510887047999 -1 0 0
1855 11 53.127583701285 18.403934850798002 1.067510887047999 -1 0 0
1861 9 56.669422614704 18.403934850798002 1.067510887047999 -1 0 0
1867 11 60.211261528122996 18.403934850798002 1.067510887047999 -1 0 0
1873 9 63.753100441541996 18.403934850798002 1.067510887047999 -1 0 0
1879 11 67.294939354961 18.403934850798002 1.067510887047999 -1 0 0
1885 9 70.83677826838 18.403934850798002 1.067510887047999 -1 0 0
1891 11 74.378617181799 18.403934850798002 1.067510887047999 -1 0 0
1897 9 77.920456095218 18.403934850798002 1.067510887047999 -1 0 0
1903 11 81.462295008637 18.403934850798002 1.067510887047999 -1 0 0
1909 9 85.004133922056 18.403934850798002 1.067510887047999 -1 0 0
1915 11 88.545972835475 18.403934850798002 1.067510887047999 -1 0 0
1921 9 92.087811748894 18.403934850798002 1.067510887047999 -1 0 0
1927 11 95.629650662313 18.403934850798002 1.067510887047999 -1 0 0
1935 2 1.7709194567090023 19.426375675842003 0 0 0 0
1941 6 5.312758370128002 19.426375675842003 0 0 0 0
1947 2 8.854597283547001 19.426375675842003 0 0 0 0
1953 6 12.396436196966 19.426375675842003 0 0 0 0
1959 2 15.938275110385 19.426375675842003 0 0 0 0
1965 6 19.480114023804 19.426375675842003 0 0 0 0
1971 2 23.021952937223 19.426375675842003 0 0 0 0
1977 6 26.563791850641998 19.426375675842003 0 0 0 0
1983 2 30.105630764060997 19.426375675842003 0 0 0 0
1989 6 33.64746967748 19.426375675842003 0 0 0 0
1995 2 37.189308590898996 19.426375675842003 0 0 0 0
2001 6 40.731147504317995 19.426375675842003 0 0 0 0
2007 2 44.272986417736995 19.426375675842003 0 0 0 0
2013 6 47.81482533115601 19.426375675842003 0 0 0 0
1851 2 51.356664244575 19.426375675842003 0 -1 0 0
1857 6 54.898503157994 19.426375675842003 0 -1 0 0
1863 2 58.440342071413 19.426375675842003 0 -1 0 0
1869 6 61.982180984832 19.426375675842003 0 -1 0 0
1875 2 65.524019898251 19.426375675842003 0 -1 0 0
1881 6 69.06585881167 19.426375675842003 0 -1 0 0
1887 2 72.607697725089 19.426375675842003 0 -1 0 0
1893 6 76.149536638508 19.426375675842003 0 -1 0 0
1899 2 79.691375551927 19.426375675842003 0 -1 0 0
1905 6 83.233214465346 19.426375675842003 0 -1 0 0
1911 2 86.775053378765 19.426375675842003 0 -1 0 0
1917 6 90.31689229218401 19.426375675842003 0 -1 0 0
1923 2 93.858731205603 19.426375675842003 0 -1 0 0
1929 6 97.400570119022 19.426375675842003 0 -1 0 0
1938 4 0 22.493698150975 0 0 0 0
1936 10 1.7709194567100042 21.471257325931 1.067510887047999 0 0 0
1944 8 3.5418389134189994 22.493698150975 0 0 0 0
1942 12 5.3127583701290035 21.471257325931 1.067510887047999 0 0 0
1950 4 7.083677826837999 22.493698150975 0 0 0 0
1948 10 8.854597283548003 21.471257325931 1.067510887047999 0 0 0
1956 8 10.625516740257005 22.493698150975 0 0 0 0
1954 12 12.396436196967002 21.471257325931 1.067510887047999 0 0 0
1962 4 14.167355653676005 22.493698150975 0 0 0 0
1960 10 15.938275110386009 21.471257325931 1.067510887047999 0 0 0
1968 8 17.709194567095004 22.493698150975 0 0 0 0
1966 12 19.480114023805008 21.471257325931 1.067510887047999 0 0 0
1974 4 21.251033480514003 22.493698150975 0 0 0 0
1972 10 23.021952937224007 21.471257325931 1.067510887047999 0 0 0
1980 8 24.792872393933003 22.493698150975 0 0 0 0
1978 12 26.563791850643007 21.471257325931 1.067510887047999 0 0 0
1986 4 28.334711307352002 22.493698150975 0 0 0 0
1984 10 30.105630764062006 21.471257325931 1.067510887047999 0 0 0
1992 8 31.876550220771 22.493698150975 0 0 0 0
1990 12 33.647469677481006 21.471257325931 1.067510887047999 0 0 0
1998 4 35.41838913419 22.493698150975 0 0 0 0
1996 10 37.189308590900005 21.471257325931 1.067510887047999 0 0 0
2004 8 38.960228047609 22.493698150975 0 0 0 0
2002 12 40.731147504319004 21.471257325931 1.067510887047999 0 0 0
2010 4 42.502066961028 22.493698150975 0 0 0 0
2008 10 44.272986417738004 21.471257325931 1.067510887047999 0 0 0
2016 8 46.043905874447 22.493698150975 0 0 0 0
2014 12 47.814825331157 21.471257325931 1.067510887047999 0 0 0
1854 4 49.585744787866 22.493698150975 0 -1 0 0
1852 10 51.356664244575995 21.471257325931 1.067510887047999 -1 0 0
1860 8 53.127583701285 22.493698150975 0 -1 0 0
1858 12 54.898503157994995 21.471257325931 1.067510887047999 -1 0 0
1866 4 56.669422614704 22.493698150975 0 -1 0 0
1864 10 58.440342071413994 21.471257325931 1.067510887047999 -1 0 0
1872 8 60.211261528122996 22.493698150975 0 -1 0 0
1870 12 61.982180984833 21.471257325931 1.067510887047999 -1 0 0
1878 4 63.753100441541996 22.493698150975 0 -1 0 0
1876 10 65.52401989825199 21.471257325931 1.067510887047999 -1 0 0
1884 8 67.294939354961 22.493698150975 0 -1 0 0
1882 12 69.065858811671 21.471257325931 1.067510887047999 -1 0 0
1890 4 70.83677826838 22.493698150975 0 -1 0 0
1888 10 72.60769772508999 21.471257325931 1.067510887047999 -1 0 0
1896 8 74.378617181799 22.493698150975 0 -1 0 0
1894 12 76.149536638509 21.471257325931 1.067510887047999 -1 0 0
1902 4 77.920456095218 22.493698150975 0 -1 0 0
1900 10 79.69137555192799 21.471257325931 1.067510887047999 -1 0 0
1908 8 81.462295008637 22.493698150975 0 -1 0 0
1906 12 83.233214465347 21.471257325931 1.067510887047999 -1 0 0
1914 4 85.004133922056 22.493698150975 0 -1 0 0
1912 10 86.77505337876599 21.471257325931 1.067510887047999 -1 0 0
1920 8 88.545972835475 22.493698150975 0 -1 0 0
1918 12 90.316892292185 21.471257325931 1.067510887047999 -1 0 0
1926 4 92.087811748894 22.493698150975 0 -1 0 0
1924 10 93.85873120560399 21.471257325931 1.067510887047999 -1 0 0
1932 8 95.629650662313 22.493698150975 0 -1 0 0
1930 12 97.400570119023 21.471257325931 1.067510887047999 -1 0 0
2101 9 0 24.538579801063996 1.067510887047999 0 0 0
2107 11 3.5418389134189994 24.538579801063996 1.067510887047999 0 0 0
2113 9 7.083677826837999 24.538579801063996 1.067510887047999 0 0 0
2119 11 10.625516740257005 24.538579801063996 1.067510887047999 0 0 0
2125 9 14.167355653676005 24.538579801063996 1.067510887047999 0 0 0
2131 11 17.709194567095004 24.538579801063996 1.067510887047999 0 0 0
2137 9 21.251033480514003 24.538579801063996 1.067510887047999 0 0 0
2143 11 24.792872393933003 24.538579801063996 1.067510887047999 0 0 0
2149 9 28.334711307352002 24.538579801063996 1.067510887047999 0 0 0
2155 11 31.876550220771 24.538579801063996 1.067510887047999 0 0 0
2161 9 35.41838913419 24.538579801063996 1.067510887047999 0 0 0
2167 11 38.960228047609 24.538579801063996 1.067510887047999 0 0 0
2173 9 42.502066961028 24.538579801063996 1.067510887047999 0 0 0
2179 11 46.043905874447 24.538579801063996 1.067510887047999 0 0 0
2017 9 49.585744787866 24.538579801063996 1.067510887047999 -1 0 0
2023 11 53.127583701285 24.538579801063996 1.067510887047999 -1 0 0
2029 9 56.669422614704 24.538579801063996 1.067510887047999 -1 0 0
2035 11 60.211261528122996 24.538579801063996 1.067510887047999 -1 0 0
2041 9 63.753100441541996 24.538579801063996 1.067510887047999 -1 0 0
2047 11 67.294939354961 24.538579801063996 1.067510887047999 -1 0 0
2053 9 70.83677826838 24.538579801063996 1.067510887047999 -1 0 0
2059 11 74.378617181799 24.538579801063996 1.067510887047999 -1 0 0
2065 9 77.920456095218 24.538579801063996 1.067510887047999 -1 0 0
2071 11 81.462295008637 24.538579801063996 1.067510887047999 -1 0 0
2077 9 85.004133922056 24.538579801063996 1.067510887047999 -1 0 0
2083 11 88.545972835475 24.538579801063996 1.067510887047999 -1 0 0
2089 9 92.087811748894 24.538579801063996 1.067510887047999 -1 0 0
2095 11 95.629650662313 24.538579801063996 1.067510887047999 -1 0 0
2103 2 1.7709194567090023 25.561020626107997 0 0 0 0
2109 6 5.312758370128002 25.561020626107997 0 0 0 0
2115 2 8.854597283547001 25.561020626107997 0 0 0 0
2121 6 12.396436196966 25.561020626107997 0 0 0 0
2127 2 15.938275110385 25.561020626107997 0 0 0 0
2133 6 19.480114023804 25.561020626107997 0 0 0 0
2139 2 23.021952937223 25.561020626107997 0 0 0 0
2145 6 26.563791850641998 25.561020626107997 0 0 0 0
2151 2 30.105630764060997 25.561020626107997 0 0 0 0
2157 6 33.64746967748 25.561020626107997 0 0 0 0
2163 2 37.189308590898996 25.561020626107997 0 0 0 0
2169 6 40.731147504317995 25.561020626107997 0 0 0 0
2175 2 44.272986417736995 25.561020626107997 0 0 0 0
2181 6 47.81482533115601 25.561020626107997 0 0 0 0
2019 2 51.356664244575 25.561020626107997 0 -1 0 0
2025 6 54.898503157994 25.561020626107997 0 -1 0 0
2031 2 58.440342071413 25.561020626107997 0 -1 0 0
2037 6 61.982180984832 25.561020626107997 0 -1 0 0
2043 2 65.524019898251 25.561020626107997 0 -1 0 0
2049 6 69.06585881167 25.561020626107997 0 -1 0 0
2055 2 72.607697725089 25.561020626107997 0 -1 0 0
2061 6 76.149536638508 25.561020626107997 0 -1 0 0
2067 2 79.691375551927 25.561020626107997 0 -1 0 0
2073 6 83.233214465346 25.561020626107997 0 -1 0 0
2079 2 86.775053378765 25.561020626107997 0 -1 0 0
2085 6 90.31689229218401 25.561020626107997 0 -1 0 0
2091 2 93.858731205603 25.561020626107997 0 -1 0 0
2097 6 97.400570119022 25.561020626107997 0 -1 0 0
2104 10 1.7709194567100042 27.605902276197007 1.067510887047999 0 0 0
2110 12 5.3127583701290035 27.605902276197007 1.067510887047999 0 0 0
2116 10 8.854597283548003 27.605902276197007 1.067510887047999 0 0 0