LAMMPS data file via write_data, version 29 Aug 2024, timestep = 3, units = metal

9720 atoms
9 atom types

0 98.45921373114 xlo xhi
0 102.321816393384 ylo yhi
-50 50 zlo zhi

Masses

1 95.95
2 95.95
3 95.95
4 78.971
5 78.971
6 78.971
7 78.971
8 78.971
9 78.971

Atoms # atomic

1713 5 1.019214176310252e-15 1.8948304061278962 0.03223489486252559 0 0 0
1716 1 1.6409868955190015 2.842026889833094 1.7213271002040527 0 0 0
1719 5 3.2819737910380002 1.894830406127896 0.032234894862524524 0 0 0
1722 1 4.922960686557003 2.842026889833094 1.7213271002040524 0 0 0
1714 5 1.6409868955190008 4.737103083721895 0.032234894862525475 0 0 0
1720 5 4.922960686557003 4.737103083721895 0.03223489486252471 0 0 0
1895 1 1.6657490594725144e-15 5.684299567427093 1.7213271002040527 0 0 0
1901 1 3.2819737910380007 5.684299567427093 1.7213271002040527 0 0 0
1725 5 6.563947582076004 1.8948304061278958 0.03223489486252477 0 0 0
1728 1 8.204934477595003 2.842026889833094 1.7213271002040524 0 0 0
1731 5 9.845921373114003 1.8948304061278962 0.03223489486252511 0 0 0
1734 1 11.486908268633002 2.842026889833094 1.7213271002040524 0 0 0
1726 5 8.204934477595003 4.737103083721895 0.03223489486252527 0 0 0
1732 5 11.486908268633002 4.737103083721895 0.032234894862525315 0 0 0
1907 1 6.563947582076003 5.684299567427093 1.7213271002040527 0 0 0
1913 1 9.845921373114003 5.684299567427093 1.7213271002040527 0 0 0
1737 5 13.127895164152001 1.8948304061278962 0.03223489486252512 0 0 0
1740 1 14.768882059671 2.842026889833094 1.7213271002040524 0 0 0
1743 5 16.40986895519 1.8948304061278962 0.03223489486252472 0 0 0
1738 5 14.768882059671 4.737103083721895 0.03223489486252505 0 0 0
1919 1 13.127895164152001 5.684299567427093 1.7213271002040527 0 0 0
1925 1 16.40986895519 5.684299567427093 1.7213271002040527 0 0 0
1746 1 18.050855850709002 2.842026889833094 1.7213271002040524 0 0 0
1749 5 19.691842746227998 1.894830406127896 0.03223489486252515 0 0 0
1752 1 21.332829641747004 2.842026889833094 1.7213271002040524 0 0 0
1755 5 22.973816537265996 1.8948304061278962 0.03223489486252518 0 0 0
1744 5 18.050855850709006 4.737103083721895 0.032234894862525065 0 0 0
1750 5 21.332829641747004 4.737103083721895 0.03223489486252534 0 0 0
1931 1 19.691842746227998 5.684299567427093 1.7213271002040527 0 0 0
1937 1 22.973816537265996 5.684299567427093 1.7213271002040527 0 0 0
1758 1 24.614803432785003 2.842026889833094 1.7213271002040524 0 0 0
1761 5 26.255790328303995 1.8948304061278958 0.03223489486252451 0 0 0
1764 1 27.896777223823 2.842026889833094 1.7213271002040524 0 0 0
1756 5 24.614803432785003 4.737103083721895 0.032234894862525364 0 0 0
1762 5 27.896777223823 4.737103083721895 0.03223489486252466 0 0 0
1943 1 26.255790328304 5.684299567427093 1.7213271002040527 0 0 0
1767 5 29.537764119342008 1.8948304061278958 0.03223489486252451 0 0 0
1770 1 31.178751014861 2.842026889833094 1.7213271002040524 0 0 0
1773 5 32.819737910380006 1.8948304061278962 0.03223489486252519 0 0 0
1776 1 34.460724805899 2.842026889833094 1.7213271002040524 0 0 0
1768 5 31.178751014861 4.737103083721895 0.032234894862525364 0 0 0
1774 5 34.460724805899 4.737103083721895 0.0322348948625253 0 0 0
1949 1 29.537764119342004 5.684299567427093 1.7213271002040527 0 0 0
1955 1 32.819737910380006 5.684299567427093 1.7213271002040527 0 0 0
1779 5 36.101711701418004 1.8948304061278962 0.03223489486252516 0 0 0
1782 1 37.742698596937 2.842026889833094 1.7213271002040524 0 0 0
1785 5 39.383685492456 1.8948304061278962 0.03223489486252524 0 0 0
1780 5 37.742698596937 4.737103083721895 0.03223489486252532 0 0 0
1961 1 36.101711701418004 5.684299567427093 1.7213271002040527 0 0 0
1967 1 39.383685492456 5.684299567427093 1.7213271002040527 0 0 0
1788 1 41.024672387974995 2.842026889833094 1.7213271002040524 0 0 0
1791 5 42.665659283494 1.894830406127896 0.03223489486252429 0 0 0
1794 1 44.30664617901301 2.842026889833094 1.7213271002040524 0 0 0
1797 5 45.947633074532 1.8948304061278962 0.032234894862525176 0 0 0
1786 5 41.024672387974995 4.737103083721895 0.03223489486252465 0 0 0
1792 5 44.30664617901301 4.737103083721895 0.03223489486252463 0 0 0
1973 1 42.665659283494 5.684299567427093 1.7213271002040527 0 0 0
1979 1 45.947633074532 5.684299567427093 1.7213271002040527 0 0 0
1623 5 49.22960686557 1.8948304061278962 0.032234894862525565 -1 0 0
1800 1 47.588619970051006 2.842026889833094 1.7213271002040524 0 0 0
1626 1 50.870593761089 2.842026889833094 1.7213271002040524 -1 0 0
1798 5 47.588619970051006 4.737103083721895 0.03223489486252574 0 0 0
1624 5 50.870593761089 4.737103083721895 0.03223489486252576 -1 0 0
1805 1 49.22960686557 5.684299567427093 1.7213271002040527 -1 0 0
1629 5 52.511580656608 1.8948304061278962 0.032234894862525114 -1 0 0
1632 1 54.152567552126996 2.842026889833094 1.7213271002040524 -1 0 0
1635 5 55.793554447645995 1.8948304061278958 0.03223489486252479 -1 0 0
1638 1 57.434541343164994 2.842026889833094 1.7213271002040524 -1 0 0
1630 5 54.152567552126996 4.737103083721895 0.03223489486252533 -1 0 0
1636 5 57.434541343164994 4.737103083721895 0.032234894862524614 -1 0 0
1811 1 52.511580656608 5.684299567427093 1.7213271002040527 -1 0 0
1817 1 55.793554447645995 5.684299567427093 1.7213271002040527 -1 0 0
1641 5 59.075528238684 1.8948304061278958 0.03223489486252443 -1 0 0
1644 1 60.716515134203 2.842026889833094 1.7213271002040524 -1 0 0
1647 5 62.357502029722 1.8948304061278962 0.03223489486252521 -1 0 0
1642 5 60.716515134203 4.737103083721895 0.03223489486252512 -1 0 0
1823 1 59.075528238684 5.684299567427093 1.7213271002040527 -1 0 0
1829 1 62.357502029722 5.684299567427093 1.7213271002040527 -1 0 0
1650 1 63.998488925241 2.842026889833094 1.7213271002040524 -1 0 0
1653 5 65.63947582076 1.894830406127896 0.03223489486252467 -1 0 0
1656 1 67.280462716279 2.842026889833094 1.7213271002040524 -1 0 0
1659 5 68.921449611798 1.8948304061278962 0.03223489486252519 -1 0 0
1648 5 63.998488925241 4.737103083721895 0.032234894862525065 -1 0 0
1654 5 67.280462716279 4.737103083721895 0.032234894862525065 -1 0 0
1835 1 65.63947582076 5.684299567427093 1.7213271002040527 -1 0 0
1841 1 68.921449611798 5.684299567427093 1.7213271002040527 -1 0 0
1662 1 70.562436507317 2.842026889833094 1.7213271002040524 -1 0 0
1665 5 72.203423402836 1.8948304061278962 0.032234894862525156 -1 0 0
1668 1 73.844410298355 2.842026889833094 1.7213271002040524 -1 0 0
1660 5 70.562436507317 4.737103083721895 0.03223489486252535 -1 0 0
1666 5 73.844410298355 4.737103083721895 0.0322348948625253 -1 0 0
1847 1 72.203423402836 5.684299567427093 1.7213271002040527 -1 0 0
1671 5 75.485397193874 1.8948304061278962 0.03223489486252518 -1 0 0
1674 1 77.126384089393 2.842026889833094 1.7213271002040524 -1 0 0
1677 5 78.76737098491199 1.8948304061278958 0.03223489486252445 -1 0 0
1680 1 80.408357880431 2.842026889833094 1.7213271002040524 -1 0 0
1672 5 77.126384089393 4.737103083721895 0.03223489486252542 -1 0 0
1678 5 80.408357880431 4.737103083721895 0.03223489486252443 -1 0 0
1853 1 75.485397193874 5.684299567427093 1.7213271002040527 -1 0 0
1859 1 78.76737098491199 5.684299567427093 1.7213271002040527 -1 0 0
1683 5 82.04934477595 1.8948304061278962 0.032234894862525156 -1 0 0
1686 1 83.690331671469 2.842026889833094 1.7213271002040524 -1 0 0
1689 5 85.33131856698799 1.8948304061278962 0.032234894862525246 -1 0 0
1684 5 83.690331671469 4.737103083721895 0.03223489486252641 -1 0 0
1865 1 82.04934477595 5.684299567427093 1.7213271002040527 -1 0 0
1871 1 85.33131856698799 5.684299567427093 1.7213271002040527 -1 0 0
1692 1 86.972305462507 2.842026889833094 1.7213271002040524 -1 0 0
1695 5 88.613292358026 1.8948304061278953 0.03223489486252354 -1 0 0
1698 1 90.25427925354501 2.842026889833094 1.7213271002040524 -1 0 0
1701 5 91.895266149064 1.8948304061278964 0.032234894862526176 -1 0 0
1690 5 86.972305462507 4.737103083721894 0.03223489486252369 -1 0 0
1696 5 90.25427925354501 4.737103083721895 0.032234894862525426 -1 0 0
1877 1 88.613292358026 5.684299567427093 1.7213271002040527 -1 0 0
1883 1 91.895266149064 5.684299567427093 1.7213271002040527 -1 0 0
1704 1 93.53625304458299 2.842026889833094 1.7213271002040527 -1 0 0
1707 5 95.177239940102 1.894830406127896 0.03223489486252418 -1 0 0
1710 1 96.818226835621 2.842026889833094 1.7213271002040524 -1 0 0
1702 5 93.53625304458299 4.737103083721895 0.03223489486252537 -1 0 0
1708 5 96.818226835621 4.737103083721895 0.03223489486252505 -1 0 0
1889 1 95.177239940102 5.684299567427093 1.7213271002040527 -1 0 0
1893 5 1.0270522541570053e-15 7.579375761315896 0.03223489486252555 0 0 0
1896 1 1.6409868955190015 8.526572245021093 1.7213271002040524 0 0 0
1899 5 3.2819737910380002 7.579375761315895 0.032234894862524385 0 0 0
1902 1 4.922960686557003 8.526572245021093 1.7213271002040524 0 0 0
1894 5 1.6409868955190008 10.421648438909894 0.03223489486252557 0 0 0
1900 5 4.922960686557003 10.421648438909893 0.03223489486252483 0 0 0
2075 1 1.647732524162739e-15 11.368844922615093 1.7213271002040524 0 0 0
2081 1 3.2819737910380007 11.368844922615093 1.7213271002040524 0 0 0
1905 5 6.563947582076004 7.579375761315895 0.03223489486252459 0 0 0
1908 1 8.204934477595003 8.526572245021093 1.7213271002040522 0 0 0
1911 5 9.845921373114003 7.579375761315896 0.03223489486252492 0 0 0
1914 1 11.486908268633002 8.526572245021095 1.7213271002040522 0 0 0
1906 5 8.204934477595003 10.421648438909893 0.03223489486252545 0 0 0
1912 5 11.486908268633002 10.421648438909894 0.03223489486252547 0 0 0
2087 1 6.563947582076003 11.368844922615093 1.7213271002040524 0 0 0
2093 1 9.845921373114003 11.368844922615093 1.7213271002040524 0 0 0
1917 5 13.127895164152001 7.579375761315896 0.03223489486252494 0 0 0
1920 1 14.768882059671 8.526572245021095 1.7213271002040522 0 0 0
1923 5 16.40986895519 7.579375761315896 0.032234894862524566 0 0 0
1918 5 14.768882059671 10.421648438909893 0.03223489486252514 0 0 0
2099 1 13.127895164152001 11.368844922615093 1.7213271002040524 0 0 0
2105 1 16.40986895519 11.368844922615093 1.7213271002040524 0 0 0
1926 1 18.050855850709002 8.526572245021095 1.7213271002040522 0 0 0
1929 5 19.691842746227998 7.579375761315896 0.03223489486252492 0 0 0
1932 1 21.332829641747004 8.526572245021095 1.7213271002040522 0 0 0
1935 5 22.973816537265996 7.579375761315896 0.032234894862524975 0 0 0
1924 5 18.050855850709006 10.421648438909893 0.032234894862525114 0 0 0
1930 5 21.332829641747004 10.421648438909894 0.03223489486252545 0 0 0
2111 1 19.691842746227998 11.368844922615093 1.7213271002040524 0 0 0
2117 1 22.973816537265996 11.368844922615093 1.7213271002040524 0 0 0
1938 1 24.614803432785003 8.526572245021093 1.7213271002040524 0 0 0
1941 5 26.255790328303995 7.579375761315895 0.03223489486252435 0 0 0
1944 1 27.896777223823 8.526572245021093 1.7213271002040524 0 0 0
1936 5 24.614803432785003 10.421648438909893 0.032234894862525544 0 0 0
1942 5 27.896777223823 10.421648438909894 0.0322348948625247 0 0 0
2123 1 26.255790328304 11.368844922615093 1.7213271002040524 0 0 0
1947 5 29.537764119342008 7.579375761315895 0.03223489486252436 0 0 0
1950 1 31.178751014861 8.526572245021093 1.7213271002040524 0 0 0
1953 5 32.819737910380006 7.579375761315896 0.032234894862524975 0 0 0
1956 1 34.460724805899 8.526572245021095 1.7213271002040522 0 0 0
1948 5 31.178751014861 10.421648438909893 0.03223489486252549 0 0 0
1954 5 34.460724805899 10.421648438909894 0.03223489486252543 0 0 0
2129 1 29.537764119342004 11.368844922615093 1.7213271002040524 0 0 0
2135 1 32.819737910380006 11.368844922615093 1.7213271002040524 0 0 0
1959 5 36.101711701418004 7.579375761315896 0.03223489486252489 0 0 0
1962 1 37.742698596937 8.526572245021095 1.7213271002040522 0 0 0
1965 5 39.383685492456 7.579375761315896 0.03223489486252497 0 0 0
1960 5 37.742698596937 10.421648438909894 0.032234894862525454 0 0 0
2141 1 36.101711701418004 11.368844922615093 1.7213271002040524 0 0 0
2147 1 39.383685492456 11.368844922615093 1.7213271002040524 0 0 0
1968 1 41.024672387974995 8.526572245021095 1.7213271002040522 0 0 0
1971 5 42.665659283494 7.579375761315896 0.0322348948625241 0 0 0
1974 1 44.30664617901301 8.526572245021095 1.7213271002040522 0 0 0
1977 5 45.947633074532 7.579375761315896 0.03223489486252495 0 0 0
1966 5 41.024672387974995 10.421648438909893 0.03223489486252482 0 0 0
1972 5 44.30664617901301 10.421648438909893 0.032234894862524816 0 0 0
2153 1 42.665659283494 11.368844922615093 1.7213271002040527 0 0 0
2159 1 45.947633074532 11.368844922615093 1.7213271002040524 0 0 0
1803 5 49.22960686557 7.579375761315896 0.03223489486252546 -1 0 0
1980 1 47.588619970051006 8.526572245021095 1.7213271002040524 0 0 0
1806 1 50.870593761089 8.526572245021095 1.7213271002040524 -1 0 0
1978 5 47.588619970051006 10.421648438909894 0.03223489486252578 0 0 0
1804 5 50.870593761089 10.421648438909894 0.032234894862525745 -1 0 0
1985 1 49.22960686557 11.368844922615093 1.7213271002040524 -1 0 0
1809 5 52.511580656608 7.579375761315896 0.032234894862524927 -1 0 0
1812 1 54.152567552126996 8.526572245021093 1.7213271002040522 -1 0 0
1815 5 55.793554447645995 7.579375761315895 0.03223489486252461 -1 0 0
1818 1 57.434541343164994 8.526572245021093 1.7213271002040524 -1 0 0
1810 5 54.152567552126996 10.421648438909894 0.03223489486252546 -1 0 0
1816 5 57.434541343164994 10.421648438909893 0.0322348948625247 -1 0 0
1991 1 52.511580656608 11.368844922615093 1.7213271002040524 -1 0 0
1997 1 55.793554447645995 11.368844922615093 1.7213271002040524 -1 0 0
1821 5 59.075528238684 7.579375761315895 0.03223489486252414 -1 0 0
1824 1 60.716515134203 8.526572245021093 1.7213271002040524 -1 0 0
1827 5 62.357502029722 7.579375761315896 0.03223489486252504 -1 0 0
1822 5 60.716515134203 10.421648438909893 0.03223489486252513 -1 0 0
2003 1 59.075528238684 11.368844922615093 1.7213271002040524 -1 0 0
2009 1 62.357502029722 11.368844922615093 1.7213271002040524 -1 0 0
1830 1 63.998488925241 8.526572245021095 1.7213271002040522 -1 0 0
1833 5 65.63947582076 7.579375761315896 0.03223489486252451 -1 0 0
1836 1 67.280462716279 8.526572245021095 1.7213271002040522 -1 0 0
1839 5 68.921449611798 7.579375761315896 0.03223489486252497 -1 0 0
1828 5 63.998488925241 10.421648438909893 0.032234894862525156 -1 0 0
1834 5 67.280462716279 10.421648438909893 0.032234894862525114 -1 0 0
2015 1 65.63947582076 11.368844922615093 1.7213271002040524 -1 0 0
2021 1 68.921449611798 11.368844922615093 1.7213271002040524 -1 0 0
1842 1 70.562436507317 8.526572245021095 1.7213271002040522 -1 0 0
1845 5 72.203423402836 7.579375761315896 0.03223489486252489 -1 0 0
1848 1 73.844410298355 8.526572245021095 1.7213271002040522 -1 0 0
1840 5 70.562436507317 10.421648438909894 0.03223489486252545 -1 0 0
1846 5 73.844410298355 10.421648438909894 0.03223489486252544 -1 0 0
2027 1 72.203423402836 11.368844922615093 1.7213271002040524 -1 0 0
1851 5 75.485397193874 7.579375761315896 0.032234894862524975 -1 0 0
1854 1 77.126384089393 8.526572245021093 1.7213271002040524 -1 0 0
1857 5 78.76737098491199 7.579375761315895 0.03223489486252431 -1 0 0
1860 1 80.408357880431 8.526572245021093 1.7213271002040524 -1 0 0
1852 5 77.126384089393 10.421648438909894 0.0322348948625256 -1 0 0
1858 5 80.408357880431 10.421648438909893 0.03223489486252458 -1 0 0
2033 1 75.485397193874 11.368844922615093 1.7213271002040524 -1 0 0
2039 1 78.76737098491199 11.368844922615093 1.7213271002040524 -1 0 0
1863 5 82.04934477595 7.579375761315896 0.03223489486252502 -1 0 0
1866 1 83.690331671469 8.526572245021095 1.7213271002040522 -1 0 0
1869 5 85.33131856698799 7.579375761315896 0.03223489486252503 -1 0 0
1864 5 83.690331671469 10.421648438909894 0.03223489486252648 -1 0 0
2045 1 82.04934477595 11.368844922615093 1.7213271002040524 -1 0 0
2051 1 85.33131856698799 11.368844922615093 1.7213271002040524 -1 0 0
1872 1 86.972305462507 8.526572245021095 1.7213271002040524 -1 0 0
1875 5 88.613292358026 7.579375761315895 0.03223489486252327 -1 0 0
1878 1 90.25427925354501 8.526572245021093 1.7213271002040524 -1 0 0
1881 5 91.895266149064 7.579375761315896 0.032234894862525995 -1 0 0
1870 5 86.972305462507 10.421648438909893 0.03223489486252385 -1 0 0
1876 5 90.25427925354501 10.421648438909894 0.032234894862525544 -1 0 0
2057 1 88.613292358026 11.368844922615093 1.7213271002040524 -1 0 0
2063 1 91.895266149064 11.368844922615093 1.7213271002040524 -1 0 0
1884 1 93.53625304458299 8.526572245021095 1.7213271002040524 -1 0 0
1887 5 95.177239940102 7.579375761315896 0.03223489486252403 -1 0 0
1890 1 96.818226835621 8.526572245021095 1.7213271002040524 -1 0 0
1882 5 93.53625304458299 10.421648438909894 0.032234894862525454 -1 0 0
1888 5 96.818226835621 10.421648438909893 0.032234894862525176 -1 0 0
2069 1 95.177239940102 11.368844922615093 1.7213271002040524 -1 0 0
2073 5 9.97334744216049e-16 13.263921116503894 0.03223489486252531 0 0 0
2076 1 1.6409868955190015 14.211117600209093 1.7213271002040524 0 0 0
2079 5 3.2819737910380002 13.263921116503893 0.03223489486252422 0 0 0
2082 1 4.922960686557003 14.211117600209091 1.7213271002040527 0 0 0
2074 5 1.640986895519001 16.106193794097898 0.032234894862524684 0 0 0
2080 5 4.922960686557003 16.106193794097898 0.03223489486252388 0 0 0
2255 1 1.7202812944578678e-15 17.053390277803093 1.7213271002040522 0 0 0
2261 1 3.2819737910380007 17.053390277803093 1.7213271002040524 0 0 0
2085 5 6.563947582076004 13.263921116503893 0.03223489486252454 0 0 0
2088 1 8.204934477595003 14.211117600209093 1.7213271002040524 0 0 0
2091 5 9.845921373114003 13.263921116503894 0.03223489486252488 0 0 0
2094 1 11.486908268633002 14.211117600209093 1.7213271002040524 0 0 0
2086 5 8.204934477595003 16.106193794097898 0.03223489486252459 0 0 0
2092 5 11.486908268633002 16.106193794097898 0.03223489486252471 0 0 0
2267 1 6.563947582076003 17.053390277803093 1.7213271002040524 0 0 0
2273 1 9.845921373114003 17.053390277803093 1.7213271002040522 0 0 0
2097 5 13.127895164152001 13.263921116503894 0.0322348948625248 0 0 0
2100 1 14.768882059671 14.211117600209093 1.7213271002040527 0 0 0
2103 5 16.40986895519 13.263921116503894 0.032234894862524455 0 0 0
2098 5 14.768882059671 16.106193794097898 0.03223489486252428 0 0 0
2279 1 13.127895164152001 17.053390277803093 1.7213271002040524 0 0 0
2285 1 16.40986895519 17.053390277803093 1.7213271002040524 0 0 0
2106 1 18.050855850709002 14.211117600209093 1.7213271002040524 0 0 0
2109 5 19.691842746227998 13.263921116503893 0.032234894862524836 0 0 0
2112 1 21.332829641747004 14.211117600209093 1.7213271002040524 0 0 0
2115 5 22.973816537265996 13.263921116503894 0.03223489486252482 0 0 0
2104 5 18.050855850709006 16.106193794097898 0.03223489486252427 0 0 0
2110 5 21.332829641747004 16.106193794097898 0.03223489486252468 0 0 0
2291 1 19.691842746227998 17.053390277803093 1.7213271002040524 0 0 0
2297 1 22.973816537265996 17.053390277803093 1.7213271002040522 0 0 0
2118 1 24.614803432785003 14.211117600209093 1.7213271002040524 0 0 0
2121 5 26.255790328303995 13.263921116503893 0.032234894862524135 0 0 0
2124 1 27.896777223823 14.211117600209093 1.7213271002040524 0 0 0
2116 5 24.614803432785003 16.106193794097898 0.03223489486252457 0 0 0
2122 5 27.896777223823 16.106193794097898 0.03223489486252369 0 0 0
2303 1 26.255790328304 17.053390277803093 1.7213271002040524 0 0 0
2127 5 29.537764119342008 13.263921116503893 0.03223489486252414 0 0 0
2130 1 31.178751014861 14.211117600209093 1.7213271002040524 0 0 0
2133 5 32.819737910380006 13.263921116503894 0.03223489486252482 0 0 0
2136 1 34.460724805899 14.211117600209093 1.7213271002040524 0 0 0
2128 5 31.178751014861 16.106193794097898 0.032234894862524587 0 0 0
2134 5 34.460724805899 16.106193794097898 0.03223489486252466 0 0 0
2309 1 29.537764119342004 17.053390277803093 1.7213271002040522 0 0 0
2315 1 32.819737910380006 17.053390277803093 1.7213271002040522 0 0 0
2139 5 36.101711701418004 13.263921116503894 0.03223489486252486 0 0 0
2142 1 37.742698596937 14.211117600209093 1.7213271002040524 0 0 0
2145 5 39.383685492456 13.263921116503894 0.03223489486252483 0 0 0
2140 5 37.742698596937 16.106193794097898 0.032234894862524684 0 0 0
2321 1 36.101711701418004 17.053390277803093 1.7213271002040522 0 0 0
2327 1 39.383685492456 17.053390277803093 1.7213271002040524 0 0 0
2148 1 41.024672387974995 14.211117600209093 1.7213271002040527 0 0 0
2151 5 42.665659283494 13.263921116503893 0.0322348948625239 0 0 0
2154 1 44.30664617901301 14.211117600209093 1.7213271002040527 0 0 0
2157 5 45.947633074532 13.263921116503894 0.0322348948625248 0 0 0
2146 5 41.024672387974995 16.106193794097898 0.03223489486252398 0 0 0
2152 5 44.30664617901301 16.106193794097898 0.03223489486252397 0 0 0
2333 1 42.665659283494 17.053390277803093 1.7213271002040524 0 0 0
2339 1 45.947633074532 17.053390277803093 1.7213271002040524 0 0 0
1983 5 49.22960686557 13.263921116503894 0.032234894862525225 -1 0 0
2160 1 47.588619970051006 14.211117600209093 1.7213271002040524 0 0 0
1986 1 50.870593761089 14.211117600209093 1.7213271002040524 -1 0 0
2158 5 47.588619970051006 16.106193794097898 0.03223489486252493 0 0 0
1984 5 50.870593761089 16.106193794097898 0.03223489486252492 -1 0 0
2165 1 49.22960686557 17.053390277803093 1.7213271002040524 -1 0 0
1989 5 52.511580656608 13.263921116503894 0.032234894862524774 -1 0 0
1992 1 54.152567552126996 14.211117600209093 1.7213271002040524 -1 0 0
1995 5 55.793554447645995 13.263921116503893 0.03223489486252455 -1 0 0
1998 1 57.434541343164994 14.211117600209093 1.7213271002040527 -1 0 0
1990 5 54.152567552126996 16.106193794097898 0.03223489486252463 -1 0 0
1996 5 57.434541343164994 16.106193794097898 0.03223489486252378 -1 0 0
2171 1 52.511580656608 17.053390277803093 1.7213271002040524 -1 0 0
2177 1 55.793554447645995 17.053390277803093 1.7213271002040524 -1 0 0
2001 5 59.075528238684 13.263921116503893 0.03223489486252407 -1 0 0
2004 1 60.716515134203 14.211117600209093 1.7213271002040527 -1 0 0
2007 5 62.357502029722 13.263921116503894 0.032234894862524885 -1 0 0
2002 5 60.716515134203 16.106193794097898 0.03223489486252428 -1 0 0
2183 1 59.075528238684 17.053390277803093 1.7213271002040524 -1 0 0
2189 1 62.357502029722 17.053390277803093 1.7213271002040524 -1 0 0
2010 1 63.998488925241 14.211117600209093 1.7213271002040527 -1 0 0
2013 5 65.63947582076 13.263921116503894 0.0322348948625244 -1 0 0
2016 1 67.280462716279 14.211117600209093 1.7213271002040524 -1 0 0
2019 5 68.921449611798 13.263921116503894 0.0322348948625248 -1 0 0
2008 5 63.998488925241 16.106193794097898 0.03223489486252429 -1 0 0
2014 5 67.280462716279 16.106193794097898 0.03223489486252427 -1 0 0
2195 1 65.63947582076 17.053390277803093 1.7213271002040524 -1 0 0
2201 1 68.921449611798 17.053390277803093 1.7213271002040524 -1 0 0
2022 1 70.562436507317 14.211117600209093 1.7213271002040524 -1 0 0
2025 5 72.203423402836 13.263921116503894 0.032234894862524864 -1 0 0
2028 1 73.844410298355 14.211117600209093 1.7213271002040524 -1 0 0
2020 5 70.562436507317 16.106193794097898 0.03223489486252468 -1 0 0
2026 5 73.844410298355 16.106193794097898 0.03223489486252466 -1 0 0
2207 1 72.203423402836 17.053390277803093 1.7213271002040522 -1 0 0
2031 5 75.485397193874 13.263921116503894 0.03223489486252482 -1 0 0
2034 1 77.126384089393 14.211117600209093 1.7213271002040524 -1 0 0
2037 5 78.76737098491199 13.263921116503893 0.03223489486252416 -1 0 0
2040 1 80.408357880431 14.211117600209093 1.7213271002040524 -1 0 0
2032 5 77.126384089393 16.106193794097898 0.03223489486252464 -1 0 0
2038 5 80.408357880431 16.106193794097898 0.0322348948625236 -1 0 0
2213 1 75.485397193874 17.053390277803093 1.7213271002040522 -1 0 0
2219 1 78.76737098491199 17.053390277803093 1.7213271002040522 -1 0 0
2043 5 82.04934477595 13.263921116503894 0.03223489486252479 -1 0 0
2046 1 83.690331671469 14.211117600209093 1.7213271002040524 -1 0 0
2049 5 85.33131856698799 13.263921116503894 0.03223489486252489 -1 0 0
2044 5 83.690331671469 16.106193794097898 0.03223489486252563 -1 0 0
2225 1 82.04934477595 17.053390277803093 1.7213271002040524 -1 0 0
2231 1 85.33131856698799 17.053390277803093 1.7213271002040524 -1 0 0
2052 1 86.972305462507 14.211117600209093 1.7213271002040527 -1 0 0
2055 5 88.613292358026 13.263921116503893 0.03223489486252324 -1 0 0
2058 1 90.25427925354501 14.211117600209093 1.7213271002040524 -1 0 0
2061 5 91.895266149064 13.263921116503894 0.032234894862525856 -1 0 0
2050 5 86.972305462507 16.106193794097898 0.03223489486252298 -1 0 0
2056 5 90.25427925354501 16.106193794097898 0.03223489486252463 -1 0 0
2237 1 88.613292358026 17.053390277803093 1.7213271002040524 -1 0 0
2243 1 91.895266149064 17.053390277803093 1.7213271002040522 -1 0 0
2064 1 93.53625304458299 14.211117600209093 1.7213271002040524 -1 0 0
2067 5 95.177239940102 13.263921116503893 0.032234894862523907 -1 0 0
2070 1 96.818226835621 14.211117600209093 1.7213271002040524 -1 0 0
2062 5 93.53625304458299 16.106193794097898 0.03223489486252467 -1 0 0
2068 5 96.818226835621 16.106193794097898 0.03223489486252429 -1 0 0
2249 1 95.177239940102 17.053390277803093 1.7213271002040524 -1 0 0
2253 5 1.0547823925122614e-15 18.948466471691894 0.0322348948625262 0 0 0
2256 1 1.6409868955190015 19.895662955397093 1.7213271002040527 0 0 0
2259 5 3.2819737910380002 18.948466471691894 0.0322348948625251 0 0 0
2262 1 4.922960686557003 19.895662955397093 1.7213271002040527 0 0 0
2254 5 1.6409868955190008 21.790739149285894 0.03223489486252514 0 0 0
2260 5 4.922960686557004 21.790739149285894 0.03223489486252444 0 0 0
2435 1 1.6987258392032166e-15 22.737935632991093 1.721327100204052 0 0 0
2441 1 3.2819737910380007 22.737935632991093 1.7213271002040522 0 0 0
2265 5 6.563947582076004 18.948466471691894 0.032234894862525384 0 0 0
2268 1 8.204934477595003 19.895662955397093 1.7213271002040527 0 0 0
2271 5 9.845921373114003 18.948466471691894 0.032234894862525745 0 0 0
2274 1 11.486908268633002 19.895662955397093 1.7213271002040527 0 0 0
2266 5 8.204934477595003 21.790739149285894 0.03223489486252508 0 0 0
2272 5 11.486908268633002 21.790739149285894 0.03223489486252511 0 0 0
2447 1 6.563947582076003 22.737935632991093 1.721327100204052 0 0 0
2453 1 9.845921373114003 22.737935632991093 1.7213271002040522 0 0 0
2277 5 13.127895164152001 18.948466471691894 0.03223489486252575 0 0 0
2280 1 14.768882059671 19.895662955397093 1.7213271002040527 0 0 0
2283 5 16.40986895519 18.948466471691894 0.032234894862525294 0 0 0
2278 5 14.768882059671 21.790739149285894 0.032234894862524746 0 0 0
2459 1 13.127895164152001 22.737935632991093 1.7213271002040522 0 0 0
2465 1 16.40986895519 22.737935632991093 1.721327100204052 0 0 0
2286 1 18.050855850709002 19.895662955397093 1.7213271002040527 0 0 0
2289 5 19.691842746227998 18.948466471691894 0.032234894862525704 0 0 0
2292 1 21.332829641747004 19.895662955397093 1.7213271002040527 0 0 0
2295 5 22.973816537265996 18.948466471691894 0.03223489486252572 0 0 0
2284 5 18.050855850709006 21.790739149285894 0.0322348948625248 0 0 0
2290 5 21.332829641747004 21.790739149285894 0.032234894862525044 0 0 0
2471 1 19.691842746227998 22.737935632991093 1.7213271002040522 0 0 0
2477 1 22.973816537265996 22.737935632991093 1.7213271002040522 0 0 0
2298 1 24.614803432785003 19.895662955397093 1.7213271002040527 0 0 0
2301 5 26.255790328303995 18.948466471691894 0.032234894862524954 0 0 0
2304 1 27.896777223823 19.895662955397093 1.7213271002040527 0 0 0
2296 5 24.614803432785003 21.790739149285894 0.03223489486252504 0 0 0
2302 5 27.896777223823 21.790739149285894 0.03223489486252427 0 0 0
2483 1 26.255790328304 22.737935632991093 1.7213271002040522 0 0 0
2307 5 29.537764119342008 18.948466471691894 0.032234894862525024 0 0 0
2310 1 31.178751014861 19.895662955397093 1.7213271002040527 0 0 0
2313 5 32.819737910380006 18.948466471691894 0.03223489486252572 0 0 0
2316 1 34.460724805899 19.895662955397093 1.7213271002040527 0 0 0
2308 5 31.178751014861 21.790739149285894 0.03223489486252504 0 0 0
2314 5 34.460724805899 21.790739149285894 0.03223489486252504 0 0 0
2489 1 29.537764119342004 22.737935632991093 1.7213271002040522 0 0 0
2495 1 32.819737910380006 22.737935632991093 1.7213271002040522 0 0 0
2319 5 36.101711701418004 18.948466471691894 0.03223489486252572 0 0 0
2322 1 37.742698596937 19.895662955397093 1.7213271002040527 0 0 0
2325 5 39.383685492456 18.948466471691894 0.03223489486252576 0 0 0
2320 5 37.742698596937 21.790739149285894 0.03223489486252506 0 0 0
2501 1 36.101711701418004 22.737935632991093 1.7213271002040522 0 0 0
2507 1 39.383685492456 22.737935632991093 1.7213271002040522 0 0 0
2328 1 41.024672387974995 19.895662955397093 1.7213271002040527 0 0 0
2331 5 42.665659283494 18.948466471691894 0.03223489486252479 0 0 0
2334 1 44.30664617901301 19.895662955397093 1.7213271002040527 0 0 0
2337 5 45.947633074532 18.948466471691894 0.03223489486252569 0 0 0
2326 5 41.024672387974995 21.790739149285894 0.032234894862524434 0 0 0
2332 5 44.30664617901301 21.790739149285894 0.03223489486252441 0 0 0
2513 1 42.665659283494 22.737935632991093 1.7213271002040522 0 0 0
2519 1 45.947633074532 22.737935632991093 1.7213271002040522 0 0 0
2163 5 49.22960686557 18.948466471691894 0.03223489486252613 -1 0 0
2340 1 47.588619970051006 19.895662955397093 1.7213271002040527 0 0 0
2166 1 50.870593761089 19.895662955397093 1.7213271002040527 -1 0 0
2338 5 47.588619970051006 21.790739149285894 0.032234894862525336 0 0 0
2164 5 50.870593761089 21.790739149285894 0.032234894862525315 -1 0 0
2345 1 49.22960686557 22.737935632991093 1.7213271002040522 -1 0 0
2169 5 52.511580656608 18.948466471691894 0.03223489486252568 -1 0 0
2172 1 54.152567552126996 19.895662955397093 1.7213271002040527 -1 0 0
2175 5 55.793554447645995 18.948466471691894 0.032234894862525426 -1 0 0
2178 1 57.434541343164994 19.895662955397093 1.7213271002040527 -1 0 0
2170 5 54.152567552126996 21.790739149285894 0.03223489486252509 -1 0 0
2176 5 57.434541343164994 21.790739149285894 0.03223489486252428 -1 0 0