LAMMPS data file via write_data, version 29 Aug 2024, timestep = 0, units = metal

3240 atoms
3 atom types

0 98.45921373114 xlo xhi
0 102.321816393384 ylo yhi
0 18.449680733876 zlo zhi

Masses

1 95.95
2 78.95999999999999
3 78.971

Atoms # atomic

1715 1 0 0 1.7219931392320005 0 0 0
1721 1 3.2819737910379985 0 1.7219931392320005 0 0 0
1727 1 6.563947582076004 0 1.7219931392320005 0 0 0
1733 1 9.845921373114003 0 1.7219931392320005 0 0 0
1739 1 13.127895164152001 0 1.7219931392320005 0 0 0
1745 1 16.40986895519 0 1.7219931392320005 0 0 0
1751 1 19.691842746227998 0 1.7219931392320005 0 0 0
1757 1 22.973816537265996 0 1.7219931392320005 0 0 0
1763 1 26.255790328303995 0 1.7219931392320005 0 0 0
1769 1 29.537764119342008 0 1.7219931392320005 0 0 0
1775 1 32.819737910380006 0 1.7219931392320005 0 0 0
1781 1 36.101711701418004 0 1.7219931392320005 0 0 0
1787 1 39.383685492456 0 1.7219931392320005 0 0 0
1793 1 42.665659283494 0 1.7219931392320005 0 0 0
1799 1 45.947633074532 0 1.7219931392320005 0 0 0
1625 1 49.22960686557 0 1.7219931392320005 -1 0 0
1631 1 52.511580656608 0 1.7219931392320005 -1 0 0
1637 1 55.793554447645995 0 1.7219931392320005 -1 0 0
1643 1 59.075528238684 0 1.7219931392320005 -1 0 0
1649 1 62.357502029722 0 1.7219931392320005 -1 0 0
1655 1 65.63947582076 0 1.7219931392320005 -1 0 0
1661 1 68.921449611798 0 1.7219931392320005 -1 0 0
1667 1 72.203423402836 0 1.7219931392320005 -1 0 0
1673 1 75.485397193874 0 1.7219931392320005 -1 0 0
1679 1 78.76737098491199 0 1.7219931392320005 -1 0 0
1685 1 82.04934477595 0 1.7219931392320005 -1 0 0
1691 1 85.33131856698799 0 1.7219931392320005 -1 0 0
1697 1 88.613292358026 0 1.7219931392320005 -1 0 0
1703 1 91.895266149064 0 1.7219931392320005 -1 0 0
1709 1 95.177239940102 0 1.7219931392320005 -1 0 0
1713 3 0 1.894848451729004 0 0 0 0
1716 1 1.6409868955189992 2.8422726775940035 1.7219931392320005 0 0 0
1719 3 3.2819737910379985 1.894848451729004 0 0 0 0
1722 1 4.922960686557005 2.8422726775940035 1.7219931392320005 0 0 0
1725 3 6.563947582076004 1.894848451729004 0 0 0 0
1728 1 8.204934477595003 2.8422726775940035 1.7219931392320005 0 0 0
1731 3 9.845921373114003 1.894848451729004 0 0 0 0
1734 1 11.486908268633002 2.8422726775940035 1.7219931392320005 0 0 0
1737 3 13.127895164152001 1.894848451729004 0 0 0 0
1740 1 14.768882059671 2.8422726775940035 1.7219931392320005 0 0 0
1743 3 16.40986895519 1.894848451729004 0 0 0 0
1746 1 18.050855850709006 2.8422726775940035 1.7219931392320005 0 0 0
1749 3 19.691842746227998 1.894848451729004 0 0 0 0
1752 1 21.332829641747004 2.8422726775940035 1.7219931392320005 0 0 0
1755 3 22.973816537265996 1.894848451729004 0 0 0 0
1758 1 24.614803432785003 2.8422726775940035 1.7219931392320005 0 0 0
1761 3 26.255790328303995 1.894848451729004 0 0 0 0
1764 1 27.896777223823 2.8422726775940035 1.7219931392320005 0 0 0
1767 3 29.537764119342008 1.894848451729004 0 0 0 0
1770 1 31.178751014861 2.8422726775940035 1.7219931392320005 0 0 0
1773 3 32.819737910380006 1.894848451729004 0 0 0 0
1776 1 34.460724805899 2.8422726775940035 1.7219931392320005 0 0 0
1779 3 36.101711701418004 1.894848451729004 0 0 0 0
1782 1 37.742698596937 2.8422726775940035 1.7219931392320005 0 0 0
1785 3 39.383685492456 1.894848451729004 0 0 0 0
1788 1 41.024672387974995 2.8422726775940035 1.7219931392320005 0 0 0
1791 3 42.665659283494 1.894848451729004 0 0 0 0
1794 1 44.30664617901301 2.8422726775940035 1.7219931392320005 0 0 0
1797 3 45.947633074532 1.894848451729004 0 0 0 0
1623 3 49.22960686557 1.894848451729004 0 -1 0 0
1800 1 47.588619970051006 2.8422726775940035 1.7219931392320005 0 0 0
1626 1 50.870593761089 2.8422726775940035 1.7219931392320005 -1 0 0
1629 3 52.511580656608 1.894848451729004 0 -1 0 0
1632 1 54.152567552126996 2.8422726775940035 1.7219931392320005 -1 0 0
1635 3 55.793554447645995 1.894848451729004 0 -1 0 0
1638 1 57.434541343164994 2.8422726775940035 1.7219931392320005 -1 0 0
1641 3 59.075528238684 1.894848451729004 0 -1 0 0
1644 1 60.716515134203 2.8422726775940035 1.7219931392320005 -1 0 0
1647 3 62.357502029722 1.894848451729004 0 -1 0 0
1650 1 63.998488925241 2.8422726775940035 1.7219931392320005 -1 0 0
1653 3 65.63947582076 1.894848451729004 0 -1 0 0
1656 1 67.280462716279 2.8422726775940035 1.7219931392320005 -1 0 0
1659 3 68.921449611798 1.894848451729004 0 -1 0 0
1662 1 70.562436507317 2.8422726775940035 1.7219931392320005 -1 0 0
1665 3 72.203423402836 1.894848451729004 0 -1 0 0
1668 1 73.844410298355 2.8422726775940035 1.7219931392320005 -1 0 0
1671 3 75.485397193874 1.894848451729004 0 -1 0 0
1674 1 77.126384089393 2.8422726775940035 1.7219931392320005 -1 0 0
1677 3 78.76737098491199 1.894848451729004 0 -1 0 0
1680 1 80.408357880431 2.8422726775940035 1.7219931392320005 -1 0 0
1683 3 82.04934477595 1.894848451729004 0 -1 0 0
1686 1 83.690331671469 2.8422726775940035 1.7219931392320005 -1 0 0
1689 3 85.33131856698799 1.894848451729004 0 -1 0 0
1692 1 86.972305462507 2.8422726775940035 1.7219931392320005 -1 0 0
1695 3 88.613292358026 1.894848451729004 0 -1 0 0
1698 1 90.25427925354501 2.8422726775940035 1.7219931392320005 -1 0 0
1701 3 91.895266149064 1.894848451729004 0 -1 0 0
1704 1 93.53625304458299 2.8422726775940035 1.7219931392320005 -1 0 0
1707 3 95.177239940102 1.894848451729004 0 -1 0 0
1710 1 96.818226835621 2.8422726775940035 1.7219931392320005 -1 0 0
1714 3 1.6409868955189992 4.7371211293230004 0 0 0 0
1720 3 4.922960686557005 4.7371211293230004 0 0 0 0
1726 3 8.204934477595003 4.7371211293230004 0 0 0 0
1732 3 11.486908268633002 4.7371211293230004 0 0 0 0
1738 3 14.768882059671 4.7371211293230004 0 0 0 0
1744 3 18.050855850709006 4.7371211293230004 0 0 0 0
1750 3 21.332829641747004 4.7371211293230004 0 0 0 0
1756 3 24.614803432785003 4.7371211293230004 0 0 0 0
1762 3 27.896777223823 4.7371211293230004 0 0 0 0
1768 3 31.178751014861 4.7371211293230004 0 0 0 0
1774 3 34.460724805899 4.7371211293230004 0 0 0 0
1780 3 37.742698596937 4.7371211293230004 0 0 0 0
1786 3 41.024672387974995 4.7371211293230004 0 0 0 0
1792 3 44.30664617901301 4.7371211293230004 0 0 0 0
1798 3 47.588619970051006 4.7371211293230004 0 0 0 0
1624 3 50.870593761089 4.7371211293230004 0 -1 0 0
1630 3 54.152567552126996 4.7371211293230004 0 -1 0 0
1636 3 57.434541343164994 4.7371211293230004 0 -1 0 0
1642 3 60.716515134203 4.7371211293230004 0 -1 0 0
1648 3 63.998488925241 4.7371211293230004 0 -1 0 0
1654 3 67.280462716279 4.7371211293230004 0 -1 0 0
1660 3 70.562436507317 4.7371211293230004 0 -1 0 0
1666 3 73.844410298355 4.7371211293230004 0 -1 0 0
1672 3 77.126384089393 4.7371211293230004 0 -1 0 0
1678 3 80.408357880431 4.7371211293230004 0 -1 0 0
1684 3 83.690331671469 4.7371211293230004 0 -1 0 0
1690 3 86.972305462507 4.7371211293230004 0 -1 0 0
1696 3 90.25427925354501 4.7371211293230004 0 -1 0 0
1702 3 93.53625304458299 4.7371211293230004 0 -1 0 0
1708 3 96.818226835621 4.7371211293230004 0 -1 0 0
1895 1 0 5.684545355188 1.7219931392320005 0 0 0
1901 1 3.2819737910379985 5.684545355188 1.7219931392320005 0 0 0
1907 1 6.563947582076004 5.684545355188 1.7219931392320005 0 0 0
1913 1 9.845921373114003 5.684545355188 1.7219931392320005 0 0 0
1919 1 13.127895164152001 5.684545355188 1.7219931392320005 0 0 0
1925 1 16.40986895519 5.684545355188 1.7219931392320005 0 0 0
1931 1 19.691842746227998 5.684545355188 1.7219931392320005 0 0 0
1937 1 22.973816537265996 5.684545355188 1.7219931392320005 0 0 0
1943 1 26.255790328303995 5.684545355188 1.7219931392320005 0 0 0
1949 1 29.537764119342008 5.684545355188 1.7219931392320005 0 0 0
1955 1 32.819737910380006 5.684545355188 1.7219931392320005 0 0 0
1961 1 36.101711701418004 5.684545355188 1.7219931392320005 0 0 0
1967 1 39.383685492456 5.684545355188 1.7219931392320005 0 0 0
1973 1 42.665659283494 5.684545355188 1.7219931392320005 0 0 0
1979 1 45.947633074532 5.684545355188 1.7219931392320005 0 0 0
1805 1 49.22960686557 5.684545355188 1.7219931392320005 -1 0 0
1811 1 52.511580656608 5.684545355188 1.7219931392320005 -1 0 0
1817 1 55.793554447645995 5.684545355188 1.7219931392320005 -1 0 0
1823 1 59.075528238684 5.684545355188 1.7219931392320005 -1 0 0
1829 1 62.357502029722 5.684545355188 1.7219931392320005 -1 0 0
1835 1 65.63947582076 5.684545355188 1.7219931392320005 -1 0 0
1841 1 68.921449611798 5.684545355188 1.7219931392320005 -1 0 0
1847 1 72.203423402836 5.684545355188 1.7219931392320005 -1 0 0
1853 1 75.485397193874 5.684545355188 1.7219931392320005 -1 0 0
1859 1 78.76737098491199 5.684545355188 1.7219931392320005 -1 0 0
1865 1 82.04934477595 5.684545355188 1.7219931392320005 -1 0 0
1871 1 85.33131856698799 5.684545355188 1.7219931392320005 -1 0 0
1877 1 88.613292358026 5.684545355188 1.7219931392320005 -1 0 0
1883 1 91.895266149064 5.684545355188 1.7219931392320005 -1 0 0
1889 1 95.177239940102 5.684545355188 1.7219931392320005 -1 0 0
1893 3 0 7.579393806917004 0 0 0 0
1896 1 1.6409868955189992 8.526818032782003 1.7219931392320005 0 0 0
1899 3 3.2819737910379985 7.579393806917004 0 0 0 0
1902 1 4.922960686557005 8.526818032782003 1.7219931392320005 0 0 0
1905 3 6.563947582076004 7.579393806917004 0 0 0 0
1908 1 8.204934477595003 8.526818032782003 1.7219931392320005 0 0 0
1911 3 9.845921373114003 7.579393806917004 0 0 0 0
1914 1 11.486908268633002 8.526818032782003 1.7219931392320005 0 0 0
1917 3 13.127895164152001 7.579393806917004 0 0 0 0
1920 1 14.768882059671 8.526818032782003 1.7219931392320005 0 0 0
1923 3 16.40986895519 7.579393806917004 0 0 0 0
1926 1 18.050855850709006 8.526818032782003 1.7219931392320005 0 0 0
1929 3 19.691842746227998 7.579393806917004 0 0 0 0
1932 1 21.332829641747004 8.526818032782003 1.7219931392320005 0 0 0
1935 3 22.973816537265996 7.579393806917004 0 0 0 0
1938 1 24.614803432785003 8.526818032782003 1.7219931392320005 0 0 0
1941 3 26.255790328303995 7.579393806917004 0 0 0 0
1944 1 27.896777223823 8.526818032782003 1.7219931392320005 0 0 0
1947 3 29.537764119342008 7.579393806917004 0 0 0 0
1950 1 31.178751014861 8.526818032782003 1.7219931392320005 0 0 0
1953 3 32.819737910380006 7.579393806917004 0 0 0 0
1956 1 34.460724805899 8.526818032782003 1.7219931392320005 0 0 0
1959 3 36.101711701418004 7.579393806917004 0 0 0 0
1962 1 37.742698596937 8.526818032782003 1.7219931392320005 0 0 0
1965 3 39.383685492456 7.579393806917004 0 0 0 0
1968 1 41.024672387974995 8.526818032782003 1.7219931392320005 0 0 0
1971 3 42.665659283494 7.579393806917004 0 0 0 0
1974 1 44.30664617901301 8.526818032782003 1.7219931392320005 0 0 0
1977 3 45.947633074532 7.579393806917004 0 0 0 0
1803 3 49.22960686557 7.579393806917004 0 -1 0 0
1980 1 47.588619970051006 8.526818032782003 1.7219931392320005 0 0 0
1806 1 50.870593761089 8.526818032782003 1.7219931392320005 -1 0 0
1809 3 52.511580656608 7.579393806917004 0 -1 0 0
1812 1 54.152567552126996 8.526818032782003 1.7219931392320005 -1 0 0
1815 3 55.793554447645995 7.579393806917004 0 -1 0 0
1818 1 57.434541343164994 8.526818032782003 1.7219931392320005 -1 0 0
1821 3 59.075528238684 7.579393806917004 0 -1 0 0
1824 1 60.716515134203 8.526818032782003 1.7219931392320005 -1 0 0
1827 3 62.357502029722 7.579393806917004 0 -1 0 0
1830 1 63.998488925241 8.526818032782003 1.7219931392320005 -1 0 0
1833 3 65.63947582076 7.579393806917004 0 -1 0 0
1836 1 67.280462716279 8.526818032782003 1.7219931392320005 -1 0 0
1839 3 68.921449611798 7.579393806917004 0 -1 0 0
1842 1 70.562436507317 8.526818032782003 1.7219931392320005 -1 0 0
1845 3 72.203423402836 7.579393806917004 0 -1 0 0
1848 1 73.844410298355 8.526818032782003 1.7219931392320005 -1 0 0
1851 3 75.485397193874 7.579393806917004 0 -1 0 0
1854 1 77.126384089393 8.526818032782003 1.7219931392320005 -1 0 0
1857 3 78.76737098491199 7.579393806917004 0 -1 0 0
1860 1 80.408357880431 8.526818032782003 1.7219931392320005 -1 0 0
1863 3 82.04934477595 7.579393806917004 0 -1 0 0
1866 1 83.690331671469 8.526818032782003 1.7219931392320005 -1 0 0
1869 3 85.33131856698799 7.579393806917004 0 -1 0 0
1872 1 86.972305462507 8.526818032782003 1.7219931392320005 -1 0 0
1875 3 88.613292358026 7.579393806917004 0 -1 0 0
1878 1 90.25427925354501 8.526818032782003 1.7219931392320005 -1 0 0
1881 3 91.895266149064 7.579393806917004 0 -1 0 0
1884 1 93.53625304458299 8.526818032782003 1.7219931392320005 -1 0 0
1887 3 95.177239940102 7.579393806917004 0 -1 0 0
1890 1 96.818226835621 8.526818032782003 1.7219931392320005 -1 0 0
1894 3 1.6409868955189992 10.421666484511 0 0 0 0
1900 3 4.922960686557005 10.421666484511 0 0 0 0
1906 3 8.204934477595003 10.421666484511 0 0 0 0
1912 3 11.486908268633002 10.421666484511 0 0 0 0
1918 3 14.768882059671 10.421666484511 0 0 0 0
1924 3 18.050855850709006 10.421666484511 0 0 0 0
1930 3 21.332829641747004 10.421666484511 0 0 0 0
1936 3 24.614803432785003 10.421666484511 0 0 0 0
1942 3 27.896777223823 10.421666484511 0 0 0 0
1948 3 31.178751014861 10.421666484511 0 0 0 0
1954 3 34.460724805899 10.421666484511 0 0 0 0
1960 3 37.742698596937 10.421666484511 0 0 0 0
1966 3 41.024672387974995 10.421666484511 0 0 0 0
1972 3 44.30664617901301 10.421666484511 0 0 0 0
1978 3 47.588619970051006 10.421666484511 0 0 0 0
1804 3 50.870593761089 10.421666484511 0 -1 0 0
1810 3 54.152567552126996 10.421666484511 0 -1 0 0
1816 3 57.434541343164994 10.421666484511 0 -1 0 0
1822 3 60.716515134203 10.421666484511 0 -1 0 0
1828 3 63.998488925241 10.421666484511 0 -1 0 0
1834 3 67.280462716279 10.421666484511 0 -1 0 0
1840 3 70.562436507317 10.421666484511 0 -1 0 0
1846 3 73.844410298355 10.421666484511 0 -1 0 0
1852 3 77.126384089393 10.421666484511 0 -1 0 0
1858 3 80.408357880431 10.421666484511 0 -1 0 0
1864 3 83.690331671469 10.421666484511 0 -1 0 0
1870 3 86.972305462507 10.421666484511 0 -1 0 0
1876 3 90.25427925354501 10.421666484511 0 -1 0 0
1882 3 93.53625304458299 10.421666484511 0 -1 0 0
1888 3 96.818226835621 10.421666484511 0 -1 0 0
2075 1 0 11.369090710376 1.7219931392320005 0 0 0
2081 1 3.2819737910379985 11.369090710376 1.7219931392320005 0 0 0
2087 1 6.563947582076004 11.369090710376 1.7219931392320005 0 0 0
2093 1 9.845921373114003 11.369090710376 1.7219931392320005 0 0 0
2099 1 13.127895164152001 11.369090710376 1.7219931392320005 0 0 0
2105 1 16.40986895519 11.369090710376 1.7219931392320005 0 0 0
2111 1 19.691842746227998 11.369090710376 1.7219931392320005 0 0 0
2117 1 22.973816537265996 11.369090710376 1.7219931392320005 0 0 0
2123 1 26.255790328303995 11.369090710376 1.7219931392320005 0 0 0
2129 1 29.537764119342008 11.369090710376 1.7219931392320005 0 0 0
2135 1 32.819737910380006 11.369090710376 1.7219931392320005 0 0 0
2141 1 36.101711701418004 11.369090710376 1.7219931392320005 0 0 0
2147 1 39.383685492456 11.369090710376 1.7219931392320005 0 0 0
2153 1 42.665659283494 11.369090710376 1.7219931392320005 0 0 0
2159 1 45.947633074532 11.369090710376 1.7219931392320005 0 0 0
1985 1 49.22960686557 11.369090710376 1.7219931392320005 -1 0 0
1991 1 52.511580656608 11.369090710376 1.7219931392320005 -1 0 0
1997 1 55.793554447645995 11.369090710376 1.7219931392320005 -1 0 0
2003 1 59.075528238684 11.369090710376 1.7219931392320005 -1 0 0
2009 1 62.357502029722 11.369090710376 1.7219931392320005 -1 0 0
2015 1 65.63947582076 11.369090710376 1.7219931392320005 -1 0 0
2021 1 68.921449611798 11.369090710376 1.7219931392320005 -1 0 0
2027 1 72.203423402836 11.369090710376 1.7219931392320005 -1 0 0
2033 1 75.485397193874 11.369090710376 1.7219931392320005 -1 0 0
2039 1 78.76737098491199 11.369090710376 1.7219931392320005 -1 0 0
2045 1 82.04934477595 11.369090710376 1.7219931392320005 -1 0 0
2051 1 85.33131856698799 11.369090710376 1.7219931392320005 -1 0 0
2057 1 88.613292358026 11.369090710376 1.7219931392320005 -1 0 0
2063 1 91.895266149064 11.369090710376 1.7219931392320005 -1 0 0
2069 1 95.177239940102 11.369090710376 1.7219931392320005 -1 0 0
2073 3 0 13.263939162104997 0 0 0 0
2076 1 1.6409868955189992 14.211363387970003 1.7219931392320005 0 0 0
2079 3 3.2819737910379985 13.263939162104997 0 0 0 0
2082 1 4.922960686557005 14.211363387970003 1.7219931392320005 0 0 0
2085 3 6.563947582076004 13.263939162104997 0 0 0 0
2088 1 8.204934477595003 14.211363387970003 1.7219931392320005 0 0 0
2091 3 9.845921373114003 13.263939162104997 0 0 0 0
2094 1 11.486908268633002 14.211363387970003 1.7219931392320005 0 0 0
2097 3 13.127895164152001 13.263939162104997 0 0 0 0
2100 1 14.768882059671 14.211363387970003 1.7219931392320005 0 0 0
2103 3 16.40986895519 13.263939162104997 0 0 0 0
2106 1 18.050855850709006 14.211363387970003 1.7219931392320005 0 0 0
2109 3 19.691842746227998 13.263939162104997 0 0 0 0
2112 1 21.332829641747004 14.211363387970003 1.7219931392320005 0 0 0
2115 3 22.973816537265996 13.263939162104997 0 0 0 0
2118 1 24.614803432785003 14.211363387970003 1.7219931392320005 0 0 0
2121 3 26.255790328303995 13.263939162104997 0 0 0 0
2124 1 27.896777223823 14.211363387970003 1.7219931392320005 0 0 0
2127 3 29.537764119342008 13.263939162104997 0 0 0 0
2130 1 31.178751014861 14.211363387970003 1.7219931392320005 0 0 0
2133 3 32.819737910380006 13.263939162104997 0 0 0 0
2136 1 34.460724805899 14.211363387970003 1.7219931392320005 0 0 0
2139 3 36.101711701418004 13.263939162104997 0 0 0 0
2142 1 37.742698596937 14.211363387970003 1.7219931392320005 0 0 0
2145 3 39.383685492456 13.263939162104997 0 0 0 0
2148 1 41.024672387974995 14.211363387970003 1.7219931392320005 0 0 0
2151 3 42.665659283494 13.263939162104997 0 0 0 0
2154 1 44.30664617901301 14.211363387970003 1.7219931392320005 0 0 0
2157 3 45.947633074532 13.263939162104997 0 0 0 0
1983 3 49.22960686557 13.263939162104997 0 -1 0 0
2160 1 47.588619970051006 14.211363387970003 1.7219931392320005 0 0 0
1986 1 50.870593761089 14.211363387970003 1.7219931392320005 -1 0 0
1989 3 52.511580656608 13.263939162104997 0 -1 0 0
1992 1 54.152567552126996 14.211363387970003 1.7219931392320005 -1 0 0
1995 3 55.793554447645995 13.263939162104997 0 -1 0 0
1998 1 57.434541343164994 14.211363387970003 1.7219931392320005 -1 0 0
2001 3 59.075528238684 13.263939162104997 0 -1 0 0
2004 1 60.716515134203 14.211363387970003 1.7219931392320005 -1 0 0
2007 3 62.357502029722 13.263939162104997 0 -1 0 0
2010 1 63.998488925241 14.211363387970003 1.7219931392320005 -1 0 0
2013 3 65.63947582076 13.263939162104997 0 -1 0 0
2016 1 67.280462716279 14.211363387970003 1.7219931392320005 -1 0 0
2019 3 68.921449611798 13.263939162104997 0 -1 0 0
2022 1 70.562436507317 14.211363387970003 1.7219931392320005 -1 0 0
2025 3 72.203423402836 13.263939162104997 0 -1 0 0
2028 1 73.844410298355 14.211363387970003 1.7219931392320005 -1 0 0
2031 3 75.485397193874 13.263939162104997 0 -1 0 0
2034 1 77.126384089393 14.211363387970003 1.7219931392320005 -1 0 0
2037 3 78.76737098491199 13.263939162104997 0 -1 0 0
2040 1 80.408357880431 14.211363387970003 1.7219931392320005 -1 0 0
2043 3 82.04934477595 13.263939162104997 0 -1 0 0
2046 1 83.690331671469 14.211363387970003 1.7219931392320005 -1 0 0
2049 3 85.33131856698799 13.263939162104997 0 -1 0 0
2052 1 86.972305462507 14.211363387970003 1.7219931392320005 -1 0 0
2055 3 88.613292358026 13.263939162104997 0 -1 0 0
2058 1 90.25427925354501 14.211363387970003 1.7219931392320005 -1 0 0
2061 3 91.895266149064 13.263939162104997 0 -1 0 0
2064 1 93.53625304458299 14.211363387970003 1.7219931392320005 -1 0 0
2067 3 95.177239940102 13.263939162104997 0 -1 0 0
2070 1 96.818226835621 14.211363387970003 1.7219931392320005 -1 0 0
2074 3 1.6409868955189992 16.106211839699007 0 0 0 0
2080 3 4.922960686557005 16.106211839699007 0 0 0 0
2086 3 8.204934477595003 16.106211839699007 0 0 0 0
2092 3 11.486908268633002 16.106211839699007 0 0 0 0
2098 3 14.768882059671 16.106211839699007 0 0 0 0
2104 3 18.050855850709006 16.106211839699007 0 0 0 0
2110 3 21.332829641747004 16.106211839699007 0 0 0 0
2116 3 24.614803432785003 16.106211839699007 0 0 0 0
2122 3 27.896777223823 16.106211839699007 0 0 0 0
2128 3 31.178751014861 16.106211839699007 0 0 0 0
2134 3 34.460724805899 16.106211839699007 0 0 0 0
2140 3 37.742698596937 16.106211839699007 0 0 0 0
2146 3 41.024672387974995 16.106211839699007 0 0 0 0
2152 3 44.30664617901301 16.106211839699007 0 0 0 0
2158 3 47.588619970051006 16.106211839699007 0 0 0 0
1984 3 50.870593761089 16.106211839699007 0 -1 0 0
1990 3 54.152567552126996 16.106211839699007 0 -1 0 0
1996 3 57.434541343164994 16.106211839699007 0 -1 0 0
2002 3 60.716515134203 16.106211839699007 0 -1 0 0
2008 3 63.998488925241 16.106211839699007 0 -1 0 0
2014 3 67.280462716279 16.106211839699007 0 -1 0 0
2020 3 70.562436507317 16.106211839699007 0 -1 0 0
2026 3 73.844410298355 16.106211839699007 0 -1 0 0
2032 3 77.126384089393 16.106211839699007 0 -1 0 0
2038 3 80.408357880431 16.106211839699007 0 -1 0 0
2044 3 83.690331671469 16.106211839699007 0 -1 0 0
2050 3 86.972305462507 16.106211839699007 0 -1 0 0
2056 3 90.25427925354501 16.106211839699007 0 -1 0 0
2062 3 93.53625304458299 16.106211839699007 0 -1 0 0
2068 3 96.818226835621 16.106211839699007 0 -1 0 0
2255 1 0 17.053636065564 1.7219931392320005 0 0 0
2261 1 3.2819737910379985 17.053636065564 1.7219931392320005 0 0 0
2267 1 6.563947582076004 17.053636065564 1.7219931392320005 0 0 0
2273 1 9.845921373114003 17.053636065564 1.7219931392320005 0 0 0
2279 1 13.127895164152001 17.053636065564 1.7219931392320005 0 0 0
2285 1 16.40986895519 17.053636065564 1.7219931392320005 0 0 0
2291 1 19.691842746227998 17.053636065564 1.7219931392320005 0 0 0
2297 1 22.973816537265996 17.053636065564 1.7219931392320005 0 0 0
2303 1 26.255790328303995 17.053636065564 1.7219931392320005 0 0 0
2309 1 29.537764119342008 17.053636065564 1.7219931392320005 0 0 0
2315 1 32.819737910380006 17.053636065564 1.7219931392320005 0 0 0
2321 1 36.101711701418004 17.053636065564 1.7219931392320005 0 0 0
2327 1 39.383685492456 17.053636065564 1.7219931392320005 0 0 0
2333 1 42.665659283494 17.053636065564 1.7219931392320005 0 0 0
2339 1 45.947633074532 17.053636065564 1.7219931392320005 0 0 0
2165 1 49.22960686557 17.053636065564 1.7219931392320005 -1 0 0
2171 1 52.511580656608 17.053636065564 1.7219931392320005 -1 0 0
2177 1 55.793554447645995 17.053636065564 1.7219931392320005 -1 0 0
2183 1 59.075528238684 17.053636065564 1.7219931392320005 -1 0 0
2189 1 62.357502029722 17.053636065564 1.7219931392320005 -1 0 0
2195 1 65.63947582076 17.053636065564 1.7219931392320005 -1 0 0
2201 1 68.921449611798 17.053636065564 1.7219931392320005 -1 0 0
2207 1 72.203423402836 17.053636065564 1.7219931392320005 -1 0 0
2213 1 75.485397193874 17.053636065564 1.7219931392320005 -1 0 0
2219 1 78.76737098491199 17.053636065564 1.7219931392320005 -1 0 0
2225 1 82.04934477595 17.053636065564 1.7219931392320005 -1 0 0
2231 1 85.33131856698799 17.053636065564 1.7219931392320005 -1 0 0
2237 1 88.613292358026 17.053636065564 1.7219931392320005 -1 0 0
2243 1 91.895266149064 17.053636065564 1.7219931392320005 -1 0 0
2249 1 95.177239940102 17.053636065564 1.7219931392320005 -1 0 0
2253 3 0 18.948484517293004 0 0 0 0
2256 1 1.6409868955189992 19.895908743157996 1.7219931392320005 0 0 0
2259 3 3.2819737910379985 18.948484517293004 0 0 0 0
2262 1 4.922960686557005 19.895908743157996 1.7219931392320005 0 0 0
2265 3 6.563947582076004 18.948484517293004 0 0 0 0
2268 1 8.204934477595003 19.895908743157996 1.7219931392320005 0 0 0
2271 3 9.845921373114003 18.948484517293004 0 0 0 0
2274 1 11.486908268633002 19.895908743157996 1.7219931392320005 0 0 0
2277 3 13.127895164152001 18.948484517293004 0 0 0 0
2280 1 14.768882059671 19.895908743157996 1.7219931392320005 0 0 0
2283 3 16.40986895519 18.948484517293004 0 0 0 0
2286 1 18.050855850709006 19.895908743157996 1.7219931392320005 0 0 0
2289 3 19.691842746227998 18.948484517293004 0 0 0 0
2292 1 21.332829641747004 19.895908743157996 1.7219931392320005 0 0 0
2295 3 22.973816537265996 18.948484517293004 0 0 0 0
2298 1 24.614803432785003 19.895908743157996 1.7219931392320005 0 0 0
2301 3 26.255790328303995 18.948484517293004 0 0 0 0
2304 1 27.896777223823 19.895908743157996 1.7219931392320005 0 0 0
2307 3 29.537764119342008 18.948484517293004 0 0 0 0
2310 1 31.178751014861 19.895908743157996 1.7219931392320005 0 0 0
2313 3 32.819737910380006 18.948484517293004 0 0 0 0
2316 1 34.460724805899 19.895908743157996 1.7219931392320005 0 0 0
2319 3 36.101711701418004 18.948484517293004 0 0 0 0
2322 1 37.742698596937 19.895908743157996 1.7219931392320005 0 0 0
2325 3 39.383685492456 18.948484517293004 0 0 0 0
2328 1 41.024672387974995 19.895908743157996 1.7219931392320005 0 0 0
2331 3 42.665659283494 18.948484517293004 0 0 0 0
2334 1 44.30664617901301 19.895908743157996 1.7219931392320005 0 0 0
2337 3 45.947633074532 18.948484517293004 0 0 0 0
2163 3 49.22960686557 18.948484517293004 0 -1 0 0
2340 1 47.588619970051006 19.895908743157996 1.7219931392320005 0 0 0
2166 1 50.870593761089 19.895908743157996 1.7219931392320005 -1 0 0
2169 3 52.511580656608 18.948484517293004 0 -1 0 0
2172 1 54.152567552126996 19.895908743157996 1.7219931392320005 -1 0 0
2175 3 55.793554447645995 18.948484517293004 0 -1 0 0
2178 1 57.434541343164994 19.895908743157996 1.7219931392320005 -1 0 0
2181 3 59.075528238684 18.948484517293004 0 -1 0 0
2184 1 60.716515134203 19.895908743157996 1.7219931392320005 -1 0 0
2187 3 62.357502029722 18.948484517293004 0 -1 0 0
2190 1 63.998488925241 19.895908743157996 1.7219931392320005 -1 0 0
2193 3 65.63947582076 18.948484517293004 0 -1 0 0
2196 1 67.280462716279 19.895908743157996 1.7219931392320005 -1 0 0
2199 3 68.921449611798 18.948484517293004 0 -1 0 0
2202 1 70.562436507317 19.895908743157996 1.7219931392320005 -1 0 0
2205 3 72.203423402836 18.948484517293004 0 -1 0 0
2208 1 73.844410298355 19.895908743157996 1.7219931392320005 -1 0 0
2211 3 75.485397193874 18.948484517293004 0 -1 0 0
2214 1 77.126384089393 19.895908743157996 1.7219931392320005 -1 0 0
2217 3 78.76737098491199 18.948484517293004 0 -1 0 0
2220 1 80.408357880431 19.895908743157996 1.7219931392320005 -1 0 0
2223 3 82.04934477595 18.948484517293004 0 -1 0 0
2226 1 83.690331671469 19.895908743157996 1.7219931392320005 -1 0 0
2229 3 85.33131856698799 18.948484517293004 0 -1 0 0
2232 1 86.972305462507 19.895908743157996 1.7219931392320005 -1 0 0
2235 3 88.613292358026 18.948484517293004 0 -1 0 0
2238 1 90.25427925354501 19.895908743157996 1.7219931392320005 -1 0 0
2241 3 91.895266149064 18.948484517293004 0 -1 0 0
2244 1 93.53625304458299 19.895908743157996 1.7219931392320005 -1 0 0
2247 3 95.177239940102 18.948484517293004 0 -1 0 0
2250 1 96.818226835621 19.895908743157996 1.7219931392320005 -1 0 0
2254 3 1.6409868955189992 21.790757194887 0 0 0 0
2260 3 4.922960686557005 21.790757194887 0 0 0 0
2266 3 8.204934477595003 21.790757194887 0 0 0 0
2272 3 11.486908268633002 21.790757194887 0 0 0 0
2278 3 14.768882059671 21.790757194887 0 0 0 0
2284 3 18.050855850709006 21.790757194887 0 0 0 0
2290 3 21.332829641747004 21.790757194887 0 0 0 0
2296 3 24.614803432785003 21.790757194887 0 0 0 0
2302 3 27.896777223823 21.790757194887 0 0 0 0
2308 3 31.178751014861 21.790757194887 0 0 0 0
2314 3 34.460724805899 21.790757194887 0 0 0 0
2320 3 37.742698596937 21.790757194887 0 0 0 0
2326 3 41.024672387974995 21.790757194887 0 0 0 0
2332 3 44.30664617901301 21.790757194887 0 0 0 0
2338 3 47.588619970051006 21.790757194887 0 0 0 0
2164 3 50.870593761089 21.790757194887 0 -1 0 0
2170 3 54.152567552126996 21.790757194887 0 -1 0 0
2176 3 57.434541343164994 21.790757194887 0 -1 0 0
2182 3 60.716515134203 21.790757194887 0 -1 0 0
2188 3 63.998488925241 21.790757194887 0 -1 0 0
2194 3 67.280462716279 21.790757194887 0 -1 0 0
2200 3 70.562436507317 21.790757194887 0 -1 0 0
2206 3 73.844410298355 21.790757194887 0 -1 0 0
2212 3 77.126384089393 21.790757194887 0 -1 0 0
2218 3 80.408357880431 21.790757194887 0 -1 0 0
2224 3 83.690331671469 21.790757194887 0 -1 0 0
2230 3 86.972305462507 21.790757194887 0 -1 0 0
2236 3 90.25427925354501 21.790757194887 0 -1 0 0
2242 3 93.53625304458299 21.790757194887 0 -1 0 0
2248 3 96.818226835621 21.790757194887 0 -1 0 0
2435 1 0 22.738181420752007 1.7219931392320005 0 0 0
2441 1 3.2819737910379985 22.738181420752007 1.7219931392320005 0 0 0
2447 1 6.563947582076004 22.738181420752007 1.7219931392320005 0 0 0
2453 1 9.845921373114003 22.738181420752007 1.7219931392320005 0 0 0
2459 1 13.127895164152001 22.738181420752007 1.7219931392320005 0 0 0
2465 1 16.40986895519 22.738181420752007 1.7219931392320005 0 0 0
2471 1 19.691842746227998 22.738181420752007 1.7219931392320005 0 0 0
2477 1 22.973816537265996 22.738181420752007 1.7219931392320005 0 0 0
2483 1 26.255790328303995 22.738181420752007 1.7219931392320005 0 0 0
2489 1 29.537764119342008 22.738181420752007 1.7219931392320005 0 0 0
2495 1 32.819737910380006 22.738181420752007 1.7219931392320005 0 0 0
2501 1 36.101711701418004 22.738181420752007 1.7219931392320005 0 0 0
2507 1 39.383685492456 22.738181420752007 1.7219931392320005 0 0 0
2513 1 42.665659283494 22.738181420752007 1.7219931392320005 0 0 0
2519 1 45.947633074532 22.738181420752007 1.7219931392320005 0 0 0
2345 1 49.22960686557 22.738181420752007 1.7219931392320005 -1 0 0
2351 1 52.511580656608 22.738181420752007 1.7219931392320005 -1 0 0
2357 1 55.793554447645995 22.738181420752007 1.7219931392320005 -1 0 0
2363 1 59.075528238684 22.738181420752007 1.7219931392320005 -1 0 0
2369 1 62.357502029722 22.738181420752007 1.7219931392320005 -1 0 0
2375 1 65.63947582076 22.738181420752007 1.7219931392320005 -1 0 0
2381 1 68.921449611798 22.738181420752007 1.7219931392320005 -1 0 0
2387 1 72.203423402836 22.738181420752007 1.7219931392320005 -1 0 0
2393 1 75.485397193874 22.738181420752007 1.7219931392320005 -1 0 0
2399 1 78.76737098491199 22.738181420752007 1.7219931392320005 -1 0 0
2405 1 82.04934477595 22.738181420752007 1.7219931392320005 -1 0 0
2411 1 85.33131856698799 22.738181420752007 1.7219931392320005 -1 0 0
2417 1 88.613292358026 22.738181420752007 1.7219931392320005 -1 0 0
2423 1 91.895266149064 22.738181420752007 1.7219931392320005 -1 0 0
2429 1 95.177239940102 22.738181420752007 1.7219931392320005 -1 0 0
2433 3 0 24.633029872480996 0 0 0 0