LAMMPS data file via write_data, version 29 Aug 2024, timestep = 3, units = metal

6480 atoms
6 atom types

0 98.45921373114 xlo xhi
0 102.321816393384 ylo yhi
-50 50 zlo zhi

Masses

1 95.95
2 95.95
3 78.971
4 78.971
5 78.971
6 78.971

Atoms # atomic

1713 4 1.0201386829193337e-15 1.8948309830106806 0.03217200610582444 0 0 0
1716 1 1.6409868955190015 2.8420324948629014 1.7213212929829138 0 0 0
1719 4 3.2819737910380002 1.8948309830106804 0.032172006105823346 0 0 0
1722 1 4.922960686557003 2.8420324948629014 1.7213212929829138 0 0 0
1714 4 1.6409868955190008 4.737103660604678 0.032172006105823575 0 0 0
1720 4 4.922960686557004 4.737103660604678 0.03217200610582285 0 0 0
1895 1 1.6533819308125006e-15 5.6843051724569005 1.7213212929829138 0 0 0
1901 1 3.2819737910380007 5.6843051724569005 1.7213212929829138 0 0 0
1725 4 6.563947582076004 1.8948309830106802 0.03217200610582373 0 0 0
1728 1 8.204934477595003 2.8420324948629014 1.7213212929829138 0 0 0
1731 4 9.845921373114003 1.8948309830106806 0.03217200610582399 0 0 0
1734 1 11.486908268633002 2.8420324948629014 1.7213212929829138 0 0 0
1726 4 8.204934477595003 4.737103660604678 0.03217200610582351 0 0 0
1732 4 11.486908268633002 4.737103660604678 0.032172006105823485 0 0 0
1907 1 6.563947582076003 5.6843051724569005 1.7213212929829138 0 0 0
1913 1 9.845921373114003 5.6843051724569005 1.7213212929829138 0 0 0
1737 4 13.127895164152001 1.8948309830106806 0.03217200610582401 0 0 0
1740 1 14.768882059671 2.8420324948629014 1.7213212929829138 0 0 0
1743 4 16.40986895519 1.8948309830106809 0.03217200610582357 0 0 0
1738 4 14.768882059671 4.737103660604678 0.032172006105823193 0 0 0
1919 1 13.127895164152001 5.6843051724569005 1.7213212929829138 0 0 0
1925 1 16.40986895519 5.6843051724569005 1.7213212929829138 0 0 0
1746 1 18.050855850709002 2.8420324948629014 1.7213212929829138 0 0 0
1749 4 19.691842746227998 1.8948309830106804 0.03217200610582405 0 0 0
1752 1 21.332829641747004 2.8420324948629014 1.7213212929829138 0 0 0
1755 4 22.973816537265996 1.8948309830106806 0.03217200610582406 0 0 0
1744 4 18.050855850709006 4.737103660604678 0.032172006105823214 0 0 0
1750 4 21.332829641747004 4.737103660604678 0.03217200610582351 0 0 0
1931 1 19.691842746227998 5.6843051724569005 1.7213212929829138 0 0 0
1937 1 22.973816537265996 5.6843051724569005 1.7213212929829138 0 0 0
1758 1 24.614803432785003 2.8420324948629014 1.7213212929829138 0 0 0
1761 4 26.255790328303995 1.8948309830106802 0.032172006105823284 0 0 0
1764 1 27.896777223823 2.8420324948629014 1.7213212929829138 0 0 0
1756 4 24.614803432785003 4.737103660604678 0.032172006105823533 0 0 0
1762 4 27.896777223823 4.737103660604679 0.03217200610582277 0 0 0
1943 1 26.255790328304 5.6843051724569005 1.7213212929829138 0 0 0
1767 4 29.537764119342008 1.8948309830106802 0.032172006105823284 0 0 0
1770 1 31.178751014861 2.8420324948629014 1.7213212929829138 0 0 0
1773 4 32.819737910380006 1.8948309830106806 0.03217200610582407 0 0 0
1776 1 34.460724805899 2.8420324948629014 1.7213212929829138 0 0 0
1768 4 31.178751014861 4.737103660604678 0.032172006105823533 0 0 0
1774 4 34.460724805899 4.737103660604678 0.0321720061058235 0 0 0
1949 1 29.537764119342004 5.6843051724569005 1.7213212929829138 0 0 0
1955 1 32.819737910380006 5.6843051724569005 1.7213212929829138 0 0 0
1779 4 36.101711701418004 1.8948309830106806 0.032172006105824026 0 0 0
1782 1 37.742698596937 2.8420324948629014 1.7213212929829138 0 0 0
1785 4 39.383685492456 1.8948309830106806 0.03217200610582403 0 0 0
1780 4 37.742698596937 4.737103660604678 0.03217200610582352 0 0 0
1961 1 36.101711701418004 5.6843051724569005 1.7213212929829138 0 0 0
1967 1 39.383685492456 5.6843051724569005 1.7213212929829138 0 0 0
1788 1 41.024672387974995 2.8420324948629014 1.7213212929829138 0 0 0
1791 4 42.665659283494 1.8948309830106804 0.032172006105823124 0 0 0
1794 1 44.30664617901301 2.8420324948629014 1.7213212929829138 0 0 0
1797 4 45.947633074532 1.8948309830106806 0.032172006105824054 0 0 0
1786 4 41.024672387974995 4.737103660604678 0.032172006105822826 0 0 0
1792 4 44.30664617901301 4.737103660604678 0.032172006105822805 0 0 0
1973 1 42.665659283494 5.6843051724569005 1.7213212929829138 0 0 0
1979 1 45.947633074532 5.6843051724569005 1.7213212929829138 0 0 0
1623 4 49.22960686557 1.8948309830106806 0.03217200610582439 -1 0 0
1800 1 47.588619970051006 2.8420324948629014 1.7213212929829138 0 0 0
1626 1 50.870593761089 2.8420324948629014 1.7213212929829138 -1 0 0
1798 4 47.588619970051006 4.737103660604679 0.032172006105823894 0 0 0
1624 4 50.870593761089 4.737103660604678 0.03217200610582385 -1 0 0
1805 1 49.22960686557 5.6843051724569005 1.7213212929829138 -1 0 0
1629 4 52.511580656608 1.8948309830106806 0.03217200610582404 -1 0 0
1632 1 54.152567552126996 2.8420324948629014 1.7213212929829138 -1 0 0
1635 4 55.793554447645995 1.8948309830106802 0.032172006105823776 -1 0 0
1638 1 57.434541343164994 2.8420324948629014 1.7213212929829138 -1 0 0
1630 4 54.152567552126996 4.737103660604678 0.03217200610582355 -1 0 0
1636 4 57.434541343164994 4.737103660604678 0.03217200610582274 -1 0 0
1811 1 52.511580656608 5.6843051724569005 1.7213212929829138 -1 0 0
1817 1 55.793554447645995 5.6843051724569005 1.7213212929829138 -1 0 0
1641 4 59.075528238684 1.8948309830106802 0.03217200610582325 -1 0 0
1644 1 60.716515134203 2.8420324948629014 1.7213212929829138 -1 0 0
1647 4 62.357502029722 1.8948309830106806 0.03217200610582407 -1 0 0
1642 4 60.716515134203 4.737103660604678 0.03217200610582326 -1 0 0
1823 1 59.075528238684 5.6843051724569005 1.7213212929829138 -1 0 0
1829 1 62.357502029722 5.6843051724569005 1.7213212929829138 -1 0 0
1650 1 63.998488925241 2.8420324948629014 1.7213212929829138 -1 0 0
1653 4 65.63947582076 1.8948309830106806 0.03217200610582362 -1 0 0
1656 1 67.280462716279 2.8420324948629014 1.7213212929829138 -1 0 0
1659 4 68.921449611798 1.8948309830106806 0.032172006105824075 -1 0 0
1648 4 63.998488925241 4.737103660604678 0.032172006105823214 -1 0 0
1654 4 67.280462716279 4.737103660604678 0.032172006105823214 -1 0 0
1835 1 65.63947582076 5.6843051724569005 1.7213212929829138 -1 0 0
1841 1 68.921449611798 5.6843051724569005 1.7213212929829138 -1 0 0
1662 1 70.562436507317 2.8420324948629014 1.7213212929829138 -1 0 0
1665 4 72.203423402836 1.8948309830106806 0.03217200610582403 -1 0 0
1668 1 73.844410298355 2.8420324948629014 1.7213212929829138 -1 0 0
1660 4 70.562436507317 4.737103660604678 0.03217200610582351 -1 0 0
1666 4 73.844410298355 4.737103660604678 0.0321720061058235 -1 0 0
1847 1 72.203423402836 5.6843051724569005 1.7213212929829138 -1 0 0
1671 4 75.485397193874 1.8948309830106806 0.03217200610582406 -1 0 0
1674 1 77.126384089393 2.8420324948629014 1.7213212929829138 -1 0 0
1677 4 78.76737098491199 1.8948309830106802 0.03217200610582328 -1 0 0
1680 1 80.408357880431 2.8420324948629014 1.7213212929829138 -1 0 0
1672 4 77.126384089393 4.737103660604678 0.032172006105823596 -1 0 0
1678 4 80.408357880431 4.737103660604678 0.032172006105822645 -1 0 0
1853 1 75.485397193874 5.6843051724569005 1.7213212929829138 -1 0 0
1859 1 78.76737098491199 5.6843051724569005 1.7213212929829138 -1 0 0
1683 4 82.04934477595 1.8948309830106806 0.03217200610582406 -1 0 0
1686 1 83.690331671469 2.8420324948629014 1.7213212929829138 -1 0 0
1689 4 85.33131856698799 1.8948309830106806 0.03217200610582405 -1 0 0
1684 4 83.690331671469 4.737103660604678 0.032172006105824456 -1 0 0
1865 1 82.04934477595 5.6843051724569005 1.7213212929829138 -1 0 0
1871 1 85.33131856698799 5.6843051724569005 1.7213212929829138 -1 0 0
1692 1 86.972305462507 2.8420324948629014 1.7213212929829138 -1 0 0
1695 4 88.613292358026 1.8948309830106798 0.03217200610582241 -1 0 0
1698 1 90.25427925354501 2.8420324948629014 1.7213212929829138 -1 0 0
1701 4 91.895266149064 1.8948309830106809 0.03217200610582504 -1 0 0
1690 4 86.972305462507 4.737103660604678 0.03217200610582189 -1 0 0
1696 4 90.25427925354501 4.737103660604678 0.0321720061058236 -1 0 0
1877 1 88.613292358026 5.6843051724569005 1.7213212929829138 -1 0 0
1883 1 91.895266149064 5.6843051724569005 1.7213212929829138 -1 0 0
1704 1 93.53625304458299 2.8420324948629014 1.7213212929829138 -1 0 0
1707 4 95.177239940102 1.8948309830106804 0.03217200610582313 -1 0 0
1710 1 96.818226835621 2.8420324948629014 1.7213212929829138 -1 0 0
1702 4 93.53625304458299 4.737103660604678 0.032172006105823533 -1 0 0
1708 4 96.818226835621 4.737103660604678 0.03217200610582319 -1 0 0
1889 1 95.177239940102 5.6843051724569005 1.7213212929829138 -1 0 0
1893 4 1.0312618120978543e-15 7.5793763381986805 0.03217200610582353 0 0 0
1896 1 1.6409868955190015 8.526577850050902 1.7213212929829136 0 0 0
1899 4 3.2819737910380002 7.57937633819868 0.03217200610582241 0 0 0
1902 1 4.922960686557003 8.526577850050902 1.7213212929829136 0 0 0
1894 4 1.640986895519001 10.421649015792678 0.032172006105823735 0 0 0
1900 4 4.922960686557004 10.421649015792678 0.03217200610582298 0 0 0
2075 1 1.7407926582695038e-15 11.3688505276449 1.7213212929829136 0 0 0
2081 1 3.281973791038001 11.3688505276449 1.7213212929829138 0 0 0
1905 4 6.563947582076004 7.57937633819868 0.03217200610582277 0 0 0
1908 1 8.204934477595003 8.526577850050902 1.7213212929829136 0 0 0
1911 4 9.845921373114003 7.5793763381986805 0.032172006105823034 0 0 0
1914 1 11.486908268633002 8.526577850050902 1.7213212929829136 0 0 0
1906 4 8.204934477595003 10.421649015792678 0.03217200610582361 0 0 0
1912 4 11.486908268633002 10.421649015792678 0.03217200610582366 0 0 0
2087 1 6.563947582076003 11.3688505276449 1.7213212929829136 0 0 0
2093 1 9.845921373114003 11.3688505276449 1.7213212929829136 0 0 0
1917 4 13.127895164152001 7.5793763381986805 0.03217200610582305 0 0 0
1920 1 14.768882059671 8.526577850050902 1.7213212929829136 0 0 0
1923 4 16.40986895519 7.5793763381986805 0.032172006105822756 0 0 0
1918 4 14.768882059671 10.421649015792678 0.032172006105823346 0 0 0
2099 1 13.127895164152001 11.3688505276449 1.7213212929829136 0 0 0
2105 1 16.40986895519 11.3688505276449 1.7213212929829138 0 0 0
1926 1 18.050855850709002 8.526577850050902 1.7213212929829136 0 0 0
1929 4 19.691842746227998 7.57937633819868 0.03217200610582304 0 0 0
1932 1 21.332829641747004 8.526577850050902 1.7213212929829136 0 0 0
1935 4 22.973816537265996 7.57937633819868 0.03217200610582311 0 0 0
1924 4 18.050855850709006 10.421649015792678 0.03217200610582331 0 0 0
1930 4 21.332829641747004 10.421649015792678 0.032172006105823756 0 0 0
2111 1 19.691842746227998 11.3688505276449 1.7213212929829136 0 0 0
2117 1 22.973816537265996 11.3688505276449 1.7213212929829136 0 0 0
1938 1 24.614803432785003 8.5265778500509 1.7213212929829136 0 0 0
1941 4 26.255790328303995 7.579376338198678 0.0321720061058224 0 0 0
1944 1 27.896777223823 8.5265778500509 1.7213212929829136 0 0 0
1936 4 24.614803432785003 10.421649015792676 0.0321720061058237 0 0 0
1942 4 27.896777223823 10.421649015792678 0.03217200610582278 0 0 0
2123 1 26.255790328304 11.3688505276449 1.7213212929829136 0 0 0
1947 4 29.537764119342008 7.579376338198678 0.0321720061058224 0 0 0
1950 1 31.178751014861 8.5265778500509 1.7213212929829136 0 0 0
1953 4 32.819737910380006 7.57937633819868 0.032172006105823096 0 0 0
1956 1 34.460724805899 8.526577850050902 1.7213212929829136 0 0 0
1948 4 31.178751014861 10.421649015792676 0.032172006105823686 0 0 0
1954 4 34.460724805899 10.421649015792678 0.03217200610582378 0 0 0
2129 1 29.537764119342004 11.3688505276449 1.7213212929829136 0 0 0
2135 1 32.819737910380006 11.3688505276449 1.7213212929829136 0 0 0
1959 4 36.101711701418004 7.57937633819868 0.03217200610582306 0 0 0
1962 1 37.742698596937 8.526577850050902 1.7213212929829136 0 0 0
1965 4 39.383685492456 7.57937633819868 0.03217200610582314 0 0 0
1960 4 37.742698596937 10.421649015792678 0.032172006105823756 0 0 0
2141 1 36.101711701418004 11.3688505276449 1.7213212929829136 0 0 0
2147 1 39.383685492456 11.3688505276449 1.7213212929829136 0 0 0
1968 1 41.024672387974995 8.526577850050902 1.7213212929829136 0 0 0
1971 4 42.665659283494 7.57937633819868 0.03217200610582218 0 0 0
1974 1 44.30664617901301 8.526577850050902 1.7213212929829136 0 0 0
1977 4 45.947633074532 7.57937633819868 0.03217200610582309 0 0 0
1966 4 41.024672387974995 10.421649015792676 0.03217200610582303 0 0 0
1972 4 44.30664617901301 10.421649015792676 0.032172006105823006 0 0 0
2153 1 42.665659283494 11.3688505276449 1.7213212929829138 0 0 0
2159 1 45.947633074532 11.3688505276449 1.7213212929829136 0 0 0
1803 4 49.22960686557 7.5793763381986805 0.03217200610582349 -1 0 0
1980 1 47.588619970051006 8.526577850050902 1.7213212929829136 0 0 0
1806 1 50.870593761089 8.526577850050902 1.7213212929829136 -1 0 0
1978 4 47.588619970051006 10.421649015792678 0.0321720061058241 0 0 0
1804 4 50.870593761089 10.421649015792678 0.032172006105824054 -1 0 0
1985 1 49.22960686557 11.3688505276449 1.7213212929829136 -1 0 0
1809 4 52.511580656608 7.5793763381986805 0.03217200610582299 -1 0 0
1812 1 54.152567552126996 8.526577850050902 1.7213212929829134 -1 0 0
1815 4 55.793554447645995 7.57937633819868 0.032172006105822805 -1 0 0
1818 1 57.434541343164994 8.526577850050902 1.7213212929829136 -1 0 0
1810 4 54.152567552126996 10.421649015792678 0.03217200610582368 -1 0 0
1816 4 57.434541343164994 10.421649015792678 0.03217200610582283 -1 0 0
1991 1 52.511580656608 11.3688505276449 1.7213212929829136 -1 0 0
1997 1 55.793554447645995 11.3688505276449 1.7213212929829138 -1 0 0
1821 4 59.075528238684 7.57937633819868 0.03217200610582228 -1 0 0
1824 1 60.716515134203 8.526577850050902 1.7213212929829136 -1 0 0
1827 4 62.357502029722 7.5793763381986805 0.03217200610582311 -1 0 0
1822 4 60.716515134203 10.421649015792678 0.03217200610582332 -1 0 0
2003 1 59.075528238684 11.3688505276449 1.7213212929829138 -1 0 0
2009 1 62.357502029722 11.3688505276449 1.7213212929829136 -1 0 0
1830 1 63.998488925241 8.526577850050902 1.7213212929829136 -1 0 0
1833 4 65.63947582076 7.57937633819868 0.0321720061058227 -1 0 0
1836 1 67.280462716279 8.526577850050902 1.7213212929829134 -1 0 0
1839 4 68.921449611798 7.57937633819868 0.032172006105823096 -1 0 0
1828 4 63.998488925241 10.421649015792678 0.032172006105823346 -1 0 0
1834 4 67.280462716279 10.421649015792676 0.032172006105823374 -1 0 0
2015 1 65.63947582076 11.3688505276449 1.7213212929829136 -1 0 0
2021 1 68.921449611798 11.3688505276449 1.7213212929829136 -1 0 0
1842 1 70.562436507317 8.526577850050902 1.7213212929829136 -1 0 0
1845 4 72.203423402836 7.57937633819868 0.03217200610582306 -1 0 0
1848 1 73.844410298355 8.526577850050902 1.7213212929829136 -1 0 0
1840 4 70.562436507317 10.421649015792678 0.03217200610582375 -1 0 0
1846 4 73.844410298355 10.421649015792678 0.03217200610582379 -1 0 0
2027 1 72.203423402836 11.3688505276449 1.7213212929829136 -1 0 0
1851 4 75.485397193874 7.57937633819868 0.032172006105823096 -1 0 0
1854 1 77.126384089393 8.5265778500509 1.7213212929829136 -1 0 0
1857 4 78.76737098491199 7.579376338198678 0.03217200610582237 -1 0 0
1860 1 80.408357880431 8.5265778500509 1.7213212929829136 -1 0 0
1852 4 77.126384089393 10.421649015792678 0.03217200610582375 -1 0 0
1858 4 80.408357880431 10.421649015792676 0.0321720061058227 -1 0 0
2033 1 75.485397193874 11.3688505276449 1.7213212929829136 -1 0 0
2039 1 78.76737098491199 11.368850527644899 1.7213212929829136 -1 0 0
1863 4 82.04934477595 7.57937633819868 0.03217200610582309 -1 0 0
1866 1 83.690331671469 8.5265778500509 1.7213212929829136 -1 0 0
1869 4 85.33131856698799 7.57937633819868 0.03217200610582318 -1 0 0
1864 4 83.690331671469 10.421649015792678 0.03217200610582468 -1 0 0
2045 1 82.04934477595 11.3688505276449 1.7213212929829136 -1 0 0
2051 1 85.33131856698799 11.368850527644899 1.7213212929829136 -1 0 0
1872 1 86.972305462507 8.5265778500509 1.7213212929829136 -1 0 0
1875 4 88.613292358026 7.579376338198679 0.03217200610582153 -1 0 0
1878 1 90.25427925354501 8.526577850050902 1.7213212929829136 -1 0 0
1881 4 91.895266149064 7.5793763381986805 0.032172006105824116 -1 0 0
1870 4 86.972305462507 10.421649015792676 0.032172006105822055 -1 0 0
1876 4 90.25427925354501 10.421649015792678 0.032172006105823756 -1 0 0
2057 1 88.613292358026 11.3688505276449 1.7213212929829136 -1 0 0
2063 1 91.895266149064 11.3688505276449 1.7213212929829136 -1 0 0
1884 1 93.53625304458299 8.526577850050902 1.7213212929829136 -1 0 0
1887 4 95.177239940102 7.57937633819868 0.0321720061058221 -1 0 0
1890 1 96.818226835621 8.526577850050902 1.7213212929829134 -1 0 0
1882 4 93.53625304458299 10.421649015792678 0.032172006105823756 -1 0 0
1888 4 96.818226835621 10.421649015792676 0.03217200610582339 -1 0 0
2069 1 95.177239940102 11.3688505276449 1.7213212929829136 -1 0 0
2073 4 9.76596552918981e-16 13.263921693386676 0.03217200610582357 0 0 0
2076 1 1.6409868955190015 14.211123205238898 1.7213212929829136 0 0 0
2079 4 3.2819737910380002 13.263921693386678 0.032172006105822465 0 0 0
2082 1 4.922960686557003 14.2111232052389 1.7213212929829138 0 0 0
2074 4 1.640986895519001 16.10619437098068 0.0321720061058229 0 0 0
2080 4 4.922960686557004 16.10619437098068 0.03217200610582221 0 0 0
2255 1 1.6308800175202613e-15 17.053395882832902 1.7213212929829136 0 0 0
2261 1 3.2819737910380007 17.053395882832902 1.7213212929829136 0 0 0
2085 4 6.563947582076004 13.263921693386676 0.03217200610582287 0 0 0
2088 1 8.204934477595003 14.211123205238898 1.7213212929829138 0 0 0
2091 4 9.845921373114003 13.263921693386676 0.03217200610582326 0 0 0
2094 1 11.486908268633002 14.211123205238898 1.7213212929829138 0 0 0
2086 4 8.204934477595003 16.10619437098068 0.03217200610582291 0 0 0
2092 4 11.486908268633002 16.10619437098068 0.03217200610582293 0 0 0
2267 1 6.563947582076003 17.053395882832902 1.7213212929829136 0 0 0
2273 1 9.845921373114003 17.053395882832902 1.7213212929829136 0 0 0
2097 4 13.127895164152001 13.263921693386676 0.03217200610582328 0 0 0
2100 1 14.768882059671 14.211123205238898 1.7213212929829138 0 0 0
2103 4 16.40986895519 13.263921693386676 0.032172006105822784 0 0 0
2098 4 14.768882059671 16.10619437098068 0.0321720061058225 0 0 0
2279 1 13.127895164152001 17.053395882832902 1.7213212929829136 0 0 0
2285 1 16.40986895519 17.053395882832902 1.7213212929829136 0 0 0
2106 1 18.050855850709002 14.211123205238898 1.7213212929829138 0 0 0
2109 4 19.691842746227998 13.263921693386676 0.03217200610582315 0 0 0
2112 1 21.332829641747004 14.211123205238898 1.7213212929829138 0 0 0
2115 4 22.973816537265996 13.263921693386676 0.03217200610582322 0 0 0
2104 4 18.050855850709006 16.10619437098068 0.032172006105822486 0 0 0
2110 4 21.332829641747004 16.10619437098068 0.0321720061058229 0 0 0
2291 1 19.691842746227998 17.053395882832902 1.7213212929829136 0 0 0
2297 1 22.973816537265996 17.053395882832902 1.7213212929829136 0 0 0
2118 1 24.614803432785003 14.211123205238898 1.7213212929829138 0 0 0
2121 4 26.255790328303995 13.263921693386676 0.03217200610582244 0 0 0
2124 1 27.896777223823 14.211123205238898 1.7213212929829138 0 0 0
2116 4 24.614803432785003 16.10619437098068 0.032172006105822895 0 0 0
2122 4 27.896777223823 16.10619437098068 0.032172006105822014 0 0 0
2303 1 26.255790328304 17.053395882832902 1.7213212929829136 0 0 0
2127 4 29.537764119342008 13.263921693386676 0.03217200610582243 0 0 0
2130 1 31.178751014861 14.211123205238898 1.7213212929829138 0 0 0
2133 4 32.819737910380006 13.263921693386676 0.03217200610582321 0 0 0
2136 1 34.460724805899 14.211123205238898 1.7213212929829138 0 0 0
2128 4 31.178751014861 16.10619437098068 0.032172006105822895 0 0 0
2134 4 34.460724805899 16.10619437098068 0.032172006105822895 0 0 0
2309 1 29.537764119342004 17.053395882832902 1.7213212929829136 0 0 0
2315 1 32.819737910380006 17.053395882832902 1.7213212929829136 0 0 0
2139 4 36.101711701418004 13.263921693386676 0.032172006105823193 0 0 0
2142 1 37.742698596937 14.211123205238898 1.7213212929829138 0 0 0
2145 4 39.383685492456 13.263921693386676 0.03217200610582323 0 0 0
2140 4 37.742698596937 16.10619437098068 0.032172006105822916 0 0 0
2321 1 36.101711701418004 17.053395882832902 1.7213212929829136 0 0 0
2327 1 39.383685492456 17.053395882832902 1.7213212929829136 0 0 0
2148 1 41.024672387974995 14.211123205238898 1.7213212929829138 0 0 0
2151 4 42.665659283494 13.263921693386676 0.032172006105822326 0 0 0
2154 1 44.30664617901301 14.211123205238898 1.7213212929829138 0 0 0
2157 4 45.947633074532 13.263921693386676 0.03217200610582324 0 0 0
2146 4 41.024672387974995 16.10619437098068 0.032172006105822215 0 0 0
2152 4 44.30664617901301 16.10619437098068 0.0321720061058222 0 0 0
2333 1 42.665659283494 17.053395882832902 1.7213212929829136 0 0 0
2339 1 45.947633074532 17.053395882832902 1.7213212929829136 0 0 0
1983 4 49.22960686557 13.263921693386678 0.03217200610582359 -1 0 0
2160 1 47.588619970051006 14.211123205238898 1.7213212929829138 0 0 0
1986 1 50.870593761089 14.211123205238898 1.7213212929829136 -1 0 0
2158 4 47.588619970051006 16.10619437098068 0.032172006105823166 0 0 0
1984 4 50.870593761089 16.10619437098068 0.032172006105823166 -1 0 0
2165 1 49.22960686557 17.053395882832902 1.7213212929829136 -1 0 0
1989 4 52.511580656608 13.263921693386676 0.03217200610582317 -1 0 0
1992 1 54.152567552126996 14.211123205238898 1.7213212929829138 -1 0 0
1995 4 55.793554447645995 13.263921693386676 0.03217200610582284 -1 0 0
1998 1 57.434541343164994 14.2111232052389 1.7213212929829138 -1 0 0
1990 4 54.152567552126996 16.10619437098068 0.03217200610582295 -1 0 0
1996 4 57.434541343164994 16.10619437098068 0.03217200610582213 -1 0 0
2171 1 52.511580656608 17.053395882832902 1.7213212929829136 -1 0 0
2177 1 55.793554447645995 17.053395882832902 1.7213212929829136 -1 0 0
2001 4 59.075528238684 13.263921693386676 0.03217200610582241 -1 0 0
2004 1 60.716515134203 14.211123205238898 1.7213212929829138 -1 0 0
2007 4 62.357502029722 13.263921693386676 0.03217200610582327 -1 0 0
2002 4 60.716515134203 16.10619437098068 0.03217200610582255 -1 0 0
2183 1 59.075528238684 17.053395882832902 1.7213212929829136 -1 0 0
2189 1 62.357502029722 17.053395882832902 1.7213212929829136 -1 0 0
2010 1 63.998488925241 14.211123205238898 1.7213212929829138 -1 0 0
2013 4 65.63947582076 13.263921693386676 0.03217200610582282 -1 0 0
2016 1 67.280462716279 14.211123205238898 1.7213212929829138 -1 0 0
2019 4 68.921449611798 13.263921693386676 0.032172006105823214 -1 0 0
2008 4 63.998488925241 16.10619437098068 0.03217200610582262 -1 0 0
2014 4 67.280462716279 16.10619437098068 0.03217200610582254 -1 0 0
2195 1 65.63947582076 17.053395882832902 1.7213212929829136 -1 0 0
2201 1 68.921449611798 17.053395882832902 1.7213212929829136 -1 0 0
2022 1 70.562436507317 14.211123205238898 1.7213212929829138 -1 0 0
2025 4 72.203423402836 13.263921693386676 0.0321720061058232 -1 0 0
2028 1 73.844410298355 14.211123205238898 1.7213212929829138 -1 0 0
2020 4 70.562436507317 16.10619437098068 0.0321720061058229 -1 0 0
2026 4 73.844410298355 16.10619437098068 0.032172006105822895 -1 0 0
2207 1 72.203423402836 17.053395882832902 1.7213212929829136 -1 0 0
2031 4 75.485397193874 13.263921693386676 0.03217200610582322 -1 0 0
2034 1 77.126384089393 14.211123205238898 1.7213212929829138 -1 0 0
2037 4 78.76737098491199 13.263921693386676 0.032172006105822375 -1 0 0
2040 1 80.408357880431 14.211123205238898 1.7213212929829138 -1 0 0
2032 4 77.126384089393 16.10619437098068 0.03217200610582295 -1 0 0
2038 4 80.408357880431 16.10619437098068 0.03217200610582187 -1 0 0
2213 1 75.485397193874 17.053395882832902 1.7213212929829136 -1 0 0
2219 1 78.76737098491199 17.053395882832902 1.7213212929829136 -1 0 0
2043 4 82.04934477595 13.263921693386676 0.03217200610582311 -1 0 0
2046 1 83.690331671469 14.211123205238898 1.7213212929829138 -1 0 0
2049 4 85.33131856698799 13.263921693386676 0.032172006105823145 -1 0 0
2044 4 83.690331671469 16.10619437098068 0.03217200610582381 -1 0 0
2225 1 82.04934477595 17.053395882832902 1.7213212929829136 -1 0 0
2231 1 85.33131856698799 17.053395882832902 1.7213212929829136 -1 0 0
2052 1 86.972305462507 14.211123205238898 1.7213212929829138 -1 0 0
2055 4 88.613292358026 13.263921693386676 0.032172006105821584 -1 0 0
2058 1 90.25427925354501 14.211123205238898 1.7213212929829138 -1 0 0
2061 4 91.895266149064 13.263921693386678 0.032172006105824234 -1 0 0
2050 4 86.972305462507 16.10619437098068 0.0321720061058212 -1 0 0
2056 4 90.25427925354501 16.10619437098068 0.032172006105822964 -1 0 0
2237 1 88.613292358026 17.053395882832902 1.7213212929829136 -1 0 0
2243 1 91.895266149064 17.053395882832902 1.7213212929829136 -1 0 0
2064 1 93.53625304458299 14.211123205238898 1.7213212929829138 -1 0 0
2067 4 95.177239940102 13.263921693386676 0.03217200610582229 -1 0 0
2070 1 96.818226835621 14.211123205238898 1.7213212929829138 -1 0 0
2062 4 93.53625304458299 16.10619437098068 0.032172006105822895 -1 0 0
2068 4 96.818226835621 16.10619437098068 0.03217200610582253 -1 0 0
2249 1 95.177239940102 17.053395882832902 1.7213212929829136 -1 0 0
2253 4 1.0206582215512307e-15 18.948467048574678 0.032172006105824325 0 0 0
2256 1 1.6409868955190015 19.895668560426902 1.7213212929829138 0 0 0
2259 4 3.2819737910380002 18.948467048574678 0.032172006105823214 0 0 0
2262 1 4.922960686557003 19.895668560426902 1.7213212929829138 0 0 0
2254 4 1.640986895519001 21.790739726168677 0.03217200610582331 0 0 0
2260 4 4.922960686557004 21.790739726168677 0.03217200610582258 0 0 0
2435 1 1.6618238412076671e-15 22.737941238020902 1.7213212929829134 0 0 0
2441 1 3.281973791038001 22.737941238020902 1.7213212929829136 0 0 0
2265 4 6.563947582076004 18.948467048574678 0.03217200610582349 0 0 0
2268 1 8.204934477595003 19.895668560426902 1.7213212929829138 0 0 0
2271 4 9.845921373114003 18.948467048574678 0.032172006105823894 0 0 0
2274 1 11.486908268633002 19.895668560426902 1.7213212929829138 0 0 0
2266 4 8.204934477595003 21.790739726168677 0.03217200610582325 0 0 0
2272 4 11.486908268633002 21.790739726168677 0.03217200610582329 0 0 0
2447 1 6.563947582076003 22.737941238020902 1.7213212929829134 0 0 0
2453 1 9.845921373114003 22.737941238020902 1.7213212929829136 0 0 0
2277 4 13.127895164152001 18.948467048574678 0.03217200610582396 0 0 0
2280 1 14.768882059671 19.895668560426902 1.7213212929829138 0 0 0
2283 4 16.40986895519 18.948467048574678 0.03217200610582346 0 0 0
2278 4 14.768882059671 21.790739726168677 0.03217200610582295 0 0 0
2459 1 13.127895164152001 22.737941238020902 1.7213212929829136 0 0 0
2465 1 16.40986895519 22.737941238020902 1.7213212929829134 0 0 0
2286 1 18.050855850709002 19.895668560426902 1.7213212929829138 0 0 0
2289 4 19.691842746227998 18.948467048574678 0.03217200610582384 0 0 0
2292 1 21.332829641747004 19.895668560426902 1.7213212929829138 0 0 0
2295 4 22.973816537265996 18.948467048574678 0.03217200610582388 0 0 0
2284 4 18.050855850709006 21.790739726168677 0.03217200610582295 0 0 0
2290 4 21.332829641747004 21.790739726168677 0.03217200610582324 0 0 0
2471 1 19.691842746227998 22.737941238020902 1.7213212929829136 0 0 0
2477 1 22.973816537265996 22.737941238020902 1.7213212929829134 0 0 0
2298 1 24.614803432785003 19.895668560426902 1.7213212929829138 0 0 0
2301 4 26.255790328303995 18.948467048574678 0.03217200610582316 0 0 0
2304 1 27.896777223823 19.895668560426902 1.721321292982914 0 0 0
2296 4 24.614803432785003 21.790739726168677 0.032172006105823305 0 0 0
2302 4 27.896777223823 21.790739726168677 0.03217200610582253 0 0 0
2483 1 26.255790328304 22.737941238020902 1.7213212929829134 0 0 0
2307 4 29.537764119342008 18.948467048574678 0.032172006105823145 0 0 0
2310 1 31.178751014861 19.895668560426902 1.721321292982914 0 0 0
2313 4 32.819737910380006 18.948467048574678 0.032172006105823873 0 0 0
2316 1 34.460724805899 19.895668560426902 1.721321292982914 0 0 0
2308 4 31.178751014861 21.790739726168677 0.032172006105823305 0 0 0
2314 4 34.460724805899 21.790739726168677 0.03217200610582323 0 0 0
2489 1 29.537764119342004 22.737941238020902 1.7213212929829134 0 0 0
2495 1 32.819737910380006 22.737941238020902 1.7213212929829136 0 0 0
2319 4 36.101711701418004 18.948467048574678 0.032172006105823894 0 0 0
2322 1 37.742698596937 19.895668560426902 1.7213212929829138 0 0 0
2325 4 39.383685492456 18.948467048574678 0.03217200610582397 0 0 0
2320 4 37.742698596937 21.790739726168677 0.03217200610582329 0 0 0
2501 1 36.101711701418004 22.737941238020902 1.7213212929829134 0 0 0
2507 1 39.383685492456 22.737941238020902 1.7213212929829134 0 0 0
2328 1 41.024672387974995 19.895668560426902 1.7213212929829138 0 0 0
2331 4 42.665659283494 18.948467048574678 0.032172006105823076 0 0 0
2334 1 44.30664617901301 19.895668560426902 1.7213212929829138 0 0 0
2337 4 45.947633074532 18.948467048574678 0.0321720061058239 0 0 0
2326 4 41.024672387974995 21.790739726168677 0.03217200610582272 0 0 0
2332 4 44.30664617901301 21.790739726168677 0.032172006105822715 0 0 0
2513 1 42.665659283494 22.737941238020902 1.7213212929829134 0 0 0
2519 1 45.947633074532 22.737941238020902 1.7213212929829134 0 0 0
2163 4 49.22960686557 18.948467048574678 0.03217200610582429 -1 0 0
2340 1 47.588619970051006 19.895668560426902 1.7213212929829138 0 0 0
2166 1 50.870593761089 19.895668560426902 1.721321292982914 -1 0 0
2338 4 47.588619970051006 21.790739726168677 0.03217200610582368 0 0 0
2164 4 50.870593761089 21.790739726168677 0.032172006105823596 -1 0 0
2345 1 49.22960686557 22.737941238020902 1.7213212929829134 -1 0 0
2169 4 52.511580656608 18.948467048574678 0.03217200610582383 -1 0 0
2172 1 54.152567552126996 19.895668560426902 1.7213212929829138 -1 0 0
2175 4 55.793554447645995 18.948467048574678 0.032172006105823506 -1 0 0
2178 1 57.434541343164994 19.895668560426902 1.7213212929829138 -1 0 0
2170 4 54.152567552126996 21.790739726168677 0.0321720061058233 -1 0 0
2176 4 57.434541343164994 21.790739726168677 0.03217200610582252 -1 0 0
2351 1 52.511580656608 22.737941238020902 1.7213212929829136 -1 0 0