LAMMPS data file via write_data, version 29 Aug 2024, timestep = 2, units = metal

2688 atoms
2 atom types

0 98.636256828672 xlo xhi
0 99.782264608908 ylo yhi
-50 50 zlo zhi

Masses

1 121.76
2 121.76

Atoms # atomic

721 1 6.310208091211043e-05 1.1895393659426303 1.6395647964640898 0 0 0
723 1 2.054979574034976 0.000557898842195587 -0.004147956122007594 0 0 0
725 1 4.1099071366089115 1.1895393659426323 1.639564796464092 0 0 0
724 1 5.756086392092519e-05 3.5642102063031618 -0.004147956122032306 0 0 0
728 1 4.10990159539192 3.5642102063031618 -0.004147956122032242 0 0 0
722 1 2.0549851234417016 4.753191673403597 1.6395647964640665 0 0 0
727 1 6.1648236085629735 0.0005578988421962392 -0.004147956122005973 0 0 0
729 1 8.219751171136911 1.189539365942631 1.6395647964640911 0 0 0
731 1 10.274667643090975 0.0005578988421964953 -0.0041479561220063195 0 0 0
732 1 8.219745629919917 3.5642102063031627 -0.004147956122031385 0 0 0
726 1 6.1648291579697 4.753191673403598 1.639564796464068 0 0 0
730 1 10.2746731924977 4.753191673403597 1.639564796464067 0 0 0
733 1 12.329595205664914 1.189539365942631 1.6395647964640911 0 0 0
735 1 14.384511677618978 0.0005578988421962249 -0.004147956122006047 0 0 0
737 1 16.439439240192918 1.1895393659426305 1.639564796464091 0 0 0
736 1 12.32958966444792 3.5642102063031627 -0.004147956122031418 0 0 0
740 1 16.439433698975918 3.564210206303163 -0.004147956122031009 0 0 0
734 1 14.3845172270257 4.753191673403597 1.6395647964640678 0 0 0
739 1 18.49435571214698 0.0005578988421958063 -0.0041479561220080655 0 0 0
741 1 20.549283274720914 1.189539365942632 1.639564796464092 0 0 0
743 1 22.604199746674976 0.0005578988421957604 -0.004147956122006287 0 0 0
744 1 20.54927773350392 3.5642102063031613 -0.004147956122032866 0 0 0
738 1 18.494361261553703 4.753191673403597 1.6395647964640658 0 0 0
742 1 22.6042052960817 4.753191673403598 1.639564796464068 0 0 0
745 1 24.659127309248912 1.1895393659426319 1.639564796464092 0 0 0
747 1 26.714043781202975 0.0005578988421967544 -0.004147956122004789 0 0 0
749 1 28.768971343776915 1.1895393659426303 1.63956479646409 0 0 0
748 1 24.659121768031916 3.5642102063031618 -0.004147956122032435 0 0 0
752 1 28.76896580255992 3.564210206303164 -0.004147956122029613 0 0 0
746 1 26.714049330609697 4.753191673403598 1.6395647964640683 0 0 0
751 1 30.82388781573098 0.0005578988421956602 -0.004147956122008519 0 0 0
753 1 32.878815378304914 1.1895393659426328 1.639564796464093 0 0 0
756 1 32.87880983708792 3.564210206303161 -0.004147956122032889 0 0 0
750 1 30.823893365137703 4.753191673403596 1.639564796464065 0 0 0
755 1 34.93373185025897 0.0005578988421951791 -0.004147956122007184 0 0 0
757 1 36.98865941283291 1.1895393659426317 1.6395647964640911 0 0 0
759 1 39.043575884786975 0.0005578988421971791 -0.004147956122004024 0 0 0
760 1 36.98865387161592 3.5642102063031618 -0.004147956122032334 0 0 0
754 1 34.9337373996657 4.753191673403598 1.6395647964640678 0 0 0
758 1 39.0435814341937 4.753191673403598 1.639564796464069 0 0 0
761 1 41.09850344736092 1.1895393659426308 1.639564796464091 0 0 0
763 1 43.15341991931498 0.000557898842195601 -0.0041479561220086085 0 0 0
765 1 45.208347481888914 1.1895393659426314 1.639564796464091 0 0 0
764 1 41.09849790614392 3.564210206303164 -0.00414795612202957 0 0 0
768 1 45.20834194067192 3.5642102063031613 -0.004147956122033004 0 0 0
762 1 43.15342546872171 4.753191673403596 1.639564796464065 0 0 0
767 1 47.26326395384298 0.0005578988421963033 -0.004147956122005799 0 0 0
673 1 49.31819151641692 1.189539365942631 1.6395647964640914 -1 0 0
675 1 51.37310798837098 0.0005578988421967749 -0.004147956122005922 -1 0 0
676 1 49.318185975199924 3.5642102063031627 -0.004147956122031148 -1 0 0
766 1 47.2632695032497 4.753191673403598 1.6395647964640685 0 0 0
674 1 51.373113537777705 4.753191673403597 1.639564796464067 -1 0 0
677 1 53.42803555094492 1.189539365942632 1.639564796464093 -1 0 0
679 1 55.48295202289898 0.0005578988421949271 -0.004147956122007604 -1 0 0
681 1 57.537879585472915 1.189539365942631 1.6395647964640905 -1 0 0
680 1 53.42803000972793 3.5642102063031627 -0.004147956122030826 -1 0 0
684 1 57.53787404425592 3.5642102063031618 -0.004147956122032825 -1 0 0
678 1 55.48295757230571 4.753191673403598 1.6395647964640683 -1 0 0
683 1 59.59279605742698 0.0005578988421965325 -0.0041479561220062475 -1 0 0
685 1 61.64772362000092 1.1895393659426317 1.6395647964640925 -1 0 0
687 1 63.702640091954976 0.0005578988421964059 -0.004147956122006291 -1 0 0
688 1 61.647718078783925 3.5642102063031627 -0.004147956122031289 -1 0 0
682 1 59.5928016068337 4.753191673403596 1.6395647964640665 -1 0 0
686 1 63.702645641361705 4.753191673403598 1.6395647964640678 -1 0 0
689 1 65.75756765452891 1.1895393659426314 1.6395647964640911 -1 0 0
691 1 67.81248412648297 0.0005578988421953939 -0.004147956122007224 -1 0 0
692 1 65.75756211331192 3.564210206303162 -0.004147956122031163 -1 0 0
690 1 67.81248967588971 4.753191673403596 1.6395647964640658 -1 0 0
693 1 69.86741168905692 1.18953936594263 1.6395647964640894 -1 0 0
695 1 71.92232816101098 0.000557898842196589 -0.004147956122004966 -1 0 0
697 1 73.97725572358492 1.1895393659426317 1.6395647964640927 -1 0 0
696 1 69.86740614783993 3.5642102063031627 -0.004147956122031818 -1 0 0
700 1 73.97725018236792 3.5642102063031613 -0.004147956122033348 -1 0 0
694 1 71.9223337104177 4.753191673403598 1.6395647964640687 -1 0 0
699 1 76.03217219553898 0.0005578988421958922 -0.0041479561220076865 -1 0 0
701 1 78.08709975811291 1.189539365942632 1.6395647964640923 -1 0 0
703 1 80.14201623006697 0.0005578988421949314 -0.004147956122007989 -1 0 0
704 1 78.08709421689592 3.5642102063031627 -0.004147956122030153 -1 0 0
698 1 76.0321777449457 4.753191673403598 1.639564796464067 -1 0 0
702 1 80.14202177947371 4.753191673403596 1.6395647964640658 -1 0 0
705 1 82.19694379264091 1.1895393659426319 1.6395647964640923 -1 0 0
707 1 84.25186026459498 0.0005578988421971006 -0.004147956122004121 -1 0 0
709 1 86.30678782716892 1.1895393659426303 1.6395647964640903 -1 0 0
708 1 82.19693825142393 3.564210206303162 -0.0041479561220316786 -1 0 0
712 1 86.30678228595193 3.5642102063031618 -0.004147956122033485 -1 0 0
706 1 84.2518658140017 4.753191673403598 1.639564796464069 -1 0 0
711 1 88.36170429912298 0.0005578988421957884 -0.0041479561220078304 -1 0 0
713 1 90.41663186169691 1.189539365942632 1.6395647964640923 -1 0 0
715 1 92.47154833365097 0.0005578988421949314 -0.004147956122007991 -1 0 0
716 1 90.41662632047992 3.5642102063031627 -0.004147956122030155 -1 0 0
710 1 88.3617098485297 4.753191673403598 1.639564796464067 -1 0 0
714 1 92.47155388305771 4.753191673403596 1.6395647964640658 -1 0 0
717 1 94.52647589622491 1.1895393659426319 1.6395647964640923 -1 0 0
719 1 96.58139236817898 0.000557898842197294 -0.00414795612200419 -1 0 0
720 1 94.52647035500793 3.564210206303162 -0.00414795612203167 -1 0 0
718 1 96.5813979175857 4.753191673403598 1.6395647964640685 -1 0 0
819 1 2.054979574034976 7.127862513764194 -0.004147956122006045 0 0 0
817 1 6.310208091215037e-05 8.316843980864627 1.6395647964640914 0 0 0
821 1 4.1099071366089115 8.316843980864629 1.6395647964640936 0 0 0
820 1 5.75608639212366e-05 10.691514821225159 -0.004147956122030512 0 0 0
824 1 4.10990159539192 10.69151482122516 -0.004147956122030824 0 0 0
823 1 6.1648236085629735 7.127862513764195 -0.0041479561220049725 0 0 0
827 1 10.274667643090975 7.127862513764194 -0.004147956122005059 0 0 0
825 1 8.219751171136911 8.316843980864629 1.6395647964640931 0 0 0
828 1 8.219745629919917 10.69151482122516 -0.004147956122029975 0 0 0
831 1 14.384511677618978 7.127862513764195 -0.004147956122005042 0 0 0
829 1 12.329595205664914 8.316843980864629 1.639564796464093 0 0 0
833 1 16.439439240192918 8.316843980864629 1.6395647964640927 0 0 0
832 1 12.32958966444792 10.69151482122516 -0.004147956122030023 0 0 0
836 1 16.439433698975918 10.69151482122516 -0.00414795612202949 0 0 0
835 1 18.49435571214698 7.127862513764194 -0.004147956122006797 0 0 0
839 1 22.604199746674976 7.127862513764193 -0.004147956122006281 0 0 0
837 1 20.549283274720914 8.316843980864629 1.6395647964640936 0 0 0
840 1 20.54927773350392 10.691514821225159 -0.004147956122031469 0 0 0
843 1 26.714043781202975 7.127862513764196 -0.004147956122002967 0 0 0
841 1 24.65912730924891 8.316843980864629 1.6395647964640938 0 0 0
845 1 28.768971343776915 8.316843980864629 1.6395647964640923 0 0 0
844 1 24.659121768031916 10.69151482122516 -0.004147956122030132 0 0 0
848 1 28.76896580255992 10.691514821225162 -0.0041479561220290175 0 0 0
847 1 30.82388781573098 7.127862513764194 -0.004147956122007088 0 0 0
849 1 32.878815378304914 8.31684398086463 1.6395647964640943 0 0 0
852 1 32.87880983708792 10.691514821225159 -0.004147956122031512 0 0 0
851 1 34.93373185025897 7.127862513764193 -0.004147956122006168 0 0 0
855 1 39.043575884786975 7.127862513764196 -0.0041479561220030825 0 0 0
853 1 36.98865941283291 8.316843980864629 1.6395647964640931 0 0 0
856 1 36.98865387161592 10.69151482122516 -0.0041479561220310445 0 0 0
859 1 43.15341991931498 7.127862513764194 -0.004147956122007178 0 0 0
857 1 41.09850344736092 8.316843980864629 1.639564796464093 0 0 0
861 1 45.208347481888914 8.316843980864629 1.6395647964640927 0 0 0
860 1 41.09849790614392 10.691514821225162 -0.004147956122028204 0 0 0
864 1 45.20834194067192 10.691514821225159 -0.004147956122031473 0 0 0
863 1 47.26326395384298 7.127862513764195 -0.004147956122004663 0 0 0
771 1 51.37310798837098 7.127862513764195 -0.004147956122004644 -1 0 0
769 1 49.31819151641692 8.316843980864629 1.639564796464093 -1 0 0
772 1 49.318185975199924 10.69151482122516 -0.004147956122029739 -1 0 0
775 1 55.48295202289898 7.127862513764193 -0.004147956122006393 -1 0 0
773 1 53.42803555094492 8.316843980864629 1.6395647964640943 -1 0 0
777 1 57.537879585472915 8.316843980864629 1.639564796464092 -1 0 0
776 1 53.42803000972793 10.69151482122516 -0.004147956122029179 -1 0 0
780 1 57.53787404425592 10.69151482122516 -0.004147956122031294 -1 0 0
779 1 59.59279605742698 7.127862513764195 -0.004147956122004998 -1 0 0
783 1 63.702640091954976 7.127862513764195 -0.004147956122005251 -1 0 0
781 1 61.64772362000092 8.316843980864629 1.639564796464094 -1 0 0
784 1 61.647718078783925 10.69151482122516 -0.004147956122029887 -1 0 0
787 1 67.81248412648299 7.127862513764194 -0.004147956122006012 -1 0 0
785 1 65.75756765452891 8.316843980864629 1.6395647964640931 -1 0 0
788 1 65.75756211331192 10.69151482122516 -0.004147956122029858 -1 0 0
791 1 71.92232816101098 7.127862513764195 -0.004147956122003955 -1 0 0
789 1 69.86741168905692 8.316843980864629 1.6395647964640907 -1 0 0
793 1 73.97725572358492 8.31684398086463 1.6395647964640938 -1 0 0
792 1 69.86740614783993 10.69151482122516 -0.004147956122030545 -1 0 0
796 1 73.97725018236792 10.691514821225159 -0.004147956122031312 -1 0 0
795 1 76.03217219553898 7.127862513764194 -0.004147956122006566 -1 0 0
799 1 80.14201623006697 7.127862513764193 -0.004147956122006847 -1 0 0
797 1 78.08709975811291 8.316843980864629 1.6395647964640938 -1 0 0
800 1 78.08709421689592 10.69151482122516 -0.0041479561220286384 -1 0 0
803 1 84.25186026459498 7.127862513764196 -0.004147956122002836 -1 0 0
801 1 82.19694379264091 8.31684398086463 1.6395647964640936 -1 0 0
805 1 86.30678782716892 8.316843980864629 1.6395647964640916 -1 0 0
804 1 82.19693825142393 10.69151482122516 -0.004147956122030433 -1 0 0
808 1 86.30678228595193 10.69151482122516 -0.00414795612203143 -1 0 0
807 1 88.36170429912298 7.127862513764194 -0.004147956122006694 -1 0 0
811 1 92.47154833365097 7.127862513764193 -0.004147956122006849 -1 0 0
809 1 90.41663186169691 8.316843980864629 1.6395647964640938 -1 0 0
812 1 90.41662632047992 10.69151482122516 -0.00414795612202864 -1 0 0
815 1 96.58139236817898 7.127862513764196 -0.0041479561220029 -1 0 0
813 1 94.52647589622491 8.31684398086463 1.6395647964640936 -1 0 0
816 1 94.52647035500793 10.69151482122516 -0.004147956122030423 -1 0 0
818 1 2.0549851234417016 11.880496288325597 1.6395647964640665 0 0 0
915 1 2.054979574034976 14.255167128686193 -0.004147956122007697 0 0 0
913 1 6.310208091211004e-05 15.444148595786626 1.6395647964640914 0 0 0
917 1 4.1099071366089115 15.444148595786627 1.6395647964640938 0 0 0
822 1 6.1648291579697 11.880496288325597 1.639564796464068 0 0 0
826 1 10.2746731924977 11.880496288325597 1.639564796464067 0 0 0
919 1 6.1648236085629735 14.255167128686193 -0.004147956122006189 0 0 0
923 1 10.274667643090975 14.255167128686193 -0.004147956122006543 0 0 0
921 1 8.219751171136911 15.444148595786626 1.6395647964640931 0 0 0
830 1 14.3845172270257 11.880496288325597 1.639564796464068 0 0 0
927 1 14.384511677618978 14.255167128686193 -0.004147956122006279 0 0 0
925 1 12.329595205664914 15.444148595786626 1.6395647964640931 0 0 0
929 1 16.439439240192918 15.444148595786626 1.6395647964640927 0 0 0
834 1 18.494361261553703 11.880496288325597 1.639564796464066 0 0 0
838 1 22.6042052960817 11.880496288325597 1.6395647964640678 0 0 0
931 1 18.49435571214698 14.255167128686193 -0.004147956122008138 0 0 0
935 1 22.604199746674976 14.255167128686193 -0.004147956122007361 0 0 0
933 1 20.549283274720914 15.444148595786627 1.6395647964640938 0 0 0
842 1 26.714049330609697 11.880496288325597 1.6395647964640685 0 0 0
939 1 26.714043781202975 14.255167128686194 -0.004147956122004222 0 0 0
937 1 24.65912730924891 15.444148595786626 1.6395647964640938 0 0 0
941 1 28.768971343776915 15.444148595786626 1.6395647964640914 0 0 0
846 1 30.823893365137703 11.880496288325595 1.6395647964640647 0 0 0
943 1 30.82388781573098 14.255167128686193 -0.004147956122008602 0 0 0
945 1 32.878815378304914 15.444148595786627 1.6395647964640945 0 0 0
850 1 34.9337373996657 11.880496288325597 1.639564796464068 0 0 0
854 1 39.0435814341937 11.880496288325597 1.6395647964640692 0 0 0
947 1 34.93373185025897 14.255167128686193 -0.004147956122007515 0 0 0
951 1 39.043575884786975 14.255167128686194 -0.004147956122004206 0 0 0
949 1 36.98865941283291 15.444148595786626 1.6395647964640931 0 0 0
858 1 43.15342546872171 11.880496288325595 1.6395647964640647 0 0 0
955 1 43.15341991931498 14.255167128686193 -0.004147956122008677 0 0 0
953 1 41.09850344736092 15.444148595786626 1.639564796464092 0 0 0
957 1 45.208347481888914 15.444148595786626 1.639564796464093 0 0 0
862 1 47.2632695032497 11.880496288325597 1.6395647964640685 0 0 0
770 1 51.373113537777705 11.880496288325597 1.639564796464067 -1 0 0
959 1 47.26326395384298 14.255167128686193 -0.0041479561220059006 0 0 0
867 1 51.37310798837098 14.255167128686194 -0.0041479561220061365 -1 0 0
865 1 49.31819151641692 15.444148595786626 1.639564796464093 -1 0 0
774 1 55.48295757230571 11.880496288325597 1.6395647964640683 -1 0 0
871 1 55.48295202289898 14.255167128686193 -0.004147956122007779 -1 0 0
869 1 53.42803555094492 15.444148595786626 1.6395647964640947 -1 0 0
873 1 57.537879585472915 15.444148595786626 1.6395647964640925 -1 0 0
778 1 59.5928016068337 11.880496288325597 1.6395647964640665 -1 0 0
782 1 63.702645641361705 11.880496288325597 1.639564796464068 -1 0 0
875 1 59.59279605742698 14.255167128686194 -0.004147956122006354 -1 0 0
879 1 63.702640091954976 14.255167128686194 -0.0041479561220065025 -1 0 0
877 1 61.64772362000092 15.444148595786626 1.6395647964640943 -1 0 0
786 1 67.81248967588971 11.880496288325595 1.6395647964640663 -1 0 0
883 1 67.81248412648299 14.255167128686193 -0.004147956122007257 -1 0 0
881 1 65.75756765452891 15.444148595786626 1.6395647964640931 -1 0 0
790 1 71.9223337104177 11.880496288325597 1.639564796464069 -1 0 0
887 1 71.92232816101098 14.255167128686194 -0.004147956122005308 -1 0 0
885 1 69.86741168905692 15.444148595786626 1.6395647964640905 -1 0 0
889 1 73.97725572358492 15.444148595786627 1.639564796464094 -1 0 0
794 1 76.0321777449457 11.880496288325597 1.6395647964640672 -1 0 0
798 1 80.14202177947371 11.880496288325595 1.6395647964640658 -1 0 0
891 1 76.03217219553898 14.255167128686193 -0.0041479561220079475 -1 0 0
895 1 80.14201623006699 14.255167128686193 -0.004147956122008101 -1 0 0
893 1 78.08709975811291 15.444148595786626 1.639564796464094 -1 0 0
802 1 84.2518658140017 11.880496288325597 1.6395647964640692 -1 0 0
899 1 84.25186026459498 14.255167128686194 -0.004147956122004226 -1 0 0
897 1 82.19694379264091 15.444148595786627 1.6395647964640934 -1 0 0
901 1 86.30678782716892 15.444148595786626 1.6395647964640916 -1 0 0
806 1 88.3617098485297 11.880496288325597 1.639564796464067 -1 0 0
810 1 92.47155388305771 11.880496288325595 1.639564796464066 -1 0 0
903 1 88.36170429912298 14.255167128686193 -0.004147956122008071 -1 0 0
907 1 92.47154833365099 14.255167128686193 -0.004147956122008108 -1 0 0
905 1 90.41663186169691 15.444148595786626 1.639564796464094 -1 0 0
814 1 96.5813979175857 11.880496288325597 1.6395647964640685 -1 0 0
911 1 96.58139236817898 14.255167128686194 -0.0041479561220044 -1 0 0
909 1 94.52647589622491 15.444148595786627 1.6395647964640934 -1 0 0
916 1 5.756086392108953e-05 17.81881943614716 -0.004147956122028833 0 0 0
914 1 2.054985123441702 19.007800903247595 1.6395647964640672 0 0 0
920 1 4.10990159539192 17.81881943614716 -0.004147956122029036 0 0 0
1009 1 6.310208091252646e-05 22.571453210708633 1.6395647964640887 0 0 0
1011 1 2.054979574034976 21.382471743608196 -0.004147956122006806 0 0 0
1013 1 4.1099071366089115 22.571453210708633 1.6395647964640911 0 0 0
918 1 6.1648291579697 19.007800903247595 1.6395647964640687 0 0 0
924 1 8.219745629919919 17.81881943614716 -0.004147956122028218 0 0 0
922 1 10.2746731924977 19.007800903247595 1.6395647964640674 0 0 0
1015 1 6.1648236085629735 21.382471743608196 -0.004147956122005621 0 0 0
1017 1 8.219751171136911 22.571453210708633 1.6395647964640894 0 0 0
1019 1 10.274667643090975 21.382471743608196 -0.004147956122005582 0 0 0
928 1 12.32958966444792 17.81881943614716 -0.004147956122028238 0 0 0
926 1 14.3845172270257 19.007800903247595 1.6395647964640687 0 0 0
932 1 16.439433698975918 17.81881943614716 -0.004147956122028278 0 0 0
1021 1 12.329595205664914 22.571453210708633 1.6395647964640894 0 0 0
1023 1 14.384511677618978 21.382471743608196 -0.004147956122005285 0 0 0
1025 1 16.439439240192918 22.571453210708633 1.6395647964640891 0 0 0
930 1 18.494361261553703 19.007800903247595 1.6395647964640663 0 0 0
936 1 20.54927773350392 17.818819436147155 -0.004147956122030032 0 0 0
934 1 22.6042052960817 19.0078009032476 1.6395647964640685 0 0 0
1027 1 18.49435571214698 21.382471743608193 -0.004147956122006685 0 0 0
1029 1 20.549283274720914 22.571453210708633 1.6395647964640911 0 0 0
1031 1 22.604199746674976 21.382471743608196 -0.00414795612200585 0 0 0
940 1 24.659121768031916 17.81881943614716 -0.004147956122028348 0 0 0
938 1 26.714049330609697 19.007800903247595 1.6395647964640692 0 0 0
944 1 28.76896580255992 17.81881943614716 -0.0041479561220274935 0 0 0
1033 1 24.659127309248912 22.571453210708633 1.6395647964640911 0 0 0
1035 1 26.714043781202975 21.382471743608196 -0.0041479561220040305 0 0 0
1037 1 28.768971343776915 22.571453210708633 1.6395647964640887 0 0 0
942 1 30.823893365137703 19.007800903247595 1.6395647964640656 0 0 0
948 1 32.87880983708792 17.818819436147155 -0.004147956122029958 0 0 0
1039 1 30.82388781573098 21.382471743608193 -0.004147956122006939 0 0 0
1041 1 32.878815378304914 22.571453210708633 1.639564796464092 0 0 0
946 1 34.9337373996657 19.0078009032476 1.6395647964640683 0 0 0
952 1 36.98865387161592 17.81881943614716 -0.004147956122028999 0 0 0
950 1 39.0435814341937 19.0078009032476 1.63956479646407 0 0 0
1043 1 34.93373185025897 21.382471743608196 -0.004147956122006596 0 0 0
1045 1 36.98865941283291 22.571453210708633 1.6395647964640905 0 0 0
1047 1 39.043575884786975 21.382471743608196 -0.004147956122003532 0 0 0
956 1 41.09849790614392 17.818819436147162 -0.004147956122026848 0 0 0
954 1 43.15342546872171 19.007800903247595 1.6395647964640656 0 0 0
960 1 45.20834194067192 17.818819436147155 -0.00414795612203006 0 0 0
1049 1 41.09850344736092 22.571453210708633 1.6395647964640896 0 0 0
1051 1 43.15341991931498 21.382471743608193 -0.004147956122007015 0 0 0
1053 1 45.208347481888914 22.571453210708633 1.63956479646409 0 0 0
958 1 47.2632695032497 19.007800903247595 1.639564796464069 0 0 0
868 1 49.318185975199924 17.81881943614716 -0.0041479561220278 -1 0 0
866 1 51.373113537777705 19.007800903247595 1.6395647964640674 -1 0 0
1055 1 47.26326395384298 21.382471743608196 -0.004147956122005287 0 0 0
961 1 49.31819151641692 22.571453210708633 1.6395647964640894 -1 0 0
963 1 51.37310798837098 21.382471743608196 -0.004147956122005274 -1 0 0
872 1 53.42803000972793 17.81881943614716 -0.004147956122027638 -1 0 0
870 1 55.48295757230571 19.0078009032476 1.6395647964640687 -1 0 0
876 1 57.53787404425592 17.81881943614716 -0.004147956122029978 -1 0 0
965 1 53.42803555094492 22.571453210708636 1.639564796464091 -1 0 0
967 1 55.48295202289898 21.382471743608196 -0.004147956122006975 -1 0 0
969 1 57.537879585472915 22.571453210708633 1.6395647964640896 -1 0 0
874 1 59.5928016068337 19.007800903247595 1.6395647964640672 -1 0 0
880 1 61.647718078783925 17.81881943614716 -0.004147956122028131 -1 0 0
878 1 63.702645641361705 19.0078009032476 1.6395647964640685 -1 0 0
971 1 59.59279605742698 21.382471743608196 -0.004147956122005745 -1 0 0
973 1 61.64772362000092 22.571453210708633 1.6395647964640907 -1 0 0
975 1 63.702640091954976 21.382471743608196 -0.004147956122005766 -1 0 0
884 1 65.75756211331192 17.81881943614716 -0.004147956122027965 -1 0 0
882 1 67.81248967588971 19.007800903247595 1.639564796464067 -1 0 0
977 1 65.75756765452891 22.571453210708633 1.6395647964640903 -1 0 0
979 1 67.81248412648297 21.382471743608196 -0.0041479561220064765 -1 0 0
888 1 69.86740614783993 17.81881943614716 -0.004147956122028983 -1 0 0
886 1 71.9223337104177 19.0078009032476 1.6395647964640694 -1 0 0
892 1 73.97725018236792 17.818819436147155 -0.004147956122030116 -1 0 0
981 1 69.86741168905692 22.571453210708633 1.639564796464088 -1 0 0
983 1 71.92232816101098 21.382471743608196 -0.004147956122004247 -1 0 0
985 1 73.97725572358492 22.571453210708633 1.6395647964640914 -1 0 0
890 1 76.0321777449457 19.007800903247595 1.6395647964640676 -1 0 0
896 1 78.08709421689592 17.81881943614716 -0.004147956122027105 -1 0 0
894 1 80.14202177947371 19.007800903247595 1.6395647964640665 -1 0 0
987 1 76.03217219553898 21.382471743608193 -0.004147956122006274 -1 0 0
989 1 78.08709975811291 22.571453210708633 1.6395647964640911 -1 0 0
991 1 80.14201623006697 21.382471743608196 -0.004147956122007279 -1 0 0
900 1 82.19693825142393 17.81881943614716 -0.00414795612202874 -1 0 0
898 1 84.2518658140017 19.0078009032476 1.6395647964640698 -1 0 0
904 1 86.30678228595193 17.818819436147155 -0.0041479561220302465 -1 0 0
993 1 82.19694379264091 22.571453210708633 1.639564796464091 -1 0 0
995 1 84.25186026459498 21.382471743608196 -0.004147956122003393 -1 0 0
997 1 86.30678782716892 22.571453210708633 1.639564796464089 -1 0 0
902 1 88.3617098485297 19.007800903247595 1.6395647964640676 -1 0 0
908 1 90.41662632047992 17.81881943614716 -0.004147956122027107 -1 0 0
906 1 92.47155388305771 19.007800903247595 1.6395647964640665 -1 0 0
999 1 88.36170429912298 21.382471743608193 -0.004147956122006401 -1 0 0
1001 1 90.41663186169691 22.571453210708633 1.6395647964640914 -1 0 0
1003 1 92.47154833365099 21.382471743608196 -0.004147956122007297 -1 0 0
912 1 94.52647035500793 17.81881943614716 -0.004147956122028729 -1 0 0
910 1 96.5813979175857 19.0078009032476 1.6395647964640687 -1 0 0
1005 1 94.52647589622491 22.571453210708636 1.6395647964640911 -1 0 0
1007 1 96.58139236817898 21.382471743608196 -0.004147956122003294 -1 0 0
1012 1 5.756086392067897e-05 24.946124051069166 -0.004147956122032423 0 0 0
1010 1 2.054985123441702 26.1351055181696 1.6395647964640665 0 0 0
1016 1 4.1099015953919205 24.946124051069166 -0.004147956122032446 0 0 0
1107 1 2.054979574034976 28.509776358530196 -0.004147956122005432 0 0 0
1014 1 6.164829157969699 26.135105518169603 1.6395647964640674 0 0 0
1020 1 8.219745629919917 24.946124051069166 -0.004147956122031713 0 0 0
1018 1 10.2746731924977 26.135105518169603 1.6395647964640667 0 0 0
1111 1 6.164823608562973 28.5097763585302 -0.004147956122005428 0 0 0
1115 1 10.274667643090975 28.5097763585302 -0.004147956122005102 0 0 0
1024 1 12.32958966444792 24.946124051069166 -0.004147956122031772 0 0 0
1022 1 14.3845172270257 26.135105518169603 1.6395647964640678 0 0 0
1028 1 16.439433698975918 24.946124051069166 -0.004147956122031209 0 0 0
1119 1 14.384511677618978 28.5097763585302 -0.004147956122005734 0 0 0
1026 1 18.494361261553703 26.1351055181696 1.639564796464066 0 0 0
1032 1 20.54927773350392 24.946124051069166 -0.004147956122033196 0 0 0
1030 1 22.6042052960817 26.135105518169603 1.6395647964640678 0 0 0
1123 1 18.49435571214698 28.509776358530196 -0.004147956122006646 0 0 0
1127 1 22.604199746674976 28.509776358530196 -0.004147956122006133 0 0 0
1036 1 24.659121768031916 24.946124051069166 -0.004147956122032131 0 0 0
1034 1 26.714049330609697 26.135105518169603 1.6395647964640678 0 0 0
1040 1 28.76896580255992 24.94612405106917 -0.004147956122030217 0 0 0
1131 1 26.714043781202975 28.5097763585302 -0.004147956122003576 0 0 0
1038 1 30.823893365137703 26.1351055181696 1.6395647964640652 0 0 0
1044 1 32.87880983708792 24.946124051069166 -0.004147956122033216 0 0 0
1135 1 30.82388781573098 28.509776358530196 -0.004147956122006935 0 0 0
1042 1 34.9337373996657 26.135105518169603 1.6395647964640678 0 0 0
1048 1 36.98865387161592 24.946124051069166 -0.0041479561220322545 0 0 0
1046 1 39.0435814341937 26.135105518169603 1.6395647964640685 0 0 0
1139 1 34.93373185025897 28.509776358530196 -0.004147956122006111 0 0 0
1143 1 39.043575884786975 28.5097763585302 -0.0041479561220035535 0 0 0
1052 1 41.09849790614392 24.94612405106917 -0.00414795612203016 0 0 0
1050 1 43.15342546872171 26.1351055181696 1.6395647964640652 0 0 0
1056 1 45.20834194067192 24.946124051069166 -0.004147956122033359 0 0 0
1147 1 43.15341991931498 28.509776358530196 -0.0041479561220070385 0 0 0
1054 1 47.2632695032497 26.135105518169603 1.639564796464068 0 0 0
964 1 49.318185975199924 24.946124051069166 -0.004147956122031476 -1 0 0
962 1 51.373113537777705 26.135105518169603 1.6395647964640667 -1 0 0
1151 1 47.26326395384298 28.5097763585302 -0.00414795612200514 0 0 0
1059 1 51.37310798837098 28.5097763585302 -0.004147956122004286 -1 0 0
968 1 53.42803000972793 24.946124051069166 -0.0041479561220308814 -1 0 0
966 1 55.48295757230571 26.135105518169603 1.6395647964640685 -1 0 0
972 1 57.53787404425592 24.946124051069166 -0.004147956122033297 -1 0 0
1063 1 55.48295202289898 28.509776358530196 -0.004147956122006868 -1 0 0
970 1 59.5928016068337 26.1351055181696 1.639564796464066 -1 0 0
976 1 61.647718078783925 24.946124051069166 -0.0041479561220319795 -1 0 0
974 1 63.702645641361705 26.1351055181696 1.6395647964640683 -1 0 0
1067 1 59.59279605742698 28.5097763585302 -0.004147956122005213 -1 0 0
1071 1 63.702640091954976 28.509776358530196 -0.004147956122004887 -1 0 0
980 1 65.75756211331192 24.946124051069166 -0.004147956122031624 -1 0 0
978 1 67.81248967588971 26.135105518169603 1.6395647964640656 -1 0 0
1075 1 67.81248412648297 28.5097763585302 -0.0041479561220066335 -1 0 0
984 1 69.86740614783993 24.946124051069166 -0.004147956122032008 -1 0 0
982 1 71.9223337104177 26.135105518169603 1.6395647964640687 -1 0 0
988 1 73.97725018236792 24.946124051069166 -0.004147956122033096 -1 0 0
1079 1 71.92232816101098 28.5097763585302 -0.0041479561220042396 -1 0 0
986 1 76.0321777449457 26.1351055181696 1.639564796464067 -1 0 0
992 1 78.08709421689592 24.946124051069166 -0.004147956122030355 -1 0 0
990 1 80.14202177947371 26.1351055181696 1.6395647964640658 -1 0 0
1083 1 76.03217219553898 28.509776358530196 -0.004147956122005763 -1 0 0
1087 1 80.14201623006697 28.509776358530196 -0.004147956122007143 -1 0 0
996 1 82.19693825142393 24.946124051069166 -0.0041479561220320055 -1 0 0
994 1 84.2518658140017 26.135105518169603 1.6395647964640685 -1 0 0
1000 1 86.30678228595193 24.946124051069166 -0.004147956122033116 -1 0 0
1091 1 84.25186026459498 28.5097763585302 -0.00414795612200329 -1 0 0
998 1 88.3617098485297 26.1351055181696 1.639564796464067 -1 0 0
1004 1 90.41662632047992 24.946124051069166 -0.0041479561220303576 -1 0 0
1002 1 92.47155388305771 26.1351055181696 1.6395647964640658 -1 0 0
1095 1 88.36170429912298 28.509776358530196 -0.004147956122005915 -1 0 0
1099 1 92.47154833365097 28.509776358530196 -0.0041479561220071435 -1 0 0
1008 1 94.52647035500793 24.946124051069166 -0.004147956122031962 -1 0 0
1006 1 96.5813979175857 26.135105518169603 1.6395647964640683 -1 0 0
1103 1 96.58139236817898 28.5097763585302 -0.00414795612200336 -1 0 0
1105 1 6.31020809123913e-05 29.698757825630633 1.6395647964640911 0 0 0
1109 1 4.1099071366089115 29.698757825630633 1.6395647964640938 0 0 0
1108 1 5.756086392124307e-05 32.07342866599116 -0.004147956122032901 0 0 0
1112 1 4.10990159539192 32.07342866599116 -0.0041479561220327645 0 0 0
1106 1 2.054985123441702 33.2624101330916 1.6395647964640665 0 0 0
1113 1 8.219751171136911 29.698757825630633 1.6395647964640938 0 0 0
1116 1 8.219745629919917 32.07342866599116 -0.004147956122031096 0 0 0
1110 1 6.1648291579697 33.2624101330916 1.639564796464068 0 0 0
1114 1 10.2746731924977 33.2624101330916 1.639564796464067 0 0 0
1117 1 12.329595205664914 29.698757825630633 1.6395647964640936 0 0 0
1121 1 16.439439240192918 29.69875782563063 1.639564796464093 0 0 0
1120 1 12.32958966444792 32.07342866599116 -0.004147956122031143 0 0 0
1124 1 16.439433698975918 32.07342866599116 -0.00414795612203077 0 0 0
1118 1 14.3845172270257 33.2624101330916 1.6395647964640678 0 0 0
1125 1 20.549283274720914 29.698757825630633 1.6395647964640938 0 0 0
1128 1 20.54927773350392 32.07342866599116 -0.004147956122033565 0 0 0
1122 1 18.494361261553703 33.2624101330916 1.6395647964640658 0 0 0