LAMMPS data file via write_data, version 29 Aug 2024, timestep = 2, units = metal

4032 atoms
3 atom types

0 98.636256828672 xlo xhi
0 99.782264608908 ylo yhi
-50 50 zlo zhi

Masses

1 121.76
2 121.76
3 121.76

Atoms # atomic

721 1 6.101364154959236e-05 1.189557142159309 1.6396486762492215 0 0 0
723 1 2.054981656148237 0.0005396862752175413 -0.004112976083061901 0 0 0
725 1 4.109905048169546 1.189557142159309 1.639648676249222 0 0 0
724 1 5.964304847542311e-05 3.5641919937361743 -0.0041129760830790766 0 0 0
728 1 4.109903677576474 3.564191993736174 -0.004112976083079391 0 0 0
722 1 2.0549830350734593 4.753209449620265 1.6396486762492035 0 0 0
727 1 6.164825690676234 0.0005396862752178504 -0.004112976083060541 0 0 0
729 1 8.219749082697547 1.1895571421593083 1.639648676249221 0 0 0
731 1 10.274669725204236 0.0005396862752180703 -0.004112976083060818 0 0 0
732 1 8.219747712104473 3.564191993736175 -0.004112976083078382 0 0 0
726 1 6.164827069601457 4.7532094496202655 1.6396486762492049 0 0 0
730 1 10.274671104129457 4.753209449620265 1.6396486762492044 0 0 0
733 1 12.32959311722555 1.189557142159308 1.6396486762492208 0 0 0
735 1 14.384513759732238 0.0005396862752174907 -0.004112976083060788 0 0 0
737 1 16.43943715175355 1.1895571421593083 1.6396486762492208 0 0 0
736 1 12.329591746632474 3.5641919937361752 -0.004112976083077989 0 0 0
740 1 16.439435781160473 3.564191993736175 -0.004112976083078271 0 0 0
734 1 14.384515138657457 4.7532094496202655 1.639648676249205 0 0 0
739 1 18.49435779426024 0.0005396862752179182 -0.004112976083062052 0 0 0
741 1 20.549281186281547 1.189557142159309 1.6396486762492222 0 0 0
743 1 22.604201828788234 0.0005396862752171968 -0.004112976083061885 0 0 0
744 1 20.54927981568848 3.564191993736174 -0.004112976083079397 0 0 0
738 1 18.49435917318546 4.753209449620264 1.6396486762492022 0 0 0
742 1 22.60420320771346 4.7532094496202655 1.6396486762492049 0 0 0
745 1 24.659125220809546 1.1895571421593092 1.6396486762492217 0 0 0
747 1 26.714045863316233 0.0005396862752187327 -0.004112976083059533 0 0 0
749 1 28.76896925533755 1.1895571421593072 1.6396486762492197 0 0 0
748 1 24.659123850216474 3.5641919937361743 -0.004112976083079301 0 0 0
752 1 28.768967884744473 3.5641919937361757 -0.004112976083077386 0 0 0
746 1 26.714047242241456 4.7532094496202655 1.6396486762492053 0 0 0
751 1 30.82388989784424 0.0005396862752176787 -0.004112976083062422 0 0 0
753 1 32.87881328986555 1.1895571421593085 1.6396486762492215 0 0 0
756 1 32.87881191927248 3.564191993736174 -0.0041129760830794304 0 0 0
750 1 30.823891276769462 4.753209449620264 1.6396486762492024 0 0 0
755 1 34.933733932372235 0.0005396862752172748 -0.004112976083061776 0 0 0
757 1 36.98865732439354 1.1895571421593094 1.6396486762492224 0 0 0
759 1 39.04357796690024 0.0005396862752190628 -0.0041129760830589225 0 0 0
760 1 36.988655953800475 3.564191993736174 -0.004112976083079253 0 0 0
754 1 34.93373531129746 4.7532094496202655 1.6396486762492049 0 0 0
758 1 39.04357934582546 4.7532094496202655 1.6396486762492057 0 0 0
761 1 41.09850135892155 1.189557142159307 1.6396486762492193 0 0 0
763 1 43.15342200142824 0.000539686275217385 -0.004112976083062975 0 0 0
765 1 45.20834539344955 1.1895571421593092 1.6396486762492222 0 0 0
764 1 41.09849998832847 3.5641919937361752 -0.004112976083077799 0 0 0
768 1 45.20834402285648 3.5641919937361743 -0.004112976083078813 0 0 0
762 1 43.15342338035346 4.753209449620264 1.6396486762492017 0 0 0
767 1 47.26326603595624 0.0005396862752180194 -0.004112976083060227 0 0 0
673 1 49.31818942797755 1.1895571421593083 1.6396486762492208 -1 0 0
675 1 51.373110070484245 0.0005396862752182339 -0.0041129760830605966 -1 0 0
676 1 49.318188057384475 3.5641919937361752 -0.004112976083078077 -1 0 0
766 1 47.26326741488146 4.7532094496202655 1.6396486762492053 0 0 0
674 1 51.373111449409464 4.753209449620265 1.639648676249204 -1 0 0
677 1 53.42803346250555 1.1895571421593092 1.6396486762492224 -1 0 0
679 1 55.48295410501224 0.0005396862752170521 -0.004112976083062156 -1 0 0
681 1 57.53787749703355 1.189557142159308 1.6396486762492204 -1 0 0
680 1 53.42803209191248 3.5641919937361743 -0.004112976083079171 -1 0 0
684 1 57.53787612644047 3.564191993736175 -0.00411297608307851 -1 0 0
678 1 55.48295548393746 4.753209449620266 1.639648676249205 -1 0 0
683 1 59.59279813954024 0.0005396862752180907 -0.004112976083060814 -1 0 0
685 1 61.64772153156155 1.189557142159308 1.6396486762492206 -1 0 0
687 1 63.70264217406824 0.0005396862752169816 -0.004112976083062371 -1 0 0
688 1 61.647720160968476 3.564191993736175 -0.004112976083078234 -1 0 0
682 1 59.59279951846546 4.753209449620265 1.6396486762492035 -1 0 0
686 1 63.702643552993464 4.7532094496202655 1.6396486762492046 -1 0 0
689 1 65.75756556608955 1.1895571421593087 1.6396486762492213 -1 0 0
691 1 67.81248620859624 0.0005396862752190988 -0.004112976083058832 -1 0 0
692 1 65.75756419549647 3.564191993736174 -0.004112976083079696 -1 0 0
690 1 67.81248758752146 4.753209449620265 1.6396486762492033 -1 0 0
693 1 69.86740960061755 1.1895571421593085 1.6396486762492215 -1 0 0
695 1 71.92233024312424 0.0005396862752167452 -0.004112976083062256 -1 0 0
697 1 73.97725363514554 1.1895571421593087 1.639648676249222 -1 0 0
696 1 69.86740823002448 3.564191993736175 -0.0041129760830783445 -1 0 0
700 1 73.97725226455248 3.5641919937361752 -0.004112976083077448 -1 0 0
694 1 71.92233162204946 4.753209449620266 1.6396486762492053 -1 0 0
699 1 76.03217427765223 0.0005396862752175643 -0.004112976083062027 -1 0 0
701 1 78.08709766967354 1.189557142159309 1.639648676249222 -1 0 0
703 1 80.14201831218023 0.0005396862752168073 -0.004112976083062462 -1 0 0
704 1 78.08709629908047 3.5641919937361735 -0.004112976083079937 -1 0 0
698 1 76.03217565657746 4.753209449620265 1.6396486762492037 -1 0 0
702 1 80.14201969110546 4.753209449620265 1.6396486762492029 -1 0 0
705 1 82.19694170420155 1.1895571421593072 1.639648676249219 -1 0 0
707 1 84.25186234670824 0.00053968627521892 -0.0041129760830587786 -1 0 0
709 1 86.30678573872954 1.1895571421593092 1.6396486762492226 -1 0 0
708 1 82.19694033360848 3.564191993736175 -0.0041129760830784555 -1 0 0
712 1 86.30678436813648 3.5641919937361752 -0.004112976083077465 -1 0 0
706 1 84.25186372563346 4.7532094496202655 1.6396486762492057 -1 0 0
711 1 88.36170638123623 0.0005396862752175524 -0.004112976083062043 -1 0 0
713 1 90.41662977325754 1.189557142159309 1.639648676249222 -1 0 0
715 1 92.47155041576423 0.0005396862752168061 -0.004112976083062464 -1 0 0
716 1 90.41662840266447 3.5641919937361735 -0.004112976083079938 -1 0 0
710 1 88.36170776016147 4.753209449620265 1.6396486762492037 -1 0 0
714 1 92.47155179468946 4.753209449620265 1.6396486762492029 -1 0 0
717 1 94.52647380778555 1.1895571421593072 1.6396486762492193 -1 0 0
719 1 96.58139445029224 0.000539686275218901 -0.004112976083058991 -1 0 0
720 1 94.52647243719248 3.564191993736175 -0.004112976083078448 -1 0 0
718 1 96.58139582921746 4.7532094496202655 1.6396486762492055 -1 0 0
819 1 2.054981656148237 7.127844301197216 -0.004112976083060611 0 0 0
817 1 6.101364154959833e-05 8.316861757081307 1.639648676249223 0 0 0
821 1 4.109905048169546 8.316861757081307 1.6396486762492235 0 0 0
820 1 5.964304847552535e-05 10.691496608658172 -0.0041129760830775795 0 0 0
824 1 4.109903677576474 10.691496608658172 -0.004112976083077865 0 0 0
823 1 6.164825690676234 7.127844301197216 -0.004112976083059345 0 0 0
827 1 10.274669725204236 7.127844301197216 -0.004112976083059411 0 0 0
825 1 8.219749082697547 8.316861757081307 1.6396486762492224 0 0 0
828 1 8.219747712104471 10.691496608658174 -0.0041129760830769845 0 0 0
831 1 14.384513759732238 7.127844301197216 -0.004112976083059585 0 0 0
829 1 12.32959311722555 8.316861757081307 1.6396486762492222 0 0 0
833 1 16.43943715175355 8.316861757081307 1.6396486762492224 0 0 0
832 1 12.329591746632474 10.691496608658174 -0.004112976083076711 0 0 0
836 1 16.439435781160473 10.691496608658174 -0.004112976083077119 0 0 0
835 1 18.49435779426024 7.127844301197216 -0.004112976083060435 0 0 0
839 1 22.604201828788234 7.127844301197216 -0.004112976083060706 0 0 0
837 1 20.549281186281547 8.316861757081307 1.6396486762492237 0 0 0
840 1 20.54927981568848 10.691496608658172 -0.004112976083077883 0 0 0
843 1 26.714045863316233 7.127844301197217 -0.004112976083058441 0 0 0
841 1 24.659125220809546 8.316861757081307 1.6396486762492235 0 0 0
845 1 28.76896925533755 8.316861757081305 1.6396486762492215 0 0 0
844 1 24.659123850216474 10.691496608658172 -0.004112976083077772 0 0 0
848 1 28.768967884744473 10.691496608658174 -0.004112976083075772 0 0 0
847 1 30.82388989784424 7.127844301197216 -0.004112976083060919 0 0 0
849 1 32.87881328986555 8.316861757081307 1.639648676249223 0 0 0
852 1 32.87881191927248 10.691496608658172 -0.004112976083077913 0 0 0
851 1 34.933733932372235 7.127844301197216 -0.004112976083060607 0 0 0
855 1 39.04357796690024 7.127844301197218 -0.004112976083057833 0 0 0
853 1 36.98865732439354 8.316861757081307 1.639648676249224 0 0 0
856 1 36.988655953800475 10.691496608658172 -0.004112976083077725 0 0 0
859 1 43.15342200142824 7.127844301197215 -0.004112976083061474 0 0 0
857 1 41.09850135892155 8.316861757081305 1.6396486762492208 0 0 0
861 1 45.20834539344955 8.316861757081307 1.6396486762492237 0 0 0
860 1 41.09849998832847 10.691496608658174 -0.004112976083076403 0 0 0
864 1 45.20834402285648 10.691496608658172 -0.004112976083077317 0 0 0
863 1 47.26326603595624 7.127844301197216 -0.004112976083059018 0 0 0
771 1 51.373110070484245 7.127844301197216 -0.0041129760830592756 -1 0 0
769 1 49.31818942797755 8.316861757081307 1.6396486762492222 -1 0 0
772 1 49.318188057384475 10.691496608658174 -0.004112976083076686 -1 0 0
775 1 55.48295410501224 7.127844301197216 -0.004112976083060907 -1 0 0
773 1 53.42803346250555 8.316861757081307 1.6396486762492237 -1 0 0
777 1 57.53787749703355 8.316861757081305 1.6396486762492222 -1 0 0
776 1 53.42803209191248 10.691496608658172 -0.004112976083077669 -1 0 0
780 1 57.53787612644047 10.691496608658174 -0.0041129760830773505 -1 0 0
779 1 59.59279813954024 7.127844301197216 -0.004112976083059394 -1 0 0
783 1 63.70264217406824 7.127844301197215 -0.004112976083060852 -1 0 0
781 1 61.64772153156155 8.316861757081307 1.6396486762492222 -1 0 0
784 1 61.647720160968476 10.691496608658174 -0.004112976083076846 -1 0 0
787 1 67.81248620859624 7.127844301197218 -0.004112976083057993 -1 0 0
785 1 65.75756556608955 8.316861757081307 1.6396486762492228 -1 0 0
788 1 65.75756419549647 10.691496608658172 -0.004112976083078101 -1 0 0
791 1 71.92233024312424 7.127844301197215 -0.00411297608306128 -1 0 0
789 1 69.86740960061755 8.316861757081307 1.6396486762492235 -1 0 0
793 1 73.97725363514554 8.316861757081307 1.6396486762492235 -1 0 0
792 1 69.86740823002448 10.691496608658172 -0.0041129760830769645 -1 0 0
796 1 73.97725226455248 10.691496608658174 -0.004112976083076075 -1 0 0
795 1 76.03217427765223 7.127844301197216 -0.004112976083060615 -1 0 0
799 1 80.14201831218023 7.127844301197215 -0.004112976083061466 -1 0 0
797 1 78.08709766967354 8.316861757081307 1.6396486762492235 -1 0 0
800 1 78.08709629908047 10.691496608658172 -0.004112976083078543 -1 0 0
803 1 84.25186234670824 7.127844301197217 -0.0041129760830578175 -1 0 0
801 1 82.19694170420155 8.316861757081305 1.639648676249221 -1 0 0
805 1 86.30678573872954 8.316861757081307 1.6396486762492242 -1 0 0
804 1 82.19694033360848 10.691496608658174 -0.004112976083077045 -1 0 0
808 1 86.30678436813648 10.691496608658174 -0.004112976083076093 -1 0 0
807 1 88.36170638123623 7.127844301197216 -0.00411297608306063 -1 0 0
811 1 92.47155041576423 7.127844301197215 -0.0041129760830614665 -1 0 0
809 1 90.41662977325754 8.316861757081307 1.6396486762492235 -1 0 0
812 1 90.41662840266447 10.691496608658172 -0.004112976083078545 -1 0 0
815 1 96.58139445029224 7.127844301197217 -0.004112976083057921 -1 0 0
813 1 94.52647380778555 8.316861757081305 1.639648676249221 -1 0 0
816 1 94.52647243719248 10.691496608658174 -0.004112976083077177 -1 0 0
818 1 2.054983035073459 11.880514064542265 1.6396486762492037 0 0 0
915 1 2.054981656148237 14.255148916119214 -0.004112976083062179 0 0 0
913 1 6.10136415495492e-05 15.444166372003304 1.6396486762492233 0 0 0
917 1 4.109905048169546 15.444166372003304 1.639648676249223 0 0 0
822 1 6.164827069601456 11.880514064542265 1.639648676249205 0 0 0
826 1 10.274671104129457 11.880514064542265 1.639648676249204 0 0 0
919 1 6.164825690676234 14.255148916119214 -0.004112976083060692 0 0 0
923 1 10.274669725204236 14.255148916119216 -0.004112976083060972 0 0 0
921 1 8.219749082697547 15.444166372003304 1.6396486762492224 0 0 0
830 1 14.384515138657457 11.880514064542265 1.6396486762492053 0 0 0
927 1 14.384513759732238 14.255148916119214 -0.004112976083060927 0 0 0
925 1 12.32959311722555 15.444166372003304 1.6396486762492222 0 0 0
929 1 16.43943715175355 15.444166372003304 1.6396486762492222 0 0 0
834 1 18.49435917318546 11.880514064542263 1.6396486762492026 0 0 0
838 1 22.60420320771346 11.880514064542265 1.6396486762492049 0 0 0
931 1 18.49435779426024 14.255148916119214 -0.004112976083061804 0 0 0
935 1 22.604201828788234 14.255148916119214 -0.0041129760830619505 0 0 0
933 1 20.549281186281547 15.444166372003304 1.639648676249223 0 0 0
842 1 26.714047242241456 11.880514064542265 1.639648676249205 0 0 0
939 1 26.714045863316233 14.255148916119216 -0.004112976083059789 0 0 0
937 1 24.659125220809543 15.444166372003304 1.6396486762492228 0 0 0
941 1 28.76896925533755 15.444166372003302 1.6396486762492213 0 0 0
846 1 30.823891276769462 11.880514064542263 1.6396486762492026 0 0 0
943 1 30.82388989784424 14.255148916119214 -0.004112976083062279 0 0 0
945 1 32.87881328986555 15.444166372003304 1.6396486762492224 0 0 0
850 1 34.93373531129746 11.880514064542265 1.6396486762492049 0 0 0
854 1 39.04357934582546 11.880514064542265 1.6396486762492057 0 0 0
947 1 34.933733932372235 14.255148916119214 -0.004112976083061957 0 0 0
951 1 39.04357796690024 14.255148916119216 -0.00411297608305916 0 0 0
949 1 36.98865732439354 15.444166372003306 1.6396486762492237 0 0 0
858 1 43.15342338035346 11.880514064542263 1.6396486762492022 0 0 0
955 1 43.15342200142824 14.255148916119214 -0.004112976083062939 0 0 0
953 1 41.09850135892155 15.444166372003302 1.6396486762492208 0 0 0
957 1 45.20834539344955 15.444166372003304 1.6396486762492235 0 0 0
862 1 47.26326741488146 11.880514064542265 1.639648676249205 0 0 0
770 1 51.373111449409464 11.880514064542265 1.639648676249204 -1 0 0
959 1 47.26326603595624 14.255148916119216 -0.004112976083060365 0 0 0
867 1 51.373110070484245 14.255148916119216 -0.004112976083060701 -1 0 0
865 1 49.31818942797755 15.444166372003304 1.6396486762492222 -1 0 0
774 1 55.48295548393746 11.880514064542265 1.6396486762492053 -1 0 0
871 1 55.48295410501224 14.255148916119214 -0.004112976083062283 -1 0 0
869 1 53.42803346250555 15.444166372003304 1.6396486762492237 -1 0 0
873 1 57.53787749703355 15.444166372003304 1.6396486762492217 -1 0 0
778 1 59.59279951846546 11.880514064542265 1.6396486762492035 -1 0 0
782 1 63.702643552993464 11.880514064542265 1.6396486762492046 -1 0 0
875 1 59.59279813954024 14.255148916119216 -0.004112976083060957 -1 0 0
879 1 63.70264217406824 14.255148916119214 -0.004112976083062564 -1 0 0
877 1 61.64772153156155 15.444166372003304 1.639648676249222 -1 0 0
786 1 67.81248758752146 11.880514064542263 1.6396486762492033 -1 0 0
883 1 67.81248620859624 14.255148916119216 -0.004112976083059211 -1 0 0
881 1 65.75756556608955 15.444166372003304 1.6396486762492224 -1 0 0
790 1 71.92233162204946 11.880514064542265 1.6396486762492055 -1 0 0
887 1 71.92233024312424 14.255148916119213 -0.004112976083062535 -1 0 0
885 1 69.86740960061755 15.444166372003304 1.639648676249223 -1 0 0
889 1 73.97725363514554 15.444166372003304 1.6396486762492233 -1 0 0
794 1 76.03217565657746 11.880514064542265 1.639648676249204 -1 0 0
798 1 80.14201969110546 11.880514064542265 1.639648676249203 -1 0 0
891 1 76.03217427765223 14.255148916119214 -0.004112976083062221 -1 0 0
895 1 80.14201831218023 14.255148916119213 -0.004112976083062845 -1 0 0
893 1 78.08709766967354 15.444166372003304 1.639648676249223 -1 0 0
802 1 84.25186372563346 11.880514064542265 1.6396486762492057 -1 0 0
899 1 84.25186234670824 14.255148916119216 -0.004112976083059162 -1 0 0
897 1 82.19694170420155 15.444166372003302 1.6396486762492206 -1 0 0
901 1 86.30678573872954 15.444166372003304 1.6396486762492237 -1 0 0
806 1 88.36170776016147 11.880514064542265 1.639648676249204 -1 0 0
810 1 92.47155179468946 11.880514064542265 1.639648676249203 -1 0 0
903 1 88.36170638123623 14.255148916119214 -0.00411297608306224 -1 0 0
907 1 92.47155041576423 14.255148916119213 -0.004112976083062845 -1 0 0
905 1 90.41662977325754 15.444166372003304 1.639648676249223 -1 0 0
814 1 96.58139582921746 11.880514064542265 1.6396486762492055 -1 0 0
911 1 96.58139445029224 14.255148916119216 -0.004112976083059259 -1 0 0
909 1 94.52647380778555 15.444166372003302 1.6396486762492206 -1 0 0
916 1 5.96430484750802e-05 17.81880122358017 -0.0041129760830761865 0 0 0
914 1 2.054983035073459 19.007818679464265 1.6396486762492044 0 0 0
920 1 4.109903677576475 17.81880122358017 -0.004112976083076588 0 0 0
1009 1 6.101364154981056e-05 22.571470986925313 1.6396486762492202 0 0 0
1011 1 2.054981656148237 21.382453531041214 -0.004112976083060518 0 0 0
1013 1 4.109905048169546 22.571470986925313 1.6396486762492204 0 0 0
918 1 6.164827069601456 19.00781867946427 1.6396486762492055 0 0 0
924 1 8.219747712104471 17.81880122358017 -0.004112976083075751 0 0 0
922 1 10.274671104129457 19.007818679464265 1.6396486762492044 0 0 0
1015 1 6.164825690676234 21.382453531041218 -0.004112976083059845 0 0 0
1017 1 8.219749082697547 22.571470986925313 1.6396486762492202 0 0 0
1019 1 10.274669725204236 21.382453531041218 -0.004112976083059494 0 0 0
928 1 12.329591746632474 17.81880122358017 -0.0041129760830753434 0 0 0
926 1 14.384515138657457 19.007818679464265 1.6396486762492055 0 0 0
932 1 16.439435781160473 17.81880122358017 -0.0041129760830756245 0 0 0
1021 1 12.32959311722555 22.571470986925313 1.63964867624922 0 0 0
1023 1 14.384513759732238 21.382453531041218 -0.004112976083060183 0 0 0
1025 1 16.439437151753552 22.571470986925313 1.6396486762492197 0 0 0
930 1 18.49435917318546 19.007818679464265 1.6396486762492033 0 0 0
936 1 20.54927981568848 17.81880122358017 -0.004112976083076413 0 0 0
934 1 22.60420320771346 19.007818679464265 1.6396486762492057 0 0 0
1027 1 18.49435779426024 21.382453531041214 -0.004112976083060509 0 0 0
1029 1 20.549281186281547 22.571470986925313 1.6396486762492204 0 0 0
1031 1 22.604201828788234 21.382453531041214 -0.004112976083061072 0 0 0
940 1 24.659123850216474 17.81880122358017 -0.00411297608307621 0 0 0
938 1 26.714047242241456 19.007818679464265 1.6396486762492055 0 0 0
944 1 28.768967884744473 17.818801223580174 -0.00411297608307432 0 0 0
1033 1 24.659125220809543 22.571470986925313 1.6396486762492204 0 0 0
1035 1 26.714045863316233 21.382453531041218 -0.0041129760830590145 0 0 0
1037 1 28.76896925533755 22.57147098692531 1.6396486762492188 0 0 0
942 1 30.823891276769462 19.007818679464265 1.6396486762492035 0 0 0
948 1 32.87881191927248 17.81880122358017 -0.004112976083076444 0 0 0
1039 1 30.82388989784424 21.382453531041214 -0.0041129760830612 0 0 0
1041 1 32.87881328986555 22.571470986925313 1.6396486762492197 0 0 0
946 1 34.93373531129746 19.007818679464265 1.6396486762492057 0 0 0
952 1 36.988655953800475 17.81880122358017 -0.004112976083076156 0 0 0
950 1 39.04357934582546 19.007818679464265 1.6396486762492062 0 0 0
1043 1 34.933733932372235 21.382453531041214 -0.004112976083061112 0 0 0
1045 1 36.98865732439354 22.571470986925313 1.639648676249221 0 0 0
1047 1 39.04357796690024 21.382453531041218 -0.004112976083058509 0 0 0
956 1 41.09849998832847 17.81880122358017 -0.004112976083074941 0 0 0
954 1 43.15342338035346 19.00781867946426 1.6396486762492029 0 0 0
960 1 45.20834402285648 17.81880122358017 -0.004112976083075849 0 0 0
1049 1 41.09850135892155 22.57147098692531 1.6396486762492182 0 0 0
1051 1 43.15342200142824 21.382453531041214 -0.004112976083061777 0 0 0
1053 1 45.20834539344955 22.571470986925313 1.6396486762492208 0 0 0
958 1 47.26326741488146 19.00781867946427 1.6396486762492055 0 0 0
868 1 49.318188057384475 17.81880122358017 -0.0041129760830753296 -1 0 0
866 1 51.373111449409464 19.007818679464265 1.6396486762492044 -1 0 0
1055 1 47.26326603595624 21.382453531041218 -0.004112976083059513 0 0 0
961 1 49.31818942797755 22.571470986925313 1.63964867624922 -1 0 0
963 1 51.373110070484245 21.382453531041218 -0.004112976083059148 -1 0 0
872 1 53.42803209191248 17.81880122358017 -0.0041129760830762845 -1 0 0
870 1 55.48295548393746 19.007818679464265 1.6396486762492062 -1 0 0
876 1 57.53787612644047 17.81880122358017 -0.0041129760830758075 -1 0 0
965 1 53.42803346250555 22.571470986925313 1.639648676249221 -1 0 0
967 1 55.48295410501224 21.382453531041214 -0.004112976083061418 -1 0 0
969 1 57.53787749703355 22.571470986925313 1.639648676249219 -1 0 0
874 1 59.59279951846546 19.007818679464265 1.639648676249204 -1 0 0
880 1 61.647720160968476 17.81880122358017 -0.004112976083075907 -1 0 0
878 1 63.702643552993464 19.007818679464265 1.6396486762492057 -1 0 0
971 1 59.59279813954024 21.382453531041218 -0.004112976083059469 -1 0 0
973 1 61.64772153156155 22.571470986925313 1.6396486762492193 -1 0 0
975 1 63.70264217406824 21.382453531041214 -0.004112976083060849 -1 0 0
884 1 65.75756419549647 17.81880122358017 -0.0041129760830769455 -1 0 0
882 1 67.81248758752146 19.007818679464265 1.6396486762492037 -1 0 0
977 1 65.75756556608955 22.571470986925313 1.63964867624922 -1 0 0
979 1 67.81248620859624 21.382453531041218 -0.004112976083058649 -1 0 0
888 1 69.86740823002448 17.81880122358017 -0.0041129760830751665 -1 0 0
886 1 71.92233162204946 19.007818679464265 1.6396486762492064 -1 0 0
892 1 73.97725226455248 17.818801223580174 -0.0041129760830746626 -1 0 0
981 1 69.86740960061756 22.57147098692531 1.6396486762492206 -1 0 0
983 1 71.92233024312424 21.382453531041214 -0.004112976083061789 -1 0 0
985 1 73.97725363514554 22.571470986925313 1.6396486762492204 -1 0 0
890 1 76.03217565657746 19.007818679464265 1.6396486762492049 -1 0 0
896 1 78.08709629908047 17.81880122358017 -0.004112976083077082 -1 0 0
894 1 80.14201969110546 19.007818679464265 1.6396486762492037 -1 0 0
987 1 76.03217427765223 21.382453531041214 -0.00411297608306071 -1 0 0
989 1 78.08709766967354 22.571470986925313 1.6396486762492202 -1 0 0
991 1 80.14201831218023 21.382453531041214 -0.004112976083061974 -1 0 0
900 1 82.19694033360848 17.81880122358017 -0.004112976083075384 -1 0 0
898 1 84.25186372563346 19.00781867946427 1.6396486762492062 -1 0 0
904 1 86.30678436813648 17.818801223580174 -0.004112976083074688 -1 0 0
993 1 82.19694170420155 22.57147098692531 1.639648676249218 -1 0 0
995 1 84.25186234670824 21.382453531041218 -0.004112976083058385 -1 0 0
997 1 86.30678573872956 22.571470986925313 1.639648676249221 -1 0 0
902 1 88.36170776016147 19.007818679464265 1.6396486762492049 -1 0 0
908 1 90.41662840266447 17.81880122358017 -0.0041129760830770825 -1 0 0
906 1 92.47155179468946 19.007818679464265 1.6396486762492037 -1 0 0
999 1 88.36170638123623 21.382453531041214 -0.004112976083060736 -1 0 0
1001 1 90.41662977325754 22.571470986925313 1.6396486762492202 -1 0 0
1003 1 92.47155041576423 21.382453531041214 -0.004112976083061976 -1 0 0
912 1 94.52647243719248 17.81880122358017 -0.004112976083075366 -1 0 0
910 1 96.58139582921746 19.007818679464265 1.6396486762492055 -1 0 0
1005 1 94.52647380778555 22.57147098692531 1.639648676249218 -1 0 0
1007 1 96.58139445029224 21.382453531041218 -0.0041129760830584915 -1 0 0
1012 1 5.964304847556954e-05 24.946105838502177 -0.004112976083079776 0 0 0
1010 1 2.0549830350734593 26.13512329438627 1.6396486762492037 0 0 0
1016 1 4.109903677576474 24.946105838502177 -0.0041129760830799856 0 0 0
1107 1 2.054981656148237 28.509758145963218 -0.0041129760830607995 0 0 0
1014 1 6.164827069601457 26.13512329438627 1.6396486762492046 0 0 0
1020 1 8.219747712104473 24.946105838502177 -0.004112976083078841 0 0 0
1018 1 10.274671104129457 26.13512329438627 1.639648676249204 0 0 0
1111 1 6.164825690676234 28.509758145963218 -0.004112976083059587 0 0 0
1115 1 10.274669725204236 28.50975814596322 -0.00411297608305973 0 0 0
1024 1 12.329591746632474 24.946105838502177 -0.004112976083078518 0 0 0
1022 1 14.384515138657457 26.13512329438627 1.6396486762492049 0 0 0
1028 1 16.439435781160473 24.946105838502177 -0.004112976083078762 0 0 0
1119 1 14.384513759732238 28.509758145963218 -0.004112976083059829 0 0 0
1026 1 18.49435917318546 26.13512329438627 1.6396486762492022 0 0 0
1032 1 20.54927981568848 24.946105838502177 -0.004112976083079799 0 0 0
1030 1 22.60420320771346 26.13512329438627 1.6396486762492049 0 0 0
1123 1 18.49435779426024 28.50975814596322 -0.004112976083060956 0 0 0
1127 1 22.604201828788234 28.509758145963218 -0.004112976083060894 0 0 0
1036 1 24.659123850216474 24.946105838502177 -0.004112976083079993 0 0 0
1034 1 26.714047242241456 26.13512329438627 1.639648676249205 0 0 0
1040 1 28.768967884744473 24.946105838502177 -0.004112976083077362 0 0 0
1131 1 26.714045863316233 28.50975814596322 -0.004112976083058333 0 0 0
1038 1 30.823891276769462 26.13512329438627 1.6396486762492024 0 0 0
1044 1 32.87881191927248 24.946105838502177 -0.004112976083079829 0 0 0
1135 1 30.82388989784424 28.509758145963218 -0.004112976083061226 0 0 0
1042 1 34.93373531129746 26.13512329438627 1.6396486762492049 0 0 0
1048 1 36.988655953800475 24.946105838502177 -0.004112976083079947 0 0 0
1046 1 39.04357934582546 26.13512329438627 1.6396486762492057 0 0 0
1139 1 34.933733932372235 28.509758145963218 -0.004112976083060778 0 0 0
1143 1 39.04357796690024 28.50975814596322 -0.004112976083057726 0 0 0
1052 1 41.09849998832847 24.946105838502177 -0.004112976083078003 0 0 0
1050 1 43.15342338035346 26.13512329438627 1.6396486762492017 0 0 0
1056 1 45.20834402285648 24.946105838502177 -0.004112976083079303 0 0 0
1147 1 43.15342200142824 28.509758145963218 -0.004112976083061762 0 0 0
1054 1 47.26326741488146 26.13512329438627 1.6396486762492053 0 0 0
964 1 49.318188057384475 24.946105838502177 -0.004112976083078617 -1 0 0
962 1 51.373111449409464 26.13512329438627 1.639648676249204 -1 0 0
1151 1 47.26326603595624 28.50975814596322 -0.004112976083059237 0 0 0
1059 1 51.373110070484245 28.50975814596322 -0.004112976083059489 -1 0 0
968 1 53.42803209191248 24.946105838502177 -0.004112976083079647 -1 0 0
966 1 55.48295548393746 26.13512329438627 1.6396486762492049 -1 0 0
972 1 57.53787612644047 24.946105838502177 -0.004112976083079185 -1 0 0
1063 1 55.48295410501224 28.509758145963218 -0.0041129760830608915 -1 0 0
970 1 59.59279951846546 26.13512329438627 1.6396486762492037 -1 0 0
976 1 61.647720160968476 24.946105838502177 -0.004112976083078953 -1 0 0
974 1 63.702643552993464 26.13512329438627 1.6396486762492046 -1 0 0
1067 1 59.59279813954024 28.50975814596322 -0.004112976083059723 -1 0 0
1071 1 63.70264217406824 28.509758145963218 -0.00411297608306126 -1 0 0
980 1 65.75756419549647 24.946105838502177 -0.004112976083080199 -1 0 0
978 1 67.81248758752146 26.13512329438627 1.6396486762492033 -1 0 0
1075 1 67.81248620859624 28.50975814596322 -0.004112976083057774 -1 0 0
984 1 69.86740823002448 24.946105838502177 -0.004112976083078668 -1 0 0
982 1 71.92233162204946 26.13512329438627 1.6396486762492053 -1 0 0
988 1 73.97725226455248 24.94610583850218 -0.004112976083078072 -1 0 0
1079 1 71.92233024312424 28.509758145963218 -0.0041129760830610545 -1 0 0
986 1 76.03217565657746 26.13512329438627 1.6396486762492037 -1 0 0
992 1 78.08709629908047 24.946105838502177 -0.004112976083080437 -1 0 0
990 1 80.14201969110546 26.13512329438627 1.6396486762492026 -1 0 0
1083 1 76.03217427765223 28.509758145963218 -0.004112976083061136 -1 0 0
1087 1 80.14201831218023 28.509758145963218 -0.004112976083061257 -1 0 0
996 1 82.19694033360848 24.946105838502177 -0.004112976083078775 -1 0 0
994 1 84.25186372563346 26.13512329438627 1.6396486762492057 -1 0 0
1000 1 86.30678436813648 24.94610583850218 -0.004112976083078071 -1 0 0
1091 1 84.25186234670824 28.50975814596322 -0.004112976083057603 -1 0 0
998 1 88.36170776016147 26.13512329438627 1.6396486762492037 -1 0 0
1004 1 90.41662840266447 24.946105838502177 -0.0041129760830804375 -1 0 0
1002 1 92.47155179468946 26.13512329438627 1.6396486762492026 -1 0 0
1095 1 88.36170638123623 28.509758145963218 -0.004112976083061139 -1 0 0
1099 1 92.47155041576423 28.509758145963218 -0.004112976083061257 -1 0 0
1008 1 94.52647243719248 24.946105838502177 -0.004112976083078768 -1 0 0
1006 1 96.58139582921746 26.13512329438627 1.6396486762492055 -1 0 0
1103 1 96.58139445029224 28.50975814596322 -0.004112976083057703 -1 0 0
1105 1 6.1013641549358655e-05 29.69877560184731 1.6396486762492228 0 0 0
1109 1 4.109905048169546 29.69877560184731 1.6396486762492233 0 0 0
1108 1 5.9643048475528826e-05 32.073410453424174 -0.004112976083078875 0 0 0
1112 1 4.109903677576474 32.073410453424174 -0.004112976083079298 0 0 0
1106 1 2.0549830350734593 33.262427909308265 1.6396486762492037 0 0 0
1113 1 8.219749082697547 29.69877560184731 1.6396486762492226 0 0 0
1116 1 8.219747712104473 32.073410453424174 -0.004112976083078308 0 0 0
1110 1 6.164827069601457 33.262427909308265 1.6396486762492049 0 0 0
1114 1 10.274671104129457 33.262427909308265 1.639648676249204 0 0 0
1117 1 12.32959311722555 29.69877560184731 1.6396486762492224 0 0 0
1121 1 16.43943715175355 29.69877560184731 1.6396486762492226 0 0 0
1120 1 12.329591746632474 32.073410453424174 -0.004112976083077781 0 0 0
1124 1 16.439435781160473 32.073410453424174 -0.004112976083078104 0 0 0
1118 1 14.384515138657457 33.262427909308265 1.639648676249205 0 0 0
1125 1 20.549281186281547 29.69877560184731 1.6396486762492235 0 0 0