LAMMPS data file via write_data, version 29 Aug 2024, timestep = 3, units = metal

4680 atoms
6 atom types

0 100.48586641587 xlo xhi
0 100.41151504317 ylo yhi
-50 50 zlo zhi

Masses

1 118.71
2 118.71
3 78.971
4 78.971
5 78.971
6 78.971

Atoms # atomic

1174 4 1.932420507997382 2.2294732173656584 0.023575150536562527 0 0 0
1331 1 1.258612002486778e-13 3.3404452729119707 1.5867188292520966 0 0 0
1337 1 3.8648410159951254 3.340445272911972 1.5867188292521004 0 0 0
1180 4 5.7972615239923835 2.2294732173656584 0.023575150536561975 0 0 0
1335 4 3.8648410159949567 5.576523718804659 0.023575150536560622 0 0 0
1343 1 7.729682031990122 3.3404452729119716 1.5867188292521004 0 0 0
1186 4 9.662102539987384 2.229473217365658 0.023575150536559866 0 0 0
1349 1 11.594523047985126 3.340445272911972 1.5867188292521008 0 0 0
1341 4 7.729682031989958 5.57652371880466 0.02357515053656083 0 0 0
1347 4 11.594523047984957 5.576523718804659 0.02357515053656039 0 0 0
1192 4 13.526943555982383 2.229473217365657 0.02357515053656121 0 0 0
1355 1 15.459364063980127 3.3404452729119716 1.5867188292520984 0 0 0
1198 4 17.391784571977382 2.229473217365659 0.02357515053656288 0 0 0
1353 4 15.459364063979956 5.576523718804658 0.023575150536559206 0 0 0
1361 1 19.324205079975123 3.3404452729119707 1.5867188292521002 0 0 0
1204 4 21.256625587972383 2.2294732173656593 0.023575150536564365 0 0 0
1367 1 23.189046095970117 3.340445272911972 1.5867188292521006 0 0 0
1359 4 19.324205079974956 5.576523718804658 0.023575150536560053 0 0 0
1365 4 23.189046095969953 5.576523718804658 0.02357515053655965 0 0 0
1210 4 25.121466603967384 2.2294732173656575 0.023575150536561347 0 0 0
1373 1 27.053887111965118 3.340445272911972 1.5867188292521004 0 0 0
1216 4 28.986307619962382 2.229473217365658 0.023575150536560095 0 0 0
1371 4 27.053887111964954 5.576523718804659 0.023575150536561142 0 0 0
1379 1 30.918728127960126 3.3404452729119725 1.5867188292521024 0 0 0
1222 4 32.85114863595739 2.229473217365658 0.023575150536561108 0 0 0
1385 1 34.78356914395513 3.3404452729119725 1.5867188292520988 0 0 0
1377 4 30.918728127959955 5.57652371880466 0.023575150536562353 0 0 0
1383 4 34.783569143954956 5.57652371880466 0.0235751505365607 0 0 0
1228 4 36.715989651952384 2.2294732173656566 0.02357515053655973 0 0 0
1391 1 38.64841015995013 3.340445272911972 1.5867188292521006 0 0 0
1234 4 40.58083066794739 2.2294732173656597 0.02357515053656586 0 0 0
1389 4 38.64841015994996 5.576523718804658 0.02357515053655996 0 0 0
1397 1 42.513251175945115 3.340445272911972 1.5867188292521022 0 0 0
1240 4 44.445671683942386 2.2294732173656584 0.023575150536561795 0 0 0
1403 1 46.37809219194013 3.340445272911974 1.5867188292521033 0 0 0
1395 4 42.51325117594496 5.576523718804658 0.02357515053656008 0 0 0
1401 4 46.37809219193996 5.57652371880466 0.023575150536563057 0 0 0
1246 4 48.31051269993739 2.229473217365659 0.02357515053656142 0 0 0
1096 4 52.17535371593239 2.229473217365658 0.02357515053656314 -1 0 0
1253 1 50.24293320793513 3.340445272911969 1.586718829252095 -1 0 0
1251 4 50.24293320793496 5.57652371880466 0.02357515053655905 -1 0 0
1259 1 54.10777422393012 3.3404452729119725 1.5867188292521042 -1 0 0
1102 4 56.04019473192739 2.2294732173656584 0.02357515053655913 -1 0 0
1265 1 57.97261523992513 3.3404452729119716 1.5867188292521008 -1 0 0
1257 4 54.107774223929965 5.576523718804658 0.023575150536559494 -1 0 0
1263 4 57.97261523992496 5.576523718804661 0.02357515053656313 -1 0 0
1108 4 59.90503574792239 2.229473217365657 0.02357515053656021 -1 0 0
1271 1 61.83745625592014 3.340445272911973 1.5867188292520993 -1 0 0
1114 4 63.76987676391738 2.229473217365657 0.023575150536560344 -1 0 0
1269 4 61.83745625591997 5.576523718804658 0.023575150536558707 -1 0 0
1277 1 65.70229727191514 3.340445272911972 1.5867188292521 -1 0 0
1120 4 67.63471777991238 2.229473217365658 0.02357515053656197 -1 0 0
1283 1 69.56713828791014 3.340445272911974 1.5867188292521035 -1 0 0
1275 4 65.70229727191496 5.576523718804658 0.02357515053655941 -1 0 0
1281 4 69.56713828790996 5.5765237188046575 0.023575150536560438 -1 0 0
1126 4 71.49955879590738 2.2294732173656584 0.023575150536563144 -1 0 0
1289 1 73.43197930390515 3.340445272911972 1.5867188292521008 -1 0 0
1132 4 75.36439981190239 2.229473217365662 0.023575150536565472 -1 0 0
1287 4 73.43197930390497 5.576523718804658 0.02357515053655912 -1 0 0
1295 1 77.29682031990012 3.340445272911972 1.5867188292521006 -1 0 0
1138 4 79.2292408278974 2.2294732173656566 0.02357515053655916 -1 0 0
1301 1 81.16166133589515 3.340445272911972 1.5867188292520995 -1 0 0
1293 4 77.29682031989996 5.576523718804662 0.023575150536565847 -1 0 0
1299 4 81.16166133589496 5.576523718804659 0.02357515053655758 -1 0 0
1144 4 83.09408184389238 2.229473217365656 0.023575150536558814 -1 0 0
1307 1 85.02650235189014 3.340445272911971 1.5867188292520984 -1 0 0
1150 4 86.9589228598874 2.2294732173656575 0.02357515053656112 -1 0 0
1305 4 85.02650235188996 5.576523718804658 0.02357515053655853 -1 0 0
1313 1 88.89134336788514 3.340445272911973 1.5867188292521026 -1 0 0
1156 4 90.82376387588238 2.2294732173656584 0.023575150536563158 -1 0 0
1319 1 92.75618438388015 3.340445272911972 1.5867188292521008 -1 0 0
1311 4 88.89134336788496 5.5765237188046575 0.023575150536560938 -1 0 0
1317 4 92.75618438387997 5.576523718804658 0.023575150536559123 -1 0 0
1329 4 100.48586641586996 5.576523718804658 0.023575150536555577 -1 0 0
1162 4 94.68860489187739 2.229473217365662 0.02357515053656563 -1 0 0
1325 1 96.62102539987512 3.3404452729119716 1.5867188292520995 -1 0 0
1168 4 98.5534459078724 2.229473217365656 0.023575150536558093 -1 0 0
1323 4 96.62102539987497 5.576523718804662 0.023575150536566662 -1 0 0
1332 1 1.9324205079978707 6.687495774350972 1.5867188292521006 0 0 0
1338 1 5.7972615239928675 6.687495774350972 1.5867188292521004 0 0 0
1330 4 1.9324205079973829 8.923574220243658 0.023575150536561115 0 0 0
1336 4 5.7972615239923835 8.923574220243658 0.023575150536560226 0 0 0
1487 1 1.2573641675898e-13 10.034546275789973 1.586718829252097 0 0 0
1493 1 3.864841015995124 10.034546275789976 1.5867188292521006 0 0 0
1344 1 9.662102539987867 6.687495774350973 1.5867188292521008 0 0 0
1342 4 9.662102539987384 8.923574220243658 0.023575150536559834 0 0 0
1499 1 7.729682031990123 10.034546275789973 1.5867188292521004 0 0 0
1505 1 11.594523047985126 10.034546275789975 1.5867188292521002 0 0 0
1350 1 13.526943555982868 6.687495774350973 1.5867188292521 0 0 0
1356 1 17.39178457197787 6.687495774350975 1.5867188292521017 0 0 0
1348 4 13.526943555982383 8.923574220243658 0.023575150536559366 0 0 0
1354 4 17.391784571977382 8.92357422024366 0.023575150536562547 0 0 0
1511 1 15.459364063980127 10.034546275789975 1.5867188292521 0 0 0
1362 1 21.25662558797287 6.687495774350975 1.5867188292521008 0 0 0
1360 4 21.256625587972383 8.923574220243658 0.0235751505365631 0 0 0
1517 1 19.324205079975123 10.034546275789973 1.5867188292521008 0 0 0
1523 1 23.189046095970117 10.034546275789976 1.5867188292521013 0 0 0
1368 1 25.121466603967868 6.687495774350973 1.586718829252102 0 0 0
1374 1 28.98630761996287 6.687495774350974 1.5867188292521013 0 0 0
1366 4 25.121466603967384 8.923574220243658 0.023575150536559824 0 0 0
1372 4 28.986307619962382 8.92357422024366 0.02357515053656033 0 0 0
1529 1 27.053887111965118 10.034546275789975 1.586718829252099 0 0 0
1380 1 32.85114863595787 6.687495774350972 1.5867188292521015 0 0 0
1378 4 32.85114863595739 8.92357422024366 0.023575150536560063 0 0 0
1535 1 30.91872812796013 10.034546275789971 1.586718829252102 0 0 0
1541 1 34.78356914395513 10.034546275789973 1.586718829252101 0 0 0
1386 1 36.71598965195287 6.687495774350974 1.5867188292521004 0 0 0
1392 1 40.580830667947865 6.687495774350975 1.5867188292521006 0 0 0
1384 4 36.715989651952384 8.923574220243658 0.02357515053655867 0 0 0
1390 4 40.58083066794739 8.92357422024366 0.023575150536565715 0 0 0
1547 1 38.64841015995013 10.034546275789975 1.5867188292521002 0 0 0
1398 1 44.44567168394286 6.687495774350975 1.5867188292521013 0 0 0
1396 4 44.445671683942386 8.923574220243658 0.023575150536562135 0 0 0
1553 1 42.513251175945115 10.034546275789971 1.5867188292521017 0 0 0
1559 1 46.37809219194013 10.034546275789973 1.5867188292521022 0 0 0
1404 1 48.31051269993786 6.687495774350974 1.5867188292521008 0 0 0
1254 1 52.17535371593287 6.687495774350973 1.5867188292521015 -1 0 0
1402 4 48.31051269993739 8.92357422024366 0.02357515053656078 0 0 0
1252 4 52.17535371593239 8.92357422024366 0.02357515053656196 -1 0 0
1409 1 50.24293320793513 10.034546275789971 1.5867188292520942 -1 0 0
1260 1 56.040194731927876 6.687495774350974 1.5867188292521 -1 0 0
1258 4 56.04019473192739 8.923574220243658 0.023575150536558943 -1 0 0
1415 1 54.10777422393012 10.034546275789976 1.5867188292521026 -1 0 0
1421 1 57.97261523992513 10.034546275789975 1.5867188292520997 -1 0 0
1266 1 59.90503574792287 6.687495774350972 1.5867188292521006 -1 0 0
1272 1 63.76987676391787 6.687495774350974 1.5867188292521013 -1 0 0
1264 4 59.90503574792239 8.923574220243658 0.0235751505365592 -1 0 0
1270 4 63.76987676391738 8.923574220243658 0.023575150536559723 -1 0 0
1427 1 61.83745625592014 10.034546275789971 1.5867188292521002 -1 0 0
1278 1 67.63471777991286 6.687495774350973 1.5867188292521026 -1 0 0
1276 4 67.63471777991239 8.92357422024366 0.023575150536561798 -1 0 0
1433 1 65.70229727191514 10.034546275789973 1.5867188292520988 -1 0 0
1439 1 69.56713828791014 10.034546275789973 1.5867188292521026 -1 0 0
1284 1 71.49955879590787 6.687495774350975 1.5867188292521008 -1 0 0
1290 1 75.36439981190289 6.687495774350974 1.5867188292521006 -1 0 0
1282 4 71.49955879590738 8.923574220243658 0.023575150536561906 -1 0 0
1288 4 75.36439981190239 8.923574220243662 0.023575150536565257 -1 0 0
1445 1 73.43197930390515 10.034546275789975 1.5867188292521004 -1 0 0
1296 1 79.22924082789787 6.687495774350972 1.5867188292521004 -1 0 0
1294 4 79.2292408278974 8.923574220243658 0.02357515053655802 -1 0 0
1451 1 77.29682031990012 10.034546275789975 1.5867188292521004 -1 0 0
1457 1 81.16166133589515 10.034546275789975 1.5867188292521002 -1 0 0
1302 1 83.09408184389288 6.687495774350973 1.5867188292521006 -1 0 0
1308 1 86.95892285988786 6.687495774350973 1.5867188292521017 -1 0 0
1300 4 83.09408184389238 8.923574220243658 0.02357515053655872 -1 0 0
1306 4 86.9589228598874 8.92357422024366 0.02357515053656095 -1 0 0
1463 1 85.02650235189014 10.034546275789971 1.5867188292520977 -1 0 0
1314 1 90.82376387588288 6.687495774350975 1.5867188292521008 -1 0 0
1312 4 90.82376387588238 8.923574220243658 0.023575150536561906 -1 0 0
1469 1 88.89134336788514 10.034546275789973 1.586718829252102 -1 0 0
1475 1 92.75618438388015 10.034546275789975 1.5867188292521004 -1 0 0
1320 1 94.68860489187789 6.687495774350974 1.5867188292521006 -1 0 0
1326 1 98.55344590787287 6.687495774350972 1.5867188292521006 -1 0 0
1318 4 94.68860489187739 8.923574220243662 0.023575150536565368 -1 0 0
1324 4 98.5534459078724 8.923574220243657 0.02357515053655662 -1 0 0
1481 1 96.62102539987512 10.034546275789975 1.5867188292520988 -1 0 0
1488 1 1.9324205079978702 13.381596777228975 1.5867188292521013 0 0 0
1491 4 3.864841015994956 12.270624721682658 0.02357515053656062 0 0 0
1494 1 5.797261523992868 13.381596777228975 1.586718829252102 0 0 0
1486 4 1.9324205079973826 15.617675223121662 0.023575150536562308 0 0 0
1492 4 5.7972615239923835 15.617675223121662 0.02357515053656112 0 0 0
1643 1 1.2789360229054723e-13 16.72864727866797 1.5867188292520968 0 0 0
1649 1 3.864841015995124 16.72864727866797 1.586718829252101 0 0 0
1497 4 7.729682031989958 12.27062472168266 0.023575150536560344 0 0 0
1500 1 9.662102539987867 13.381596777228973 1.5867188292521022 0 0 0
1503 4 11.594523047984957 12.270624721682658 0.02357515053656082 0 0 0
1498 4 9.662102539987384 15.617675223121662 0.0235751505365601 0 0 0
1655 1 7.729682031990123 16.72864727866797 1.5867188292521004 0 0 0
1661 1 11.594523047985126 16.728647278667967 1.5867188292520995 0 0 0
1506 1 13.526943555982868 13.381596777228975 1.5867188292521013 0 0 0
1509 4 15.459364063979956 12.27062472168266 0.023575150536558755 0 0 0
1512 1 17.39178457197787 13.381596777228975 1.5867188292521024 0 0 0
1504 4 13.526943555982383 15.61767522312166 0.023575150536560577 0 0 0
1510 4 17.391784571977382 15.617675223121662 0.023575150536561854 0 0 0
1667 1 15.459364063980127 16.72864727866797 1.5867188292520993 0 0 0
1515 4 19.324205079974956 12.270624721682658 0.023575150536559206 0 0 0
1518 1 21.25662558797287 13.381596777228975 1.5867188292521035 0 0 0
1521 4 23.189046095969953 12.270624721682658 0.0235751505365597 0 0 0
1516 4 21.256625587972383 15.617675223121662 0.023575150536563946 0 0 0
1673 1 19.324205079975123 16.72864727866797 1.5867188292521024 0 0 0
1679 1 23.189046095970117 16.72864727866797 1.5867188292521026 0 0 0
1524 1 25.121466603967868 13.381596777228975 1.5867188292521017 0 0 0
1527 4 27.053887111964954 12.270624721682658 0.02357515053656072 0 0 0
1530 1 28.98630761996287 13.381596777228975 1.5867188292521022 0 0 0
1522 4 25.121466603967384 15.61767522312166 0.02357515053656077 0 0 0
1528 4 28.986307619962382 15.61767522312166 0.023575150536560528 0 0 0
1685 1 27.053887111965118 16.72864727866797 1.5867188292521008 0 0 0
1533 4 30.918728127959955 12.270624721682662 0.02357515053656107 0 0 0
1536 1 32.85114863595787 13.381596777228973 1.586718829252101 0 0 0
1539 4 34.783569143954956 12.270624721682662 0.0235751505365599 0 0 0
1534 4 32.85114863595739 15.617675223121662 0.02357515053656039 0 0 0
1691 1 30.918728127960126 16.728647278667967 1.5867188292521015 0 0 0
1697 1 34.783569143955134 16.728647278667967 1.586718829252099 0 0 0
1542 1 36.71598965195287 13.381596777228973 1.5867188292521006 0 0 0
1545 4 38.64841015994996 12.270624721682658 0.023575150536559654 0 0 0
1548 1 40.580830667947865 13.381596777228973 1.5867188292521028 0 0 0
1540 4 36.715989651952384 15.61767522312166 0.02357515053655898 0 0 0
1546 4 40.58083066794738 15.617675223121664 0.02357515053656535 0 0 0
1703 1 38.64841015995014 16.728647278667967 1.586718829252101 0 0 0
1551 4 42.51325117594496 12.27062472168266 0.02357515053655968 0 0 0
1554 1 44.44567168394286 13.381596777228976 1.5867188292521013 0 0 0
1557 4 46.37809219193996 12.270624721682662 0.023575150536562006 0 0 0
1552 4 44.445671683942386 15.61767522312166 0.023575150536561534 0 0 0
1709 1 42.513251175945115 16.728647278667975 1.5867188292521028 0 0 0
1715 1 46.37809219194013 16.72864727866797 1.5867188292521044 0 0 0
1560 1 48.31051269993786 13.381596777228975 1.5867188292521017 0 0 0
1407 4 50.24293320793496 12.27062472168266 0.0235751505365592 -1 0 0
1410 1 52.17535371593287 13.381596777228975 1.586718829252102 -1 0 0
1558 4 48.31051269993739 15.617675223121662 0.023575150536561736 0 0 0
1408 4 52.17535371593239 15.617675223121662 0.023575150536563016 -1 0 0
1565 1 50.24293320793513 16.728647278667967 1.5867188292520942 -1 0 0
1413 4 54.107774223929965 12.270624721682658 0.02357515053655959 -1 0 0
1416 1 56.040194731927876 13.381596777228973 1.5867188292521022 -1 0 0
1419 4 57.97261523992496 12.27062472168266 0.02357515053656332 -1 0 0
1414 4 56.04019473192739 15.617675223121662 0.023575150536559585 -1 0 0
1571 1 54.10777422393012 16.728647278667967 1.5867188292521046 -1 0 0
1577 1 57.97261523992513 16.728647278667967 1.5867188292521002 -1 0 0
1422 1 59.90503574792287 13.381596777228973 1.586718829252101 -1 0 0
1425 4 61.83745625591997 12.27062472168266 0.023575150536557135 -1 0 0
1428 1 63.76987676391787 13.381596777228973 1.5867188292521013 -1 0 0
1420 4 59.90503574792239 15.61767522312166 0.023575150536560514 -1 0 0
1426 4 63.76987676391738 15.61767522312166 0.023575150536560018 -1 0 0
1583 1 61.83745625592014 16.728647278667967 1.5867188292520984 -1 0 0
1431 4 65.70229727191496 12.270624721682658 0.023575150536558804 -1 0 0
1434 1 67.63471777991286 13.381596777228975 1.586718829252103 -1 0 0
1437 4 69.56713828790996 12.270624721682658 0.023575150536560292 -1 0 0
1432 4 67.63471777991238 15.617675223121662 0.023575150536562388 -1 0 0
1589 1 65.70229727191514 16.728647278667967 1.5867188292521006 -1 0 0
1595 1 69.56713828791014 16.728647278667975 1.5867188292521024 -1 0 0
1440 1 71.49955879590787 13.381596777228975 1.5867188292521028 -1 0 0
1443 4 73.43197930390497 12.270624721682658 0.023575150536559095 -1 0 0
1446 1 75.36439981190289 13.381596777228973 1.586718829252102 -1 0 0
1438 4 71.49955879590738 15.617675223121662 0.023575150536563182 -1 0 0
1444 4 75.36439981190239 15.617675223121664 0.023575150536565843 -1 0 0
1601 1 73.43197930390515 16.728647278667967 1.5867188292521022 -1 0 0
1449 4 77.29682031989996 12.270624721682662 0.023575150536565545 -1 0 0
1452 1 79.22924082789787 13.381596777228973 1.5867188292521017 -1 0 0
1455 4 81.16166133589496 12.27062472168266 0.023575150536556497 -1 0 0
1450 4 79.2292408278974 15.61767522312166 0.023575150536559026 -1 0 0
1607 1 77.29682031990012 16.728647278667967 1.5867188292521004 -1 0 0
1613 1 81.16166133589515 16.728647278667967 1.5867188292520982 -1 0 0
1458 1 83.09408184389288 13.381596777228975 1.5867188292521008 -1 0 0
1461 4 85.02650235188996 12.27062472168266 0.023575150536557836 -1 0 0
1464 1 86.95892285988786 13.381596777228975 1.5867188292521008 -1 0 0
1456 4 83.09408184389238 15.61767522312166 0.023575150536559047 -1 0 0
1462 4 86.95892285988738 15.617675223121662 0.023575150536561642 -1 0 0
1619 1 85.02650235189016 16.728647278667964 1.5867188292521002 -1 0 0
1467 4 88.89134336788496 12.270624721682658 0.023575150536560355 -1 0 0
1470 1 90.82376387588288 13.381596777228975 1.5867188292521033 -1 0 0
1473 4 92.75618438387997 12.270624721682658 0.023575150536559092 -1 0 0
1468 4 90.82376387588238 15.617675223121662 0.023575150536562586 -1 0 0
1625 1 88.89134336788514 16.728647278667975 1.586718829252102 -1 0 0
1631 1 92.75618438388015 16.728647278667967 1.5867188292521024 -1 0 0
1485 4 100.48586641586996 12.270624721682658 0.023575150536555473 -1 0 0
1476 1 94.68860489187789 13.381596777228973 1.586718829252102 -1 0 0
1479 4 96.62102539987497 12.270624721682662 0.023575150536566187 -1 0 0
1482 1 98.55344590787287 13.381596777228976 1.586718829252101 -1 0 0
1474 4 94.68860489187739 15.617675223121664 0.023575150536566516 -1 0 0
1480 4 98.5534459078724 15.617675223121658 0.02357515053655732 -1 0 0
1637 1 96.62102539987512 16.728647278667967 1.586718829252099 -1 0 0
1647 4 3.864841015994956 18.96472572456066 0.023575150536561933 0 0 0
1644 1 1.9324205079978718 20.07569778010697 1.5867188292520993 0 0 0
1650 1 5.797261523992867 20.07569778010697 1.5867188292521004 0 0 0
1642 4 1.9324205079973833 22.311776225999665 0.023575150536562145 0 0 0
1799 1 1.2754578070583856e-13 23.422748281545967 1.5867188292520975 0 0 0
1805 1 3.864841015995123 23.42274828154597 1.5867188292521 0 0 0
1648 4 5.797261523992384 22.311776225999665 0.023575150536560705 0 0 0
1653 4 7.729682031989958 18.96472572456066 0.023575150536560105 0 0 0
1659 4 11.594523047984957 18.964725724560665 0.02357515053656143 0 0 0
1656 1 9.662102539987867 20.075697780106967 1.5867188292521004 0 0 0
1811 1 7.729682031990121 23.42274828154597 1.5867188292521022 0 0 0
1654 4 9.662102539987384 22.31177622599966 0.02357515053655894 0 0 0
1817 1 11.594523047985128 23.422748281545967 1.586718829252102 0 0 0
1665 4 15.459364063979956 18.96472572456066 0.023575150536559442 0 0 0
1662 1 13.526943555982868 20.075697780106967 1.5867188292521022 0 0 0
1668 1 17.39178457197787 20.07569778010697 1.586718829252101 0 0 0
1660 4 13.526943555982383 22.31177622599966 0.023575150536560764 0 0 0
1823 1 15.459364063980127 23.42274828154597 1.586718829252097 0 0 0
1666 4 17.391784571977382 22.311776225999665 0.023575150536562645 0 0 0
1671 4 19.324205079974956 18.96472572456066 0.02357515053656121 0 0 0
1677 4 23.189046095969953 18.964725724560665 0.023575150536560775 0 0 0
1674 1 21.25662558797287 20.07569778010697 1.5867188292521015 0 0 0
1829 1 19.324205079975123 23.42274828154597 1.5867188292521006 0 0 0
1672 4 21.256625587972383 22.311776225999665 0.023575150536562964 0 0 0
1835 1 23.189046095970117 23.42274828154597 1.5867188292521022 0 0 0
1683 4 27.053887111964954 18.964725724560665 0.023575150536561743 0 0 0
1680 1 25.121466603967868 20.075697780106967 1.5867188292520995 0 0 0
1686 1 28.98630761996287 20.075697780106967 1.5867188292520995 0 0 0
1678 4 25.121466603967384 22.31177622599966 0.023575150536560032 0 0 0
1841 1 27.053887111965118 23.422748281545967 1.5867188292521026 0 0 0
1684 4 28.986307619962382 22.31177622599966 0.023575150536559456 0 0 0
1689 4 30.918728127959955 18.964725724560665 0.023575150536562936 0 0 0
1695 4 34.783569143954956 18.96472572456066 0.023575150536561094 0 0 0
1692 1 32.85114863595787 20.075697780106967 1.586718829252101 0 0 0
1847 1 30.91872812796013 23.422748281545967 1.5867188292521024 0 0 0
1690 4 32.85114863595739 22.311776225999665 0.02357515053656083 0 0 0
1853 1 34.78356914395513 23.422748281545967 1.5867188292520966 0 0 0
1701 4 38.64841015994996 18.964725724560665 0.023575150536560542 0 0 0
1698 1 36.71598965195287 20.075697780106967 1.5867188292521026 0 0 0
1704 1 40.580830667947865 20.07569778010697 1.5867188292521015 0 0 0
1696 4 36.715989651952384 22.31177622599966 0.023575150536558117 0 0 0
1859 1 38.64841015995014 23.422748281545967 1.5867188292521 0 0 0
1702 4 40.58083066794739 22.311776225999665 0.023575150536565566 0 0 0
1707 4 42.51325117594496 18.96472572456066 0.02357515053656177 0 0 0
1713 4 46.37809219193996 18.964725724560665 0.02357515053656372 0 0 0
1710 1 44.44567168394286 20.075697780106967 1.5867188292521002 0 0 0
1865 1 42.513251175945115 23.42274828154597 1.5867188292521004 0 0 0
1708 4 44.445671683942386 22.311776225999665 0.023575150536560893 0 0 0
1871 1 46.37809219194013 23.42274828154597 1.5867188292521046 0 0 0
1563 4 50.24293320793496 18.96472572456066 0.023575150536559987 -1 0 0
1716 1 48.31051269993786 20.075697780106967 1.5867188292521004 0 0 0
1566 1 52.17535371593287 20.075697780106967 1.5867188292521022 -1 0 0
1714 4 48.31051269993739 22.31177622599966 0.023575150536560813 0 0 0
1564 4 52.17535371593239 22.311776225999665 0.023575150536561895 -1 0 0
1721 1 50.24293320793513 23.422748281545967 1.5867188292520955 -1 0 0
1569 4 54.107774223929965 18.964725724560665 0.023575150536559866 -1 0 0
1575 4 57.97261523992496 18.964725724560665 0.0235751505365634 -1 0 0
1572 1 56.040194731927876 20.075697780106967 1.586718829252101 -1 0 0
1727 1 54.10777422393012 23.42274828154597 1.586718829252103 -1 0 0
1570 4 56.04019473192739 22.31177622599966 0.02357515053655843 -1 0 0
1733 1 57.97261523992513 23.422748281545967 1.5867188292521013 -1 0 0
1581 4 61.83745625591997 18.96472572456066 0.023575150536559744 -1 0 0
1578 1 59.90503574792287 20.075697780106967 1.5867188292521002 -1 0 0
1584 1 63.76987676391787 20.075697780106967 1.5867188292521017 -1 0 0
1576 4 59.90503574792239 22.31177622599966 0.023575150536559498 -1 0 0
1739 1 61.83745625592014 23.422748281545967 1.5867188292520995 -1 0 0
1582 4 63.76987676391739 22.31177622599966 0.023575150536559696 -1 0 0
1587 4 65.70229727191496 18.964725724560665 0.023575150536559973 -1 0 0
1593 4 69.56713828790996 18.96472572456066 0.023575150536562478 -1 0 0
1590 1 67.63471777991286 20.07569778010697 1.5867188292521015 -1 0 0
1745 1 65.70229727191514 23.422748281545967 1.5867188292521 -1 0 0
1588 4 67.63471777991238 22.311776225999665 0.023575150536560768 -1 0 0
1751 1 69.56713828791014 23.422748281545974 1.5867188292521024 -1 0 0
1599 4 73.43197930390497 18.96472572456066 0.023575150536559553 -1 0 0
1596 1 71.49955879590787 20.07569778010697 1.586718829252101 -1 0 0
1602 1 75.36439981190289 20.075697780106967 1.5867188292521013 -1 0 0
1594 4 71.49955879590738 22.311776225999665 0.02357515053656193 -1 0 0
1757 1 73.43197930390515 23.42274828154597 1.5867188292521013 -1 0 0
1600 4 75.36439981190239 22.311776225999665 0.023575150536564803 -1 0 0
1605 4 77.29682031989996 18.964725724560665 0.023575150536566097 -1 0 0
1611 4 81.16166133589496 18.96472572456066 0.02357515053655815 -1 0 0
1608 1 79.22924082789787 20.075697780106967 1.5867188292521008 -1 0 0
1763 1 77.29682031990012 23.422748281545967 1.586718829252102 -1 0 0
1606 4 79.2292408278974 22.31177622599966 0.023575150536558606 -1 0 0
1769 1 81.16166133589515 23.422748281545967 1.5867188292520995 -1 0 0
1617 4 85.02650235188996 18.964725724560665 0.02357515053655903 -1 0 0
1614 1 83.09408184389288 20.075697780106967 1.586718829252102 -1 0 0
1620 1 86.95892285988786 20.07569778010697 1.5867188292521013 -1 0 0
1612 4 83.09408184389238 22.31177622599966 0.02357515053655724 -1 0 0
1775 1 85.02650235189014 23.422748281545974 1.5867188292520988 -1 0 0
1618 4 86.9589228598874 22.31177622599966 0.023575150536559147 -1 0 0
1623 4 88.89134336788496 18.96472572456066 0.023575150536562492 -1 0 0
1629 4 92.75618438387997 18.96472572456066 0.023575150536559543 -1 0 0
1626 1 90.82376387588288 20.07569778010697 1.586718829252101 -1 0 0
1781 1 88.89134336788514 23.422748281545974 1.5867188292521022 -1 0 0
1624 4 90.82376387588238 22.311776225999665 0.023575150536561958 -1 0 0
1787 1 92.75618438388015 23.42274828154597 1.5867188292521017 -1 0 0
1641 4 100.48586641586996 18.96472572456066 0.023575150536556542 -1 0 0
1635 4 96.62102539987497 18.964725724560665 0.02357515053656679 -1 0 0
1632 1 94.68860489187789 20.075697780106967 1.586718829252101 -1 0 0
1638 1 98.55344590787287 20.075697780106967 1.5867188292521008 -1 0 0
1630 4 94.68860489187739 22.311776225999665 0.02357515053656483 -1 0 0
1793 1 96.62102539987512 23.422748281545967 1.5867188292521015 -1 0 0
1636 4 98.5534459078724 22.31177622599966 0.023575150536557277 -1 0 0
1803 4 3.864841015994956 25.65882672743866 0.023575150536561527 0 0 0
1800 1 1.9324205079978718 26.76979878298497 1.5867188292520993 0 0 0
1806 1 5.797261523992867 26.76979878298497 1.5867188292521004 0 0 0
1798 4 1.9324205079973829 29.005877228877665 0.023575150536562714 0 0 0
1804 4 5.797261523992384 29.005877228877665 0.023575150536561347 0 0 0
1809 4 7.729682031989957 25.65882672743866 0.023575150536560074 0 0 0
1815 4 11.594523047984957 25.658826727438665 0.02357515053656139 0 0 0
1812 1 9.662102539987867 26.769798782984967 1.5867188292521004 0 0 0
1810 4 9.662102539987384 29.00587722887766 0.02357515053655924 0 0 0
1821 4 15.459364063979956 25.65882672743866 0.02357515053655912 0 0 0
1818 1 13.526943555982868 26.769798782984967 1.5867188292521022 0 0 0
1824 1 17.39178457197787 26.76979878298497 1.586718829252101 0 0 0
1816 4 13.526943555982383 29.00587722887766 0.02357515053656099 0 0 0
1822 4 17.391784571977382 29.005877228877665 0.023575150536562835 0 0 0
1827 4 19.324205079974956 25.65882672743866 0.02357515053656091 0 0 0
1833 4 23.189046095969953 25.658826727438665 0.02357515053656057 0 0 0
1830 1 21.25662558797287 26.76979878298497 1.5867188292521015 0 0 0
1828 4 21.256625587972383 29.005877228877665 0.023575150536562985 0 0 0
1839 4 27.053887111964954 25.658826727438665 0.023575150536561548 0 0 0
1836 1 25.121466603967868 26.769798782984967 1.5867188292520995 0 0 0
1842 1 28.98630761996287 26.769798782984967 1.5867188292520995 0 0 0
1834 4 25.121466603967384 29.00587722887766 0.023575150536560046 0 0 0
1840 4 28.986307619962382 29.00587722887766 0.023575150536559474 0 0 0
1845 4 30.918728127959955 25.658826727438665 0.023575150536562763 0 0 0
1851 4 34.783569143954956 25.65882672743866 0.023575150536560823 0 0 0
1848 1 32.85114863595787 26.769798782984967 1.5867188292521008 0 0 0
1846 4 32.85114863595739 29.005877228877665 0.023575150536561108 0 0 0
1857 4 38.64841015994996 25.658826727438665 0.023575150536560438 0 0 0
1854 1 36.71598965195287 26.769798782984967 1.5867188292521024 0 0 0
1860 1 40.580830667947865 26.76979878298497 1.5867188292521015 0 0 0
1852 4 36.715989651952384 29.00587722887766 0.02357515053655876 0 0 0
1858 4 40.58083066794739 29.005877228877665 0.02357515053656558 0 0 0
1863 4 42.51325117594496 25.65882672743866 0.023575150536561326 0 0 0
1869 4 46.37809219193996 25.658826727438665 0.023575150536563404 0 0 0
1866 1 44.44567168394286 26.769798782984967 1.5867188292521002 0 0 0
1864 4 44.445671683942386 29.005877228877665 0.023575150536560893 0 0 0
1719 4 50.24293320793496 25.658826727438665 0.02357515053655938 -1 0 0
1872 1 48.31051269993786 26.769798782984967 1.5867188292521002 0 0 0
1722 1 52.17535371593287 26.769798782984967 1.586718829252102 -1 0 0
1870 4 48.31051269993739 29.00587722887766 0.023575150536561108 0 0 0
1720 4 52.17535371593239 29.005877228877665 0.0235751505365627 -1 0 0
1725 4 54.107774223929965 25.65882672743866 0.023575150536560313 -1 0 0
1731 4 57.97261523992496 25.658826727438665 0.023575150536563453 -1 0 0
1728 1 56.040194731927876 26.769798782984967 1.586718829252101 -1 0 0
1726 4 56.04019473192739 29.00587722887766 0.02357515053655843 -1 0 0
1737 4 61.83745625591997 25.65882672743866 0.023575150536558898 -1 0 0
1734 1 59.90503574792287 26.769798782984967 1.5867188292521002 -1 0 0
1740 1 63.76987676391787 26.769798782984967 1.586718829252102 -1 0 0
1732 4 59.90503574792239 29.00587722887766 0.023575150536559706 -1 0 0
1738 4 63.76987676391739 29.00587722887766 0.02357515053655992 -1 0 0
1743 4 65.70229727191496 25.658826727438665 0.023575150536559217 -1 0 0
1749 4 69.56713828790996 25.65882672743866 0.023575150536562107 -1 0 0
1746 1 67.63471777991286 26.76979878298497 1.5867188292521015 -1 0 0
1744 4 67.63471777991238 29.005877228877665 0.023575150536560768 -1 0 0
1755 4 73.43197930390495 25.65882672743866 0.023575150536559987 -1 0 0
1752 1 71.49955879590787 26.76979878298497 1.586718829252101 -1 0 0
1758 1 75.36439981190289 26.769798782984967 1.586718829252101 -1 0 0
1750 4 71.49955879590738 29.005877228877665 0.02357515053656193 -1 0 0
1756 4 75.36439981190239 29.005877228877665 0.02357515053656482 -1 0 0
1761 4 77.29682031989996 25.658826727438665 0.02357515053656595 -1 0 0