LAMMPS data file via write_data, version 29 Aug 2024, timestep = 2, units = metal

7020 atoms
9 atom types

0 100.48586641587 xlo xhi
0 100.41151504317 ylo yhi
-50 50 zlo zhi

Masses

1 118.71
2 118.71
3 118.71
4 78.971
5 78.971
6 78.971
7 78.971
8 78.971
9 78.971

Atoms # atomic

1174 5 1.932420507997716 2.2313589785774295 0.024286739794721228 0 0 0
1331 1 2.521982137254666e-14 3.3460045330319814 1.5912327659147818 0 0 0
1337 1 3.864841015995027 3.346004533031982 1.5912327659147827 0 0 0
1180 5 5.797261523992714 2.231358978577429 0.024286739794721124 0 0 0
1329 5 1.6294415014559276e-13 5.57840948001643 0.024286739794722324 0 0 0
1335 5 3.8648410159951623 5.57840948001643 0.024286739794721658 0 0 0
1343 1 7.729682031990027 3.346004533031981 1.5912327659147814 0 0 0
1186 5 9.662102539987716 2.2313589785774295 0.024286739794721717 0 0 0
1349 1 11.594523047985028 3.3460045330319814 1.591232765914782 0 0 0
1341 5 7.729682031990161 5.57840948001643 0.024286739794722127 0 0 0
1347 5 11.594523047985165 5.578409480016429 0.024286739794721554 0 0 0
1192 5 13.526943555982715 2.231358978577429 0.024286739794720874 0 0 0
1355 1 15.459364063980027 3.346004533031981 1.5912327659147814 0 0 0
1198 5 17.391784571977716 2.2313589785774295 0.02428673979472137 0 0 0
1353 5 15.459364063980164 5.57840948001643 0.024286739794721922 0 0 0
1361 1 19.324205079975027 3.346004533031982 1.5912327659147836 0 0 0
1204 5 21.256625587972714 2.2313589785774295 0.024286739794721696 0 0 0
1367 1 23.189046095970028 3.3460045330319814 1.591232765914782 0 0 0
1359 5 19.32420507997516 5.57840948001643 0.024286739794721898 0 0 0
1365 5 23.18904609597016 5.57840948001643 0.02428673979472153 0 0 0
1210 5 25.12146660396771 2.231358978577429 0.024286739794721103 0 0 0
1373 1 27.053887111965025 3.346004533031981 1.591232765914782 0 0 0
1216 5 28.986307619962712 2.2313589785774304 0.024286739794722362 0 0 0
1371 5 27.05388711196516 5.578409480016429 0.024286739794721696 0 0 0
1379 1 30.918728127960026 3.346004533031981 1.5912327659147816 0 0 0
1222 5 32.85114863595771 2.2313589785774286 0.02428673979472072 0 0 0
1385 1 34.78356914395503 3.346004533031981 1.591232765914781 0 0 0
1377 5 30.918728127960165 5.578409480016429 0.02428673979472157 0 0 0
1383 5 34.78356914395516 5.578409480016431 0.024286739794722595 0 0 0
1228 5 36.71598965195272 2.231358978577429 0.02428673979472123 0 0 0
1391 1 38.64841015995003 3.3460045330319814 1.591232765914782 0 0 0
1234 5 40.580830667947716 2.2313589785774295 0.024286739794721433 0 0 0
1389 5 38.64841015995016 5.57840948001643 0.02428673979472152 0 0 0
1397 1 42.51325117594503 3.346004533031982 1.5912327659147836 0 0 0
1240 5 44.44567168394271 2.2313589785774295 0.024286739794721957 0 0 0
1403 1 46.37809219194003 3.346004533031981 1.591232765914782 0 0 0
1395 5 42.51325117594516 5.57840948001643 0.02428673979472167 0 0 0
1401 5 46.378092191940155 5.578409480016429 0.024286739794721658 0 0 0
1246 5 48.31051269993772 2.23135897857743 0.02428673979472211 0 0 0
1096 5 52.17535371593272 2.231358978577429 0.024286739794721315 -1 0 0
1253 1 50.24293320793503 3.346004533031981 1.5912327659147811 -1 0 0
1251 5 50.24293320793517 5.578409480016431 0.024286739794722935 -1 0 0
1259 1 54.107774223930036 3.3460045330319814 1.591232765914782 -1 0 0
1102 5 56.04019473192772 2.2313589785774295 0.024286739794721752 -1 0 0
1265 1 57.972615239925034 3.3460045330319814 1.5912327659147827 -1 0 0
1257 5 54.107774223930164 5.57840948001643 0.024286739794721353 -1 0 0
1263 5 57.97261523992517 5.578409480016429 0.02428673979472183 -1 0 0
1108 5 59.905035747922724 2.2313589785774295 0.024286739794721412 -1 0 0
1271 1 61.83745625592004 3.346004533031981 1.5912327659147818 -1 0 0
1114 5 63.76987676391772 2.231358978577429 0.02428673979472083 -1 0 0
1269 5 61.837456255920166 5.57840948001643 0.024286739794722123 -1 0 0
1277 1 65.70229727191503 3.346004533031981 1.591232765914781 -1 0 0
1120 5 67.63471777991272 2.231358978577429 0.024286739794721273 -1 0 0
1283 1 69.56713828791003 3.3460045330319823 1.591232765914784 -1 0 0
1275 5 65.70229727191517 5.578409480016429 0.024286739794720895 -1 0 0
1281 5 69.56713828791017 5.57840948001643 0.02428673979472166 -1 0 0
1126 5 71.49955879590772 2.2313589785774295 0.02428673979472147 -1 0 0
1289 1 73.43197930390502 3.346004533031981 1.591232765914782 -1 0 0
1132 5 75.36439981190271 2.2313589785774304 0.024286739794722376 -1 0 0
1287 5 73.43197930390517 5.578409480016429 0.024286739794722192 -1 0 0
1295 1 77.29682031990004 3.346004533031981 1.591232765914782 -1 0 0
1138 5 79.22924082789771 2.231358978577429 0.024286739794721797 -1 0 0
1301 1 81.16166133589503 3.3460045330319814 1.591232765914782 -1 0 0
1293 5 77.29682031990018 5.578409480016429 0.024286739794721117 -1 0 0
1299 5 81.16166133589518 5.578409480016431 0.024286739794722813 -1 0 0
1144 5 83.09408184389272 2.2313589785774286 0.024286739794720708 -1 0 0
1307 1 85.02650235189003 3.3460045330319805 1.59123276591478 -1 0 0
1150 5 86.95892285988772 2.231358978577429 0.02428673979472113 -1 0 0
1305 5 85.02650235189017 5.57840948001643 0.024286739794721283 -1 0 0
1313 1 88.89134336788503 3.3460045330319823 1.591232765914784 -1 0 0
1156 5 90.82376387588272 2.2313589785774295 0.024286739794721478 -1 0 0
1319 1 92.75618438388003 3.346004533031981 1.591232765914782 -1 0 0
1311 5 88.89134336788517 5.57840948001643 0.024286739794721658 -1 0 0
1317 5 92.75618438388017 5.578409480016429 0.024286739794722192 -1 0 0
1162 5 94.68860489187772 2.2313589785774304 0.024286739794722383 -1 0 0
1325 1 96.62102539987504 3.346004533031981 1.591232765914782 -1 0 0
1168 5 98.55344590787271 2.231358978577429 0.02428673979472128 -1 0 0
1323 5 96.62102539987518 5.578409480016429 0.02428673979472113 -1 0 0
1332 1 1.932420507997565 6.693055034470981 1.591232765914782 0 0 0
1338 1 5.797261523992564 6.693055034470981 1.591232765914782 0 0 0
1330 5 1.9324205079977157 8.925459981455429 0.024286739794721533 0 0 0
1336 5 5.797261523992714 8.925459981455429 0.02428673979472153 0 0 0
1487 1 2.5320324802814998e-14 10.040105535909982 1.5912327659147818 0 0 0
1493 1 3.864841015995027 10.040105535909982 1.591232765914783 0 0 0
1344 1 9.662102539987565 6.693055034470981 1.591232765914782 0 0 0
1342 5 9.662102539987716 8.92545998145543 0.024286739794722075 0 0 0
1499 1 7.729682031990027 10.040105535909982 1.5912327659147816 0 0 0
1505 1 11.594523047985028 10.040105535909982 1.5912327659147822 0 0 0
1350 1 13.526943555982566 6.693055034470981 1.591232765914782 0 0 0
1356 1 17.391784571977563 6.693055034470981 1.5912327659147822 0 0 0
1348 5 13.526943555982715 8.925459981455429 0.024286739794721277 0 0 0
1354 5 17.391784571977716 8.925459981455429 0.024286739794721866 0 0 0
1511 1 15.459364063980027 10.040105535909982 1.5912327659147814 0 0 0
1362 1 21.256625587972565 6.693055034470981 1.5912327659147822 0 0 0
1360 5 21.256625587972714 8.925459981455429 0.024286739794722075 0 0 0
1517 1 19.324205079975027 10.040105535909982 1.5912327659147836 0 0 0
1523 1 23.189046095970028 10.040105535909982 1.5912327659147822 0 0 0
1368 1 25.121466603967562 6.693055034470981 1.5912327659147822 0 0 0
1374 1 28.986307619962563 6.693055034470981 1.5912327659147822 0 0 0
1366 5 25.12146660396771 8.925459981455429 0.02428673979472141 0 0 0
1372 5 28.986307619962712 8.92545998145543 0.02428673979472272 0 0 0
1529 1 27.053887111965025 10.040105535909982 1.5912327659147822 0 0 0
1380 1 32.851148635957564 6.693055034470981 1.5912327659147822 0 0 0
1378 5 32.85114863595771 8.925459981455429 0.024286739794720985 0 0 0
1535 1 30.918728127960026 10.040105535909982 1.5912327659147818 0 0 0
1541 1 34.78356914395503 10.04010553590998 1.5912327659147811 0 0 0
1386 1 36.71598965195257 6.693055034470981 1.5912327659147822 0 0 0
1392 1 40.580830667947566 6.693055034470981 1.5912327659147822 0 0 0
1384 5 36.71598965195272 8.925459981455429 0.024286739794721433 0 0 0
1390 5 40.580830667947716 8.925459981455429 0.024286739794721755 0 0 0
1547 1 38.64841015995003 10.040105535909982 1.5912327659147822 0 0 0
1398 1 44.445671683942564 6.693055034470981 1.5912327659147822 0 0 0
1396 5 44.44567168394271 8.925459981455429 0.0242867397947223 0 0 0
1553 1 42.51325117594503 10.040105535909982 1.5912327659147836 0 0 0
1559 1 46.37809219194003 10.040105535909982 1.5912327659147822 0 0 0
1404 1 48.31051269993757 6.693055034470981 1.591232765914782 0 0 0
1254 1 52.17535371593257 6.693055034470981 1.5912327659147822 -1 0 0
1402 5 48.31051269993772 8.92545998145543 0.024286739794722418 0 0 0
1252 5 52.17535371593272 8.925459981455429 0.024286739794721523 -1 0 0
1409 1 50.24293320793503 10.040105535909982 1.5912327659147811 -1 0 0
1260 1 56.04019473192757 6.693055034470981 1.591232765914782 -1 0 0
1258 5 56.04019473192772 8.92545998145543 0.024286739794722158 -1 0 0
1415 1 54.107774223930036 10.040105535909982 1.5912327659147822 -1 0 0
1421 1 57.972615239925034 10.040105535909982 1.5912327659147827 -1 0 0
1266 1 59.905035747922575 6.693055034470981 1.591232765914782 -1 0 0
1272 1 63.76987676391757 6.693055034470981 1.591232765914782 -1 0 0
1264 5 59.905035747922724 8.925459981455429 0.024286739794721776 -1 0 0
1270 5 63.76987676391772 8.925459981455429 0.02428673979472126 -1 0 0
1427 1 61.83745625592004 10.040105535909982 1.5912327659147816 -1 0 0
1278 1 67.63471777991256 6.693055034470981 1.5912327659147822 -1 0 0
1276 5 67.63471777991272 8.925459981455429 0.024286739794721634 -1 0 0
1433 1 65.70229727191503 10.040105535909982 1.5912327659147811 -1 0 0
1439 1 69.56713828791003 10.040105535909982 1.591232765914784 -1 0 0
1284 1 71.49955879590756 6.693055034470981 1.5912327659147822 -1 0 0
1290 1 75.36439981190257 6.693055034470981 1.5912327659147822 -1 0 0
1282 5 71.49955879590772 8.925459981455429 0.024286739794721814 -1 0 0
1288 5 75.36439981190271 8.92545998145543 0.02428673979472279 -1 0 0
1445 1 73.43197930390502 10.040105535909982 1.5912327659147822 -1 0 0
1296 1 79.22924082789757 6.693055034470981 1.591232765914782 -1 0 0
1294 5 79.22924082789771 8.925459981455429 0.024286739794722047 -1 0 0
1451 1 77.29682031990004 10.040105535909982 1.591232765914782 -1 0 0
1457 1 81.16166133589503 10.040105535909982 1.5912327659147822 -1 0 0
1302 1 83.09408184389257 6.693055034470981 1.591232765914782 -1 0 0
1308 1 86.95892285988756 6.693055034470981 1.5912327659147822 -1 0 0
1300 5 83.09408184389272 8.925459981455429 0.02428673979472085 -1 0 0
1306 5 86.95892285988772 8.925459981455429 0.024286739794721443 -1 0 0
1463 1 85.02650235189003 10.04010553590998 1.5912327659147802 -1 0 0
1314 1 90.82376387588256 6.693055034470981 1.5912327659147822 -1 0 0
1312 5 90.82376387588272 8.925459981455429 0.024286739794721818 -1 0 0
1469 1 88.89134336788503 10.040105535909982 1.591232765914784 -1 0 0
1475 1 92.75618438388003 10.040105535909982 1.5912327659147822 -1 0 0
1320 1 94.68860489187757 6.693055034470981 1.5912327659147822 -1 0 0
1326 1 98.55344590787257 6.693055034470981 1.5912327659147825 -1 0 0
1318 5 94.68860489187772 8.92545998145543 0.024286739794722796 -1 0 0
1324 5 98.55344590787271 8.925459981455429 0.02428673979472153 -1 0 0
1481 1 96.62102539987504 10.040105535909982 1.591232765914782 -1 0 0
1485 5 1.6293976576776224e-13 12.27251048289443 0.024286739794722095 0 0 0
1488 1 1.932420507997565 13.387156037348982 1.5912327659147814 0 0 0
1491 5 3.8648410159951623 12.272510482894429 0.02428673979472139 0 0 0
1494 1 5.797261523992564 13.387156037348984 1.5912327659147816 0 0 0
1486 5 1.932420507997716 15.619560984333432 0.024286739794721172 0 0 0
1492 5 5.797261523992714 15.619560984333432 0.024286739794721266 0 0 0
1643 1 2.5245317457790994e-14 16.734206538787983 1.5912327659147818 0 0 0
1649 1 3.864841015995027 16.734206538787983 1.5912327659147827 0 0 0
1497 5 7.729682031990161 12.27251048289443 0.02428673979472179 0 0 0
1500 1 9.662102539987565 13.387156037348982 1.5912327659147814 0 0 0
1503 5 11.594523047985165 12.272510482894429 0.024286739794721283 0 0 0
1498 5 9.662102539987716 15.619560984333432 0.02428673979472165 0 0 0
1655 1 7.729682031990027 16.734206538787983 1.5912327659147814 0 0 0
1661 1 11.594523047985028 16.734206538787983 1.591232765914782 0 0 0
1506 1 13.526943555982566 13.387156037348982 1.5912327659147814 0 0 0
1509 5 15.459364063980164 12.27251048289443 0.024286739794721603 0 0 0
1512 1 17.391784571977563 13.387156037348984 1.5912327659147814 0 0 0
1504 5 13.526943555982715 15.619560984333432 0.024286739794721 0 0 0
1510 5 17.391784571977716 15.619560984333432 0.024286739794721436 0 0 0
1667 1 15.459364063980027 16.734206538787983 1.5912327659147811 0 0 0
1515 5 19.32420507997516 12.272510482894429 0.024286739794721575 0 0 0
1518 1 21.256625587972565 13.387156037348984 1.5912327659147814 0 0 0
1521 5 23.18904609597016 12.272510482894429 0.024286739794721256 0 0 0
1516 5 21.256625587972714 15.619560984333432 0.02428673979472176 0 0 0
1673 1 19.324205079975027 16.734206538787983 1.5912327659147836 0 0 0
1679 1 23.189046095970028 16.734206538787983 1.591232765914782 0 0 0
1524 1 25.121466603967562 13.387156037348984 1.5912327659147814 0 0 0
1527 5 27.05388711196516 12.272510482894429 0.024286739794721467 0 0 0
1530 1 28.986307619962563 13.387156037348982 1.5912327659147814 0 0 0
1522 5 25.12146660396771 15.619560984333432 0.024286739794721235 0 0 0
1528 5 28.986307619962712 15.619560984333434 0.02428673979472257 0 0 0
1685 1 27.053887111965025 16.734206538787983 1.591232765914782 0 0 0
1533 5 30.918728127960165 12.272510482894429 0.02428673979472129 0 0 0
1536 1 32.851148635957564 13.387156037348982 1.5912327659147814 0 0 0
1539 5 34.78356914395516 12.27251048289443 0.024286739794722435 0 0 0
1534 5 32.85114863595771 15.619560984333432 0.02428673979472088 0 0 0
1691 1 30.918728127960026 16.734206538787983 1.5912327659147816 0 0 0
1697 1 34.78356914395503 16.734206538787983 1.5912327659147811 0 0 0
1542 1 36.71598965195257 13.387156037348982 1.5912327659147814 0 0 0
1545 5 38.64841015995016 12.272510482894429 0.024286739794721183 0 0 0
1548 1 40.580830667947566 13.387156037348984 1.5912327659147814 0 0 0
1540 5 36.71598965195272 15.619560984333432 0.024286739794721082 0 0 0
1546 5 40.580830667947716 15.619560984333432 0.024286739794721547 0 0 0
1703 1 38.64841015995003 16.734206538787983 1.591232765914782 0 0 0
1551 5 42.51325117594516 12.272510482894429 0.024286739794721336 0 0 0
1554 1 44.445671683942564 13.387156037348984 1.5912327659147814 0 0 0
1557 5 46.378092191940155 12.272510482894429 0.024286739794721374 0 0 0
1552 5 44.44567168394271 15.619560984333432 0.02428673979472199 0 0 0
1709 1 42.51325117594503 16.734206538787983 1.5912327659147834 0 0 0
1715 1 46.37809219194003 16.734206538787983 1.591232765914782 0 0 0
1560 1 48.31051269993757 13.387156037348982 1.5912327659147814 0 0 0
1407 5 50.24293320793517 12.27251048289443 0.024286739794722578 -1 0 0
1410 1 52.17535371593257 13.387156037348982 1.5912327659147814 -1 0 0
1558 5 48.31051269993772 15.619560984333434 0.02428673979472207 0 0 0
1408 5 52.17535371593272 15.619560984333432 0.024286739794721204 -1 0 0
1565 1 50.24293320793503 16.734206538787983 1.5912327659147811 -1 0 0
1413 5 54.107774223930164 12.272510482894429 0.024286739794721016 -1 0 0
1416 1 56.04019473192757 13.387156037348982 1.5912327659147814 -1 0 0
1419 5 57.97261523992517 12.272510482894429 0.024286739794721568 -1 0 0
1414 5 56.04019473192772 15.619560984333432 0.024286739794721908 -1 0 0
1571 1 54.107774223930036 16.734206538787983 1.591232765914782 -1 0 0
1577 1 57.972615239925034 16.734206538787983 1.5912327659147825 -1 0 0
1422 1 59.905035747922575 13.387156037348984 1.5912327659147814 -1 0 0
1425 5 61.837456255920166 12.27251048289443 0.024286739794721873 -1 0 0
1428 1 63.76987676391757 13.387156037348984 1.5912327659147814 -1 0 0
1420 5 59.905035747922724 15.619560984333432 0.02428673979472164 -1 0 0
1426 5 63.76987676391772 15.619560984333432 0.024286739794720853 -1 0 0
1583 1 61.83745625592004 16.734206538787983 1.5912327659147816 -1 0 0
1431 5 65.70229727191517 12.272510482894429 0.024286739794720617 -1 0 0
1434 1 67.63471777991256 13.387156037348984 1.5912327659147814 -1 0 0
1437 5 69.56713828791017 12.272510482894429 0.02428673979472134 -1 0 0
1432 5 67.63471777991272 15.619560984333432 0.02428673979472125 -1 0 0
1589 1 65.70229727191503 16.734206538787983 1.591232765914781 -1 0 0
1595 1 69.56713828791003 16.734206538787987 1.591232765914784 -1 0 0
1440 1 71.49955879590756 13.387156037348984 1.5912327659147814 -1 0 0
1443 5 73.43197930390517 12.272510482894429 0.024286739794721915 -1 0 0
1446 1 75.36439981190257 13.387156037348982 1.5912327659147814 -1 0 0
1438 5 71.49955879590772 15.619560984333432 0.024286739794721516 -1 0 0
1444 5 75.36439981190271 15.619560984333434 0.024286739794722637 -1 0 0
1601 1 73.43197930390502 16.734206538787983 1.591232765914782 -1 0 0
1449 5 77.29682031990018 12.272510482894429 0.024286739794720836 -1 0 0
1452 1 79.22924082789757 13.387156037348982 1.5912327659147814 -1 0 0
1455 5 81.16166133589518 12.27251048289443 0.0242867397947225 -1 0 0
1450 5 79.22924082789771 15.619560984333432 0.02428673979472204 -1 0 0
1607 1 77.29682031990004 16.734206538787983 1.591232765914782 -1 0 0
1613 1 81.16166133589503 16.734206538787983 1.5912327659147822 -1 0 0
1458 1 83.09408184389257 13.387156037348982 1.5912327659147814 -1 0 0
1461 5 85.02650235189017 12.272510482894429 0.02428673979472104 -1 0 0
1464 1 86.95892285988756 13.387156037348984 1.5912327659147814 -1 0 0
1456 5 83.09408184389272 15.619560984333432 0.024286739794720548 -1 0 0
1462 5 86.95892285988772 15.619560984333432 0.02428673979472114 -1 0 0
1619 1 85.02650235189003 16.734206538787983 1.59123276591478 -1 0 0
1467 5 88.89134336788517 12.272510482894429 0.024286739794721332 -1 0 0
1470 1 90.82376387588256 13.387156037348984 1.5912327659147814 -1 0 0
1473 5 92.75618438388017 12.272510482894429 0.024286739794721915 -1 0 0
1468 5 90.82376387588272 15.619560984333432 0.024286739794721523 -1 0 0
1625 1 88.89134336788503 16.734206538787987 1.591232765914784 -1 0 0
1631 1 92.75618438388003 16.734206538787983 1.591232765914782 -1 0 0
1476 1 94.68860489187757 13.387156037348982 1.5912327659147814 -1 0 0
1479 5 96.62102539987518 12.272510482894429 0.024286739794720846 -1 0 0
1482 1 98.55344590787257 13.387156037348984 1.5912327659147816 -1 0 0
1474 5 94.68860489187772 15.619560984333434 0.024286739794722643 -1 0 0
1480 5 98.55344590787271 15.619560984333432 0.024286739794721297 -1 0 0
1637 1 96.62102539987504 16.734206538787983 1.591232765914782 -1 0 0
1641 5 1.6275292121800747e-13 18.966611485772432 0.024286739794722588 0 0 0
1647 5 3.8648410159951623 18.966611485772432 0.024286739794721613 0 0 0
1644 1 1.932420507997565 20.081257040226983 1.5912327659147822 0 0 0
1650 1 5.797261523992564 20.081257040226983 1.5912327659147822 0 0 0
1642 5 1.9324205079977157 22.313661987211432 0.02428673979472135 0 0 0
1799 1 2.5292533834427124e-14 23.428307541665983 1.591232765914782 0 0 0
1805 1 3.864841015995027 23.428307541665987 1.591232765914783 0 0 0
1648 5 5.797261523992714 22.313661987211432 0.024286739794721388 0 0 0
1653 5 7.729682031990161 18.966611485772432 0.02428673979472229 0 0 0
1659 5 11.594523047985165 18.966611485772436 0.024286739794721547 0 0 0
1656 1 9.662102539987565 20.081257040226983 1.591232765914782 0 0 0
1811 1 7.729682031990027 23.428307541665983 1.5912327659147816 0 0 0
1654 5 9.662102539987716 22.313661987211432 0.024286739794721828 0 0 0
1817 1 11.594523047985028 23.428307541665983 1.5912327659147822 0 0 0
1665 5 15.459364063980164 18.966611485772432 0.024286739794722078 0 0 0
1662 1 13.526943555982566 20.081257040226983 1.5912327659147822 0 0 0
1668 1 17.391784571977563 20.081257040226983 1.591232765914782 0 0 0
1660 5 13.526943555982715 22.313661987211432 0.024286739794721113 0 0 0
1823 1 15.459364063980027 23.428307541665983 1.5912327659147814 0 0 0
1666 5 17.391784571977716 22.313661987211432 0.024286739794721495 0 0 0
1671 5 19.32420507997516 18.966611485772432 0.024286739794721877 0 0 0
1677 5 23.18904609597016 18.966611485772432 0.024286739794721374 0 0 0
1674 1 21.256625587972565 20.081257040226987 1.5912327659147822 0 0 0
1829 1 19.324205079975027 23.428307541665987 1.5912327659147838 0 0 0
1672 5 21.256625587972714 22.313661987211436 0.024286739794721936 0 0 0
1835 1 23.189046095970028 23.428307541665983 1.5912327659147822 0 0 0
1683 5 27.05388711196516 18.966611485772436 0.024286739794721596 0 0 0
1680 1 25.121466603967562 20.081257040226983 1.5912327659147822 0 0 0
1686 1 28.986307619962563 20.081257040226983 1.5912327659147822 0 0 0
1678 5 25.12146660396771 22.313661987211432 0.024286739794721377 0 0 0
1841 1 27.053887111965025 23.428307541665983 1.5912327659147822 0 0 0
1684 5 28.986307619962712 22.313661987211432 0.02428673979472274 0 0 0
1689 5 30.918728127960165 18.966611485772436 0.02428673979472163 0 0 0
1695 5 34.78356914395516 18.966611485772432 0.024286739794722755 0 0 0
1692 1 32.851148635957564 20.081257040226983 1.5912327659147822 0 0 0
1847 1 30.918728127960026 23.428307541665983 1.5912327659147818 0 0 0
1690 5 32.85114863595771 22.313661987211432 0.02428673979472097 0 0 0
1853 1 34.78356914395503 23.428307541665983 1.5912327659147814 0 0 0
1701 5 38.64841015995016 18.966611485772432 0.024286739794721353 0 0 0
1698 1 36.71598965195257 20.081257040226983 1.5912327659147822 0 0 0
1704 1 40.580830667947566 20.081257040226983 1.5912327659147822 0 0 0
1696 5 36.71598965195272 22.313661987211432 0.024286739794721176 0 0 0
1859 1 38.64841015995003 23.428307541665983 1.5912327659147822 0 0 0
1702 5 40.580830667947716 22.313661987211432 0.024286739794721658 0 0 0
1707 5 42.51325117594516 18.966611485772432 0.024286739794721634 0 0 0
1713 5 46.378092191940155 18.966611485772436 0.02428673979472152 0 0 0
1710 1 44.445671683942564 20.081257040226983 1.591232765914782 0 0 0
1865 1 42.51325117594503 23.428307541665987 1.5912327659147836 0 0 0
1708 5 44.44567168394271 22.313661987211436 0.024286739794722144 0 0 0
1871 1 46.37809219194003 23.428307541665983 1.5912327659147822 0 0 0
1563 5 50.24293320793517 18.966611485772432 0.024286739794723188 -1 0 0
1716 1 48.31051269993757 20.081257040226983 1.591232765914782 0 0 0
1566 1 52.17535371593257 20.081257040226983 1.591232765914782 -1 0 0
1714 5 48.31051269993772 22.313661987211432 0.024286739794722248 0 0 0
1564 5 52.17535371593272 22.313661987211432 0.024286739794721346 -1 0 0
1721 1 50.24293320793503 23.428307541665983 1.5912327659147811 -1 0 0
1569 5 54.107774223930164 18.966611485772432 0.02428673979472128 -1 0 0
1575 5 57.97261523992517 18.966611485772436 0.024286739794721787 -1 0 0
1572 1 56.04019473192757 20.081257040226987 1.591232765914782 -1 0 0
1727 1 54.107774223930036 23.428307541665983 1.5912327659147822 -1 0 0
1570 5 56.04019473192772 22.313661987211432 0.024286739794722102 -1 0 0
1733 1 57.972615239925034 23.428307541665987 1.5912327659147827 -1 0 0
1581 5 61.837456255920166 18.966611485772432 0.024286739794722078 -1 0 0
1578 1 59.905035747922575 20.081257040226983 1.5912327659147822 -1 0 0
1584 1 63.76987676391757 20.081257040226983 1.591232765914782 -1 0 0
1576 5 59.905035747922724 22.313661987211436 0.024286739794721755 -1 0 0
1739 1 61.83745625592004 23.428307541665983 1.5912327659147816 -1 0 0
1582 5 63.76987676391772 22.313661987211432 0.024286739794721006 -1 0 0
1587 5 65.70229727191517 18.966611485772432 0.024286739794720985 -1 0 0
1593 5 69.56713828791017 18.966611485772432 0.02428673979472163 -1 0 0
1590 1 67.63471777991256 20.081257040226983 1.5912327659147822 -1 0 0
1745 1 65.70229727191503 23.428307541665983 1.5912327659147811 -1 0 0
1588 5 67.63471777991272 22.313661987211432 0.024286739794721415 -1 0 0
1751 1 69.56713828791003 23.428307541665987 1.5912327659147842 -1 0 0
1599 5 73.43197930390517 18.966611485772436 0.024286739794722043 -1 0 0
1596 1 71.49955879590756 20.081257040226983 1.591232765914782 -1 0 0
1602 1 75.36439981190257 20.081257040226983 1.5912327659147822 -1 0 0
1594 5 71.49955879590772 22.313661987211432 0.024286739794721655 -1 0 0
1757 1 73.43197930390502 23.428307541665983 1.5912327659147822 -1 0 0
1600 5 75.36439981190271 22.313661987211436 0.02428673979472276 -1 0 0
1605 5 77.29682031990018 18.966611485772432 0.024286739794721134 -1 0 0
1611 5 81.16166133589518 18.966611485772436 0.024286739794722737 -1 0 0
1608 1 79.22924082789757 20.081257040226983 1.5912327659147822 -1 0 0
1763 1 77.29682031990004 23.428307541665983 1.5912327659147822 -1 0 0
1606 5 79.22924082789771 22.313661987211436 0.024286739794722123 -1 0 0
1769 1 81.16166133589503 23.428307541665983 1.5912327659147822 -1 0 0
1617 5 85.02650235189017 18.966611485772432 0.024286739794721388 -1 0 0
1614 1 83.09408184389257 20.081257040226983 1.591232765914782 -1 0 0
1620 1 86.95892285988756 20.081257040226983 1.591232765914782 -1 0 0
1612 5 83.09408184389272 22.313661987211432 0.02428673979472065 -1 0 0
1775 1 85.02650235189003 23.428307541665983 1.5912327659147802 -1 0 0
1618 5 86.95892285988772 22.313661987211432 0.02428673979472127 -1 0 0
1623 5 88.89134336788517 18.966611485772432 0.024286739794721627 -1 0 0
1629 5 92.75618438388017 18.966611485772436 0.024286739794722043 -1 0 0
1626 1 90.82376387588256 20.081257040226983 1.591232765914782 -1 0 0
1781 1 88.89134336788503 23.428307541665987 1.5912327659147842 -1 0 0
1624 5 90.82376387588272 22.313661987211432 0.024286739794721658 -1 0 0
1787 1 92.75618438388003 23.428307541665983 1.5912327659147822 -1 0 0
1635 5 96.62102539987518 18.966611485772432 0.024286739794721138 -1 0 0
1632 1 94.68860489187757 20.081257040226983 1.5912327659147822 -1 0 0
1638 1 98.55344590787257 20.081257040226983 1.5912327659147822 -1 0 0
1630 5 94.68860489187772 22.313661987211436 0.024286739794722765 -1 0 0
1793 1 96.62102539987504 23.428307541665983 1.5912327659147822 -1 0 0
1636 5 98.55344590787271 22.313661987211432 0.02428673979472141 -1 0 0
1797 5 1.6275494477700616e-13 25.660712488650432 0.024286739794722616 0 0 0
1803 5 3.8648410159951623 25.660712488650432 0.02428673979472164 0 0 0
1800 1 1.932420507997565 26.775358043104983 1.5912327659147822 0 0 0
1806 1 5.797261523992564 26.775358043104983 1.5912327659147822 0 0 0
1798 5 1.9324205079977157 29.007762990089432 0.02428673979472135 0 0 0
1804 5 5.797261523992714 29.007762990089432 0.024286739794721388 0 0 0
1809 5 7.729682031990161 25.660712488650432 0.024286739794722317 0 0 0
1815 5 11.594523047985165 25.660712488650436 0.02428673979472157 0 0 0
1812 1 9.662102539987565 26.775358043104983 1.591232765914782 0 0 0
1810 5 9.662102539987716 29.007762990089432 0.024286739794721828 0 0 0
1821 5 15.459364063980164 25.660712488650432 0.024286739794722106 0 0 0
1818 1 13.526943555982566 26.775358043104983 1.5912327659147822 0 0 0
1824 1 17.391784571977563 26.775358043104983 1.591232765914782 0 0 0
1816 5 13.526943555982715 29.007762990089432 0.02428673979472111 0 0 0
1822 5 17.391784571977716 29.007762990089432 0.0242867397947215 0 0 0
1827 5 19.32420507997516 25.660712488650432 0.024286739794721905 0 0 0
1833 5 23.18904609597016 25.660712488650432 0.024286739794721398 0 0 0
1830 1 21.256625587972565 26.775358043104987 1.5912327659147822 0 0 0
1828 5 21.256625587972714 29.007762990089436 0.024286739794721936 0 0 0
1839 5 27.05388711196516 25.660712488650436 0.02428673979472161 0 0 0
1836 1 25.121466603967562 26.775358043104983 1.5912327659147822 0 0 0
1842 1 28.986307619962563 26.775358043104983 1.5912327659147822 0 0 0
1834 5 25.12146660396771 29.007762990089432 0.024286739794721377 0 0 0
1840 5 28.986307619962712 29.007762990089432 0.02428673979472274 0 0 0
1845 5 30.918728127960165 25.660712488650436 0.02428673979472164 0 0 0
1851 5 34.78356914395516 25.660712488650432 0.02428673979472278 0 0 0
1848 1 32.851148635957564 26.775358043104983 1.5912327659147822 0 0 0
1846 5 32.85114863595771 29.007762990089432 0.02428673979472097 0 0 0
1857 5 38.64841015995016 25.660712488650432 0.024286739794721377 0 0 0
1854 1 36.71598965195257 26.775358043104983 1.5912327659147822 0 0 0
1860 1 40.580830667947566 26.775358043104983 1.5912327659147822 0 0 0
1852 5 36.71598965195272 29.007762990089432 0.024286739794721176 0 0 0
1858 5 40.580830667947716 29.007762990089432 0.024286739794721658 0 0 0
1863 5 42.51325117594516 25.660712488650432 0.024286739794721658 0 0 0
1869 5 46.378092191940155 25.660712488650436 0.02428673979472153 0 0 0
1866 1 44.445671683942564 26.775358043104983 1.591232765914782 0 0 0
1864 5 44.44567168394271 29.007762990089436 0.024286739794722144 0 0 0
1719 5 50.24293320793517 25.660712488650432 0.0242867397947232 -1 0 0
1872 1 48.31051269993757 26.775358043104983 1.591232765914782 0 0 0
1722 1 52.17535371593257 26.775358043104983 1.591232765914782 -1 0 0
1870 5 48.31051269993772 29.007762990089432 0.024286739794722248 0 0 0
1720 5 52.17535371593272 29.007762990089432 0.024286739794721346 -1 0 0
1725 5 54.107774223930164 25.660712488650432 0.024286739794721304 -1 0 0
1731 5 57.97261523992517 25.660712488650436 0.02428673979472181 -1 0 0
1728 1 56.04019473192757 26.775358043104987 1.591232765914782 -1 0 0
1726 5 56.04019473192772 29.007762990089432 0.024286739794722102 -1 0 0
1737 5 61.837456255920166 25.660712488650432 0.024286739794722106 -1 0 0
1734 1 59.905035747922575 26.775358043104983 1.5912327659147822 -1 0 0
1740 1 63.76987676391757 26.775358043104983 1.591232765914782 -1 0 0
1732 5 59.905035747922724 29.007762990089436 0.024286739794721755 -1 0 0
1738 5 63.76987676391772 29.007762990089432 0.02428673979472101 -1 0 0
1743 5 65.70229727191517 25.660712488650432 0.024286739794721013 -1 0 0
1749 5 69.56713828791017 25.660712488650432 0.024286739794721655 -1 0 0
1746 1 67.63471777991256 26.775358043104983 1.5912327659147822 -1 0 0
1744 5 67.63471777991272 29.007762990089432 0.024286739794721415 -1 0 0
1755 5 73.43197930390517 25.660712488650436 0.024286739794722057 -1 0 0
1752 1 71.49955879590756 26.775358043104983 1.591232765914782 -1 0 0
1758 1 75.36439981190257 26.775358043104983 1.5912327659147822 -1 0 0