LAMMPS data file via write_data, version 29 Aug 2024, timestep = 1, units = metal

5376 atoms
6 atom types

0 98.619312099 xlo xhi
0 97.607805235968 ylo yhi
-50 50 zlo zhi

Masses

1 28.085
2 28.085
3 28.085
4 78.971
5 78.971
6 78.971

Atoms # atomic

955 1 1.7610591446250012 1.6602733952860294e-14 1.4183914304755125 0 0 0
953 4 0 1.0167479712079823 0.00315500948264318 0 0 0
957 4 3.5221182892500025 1.0167479712079828 0.003155009482642664 0 0 0
959 1 5.283177433875003 1.622923087975451e-14 1.4183914304755132 0 0 0
956 1 0 3.0502439136240174 1.4183914304755112 0 0 0
960 1 3.5221182892500025 3.050243913624017 1.4183914304755116 0 0 0
954 4 1.7610591446250012 4.066991884831984 0.0031550094826424437 0 0 0
958 4 5.283177433875003 4.066991884831984 0.003155009482641922 0 0 0
961 4 7.044236578499999 1.0167479712079832 0.0031550094826420017 0 0 0
963 1 8.805295723124999 1.6703099435770738e-14 1.4183914304755125 0 0 0
965 4 10.56635486775 1.0167479712079828 0.0031550094826425954 0 0 0
964 1 7.044236578499999 3.0502439136240165 1.4183914304755123 0 0 0
968 1 10.56635486775 3.050243913624017 1.4183914304755119 0 0 0
962 4 8.805295723124999 4.066991884831984 0.003155009482642584 0 0 0
967 1 12.327414012375002 1.6697903179623315e-14 1.4183914304755125 0 0 0
969 4 14.088473157000001 1.0167479712079832 0.0031550094826419323 0 0 0
971 1 15.849532301624999 1.6653591798460652e-14 1.4183914304755125 0 0 0
972 1 14.088473157000001 3.0502439136240165 1.4183914304755125 0 0 0
966 4 12.327414012375002 4.066991884831984 0.0031550094826425846 0 0 0
970 4 15.849532301624999 4.066991884831984 0.0031550094826425065 0 0 0
973 4 17.61059144625 1.0167479712079828 0.0031550094826425183 0 0 0
975 1 19.371650590875003 1.6593200664022897e-14 1.4183914304755125 0 0 0
977 4 21.132709735500004 1.0167479712079828 0.003155009482642659 0 0 0
979 1 22.893768880125002 1.5704122601045725e-14 1.4183914304755139 0 0 0
976 1 17.61059144625 3.050243913624017 1.4183914304755119 0 0 0
980 1 21.132709735500004 3.050243913624017 1.4183914304755116 0 0 0
974 4 19.371650590875003 4.066991884831984 0.0031550094826424398 0 0 0
978 4 22.893768880125002 4.066991884831985 0.0031550094826411903 0 0 0
981 4 24.65482802475 1.0167479712079828 0.0031550094826426575 0 0 0
983 1 26.415887169375 1.6598601497183996e-14 1.4183914304755125 0 0 0
985 4 28.176946314000002 1.0167479712079828 0.003155009482642518 0 0 0
984 1 24.65482802475 3.050243913624017 1.4183914304755116 0 0 0
988 1 28.176946314000002 3.050243913624017 1.4183914304755119 0 0 0
982 4 26.415887169375 4.066991884831984 0.0031550094826424367 0 0 0
987 1 29.938005458625003 1.669610290190295e-14 1.4183914304755125 0 0 0
991 1 33.460123747874995 1.6697289448582283e-14 1.4183914304755125 0 0 0
989 4 31.69906460325 1.0167479712079837 0.003155009482641271 0 0 0
992 1 31.69906460325 3.050243913624016 1.4183914304755132 0 0 0
986 4 29.938005458625003 4.066991884831984 0.0031550094826425772 0 0 0
990 4 33.460123747874995 4.066991884831984 0.0031550094826425772 0 0 0
993 4 35.2211828925 1.0167479712079828 0.0031550094826425183 0 0 0
995 1 36.982242037125 1.6598356004767584e-14 1.4183914304755125 0 0 0
997 4 38.743301181750006 1.0167479712079828 0.003155009482642659 0 0 0
999 1 40.504360326375 1.5705404616998107e-14 1.4183914304755139 0 0 0
996 1 35.2211828925 3.050243913624017 1.4183914304755119 0 0 0
1000 1 38.743301181750006 3.050243913624017 1.4183914304755116 0 0 0
994 4 36.982242037125 4.066991884831984 0.0031550094826424385 0 0 0
998 4 40.504360326375 4.066991884831985 0.0031550094826411908 0 0 0
1001 4 42.265419470999994 1.0167479712079828 0.003155009482642658 0 0 0
1003 1 44.026478615625 1.6598683327989467e-14 1.4183914304755125 0 0 0
1005 4 45.78753776025 1.0167479712079828 0.003155009482642519 0 0 0
1004 1 42.265419470999994 3.050243913624017 1.4183914304755116 0 0 0
1008 1 45.78753776025 3.050243913624017 1.4183914304755119 0 0 0
1002 4 44.026478615625 4.066991884831984 0.003155009482642437 0 0 0
1007 1 47.548596904875005 1.6643963040350206e-14 1.4183914304755125 0 0 0
897 4 49.3096560495 1.0167479712079832 0.003155009482641933 -1 0 0
899 1 51.070715194125 1.6703058520368003e-14 1.4183914304755125 -1 0 0
900 1 49.3096560495 3.0502439136240165 1.4183914304755125 -1 0 0
1006 4 47.548596904875005 4.066991884831984 0.0031550094826425074 0 0 0
898 4 51.070715194125 4.066991884831984 0.003155009482642584 -1 0 0
901 4 52.83177433875 1.0167479712079828 0.003155009482642664 -1 0 0
903 1 54.592833483375 1.6229339987495137e-14 1.4183914304755132 -1 0 0
905 4 56.353892628 1.0167479712079832 0.0031550094826420026 -1 0 0
904 1 52.83177433875 3.050243913624017 1.4183914304755116 -1 0 0
908 1 56.353892628 3.0502439136240165 1.4183914304755123 -1 0 0
902 4 54.592833483375 4.066991884831984 0.0031550094826419224 -1 0 0
907 1 58.114951772625 1.670254025860002e-14 1.4183914304755125 -1 0 0
909 4 59.87601091725 1.0167479712079828 0.0031550094826425937 -1 0 0
911 1 61.637070061875 1.6703058520368003e-14 1.4183914304755125 -1 0 0
913 4 63.3981292065 1.0167479712079832 0.0031550094826419323 -1 0 0
912 1 59.87601091725 3.050243913624017 1.4183914304755119 -1 0 0
916 1 63.3981292065 3.0502439136240165 1.4183914304755125 -1 0 0
906 4 58.114951772625 4.066991884831984 0.003155009482642585 -1 0 0
910 4 61.637070061875 4.066991884831984 0.003155009482642584 -1 0 0
915 1 65.159188351125 1.664358116325801e-14 1.4183914304755125 -1 0 0
917 4 66.92024749575 1.0167479712079828 0.0031550094826426583 -1 0 0
919 1 68.681306640375 1.570573194021999e-14 1.4183914304755139 -1 0 0
920 1 66.92024749575 3.050243913624017 1.4183914304755116 -1 0 0
914 4 65.159188351125 4.066991884831984 0.0031550094826425074 -1 0 0
918 4 68.681306640375 4.066991884831985 0.00315500948264119 -1 0 0
921 4 70.44236578499999 1.0167479712079828 0.0031550094826426575 -1 0 0
923 1 72.203424929625 1.6598696966457045e-14 1.4183914304755125 -1 0 0
925 4 73.96448407425 1.0167479712079828 0.003155009482642518 -1 0 0
924 1 70.44236578499999 3.050243913624017 1.4183914304755116 -1 0 0
928 1 73.96448407425 3.050243913624017 1.4183914304755119 -1 0 0
922 4 72.203424929625 4.066991884831984 0.003155009482642437 -1 0 0
927 1 75.725543218875 1.6698816956951077e-14 1.4183914304755125 -1 0 0
929 4 77.4866023635 1.0167479712079837 0.00315500948264127 -1 0 0
931 1 79.24766150812499 1.6598628774119153e-14 1.4183914304755127 -1 0 0
933 4 81.00872065275 1.0167479712079819 0.003155009482643766 -1 0 0
932 1 77.4866023635 3.050243913624016 1.4183914304755132 -1 0 0
936 1 81.00872065275 3.050243913624018 1.4183914304755105 -1 0 0
926 4 75.725543218875 4.066991884831984 0.003155009482642577 -1 0 0
930 4 79.24766150812499 4.066991884831984 0.003155009482642438 -1 0 0
935 1 82.76977979737501 1.6598451474040633e-14 1.4183914304755127 -1 0 0
937 4 84.530838942 1.0167479712079837 0.0031550094826414098 -1 0 0
939 1 86.291898086625 1.5805756461440973e-14 1.4183914304755136 -1 0 0
940 1 84.530838942 3.050243913624016 1.418391430475513 -1 0 0
934 4 82.76977979737501 4.066991884831984 0.0031550094826424376 -1 0 0
938 4 86.291898086625 4.066991884831985 0.00315500948264133 -1 0 0
941 4 88.05295723124999 1.0167479712079828 0.0031550094826425183 -1 0 0
943 1 89.814016375875 1.7491812015837467e-14 1.4183914304755114 -1 0 0
945 4 91.57507552050001 1.0167479712079828 0.0031550094826425183 -1 0 0
944 1 88.05295723124999 3.050243913624017 1.4183914304755119 -1 0 0
948 1 91.57507552050001 3.050243913624017 1.4183914304755119 -1 0 0
942 4 89.814016375875 4.0669918848319835 0.0031550094826436853 -1 0 0
947 1 93.336134665125 1.580075114383965e-14 1.4183914304755136 -1 0 0
949 4 95.09719380975 1.0167479712079837 0.00315500948264141 -1 0 0
951 1 96.85825295437499 1.664887288867848e-14 1.4183914304755125 -1 0 0
952 1 95.09719380975 3.050243913624016 1.418391430475513 -1 0 0
946 4 93.336134665125 4.066991884831985 0.00315500948264133 -1 0 0
950 4 96.85825295437499 4.066991884831984 0.003155009482642508 -1 0 0
1067 1 1.7610591446250012 6.100487827248018 1.4183914304755119 0 0 0
1065 4 0 7.117235798455985 0.0031550094826431 0 0 0
1069 4 3.5221182892500025 7.117235798455986 0.0031550094826425837 0 0 0
1071 1 5.283177433875003 6.100487827248018 1.4183914304755123 0 0 0
1068 1 0 9.15073174087202 1.4183914304755112 0 0 0
1072 1 3.5221182892500025 9.15073174087202 1.4183914304755116 0 0 0
1066 4 1.7610591446250012 10.167479712079986 0.0031550094826416466 0 0 0
1070 4 5.283177433875003 10.167479712079986 0.0031550094826411244 0 0 0
1073 4 7.044236578499999 7.117235798455986 0.003155009482641921 0 0 0
1075 1 8.805295723124999 6.100487827248019 1.4183914304755116 0 0 0
1077 4 10.56635486775 7.117235798455986 0.003155009482642515 0 0 0
1076 1 7.044236578499999 9.150731740872018 1.4183914304755123 0 0 0
1080 1 10.56635486775 9.15073174087202 1.4183914304755116 0 0 0
1074 4 8.805295723124999 10.167479712079986 0.003155009482641786 0 0 0
1079 1 12.327414012375002 6.100487827248019 1.4183914304755116 0 0 0
1081 4 14.088473157000001 7.117235798455986 0.0031550094826418517 0 0 0
1083 1 15.849532301624999 6.100487827248018 1.4183914304755119 0 0 0
1084 1 14.088473157000001 9.150731740872018 1.4183914304755123 0 0 0
1078 4 12.327414012375002 10.167479712079986 0.0031550094826417866 0 0 0
1082 4 15.849532301624999 10.167479712079986 0.00315500948264171 0 0 0
1085 4 17.61059144625 7.117235798455986 0.003155009482642437 0 0 0
1087 1 19.371650590875003 6.100487827248018 1.4183914304755119 0 0 0
1089 4 21.132709735500004 7.117235798455986 0.0031550094826425785 0 0 0
1091 1 22.893768880125002 6.100487827248017 1.4183914304755132 0 0 0
1088 1 17.61059144625 9.15073174087202 1.4183914304755119 0 0 0
1092 1 21.132709735500004 9.15073174087202 1.4183914304755116 0 0 0
1086 4 19.371650590875003 10.167479712079986 0.0031550094826416426 0 0 0
1090 4 22.893768880125002 10.167479712079986 0.003155009482640393 0 0 0
1093 4 24.65482802475 7.117235798455986 0.0031550094826425772 0 0 0
1095 1 26.415887169375 6.100487827248018 1.4183914304755119 0 0 0
1097 4 28.176946314000002 7.117235798455986 0.0031550094826424376 0 0 0
1096 1 24.65482802475 9.15073174087202 1.4183914304755116 0 0 0
1100 1 28.176946314000002 9.15073174087202 1.4183914304755119 0 0 0
1094 4 26.415887169375 10.167479712079986 0.00315500948264164 0 0 0
1099 1 29.938005458625003 6.100487827248019 1.4183914304755116 0 0 0
1103 1 33.460123747874995 6.100487827248019 1.4183914304755116 0 0 0
1101 4 31.69906460325 7.117235798455987 0.0031550094826411903 0 0 0
1104 1 31.69906460325 9.150731740872018 1.418391430475513 0 0 0
1098 4 29.938005458625003 10.167479712079986 0.003155009482641781 0 0 0
1102 4 33.460123747874995 10.167479712079986 0.0031550094826417806 0 0 0
1105 4 35.2211828925 7.117235798455986 0.003155009482642437 0 0 0
1107 1 36.982242037125 6.100487827248018 1.4183914304755119 0 0 0
1109 4 38.743301181750006 7.117235798455986 0.0031550094826425785 0 0 0
1111 1 40.504360326375 6.100487827248017 1.4183914304755132 0 0 0
1108 1 35.2211828925 9.15073174087202 1.4183914304755119 0 0 0
1112 1 38.743301181750006 9.15073174087202 1.4183914304755116 0 0 0
1106 4 36.982242037125 10.167479712079986 0.0031550094826416413 0 0 0
1110 4 40.504360326375 10.167479712079986 0.0031550094826403936 0 0 0
1113 4 42.265419470999994 7.117235798455986 0.0031550094826425772 0 0 0
1115 1 44.026478615625 6.100487827248018 1.4183914304755119 0 0 0
1117 4 45.78753776025 7.117235798455986 0.0031550094826424385 0 0 0
1116 1 42.265419470999994 9.15073174087202 1.4183914304755116 0 0 0
1120 1 45.78753776025 9.15073174087202 1.4183914304755119 0 0 0
1114 4 44.026478615625 10.167479712079986 0.0031550094826416405 0 0 0
1119 1 47.548596904875005 6.100487827248018 1.4183914304755119 0 0 0
1009 4 49.3096560495 7.117235798455986 0.003155009482641853 -1 0 0
1011 1 51.070715194125 6.100487827248019 1.4183914304755116 -1 0 0
1012 1 49.3096560495 9.150731740872018 1.4183914304755123 -1 0 0
1118 4 47.548596904875005 10.167479712079986 0.0031550094826417107 0 0 0
1010 4 51.070715194125 10.167479712079986 0.003155009482641786 -1 0 0
1013 4 52.83177433875 7.117235798455986 0.0031550094826425837 -1 0 0
1015 1 54.592833483375 6.100487827248018 1.4183914304755123 -1 0 0
1017 4 56.353892628 7.117235798455986 0.003155009482641922 -1 0 0
1016 1 52.83177433875 9.15073174087202 1.4183914304755116 -1 0 0
1020 1 56.353892628 9.150731740872018 1.4183914304755123 -1 0 0
1014 4 54.592833483375 10.167479712079986 0.003155009482641125 -1 0 0
1019 1 58.114951772625 6.100487827248019 1.4183914304755116 -1 0 0
1021 4 59.87601091725 7.117235798455986 0.003155009482642514 -1 0 0
1023 1 61.637070061875 6.100487827248019 1.4183914304755116 -1 0 0
1025 4 63.3981292065 7.117235798455986 0.003155009482641852 -1 0 0
1024 1 59.87601091725 9.15073174087202 1.4183914304755116 -1 0 0
1028 1 63.3981292065 9.150731740872018 1.4183914304755123 -1 0 0
1018 4 58.114951772625 10.167479712079986 0.003155009482641787 -1 0 0
1022 4 61.637070061875 10.167479712079986 0.003155009482641786 -1 0 0
1027 1 65.159188351125 6.100487827248018 1.4183914304755119 -1 0 0
1029 4 66.92024749575 7.117235798455986 0.0031550094826425777 -1 0 0
1031 1 68.681306640375 6.100487827248017 1.4183914304755132 -1 0 0
1032 1 66.92024749575 9.15073174087202 1.4183914304755116 -1 0 0
1026 4 65.159188351125 10.167479712079986 0.0031550094826417103 -1 0 0
1030 4 68.681306640375 10.167479712079986 0.0031550094826403928 -1 0 0
1033 4 70.44236578499999 7.117235798455986 0.0031550094826425772 -1 0 0
1035 1 72.203424929625 6.100487827248018 1.4183914304755119 -1 0 0
1037 4 73.96448407425 7.117235798455986 0.0031550094826424376 -1 0 0
1036 1 70.44236578499999 9.15073174087202 1.4183914304755116 -1 0 0
1040 1 73.96448407425 9.15073174087202 1.4183914304755119 -1 0 0
1034 4 72.203424929625 10.167479712079986 0.0031550094826416405 -1 0 0
1039 1 75.725543218875 6.100487827248019 1.4183914304755116 -1 0 0
1041 4 77.4866023635 7.117235798455987 0.00315500948264119 -1 0 0
1043 1 79.24766150812499 6.100487827248018 1.4183914304755119 -1 0 0
1045 4 81.00872065275 7.117235798455985 0.0031550094826436853 -1 0 0
1044 1 77.4866023635 9.150731740872018 1.418391430475513 -1 0 0
1048 1 81.00872065275 9.15073174087202 1.4183914304755105 -1 0 0
1038 4 75.725543218875 10.167479712079986 0.0031550094826417806 -1 0 0
1042 4 79.24766150812499 10.167479712079986 0.003155009482641641 -1 0 0
1047 1 82.76977979737501 6.100487827248018 1.4183914304755119 -1 0 0
1049 4 84.530838942 7.117235798455987 0.00315500948264133 -1 0 0
1051 1 86.291898086625 6.100487827248018 1.418391430475513 -1 0 0
1052 1 84.530838942 9.150731740872018 1.418391430475513 -1 0 0
1046 4 82.76977979737501 10.167479712079986 0.003155009482641641 -1 0 0
1050 4 86.291898086625 10.167479712079986 0.003155009482640533 -1 0 0
1053 4 88.05295723124999 7.117235798455986 0.0031550094826424376 -1 0 0
1055 1 89.814016375875 6.100487827248019 1.4183914304755105 -1 0 0
1057 4 91.57507552050001 7.117235798455986 0.0031550094826424376 -1 0 0
1056 1 88.05295723124999 9.15073174087202 1.4183914304755119 -1 0 0
1060 1 91.57507552050001 9.15073174087202 1.4183914304755119 -1 0 0
1054 4 89.814016375875 10.167479712079984 0.003155009482642888 -1 0 0
1059 1 93.336134665125 6.100487827248017 1.418391430475513 -1 0 0
1061 4 95.09719380975 7.117235798455987 0.00315500948264133 -1 0 0
1063 1 96.85825295437499 6.100487827248018 1.4183914304755119 -1 0 0
1064 1 95.09719380975 9.150731740872018 1.418391430475513 -1 0 0
1058 4 93.336134665125 10.167479712079986 0.003155009482640533 -1 0 0
1062 4 96.85825295437499 10.167479712079986 0.0031550094826417107 -1 0 0
1179 1 1.7610591446250012 12.200975654496016 1.4183914304755119 0 0 0
1183 1 5.283177433875003 12.200975654496016 1.4183914304755123 0 0 0
1177 4 0 13.217723625703986 0.0031550094826439954 0 0 0
1181 4 3.5221182892500025 13.217723625703988 0.003155009482643463 0 0 0
1180 1 0 15.251219568120021 1.418391430475512 0 0 0
1178 4 1.7610591446250012 16.267967539327984 0.003155009482640877 0 0 0
1184 1 3.5221182892500025 15.251219568120021 1.4183914304755125 0 0 0
1182 4 5.283177433875003 16.267967539327984 0.0031550094826404227 0 0 0
1187 1 8.805295723124999 12.200975654496016 1.4183914304755116 0 0 0
1185 4 7.044236578499999 13.217723625703988 0.00315500948264287 0 0 0
1189 4 10.56635486775 13.217723625703988 0.003155009482643394 0 0 0
1188 1 7.044236578499999 15.251219568120021 1.4183914304755132 0 0 0
1186 4 8.805295723124999 16.267967539327984 0.0031550094826410173 0 0 0
1192 1 10.56635486775 15.251219568120021 1.4183914304755125 0 0 0
1191 1 12.327414012375002 12.200975654496016 1.4183914304755116 0 0 0
1195 1 15.849532301624999 12.200975654496016 1.4183914304755116 0 0 0
1193 4 14.088473157000001 13.217723625703988 0.0031550094826428014 0 0 0
1190 4 12.327414012375002 16.267967539327984 0.0031550094826410186 0 0 0
1196 1 14.088473157000001 15.251219568120021 1.4183914304755132 0 0 0
1194 4 15.849532301624999 16.267967539327984 0.003155009482641028 0 0 0
1199 1 19.371650590875003 12.200975654496016 1.4183914304755116 0 0 0
1203 1 22.893768880125002 12.200975654496016 1.418391430475513 0 0 0
1197 4 17.61059144625 13.217723625703988 0.0031550094826434043 0 0 0
1201 4 21.132709735500004 13.217723625703988 0.0031550094826435448 0 0 0
1200 1 17.61059144625 15.251219568120021 1.4183914304755125 0 0 0
1198 4 19.371650590875003 16.267967539327984 0.003155009482640961 0 0 0
1204 1 21.132709735500004 15.251219568120021 1.4183914304755125 0 0 0
1202 4 22.893768880125002 16.267967539327984 0.0031550094826397587 0 0 0
1207 1 26.415887169375 12.200975654496016 1.4183914304755119 0 0 0
1205 4 24.65482802475 13.217723625703988 0.003155009482643543 0 0 0
1209 4 28.176946314000002 13.217723625703988 0.0031550094826434034 0 0 0
1208 1 24.65482802475 15.251219568120021 1.4183914304755125 0 0 0
1206 4 26.415887169375 16.267967539327984 0.0031550094826409587 0 0 0
1212 1 28.176946314000002 15.251219568120021 1.4183914304755125 0 0 0
1211 1 29.938005458625003 12.200975654496016 1.4183914304755116 0 0 0
1215 1 33.460123747874995 12.200975654496016 1.4183914304755116 0 0 0
1213 4 31.69906460325 13.217723625703988 0.00315500948264221 0 0 0
1210 4 29.938005458625003 16.267967539327984 0.0031550094826410984 0 0 0
1216 1 31.69906460325 15.25121956812002 1.4183914304755139 0 0 0
1214 4 33.460123747874995 16.267967539327984 0.0031550094826410992 0 0 0
1219 1 36.982242037125 12.200975654496016 1.4183914304755119 0 0 0
1223 1 40.504360326375 12.200975654496016 1.418391430475513 0 0 0
1217 4 35.2211828925 13.217723625703988 0.0031550094826434043 0 0 0
1221 4 38.743301181750006 13.217723625703988 0.0031550094826435448 0 0 0
1220 1 35.2211828925 15.251219568120021 1.4183914304755125 0 0 0
1218 4 36.982242037125 16.267967539327984 0.00315500948264096 0 0 0
1224 1 38.743301181750006 15.251219568120021 1.4183914304755125 0 0 0
1222 4 40.504360326375 16.267967539327984 0.0031550094826397587 0 0 0
1227 1 44.026478615625 12.200975654496016 1.4183914304755119 0 0 0
1225 4 42.265419470999994 13.217723625703988 0.003155009482643544 0 0 0
1229 4 45.78753776025 13.217723625703988 0.003155009482643405 0 0 0
1228 1 42.265419470999994 15.251219568120021 1.4183914304755125 0 0 0
1226 4 44.026478615625 16.267967539327984 0.003155009482640959 0 0 0
1232 1 45.78753776025 15.251219568120021 1.4183914304755125 0 0 0
1231 1 47.548596904875005 12.200975654496016 1.4183914304755116 0 0 0
1123 1 51.070715194125 12.200975654496016 1.4183914304755116 -1 0 0
1121 4 49.3096560495 13.217723625703988 0.0031550094826428023 -1 0 0
1230 4 47.548596904875005 16.267967539327984 0.003155009482641029 0 0 0
1124 1 49.3096560495 15.251219568120021 1.4183914304755132 -1 0 0
1122 4 51.070715194125 16.267967539327984 0.0031550094826410173 -1 0 0
1127 1 54.592833483375 12.200975654496016 1.4183914304755123 -1 0 0
1125 4 52.83177433875 13.217723625703988 0.003155009482643463 -1 0 0
1129 4 56.353892628 13.217723625703988 0.003155009482642871 -1 0 0
1128 1 52.83177433875 15.251219568120021 1.4183914304755125 -1 0 0
1126 4 54.592833483375 16.267967539327984 0.003155009482640423 -1 0 0
1132 1 56.353892628 15.251219568120021 1.4183914304755132 -1 0 0
1131 1 58.114951772625 12.200975654496016 1.4183914304755116 -1 0 0
1135 1 61.637070061875 12.200975654496016 1.4183914304755116 -1 0 0
1133 4 59.87601091725 13.217723625703988 0.003155009482643392 -1 0 0
1137 4 63.3981292065 13.217723625703988 0.0031550094826428006 -1 0 0
1130 4 58.114951772625 16.267967539327984 0.003155009482641018 -1 0 0
1136 1 59.87601091725 15.251219568120021 1.4183914304755125 -1 0 0
1134 4 61.637070061875 16.267967539327984 0.0031550094826410173 -1 0 0
1140 1 63.3981292065 15.251219568120021 1.4183914304755132 -1 0 0
1139 1 65.159188351125 12.200975654496016 1.4183914304755116 -1 0 0
1143 1 68.681306640375 12.200975654496016 1.418391430475513 -1 0 0
1141 4 66.92024749575 13.217723625703988 0.0031550094826435435 -1 0 0
1144 1 66.92024749575 15.251219568120021 1.4183914304755125 -1 0 0
1138 4 65.159188351125 16.267967539327984 0.00315500948264103 -1 0 0
1142 4 68.681306640375 16.267967539327984 0.003155009482639758 -1 0 0
1147 1 72.203424929625 12.200975654496016 1.4183914304755119 -1 0 0
1145 4 70.44236578499999 13.217723625703988 0.003155009482643543 -1 0 0
1149 4 73.96448407425 13.217723625703988 0.0031550094826434034 -1 0 0
1148 1 70.44236578499999 15.251219568120021 1.4183914304755125 -1 0 0
1146 4 72.203424929625 16.267967539327984 0.003155009482640959 -1 0 0
1152 1 73.96448407425 15.251219568120021 1.4183914304755125 -1 0 0
1151 1 75.725543218875 12.200975654496016 1.4183914304755116 -1 0 0
1155 1 79.24766150812499 12.200975654496016 1.4183914304755119 -1 0 0
1153 4 77.4866023635 13.217723625703988 0.0031550094826422086 -1 0 0
1157 4 81.00872065275 13.217723625703986 0.003155009482644599 -1 0 0
1150 4 75.725543218875 16.267967539327984 0.003155009482641099 -1 0 0
1156 1 77.4866023635 15.25121956812002 1.4183914304755139 -1 0 0
1154 4 79.24766150812499 16.267967539327984 0.003155009482640959 -1 0 0
1160 1 81.00872065275 15.251219568120021 1.4183914304755114 -1 0 0
1159 1 82.76977979737501 12.200975654496016 1.4183914304755119 -1 0 0
1163 1 86.291898086625 12.200975654496016 1.4183914304755127 -1 0 0
1161 4 84.530838942 13.217723625703988 0.0031550094826423487 -1 0 0
1158 4 82.76977979737501 16.267967539327984 0.003155009482640959 -1 0 0
1164 1 84.530838942 15.25121956812002 1.4183914304755136 -1 0 0
1162 4 86.291898086625 16.267967539327984 0.0031550094826398975 -1 0 0
1167 1 89.814016375875 12.200975654496018 1.4183914304755105 -1 0 0
1165 4 88.05295723124999 13.217723625703988 0.003155009482643404 -1 0 0
1169 4 91.57507552050001 13.217723625703988 0.003155009482643404 -1 0 0
1168 1 88.05295723124999 15.251219568120021 1.4183914304755125 -1 0 0
1166 4 89.814016375875 16.26796753932798 0.0031550094826421596 -1 0 0
1172 1 91.57507552050001 15.251219568120021 1.4183914304755125 -1 0 0
1171 1 93.336134665125 12.200975654496016 1.4183914304755127 -1 0 0
1175 1 96.85825295437499 12.200975654496016 1.4183914304755116 -1 0 0
1173 4 95.09719380975 13.217723625703988 0.003155009482642349 -1 0 0
1170 4 93.336134665125 16.267967539327984 0.003155009482639899 -1 0 0
1176 1 95.09719380975 15.25121956812002 1.4183914304755136 -1 0 0
1174 4 96.85825295437499 16.267967539327984 0.0031550094826410294 -1 0 0
1291 1 1.7610591446250012 18.301463481744012 1.4183914304755116 0 0 0
1295 1 5.283177433875003 18.301463481744012 1.418391430475512 0 0 0
1289 4 0 19.31821145295198 0.0031550094826430335 0 0 0
1293 4 3.5221182892500025 19.31821145295198 0.0031550094826424996 0 0 0
1292 1 0 21.351707395368013 1.4183914304755112 0 0 0
1290 4 1.7610591446250012 22.368455366575983 0.003155009482642359 0 0 0
1296 1 3.5221182892500025 21.351707395368013 1.4183914304755119 0 0 0
1294 4 5.283177433875003 22.368455366575983 0.0031550094826419076 0 0 0
1299 1 8.805295723124999 18.301463481744012 1.4183914304755114 0 0 0
1297 4 7.044236578499999 19.31821145295198 0.003155009482641907 0 0 0
1301 4 10.56635486775 19.31821145295198 0.0031550094826424315 0 0 0
1300 1 7.044236578499999 21.351707395368013 1.4183914304755123 0 0 0
1298 4 8.805295723124999 22.368455366575983 0.0031550094826424987 0 0 0
1304 1 10.56635486775 21.351707395368013 1.4183914304755119 0 0 0
1303 1 12.327414012375002 18.301463481744012 1.4183914304755114 0 0 0
1307 1 15.849532301624999 18.301463481744012 1.4183914304755114 0 0 0
1305 4 14.088473157000001 19.31821145295198 0.003155009482641838 0 0 0
1302 4 12.327414012375002 22.368455366575983 0.003155009482642499 0 0 0
1308 1 14.088473157000001 21.351707395368013 1.4183914304755125 0 0 0
1306 4 15.849532301624999 22.368455366575983 0.00315500948264251 0 0 0
1311 1 19.371650590875003 18.301463481744012 1.4183914304755114 0 0 0
1315 1 22.893768880125002 18.301463481744012 1.4183914304755127 0 0 0
1309 4 17.61059144625 19.31821145295198 0.003155009482642441 0 0 0
1313 4 21.132709735500004 19.31821145295198 0.0031550094826425833 0 0 0
1312 1 17.61059144625 21.351707395368013 1.4183914304755119 0 0 0
1310 4 19.371650590875003 22.368455366575983 0.0031550094826424432 0 0 0
1316 1 21.132709735500004 21.351707395368013 1.4183914304755116 0 0 0
1314 4 22.893768880125002 22.368455366575983 0.0031550094826412467 0 0 0
1319 1 26.415887169375 18.301463481744012 1.4183914304755114 0 0 0
1317 4 24.65482802475 19.31821145295198 0.0031550094826425807 0 0 0
1321 4 28.176946314000002 19.31821145295198 0.003155009482642441 0 0 0
1320 1 24.65482802475 21.351707395368013 1.4183914304755116 0 0 0
1318 4 26.415887169375 22.368455366575983 0.00315500948264244 0 0 0
1324 1 28.176946314000002 21.351707395368013 1.4183914304755119 0 0 0
1323 1 29.938005458625003 18.301463481744012 1.4183914304755114 0 0 0
1327 1 33.460123747874995 18.301463481744012 1.4183914304755114 0 0 0
1325 4 31.69906460325 19.31821145295198 0.0031550094826412463 0 0 0
1322 4 29.938005458625003 22.368455366575983 0.0031550094826425803 0 0 0
1328 1 31.69906460325 21.351707395368013 1.418391430475513 0 0 0
1326 4 33.460123747874995 22.368455366575983 0.0031550094826425807 0 0 0
1331 1 36.982242037125 18.301463481744012 1.4183914304755114 0 0 0
1335 1 40.504360326375 18.301463481744012 1.4183914304755127 0 0 0
1329 4 35.2211828925 19.31821145295198 0.003155009482642441 0 0 0
1333 4 38.743301181750006 19.31821145295198 0.003155009482642583 0 0 0
1332 1 35.2211828925 21.351707395368013 1.4183914304755119 0 0 0
1330 4 36.982242037125 22.368455366575983 0.003155009482642442 0 0 0
1336 1 38.743301181750006 21.351707395368013 1.4183914304755116 0 0 0
1334 4 40.504360326375 22.368455366575983 0.003155009482641247 0 0 0
1339 1 44.026478615625 18.301463481744012 1.4183914304755114 0 0 0
1337 4 42.265419470999994 19.31821145295198 0.0031550094826425807 0 0 0
1341 4 45.78753776025 19.31821145295198 0.003155009482642442 0 0 0
1340 1 42.265419470999994 21.351707395368013 1.4183914304755116 0 0 0
1338 4 44.026478615625 22.368455366575983 0.0031550094826424406 0 0 0
1344 1 45.78753776025 21.351707395368013 1.4183914304755119 0 0 0
1343 1 47.548596904875005 18.301463481744012 1.4183914304755114 0 0 0
1235 1 51.070715194125 18.301463481744012 1.4183914304755114 -1 0 0
1233 4 49.3096560495 19.31821145295198 0.003155009482641839 -1 0 0
1342 4 47.548596904875005 22.368455366575983 0.003155009482642511 0 0 0
1236 1 49.3096560495 21.351707395368013 1.4183914304755125 -1 0 0
1234 4 51.070715194125 22.368455366575983 0.0031550094826424987 -1 0 0
1239 1 54.592833483375 18.301463481744012 1.418391430475512 -1 0 0
1237 4 52.83177433875 19.31821145295198 0.0031550094826424996 -1 0 0
1241 4 56.353892628 19.31821145295198 0.0031550094826419076 -1 0 0
1240 1 52.83177433875 21.351707395368013 1.4183914304755119 -1 0 0
1238 4 54.592833483375 22.368455366575983 0.003155009482641908 -1 0 0
1244 1 56.353892628 21.351707395368013 1.4183914304755123 -1 0 0
1243 1 58.114951772625 18.301463481744012 1.4183914304755114 -1 0 0
1247 1 61.637070061875 18.301463481744012 1.4183914304755114 -1 0 0
1245 4 59.87601091725 19.31821145295198 0.0031550094826424298 -1 0 0
1249 4 63.3981292065 19.31821145295198 0.0031550094826418382 -1 0 0
1242 4 58.114951772625 22.368455366575983 0.0031550094826424996 -1 0 0
1248 1 59.87601091725 21.351707395368013 1.4183914304755119 -1 0 0
1246 4 61.637070061875 22.368455366575983 0.0031550094826424987 -1 0 0
1252 1 63.3981292065 21.351707395368013 1.4183914304755125 -1 0 0
1251 1 65.159188351125 18.301463481744012 1.4183914304755114 -1 0 0
1255 1 68.681306640375 18.301463481744012 1.4183914304755127 -1 0 0
1253 4 66.92024749575 19.31821145295198 0.0031550094826425816 -1 0 0
1256 1 66.92024749575 21.351707395368013 1.4183914304755116 -1 0 0
1250 4 65.159188351125 22.368455366575983 0.0031550094826425104 -1 0 0
1254 4 68.681306640375 22.368455366575983 0.0031550094826412463 -1 0 0
1259 1 72.203424929625 18.301463481744012 1.4183914304755114 -1 0 0
1257 4 70.44236578499999 19.31821145295198 0.0031550094826425807 -1 0 0
1261 4 73.96448407425 19.31821145295198 0.003155009482642441 -1 0 0
1260 1 70.44236578499999 21.351707395368013 1.4183914304755116 -1 0 0
1258 4 72.203424929625 22.368455366575983 0.0031550094826424406 -1 0 0
1264 1 73.96448407425 21.351707395368013 1.4183914304755119 -1 0 0
1263 1 75.725543218875 18.301463481744012 1.4183914304755114 -1 0 0
1267 1 79.24766150812499 18.301463481744012 1.4183914304755114 -1 0 0
1265 4 77.4866023635 19.31821145295198 0.003155009482641246 -1 0 0
1269 4 81.00872065275 19.31821145295198 0.0031550094826436363 -1 0 0
1262 4 75.725543218875 22.368455366575983 0.0031550094826425803 -1 0 0
1268 1 77.4866023635 21.351707395368013 1.418391430475513 -1 0 0
1266 4 79.24766150812499 22.368455366575983 0.0031550094826424415 -1 0 0
1272 1 81.00872065275 21.351707395368013 1.4183914304755105 -1 0 0
1271 1 82.76977979737501 18.301463481744012 1.4183914304755114 -1 0 0
1275 1 86.291898086625 18.301463481744012 1.4183914304755125 -1 0 0
1273 4 84.530838942 19.31821145295198 0.0031550094826413855 -1 0 0