LAMMPS data file via write_data, version 29 Aug 2024, timestep = 1, units = metal

3584 atoms
4 atom types

0 98.619312099 xlo xhi
0 97.607805235968 ylo yhi
-50 50 zlo zhi

Masses

1 28.085
2 28.085
3 78.971
4 78.971

Atoms # atomic

955 1 1.7610591446250012 1.7553822795987763e-14 1.4182536937632038 0 0 0
953 3 0 1.0167479712079814 0.0033328178378383743 0 0 0
957 3 3.5221182892500025 1.0167479712079819 0.0033328178378378287 0 0 0
959 1 5.283177433875003 1.715891239597847e-14 1.4182536937632044 0 0 0
956 1 0 3.0502439136240183 1.4182536937632022 0 0 0
960 1 3.5221182892500025 3.050243913624018 1.4182536937632029 0 0 0
954 3 1.7610591446250012 4.0669918848319835 0.0033328178378375962 0 0 0
958 3 5.283177433875003 4.0669918848319835 0.003332817837837044 0 0 0
961 3 7.044236578499999 1.0167479712079823 0.0033328178378371287 0 0 0
963 1 8.805295723124999 1.7659922431700636e-14 1.4182536937632035 0 0 0
965 3 10.56635486775 1.0167479712079819 0.0033328178378377563 0 0 0
964 1 7.044236578499999 3.0502439136240174 1.4182536937632035 0 0 0
968 1 10.56635486775 3.050243913624018 1.4182536937632029 0 0 0
962 3 8.805295723124999 4.0669918848319835 0.003332817837837744 0 0 0
967 1 12.327414012375002 1.7654442972394997e-14 1.4182536937632035 0 0 0
969 3 14.088473157000001 1.0167479712079825 0.0033328178378370554 0 0 0
971 1 15.849532301624999 1.760757917570203e-14 1.4182536937632038 0 0 0
972 1 14.088473157000001 3.0502439136240174 1.4182536937632035 0 0 0
966 3 12.327414012375002 4.0669918848319835 0.0033328178378377446 0 0 0
970 3 15.849532301624999 4.0669918848319835 0.0033328178378376626 0 0 0
973 3 17.61059144625 1.016747971207982 0.0033328178378376747 0 0 0
975 1 19.371650590875003 1.7543729055161586e-14 1.4182536937632038 0 0 0
977 3 21.132709735500004 1.0167479712079819 0.0033328178378378235 0 0 0
979 1 22.893768880125002 1.6603727811279232e-14 1.418253693763205 0 0 0
976 1 17.61059144625 3.050243913624018 1.4182536937632029 0 0 0
980 1 21.132709735500004 3.050243913624018 1.4182536937632029 0 0 0
974 3 19.371650590875003 4.0669918848319835 0.003332817837837592 0 0 0
978 3 22.893768880125002 4.066991884831984 0.003332817837836271 0 0 0
981 3 24.65482802475 1.0167479712079819 0.0033328178378378218 0 0 0
983 1 26.415887169375 1.7549453648173005e-14 1.4182536937632038 0 0 0
985 3 28.176946314000002 1.016747971207982 0.0033328178378376743 0 0 0
984 1 24.65482802475 3.050243913624018 1.4182536937632029 0 0 0
988 1 28.176946314000002 3.050243913624018 1.4182536937632029 0 0 0
982 3 26.415887169375 4.0669918848319835 0.003332817837837589 0 0 0
987 1 29.938005458625003 1.7652554000897525e-14 1.4182536937632035 0 0 0
991 1 33.460123747874995 1.7653779669426418e-14 1.4182536937632035 0 0 0
989 3 31.69906460325 1.016747971207983 0.0033328178378363564 0 0 0
992 1 31.69906460325 3.050243913624017 1.4182536937632042 0 0 0
986 3 29.938005458625003 4.0669918848319835 0.003332817837837737 0 0 0
990 3 33.460123747874995 4.0669918848319835 0.003332817837837737 0 0 0
993 3 35.2211828925 1.016747971207982 0.0033328178378376747 0 0 0
995 1 36.982242037125 1.754917967520772e-14 1.4182536937632038 0 0 0
997 3 38.743301181750006 1.0167479712079819 0.0033328178378378235 0 0 0
999 1 40.504360326375 1.6605083256475893e-14 1.418253693763205 0 0 0
996 1 35.2211828925 3.050243913624018 1.4182536937632029 0 0 0
1000 1 38.743301181750006 3.050243913624018 1.4182536937632029 0 0 0
994 3 36.982242037125 4.0669918848319835 0.0033328178378375906 0 0 0
998 3 40.504360326375 4.066991884831984 0.0033328178378362714 0 0 0
1001 3 42.265419470999994 1.0167479712079819 0.003332817837837822 0 0 0
1003 1 44.026478615625 1.7549540165951516e-14 1.4182536937632038 0 0 0
1005 3 45.78753776025 1.016747971207982 0.0033328178378376756 0 0 0
1004 1 42.265419470999994 3.050243913624018 1.4182536937632029 0 0 0
1008 1 45.78753776025 3.050243913624018 1.4182536937632029 0 0 0
1002 3 44.026478615625 4.0669918848319835 0.0033328178378375893 0 0 0
1007 1 47.548596904875005 1.7597398917097345e-14 1.4182536937632038 0 0 0
897 3 49.3096560495 1.0167479712079825 0.0033328178378370563 -1 0 0
899 1 51.070715194125 1.765987917281138e-14 1.4182536937632035 -1 0 0
900 1 49.3096560495 3.0502439136240174 1.4182536937632035 -1 0 0
1006 3 47.548596904875005 4.0669918848319835 0.0033328178378376635 0 0 0
898 3 51.070715194125 4.0669918848319835 0.003332817837837744 -1 0 0
901 3 52.83177433875 1.0167479712079819 0.0033328178378378287 -1 0 0
903 1 54.592833483375 1.7159042172646234e-14 1.4182536937632044 -1 0 0
905 3 56.353892628 1.0167479712079823 0.0033328178378371296 -1 0 0
904 1 52.83177433875 3.050243913624018 1.4182536937632029 -1 0 0
908 1 56.353892628 3.0502439136240174 1.4182536937632035 -1 0 0
902 3 54.592833483375 4.0669918848319835 0.0033328178378370446 -1 0 0
907 1 58.114951772625 1.765934564651057e-14 1.4182536937632035 -1 0 0
909 3 59.87601091725 1.0167479712079819 0.0033328178378377545 -1 0 0
911 1 61.637070061875 1.7659893592441132e-14 1.4182536937632035 -1 0 0
913 3 63.3981292065 1.0167479712079825 0.0033328178378370554 -1 0 0
912 1 59.87601091725 3.050243913624018 1.4182536937632029 -1 0 0
916 1 63.3981292065 3.0502439136240174 1.4182536937632035 -1 0 0
906 3 58.114951772625 4.0669918848319835 0.0033328178378377454 -1 0 0
910 3 61.637070061875 4.0669918848319835 0.003332817837837744 -1 0 0
915 1 65.159188351125 1.759700958709405e-14 1.4182536937632038 -1 0 0
917 3 66.92024749575 1.0167479712079819 0.0033328178378378226 -1 0 0
919 1 68.681306640375 1.660542932758993e-14 1.418253693763205 -1 0 0
920 1 66.92024749575 3.050243913624018 1.4182536937632029 -1 0 0
914 3 65.159188351125 4.0669918848319835 0.0033328178378376635 -1 0 0
918 3 68.681306640375 4.066991884831984 0.0033328178378362705 -1 0 0
921 3 70.44236578499999 1.0167479712079819 0.0033328178378378218 -1 0 0
923 1 72.203424929625 1.7549540165951516e-14 1.4182536937632038 -1 0 0
925 3 73.96448407425 1.016747971207982 0.0033328178378376743 -1 0 0
924 1 70.44236578499999 3.050243913624018 1.4182536937632029 -1 0 0
928 1 73.96448407425 3.050243913624018 1.4182536937632029 -1 0 0
922 3 72.203424929625 4.0669918848319835 0.0033328178378375893 -1 0 0
927 1 75.725543218875 1.7655394667958606e-14 1.4182536937632035 -1 0 0
929 3 77.4866023635 1.016747971207983 0.0033328178378363555 -1 0 0
931 1 79.24766150812499 1.7549468067802755e-14 1.4182536937632038 -1 0 0
933 3 81.00872065275 1.016747971207981 0.003332817837838994 -1 0 0
932 1 77.4866023635 3.050243913624017 1.4182536937632042 -1 0 0
936 1 81.00872065275 3.0502439136240187 1.4182536937632015 -1 0 0
926 3 75.725543218875 4.0669918848319835 0.0033328178378377368 -1 0 0
930 3 79.24766150812499 4.0669918848319835 0.00333281783783759 -1 0 0
935 1 82.76977979737501 1.7549280612615983e-14 1.4182536937632038 -1 0 0
937 3 84.530838942 1.0167479712079828 0.003332817837836503 -1 0 0
939 1 86.291898086625 1.6711182892188763e-14 1.4182536937632049 -1 0 0
940 1 84.530838942 3.050243913624017 1.4182536937632042 -1 0 0
934 3 82.76977979737501 4.0669918848319835 0.0033328178378375897 -1 0 0
938 3 86.291898086625 4.066991884831984 0.003332817837836419 -1 0 0
941 3 88.05295723124999 1.016747971207982 0.0033328178378376747 -1 0 0
943 1 89.814016375875 1.8493809620240367e-14 1.4182536937632024 -1 0 0
945 3 91.57507552050001 1.016747971207982 0.0033328178378376747 -1 0 0
944 1 88.05295723124999 3.050243913624018 1.4182536937632029 -1 0 0
948 1 91.57507552050001 3.050243913624018 1.4182536937632029 -1 0 0
942 3 89.814016375875 4.066991884831983 0.0033328178378389086 -1 0 0
947 1 93.336134665125 1.6705890888069896e-14 1.4182536937632049 -1 0 0
949 3 95.09719380975 1.0167479712079828 0.0033328178378365034 -1 0 0
951 1 96.85825295437499 1.7602582773993074e-14 1.4182536937632038 -1 0 0
952 1 95.09719380975 3.050243913624017 1.4182536937632042 -1 0 0
946 3 93.336134665125 4.066991884831984 0.003332817837836419 -1 0 0
950 3 96.85825295437499 4.0669918848319835 0.003332817837837664 -1 0 0
1067 1 1.7610591446250012 6.100487827248019 1.4182536937632029 0 0 0
1065 3 0 7.117235798455984 0.0033328178378382897 0 0 0
1069 3 3.5221182892500025 7.117235798455985 0.0033328178378377437 0 0 0
1071 1 5.283177433875003 6.100487827248019 1.4182536937632035 0 0 0
1068 1 0 9.15073174087202 1.4182536937632022 0 0 0
1072 1 3.5221182892500025 9.15073174087202 1.4182536937632026 0 0 0
1066 3 1.7610591446250012 10.167479712079984 0.003332817837836753 0 0 0
1070 3 5.283177433875003 10.167479712079984 0.003332817837836201 0 0 0
1073 3 7.044236578499999 7.117235798455985 0.0033328178378370433 0 0 0
1075 1 8.805295723124999 6.10048782724802 1.4182536937632029 0 0 0
1077 3 10.56635486775 7.117235798455985 0.0033328178378376713 0 0 0
1076 1 7.044236578499999 9.15073174087202 1.4182536937632033 0 0 0
1080 1 10.56635486775 9.15073174087202 1.4182536937632026 0 0 0
1074 3 8.805295723124999 10.167479712079984 0.0033328178378369006 0 0 0
1079 1 12.327414012375002 6.10048782724802 1.4182536937632029 0 0 0
1081 3 14.088473157000001 7.117235798455985 0.00333281783783697 0 0 0
1083 1 15.849532301624999 6.100487827248019 1.4182536937632029 0 0 0
1084 1 14.088473157000001 9.15073174087202 1.4182536937632035 0 0 0
1078 3 12.327414012375002 10.167479712079984 0.0033328178378369015 0 0 0
1082 3 15.849532301624999 10.167479712079984 0.00333281783783682 0 0 0
1085 3 17.61059144625 7.117235798455985 0.0033328178378375893 0 0 0
1087 1 19.371650590875003 6.100487827248019 1.4182536937632029 0 0 0
1089 3 21.132709735500004 7.117235798455985 0.003332817837837739 0 0 0
1091 1 22.893768880125002 6.100487827248018 1.4182536937632042 0 0 0
1088 1 17.61059144625 9.15073174087202 1.4182536937632029 0 0 0
1092 1 21.132709735500004 9.15073174087202 1.4182536937632026 0 0 0
1086 3 19.371650590875003 10.167479712079984 0.003332817837836749 0 0 0
1090 3 22.893768880125002 10.167479712079986 0.003332817837835428 0 0 0
1093 3 24.65482802475 7.117235798455985 0.003332817837837737 0 0 0
1095 1 26.415887169375 6.100487827248019 1.4182536937632029 0 0 0
1097 3 28.176946314000002 7.117235798455985 0.0033328178378375897 0 0 0
1096 1 24.65482802475 9.15073174087202 1.4182536937632026 0 0 0
1100 1 28.176946314000002 9.15073174087202 1.4182536937632029 0 0 0
1094 3 26.415887169375 10.167479712079984 0.0033328178378367462 0 0 0
1099 1 29.938005458625003 6.10048782724802 1.4182536937632029 0 0 0
1103 1 33.460123747874995 6.10048782724802 1.4182536937632029 0 0 0
1101 3 31.69906460325 7.117235798455986 0.003332817837836271 0 0 0
1104 1 31.69906460325 9.15073174087202 1.4182536937632042 0 0 0
1098 3 29.938005458625003 10.167479712079984 0.0033328178378368954 0 0 0
1102 3 33.460123747874995 10.167479712079984 0.003332817837836895 0 0 0
1105 3 35.2211828925 7.117235798455985 0.0033328178378375893 0 0 0
1107 1 36.982242037125 6.100487827248019 1.4182536937632029 0 0 0
1109 3 38.743301181750006 7.117235798455985 0.003332817837837739 0 0 0
1111 1 40.504360326375 6.100487827248018 1.4182536937632042 0 0 0
1108 1 35.2211828925 9.15073174087202 1.4182536937632029 0 0 0
1112 1 38.743301181750006 9.15073174087202 1.4182536937632026 0 0 0
1106 3 36.982242037125 10.167479712079984 0.0033328178378367475 0 0 0
1110 3 40.504360326375 10.167479712079986 0.0033328178378354283 0 0 0
1113 3 42.265419470999994 7.117235798455985 0.003332817837837737 0 0 0
1115 1 44.026478615625 6.100487827248019 1.4182536937632029 0 0 0
1117 3 45.78753776025 7.117235798455985 0.0033328178378375906 0 0 0
1116 1 42.265419470999994 9.15073174087202 1.4182536937632026 0 0 0
1120 1 45.78753776025 9.15073174087202 1.4182536937632029 0 0 0
1114 3 44.026478615625 10.167479712079984 0.0033328178378367467 0 0 0
1119 1 47.548596904875005 6.100487827248019 1.4182536937632029 0 0 0
1009 3 49.3096560495 7.117235798455985 0.0033328178378369713 -1 0 0
1011 1 51.070715194125 6.10048782724802 1.4182536937632029 -1 0 0
1012 1 49.3096560495 9.15073174087202 1.4182536937632035 -1 0 0
1118 3 47.548596904875005 10.167479712079984 0.003332817837836821 0 0 0
1010 3 51.070715194125 10.167479712079984 0.0033328178378369006 -1 0 0
1013 3 52.83177433875 7.117235798455985 0.0033328178378377437 -1 0 0
1015 1 54.592833483375 6.100487827248019 1.4182536937632035 -1 0 0
1017 3 56.353892628 7.117235798455985 0.003332817837837044 -1 0 0
1016 1 52.83177433875 9.15073174087202 1.4182536937632026 -1 0 0
1020 1 56.353892628 9.15073174087202 1.4182536937632033 -1 0 0
1014 3 54.592833483375 10.167479712079984 0.003332817837836202 -1 0 0
1019 1 58.114951772625 6.10048782724802 1.4182536937632029 -1 0 0
1021 3 59.87601091725 7.117235798455985 0.00333281783783767 -1 0 0
1023 1 61.637070061875 6.10048782724802 1.4182536937632029 -1 0 0
1025 3 63.3981292065 7.117235798455985 0.0033328178378369704 -1 0 0
1024 1 59.87601091725 9.15073174087202 1.4182536937632029 -1 0 0
1028 1 63.3981292065 9.15073174087202 1.4182536937632035 -1 0 0
1018 3 58.114951772625 10.167479712079984 0.003332817837836902 -1 0 0
1022 3 61.637070061875 10.167479712079984 0.0033328178378369006 -1 0 0
1027 1 65.159188351125 6.100487827248019 1.4182536937632029 -1 0 0
1029 3 66.92024749575 7.117235798455985 0.003332817837837738 -1 0 0
1031 1 68.681306640375 6.100487827248018 1.4182536937632042 -1 0 0
1032 1 66.92024749575 9.15073174087202 1.4182536937632026 -1 0 0
1026 3 65.159188351125 10.167479712079984 0.0033328178378368204 -1 0 0
1030 3 68.681306640375 10.167479712079986 0.0033328178378354274 -1 0 0
1033 3 70.44236578499999 7.117235798455985 0.003332817837837737 -1 0 0
1035 1 72.203424929625 6.100487827248019 1.4182536937632029 -1 0 0
1037 3 73.96448407425 7.117235798455985 0.0033328178378375897 -1 0 0
1036 1 70.44236578499999 9.15073174087202 1.4182536937632026 -1 0 0
1040 1 73.96448407425 9.15073174087202 1.4182536937632029 -1 0 0
1034 3 72.203424929625 10.167479712079984 0.0033328178378367467 -1 0 0
1039 1 75.725543218875 6.10048782724802 1.4182536937632029 -1 0 0
1041 3 77.4866023635 7.117235798455986 0.0033328178378362705 -1 0 0
1043 1 79.24766150812499 6.100487827248019 1.4182536937632029 -1 0 0
1045 3 81.00872065275 7.117235798455984 0.0033328178378389086 -1 0 0
1044 1 77.4866023635 9.15073174087202 1.4182536937632042 -1 0 0
1048 1 81.00872065275 9.150731740872022 1.4182536937632015 -1 0 0
1038 3 75.725543218875 10.167479712079984 0.003332817837836895 -1 0 0
1042 3 79.24766150812499 10.167479712079984 0.003332817837836747 -1 0 0
1047 1 82.76977979737501 6.100487827248019 1.4182536937632029 -1 0 0
1049 3 84.530838942 7.117235798455986 0.003332817837836419 -1 0 0
1051 1 86.291898086625 6.100487827248018 1.4182536937632042 -1 0 0
1052 1 84.530838942 9.15073174087202 1.418253693763204 -1 0 0
1046 3 82.76977979737501 10.167479712079984 0.003332817837836747 -1 0 0
1050 3 86.291898086625 10.167479712079986 0.0033328178378355757 -1 0 0
1053 3 88.05295723124999 7.117235798455985 0.0033328178378375897 -1 0 0
1055 1 89.814016375875 6.10048782724802 1.4182536937632015 -1 0 0
1057 3 91.57507552050001 7.117235798455985 0.0033328178378375897 -1 0 0
1056 1 88.05295723124999 9.15073174087202 1.4182536937632029 -1 0 0
1060 1 91.57507552050001 9.15073174087202 1.4182536937632029 -1 0 0
1054 3 89.814016375875 10.167479712079984 0.003332817837838066 -1 0 0
1059 1 93.336134665125 6.100487827248018 1.418253693763204 -1 0 0
1061 3 95.09719380975 7.117235798455986 0.003332817837836419 -1 0 0
1063 1 96.85825295437499 6.100487827248019 1.4182536937632029 -1 0 0
1064 1 95.09719380975 9.15073174087202 1.418253693763204 -1 0 0
1058 3 93.336134665125 10.167479712079986 0.0033328178378355757 -1 0 0
1062 3 96.85825295437499 10.167479712079984 0.003332817837836821 -1 0 0
1179 1 1.7610591446250012 12.200975654496018 1.4182536937632029 0 0 0
1183 1 5.283177433875003 12.200975654496016 1.4182536937632033 0 0 0
1177 3 0 13.217723625703986 0.0033328178378392364 0 0 0
1181 3 3.5221182892500025 13.217723625703986 0.0033328178378386735 0 0 0
1180 1 0 15.251219568120023 1.418253693763203 0 0 0
1178 3 1.7610591446250012 16.26796753932798 0.0033328178378359396 0 0 0
1184 1 3.5221182892500025 15.251219568120021 1.4182536937632038 0 0 0
1182 3 5.283177433875003 16.267967539327984 0.0033328178378354595 0 0 0
1187 1 8.805295723124999 12.200975654496018 1.4182536937632029 0 0 0
1185 3 7.044236578499999 13.217723625703986 0.0033328178378380464 0 0 0
1189 3 10.56635486775 13.217723625703986 0.0033328178378386007 0 0 0
1188 1 7.044236578499999 15.251219568120021 1.4182536937632044 0 0 0
1186 3 8.805295723124999 16.26796753932798 0.003332817837836088 0 0 0
1192 1 10.56635486775 15.251219568120021 1.4182536937632038 0 0 0
1191 1 12.327414012375002 12.200975654496018 1.4182536937632029 0 0 0
1195 1 15.849532301624999 12.200975654496018 1.4182536937632029 0 0 0
1193 3 14.088473157000001 13.217723625703986 0.003332817837837974 0 0 0
1190 3 12.327414012375002 16.26796753932798 0.003332817837836089 0 0 0
1196 1 14.088473157000001 15.251219568120021 1.4182536937632044 0 0 0
1194 3 15.849532301624999 16.26796753932798 0.003332817837836099 0 0 0
1199 1 19.371650590875003 12.200975654496018 1.4182536937632029 0 0 0
1203 1 22.893768880125002 12.200975654496016 1.4182536937632042 0 0 0
1197 3 17.61059144625 13.217723625703986 0.003332817837838612 0 0 0
1201 3 21.132709735500004 13.217723625703986 0.0033328178378387602 0 0 0
1200 1 17.61059144625 15.251219568120021 1.4182536937632038 0 0 0
1198 3 19.371650590875003 16.26796753932798 0.003332817837836028 0 0 0
1204 1 21.132709735500004 15.251219568120021 1.4182536937632035 0 0 0
1202 3 22.893768880125002 16.267967539327984 0.0033328178378347574 0 0 0
1207 1 26.415887169375 12.200975654496018 1.4182536937632029 0 0 0
1205 3 24.65482802475 13.217723625703986 0.0033328178378387585 0 0 0
1209 3 28.176946314000002 13.217723625703986 0.003332817837838611 0 0 0
1208 1 24.65482802475 15.251219568120021 1.4182536937632035 0 0 0
1206 3 26.415887169375 16.26796753932798 0.003332817837836026 0 0 0
1212 1 28.176946314000002 15.251219568120021 1.4182536937632038 0 0 0
1211 1 29.938005458625003 12.200975654496018 1.4182536937632026 0 0 0
1215 1 33.460123747874995 12.200975654496018 1.4182536937632026 0 0 0
1213 3 31.69906460325 13.217723625703988 0.003332817837837349 0 0 0
1210 3 29.938005458625003 16.26796753932798 0.0033328178378361738 0 0 0
1216 1 31.69906460325 15.251219568120021 1.418253693763205 0 0 0
1214 3 33.460123747874995 16.26796753932798 0.0033328178378361746 0 0 0
1219 1 36.982242037125 12.200975654496018 1.4182536937632029 0 0 0
1223 1 40.504360326375 12.200975654496016 1.4182536937632042 0 0 0
1217 3 35.2211828925 13.217723625703986 0.003332817837838612 0 0 0
1221 3 38.743301181750006 13.217723625703986 0.0033328178378387602 0 0 0
1220 1 35.2211828925 15.251219568120021 1.4182536937632038 0 0 0
1218 3 36.982242037125 16.26796753932798 0.003332817837836027 0 0 0
1224 1 38.743301181750006 15.251219568120021 1.4182536937632035 0 0 0
1222 3 40.504360326375 16.267967539327984 0.0033328178378347574 0 0 0
1227 1 44.026478615625 12.200975654496018 1.4182536937632029 0 0 0
1225 3 42.265419470999994 13.217723625703986 0.0033328178378387594 0 0 0
1229 3 45.78753776025 13.217723625703986 0.003332817837838613 0 0 0
1228 1 42.265419470999994 15.251219568120021 1.4182536937632035 0 0 0
1226 3 44.026478615625 16.26796753932798 0.0033328178378360263 0 0 0
1232 1 45.78753776025 15.251219568120021 1.4182536937632038 0 0 0
1231 1 47.548596904875005 12.200975654496018 1.4182536937632026 0 0 0
1123 1 51.070715194125 12.200975654496018 1.4182536937632029 -1 0 0
1121 3 49.3096560495 13.217723625703986 0.003332817837837975 -1 0 0
1230 3 47.548596904875005 16.26796753932798 0.0033328178378361 0 0 0
1124 1 49.3096560495 15.251219568120021 1.4182536937632044 -1 0 0
1122 3 51.070715194125 16.26796753932798 0.003332817837836088 -1 0 0
1127 1 54.592833483375 12.200975654496016 1.4182536937632033 -1 0 0
1125 3 52.83177433875 13.217723625703986 0.0033328178378386735 -1 0 0
1129 3 56.353892628 13.217723625703986 0.0033328178378380473 -1 0 0
1128 1 52.83177433875 15.251219568120021 1.4182536937632038 -1 0 0
1126 3 54.592833483375 16.267967539327984 0.00333281783783546 -1 0 0
1132 1 56.353892628 15.251219568120021 1.4182536937632042 -1 0 0
1131 1 58.114951772625 12.200975654496018 1.4182536937632029 -1 0 0
1135 1 61.637070061875 12.200975654496018 1.4182536937632029 -1 0 0
1133 3 59.87601091725 13.217723625703986 0.003332817837838599 -1 0 0
1137 3 63.3981292065 13.217723625703986 0.003332817837837973 -1 0 0
1130 3 58.114951772625 16.26796753932798 0.0033328178378360888 -1 0 0
1136 1 59.87601091725 15.251219568120021 1.4182536937632038 -1 0 0
1134 3 61.637070061875 16.26796753932798 0.003332817837836088 -1 0 0
1140 1 63.3981292065 15.251219568120021 1.4182536937632044 -1 0 0
1139 1 65.159188351125 12.200975654496018 1.4182536937632029 -1 0 0
1143 1 68.681306640375 12.200975654496016 1.4182536937632042 -1 0 0
1141 3 66.92024749575 13.217723625703986 0.003332817837838759 -1 0 0
1144 1 66.92024749575 15.251219568120021 1.4182536937632035 -1 0 0
1138 3 65.159188351125 16.26796753932798 0.0033328178378361013 -1 0 0
1142 3 68.681306640375 16.267967539327984 0.0033328178378347565 -1 0 0
1147 1 72.203424929625 12.200975654496018 1.4182536937632029 -1 0 0
1145 3 70.44236578499999 13.217723625703986 0.0033328178378387585 -1 0 0
1149 3 73.96448407425 13.217723625703986 0.003332817837838611 -1 0 0
1148 1 70.44236578499999 15.251219568120021 1.4182536937632035 -1 0 0
1146 3 72.203424929625 16.26796753932798 0.0033328178378360263 -1 0 0
1152 1 73.96448407425 15.251219568120021 1.4182536937632038 -1 0 0
1151 1 75.725543218875 12.200975654496018 1.4182536937632026 -1 0 0
1155 1 79.24766150812499 12.200975654496018 1.4182536937632029 -1 0 0
1153 3 77.4866023635 13.217723625703988 0.0033328178378373473 -1 0 0
1157 3 81.00872065275 13.217723625703986 0.003332817837839875 -1 0 0
1150 3 75.725543218875 16.26796753932798 0.003332817837836174 -1 0 0
1156 1 77.4866023635 15.251219568120021 1.418253693763205 -1 0 0
1154 3 79.24766150812499 16.26796753932798 0.0033328178378360263 -1 0 0
1160 1 81.00872065275 15.251219568120023 1.4182536937632024 -1 0 0
1159 1 82.76977979737501 12.200975654496018 1.4182536937632029 -1 0 0
1163 1 86.291898086625 12.200975654496016 1.418253693763204 -1 0 0
1161 3 84.530838942 13.217723625703988 0.0033328178378374956 -1 0 0
1158 3 82.76977979737501 16.26796753932798 0.0033328178378360263 -1 0 0
1164 1 84.530838942 15.251219568120021 1.4182536937632049 -1 0 0
1162 3 86.291898086625 16.267967539327984 0.0033328178378349044 -1 0 0
1167 1 89.814016375875 12.200975654496018 1.4182536937632015 -1 0 0
1165 3 88.05295723124999 13.217723625703986 0.0033328178378386115 -1 0 0
1169 3 91.57507552050001 13.217723625703986 0.0033328178378386115 -1 0 0
1168 1 88.05295723124999 15.251219568120021 1.4182536937632038 -1 0 0
1166 3 89.814016375875 16.26796753932798 0.0033328178378372957 -1 0 0
1172 1 91.57507552050001 15.251219568120021 1.4182536937632038 -1 0 0
1171 1 93.336134665125 12.200975654496016 1.418253693763204 -1 0 0
1175 1 96.85825295437499 12.200975654496018 1.4182536937632029 -1 0 0
1173 3 95.09719380975 13.217723625703988 0.003332817837837496 -1 0 0
1170 3 93.336134665125 16.267967539327984 0.0033328178378349053 -1 0 0
1176 1 95.09719380975 15.251219568120021 1.4182536937632049 -1 0 0
1174 3 96.85825295437499 16.26796753932798 0.003332817837836101 -1 0 0
1291 1 1.7610591446250012 18.301463481744012 1.4182536937632026 0 0 0
1295 1 5.283177433875003 18.301463481744012 1.418253693763203 0 0 0
1289 3 0 19.31821145295198 0.0033328178378382194 0 0 0
1293 3 3.5221182892500025 19.31821145295198 0.0033328178378376552 0 0 0
1292 1 0 21.351707395368013 1.4182536937632022 0 0 0
1290 3 1.7610591446250012 22.368455366575983 0.0033328178378375065 0 0 0
1296 1 3.5221182892500025 21.351707395368013 1.4182536937632029 0 0 0
1294 3 5.283177433875003 22.368455366575983 0.003332817837837029 0 0 0
1299 1 8.805295723124999 18.301463481744012 1.4182536937632024 0 0 0
1297 3 7.044236578499999 19.31821145295198 0.0033328178378370286 0 0 0
1301 3 10.56635486775 19.31821145295198 0.0033328178378375832 0 0 0
1300 1 7.044236578499999 21.351707395368013 1.4182536937632035 0 0 0
1298 3 8.805295723124999 22.368455366575983 0.0033328178378376544 0 0 0
1304 1 10.56635486775 21.351707395368013 1.4182536937632029 0 0 0
1303 1 12.327414012375002 18.301463481744012 1.4182536937632024 0 0 0
1307 1 15.849532301624999 18.301463481744012 1.4182536937632026 0 0 0
1305 3 14.088473157000001 19.31821145295198 0.0033328178378369553 0 0 0
1302 3 12.327414012375002 22.368455366575983 0.003332817837837655 0 0 0
1308 1 14.088473157000001 21.351707395368013 1.4182536937632035 0 0 0
1306 3 15.849532301624999 22.368455366575983 0.0033328178378376665 0 0 0
1311 1 19.371650590875003 18.301463481744012 1.4182536937632026 0 0 0
1315 1 22.893768880125002 18.301463481744012 1.4182536937632038 0 0 0
1309 3 17.61059144625 19.31821145295198 0.0033328178378375936 0 0 0
1313 3 21.132709735500004 19.31821145295198 0.0033328178378377433 0 0 0
1312 1 17.61059144625 21.351707395368013 1.4182536937632029 0 0 0
1310 3 19.371650590875003 22.368455366575983 0.003332817837837596 0 0 0
1316 1 21.132709735500004 21.351707395368013 1.4182536937632029 0 0 0
1314 3 22.893768880125002 22.368455366575983 0.0033328178378363303 0 0 0
1319 1 26.415887169375 18.301463481744012 1.4182536937632026 0 0 0
1317 3 24.65482802475 19.31821145295198 0.003332817837837741 0 0 0
1321 3 28.176946314000002 19.31821145295198 0.0033328178378375936 0 0 0
1320 1 24.65482802475 21.351707395368013 1.4182536937632029 0 0 0
1318 3 26.415887169375 22.368455366575983 0.0033328178378375923 0 0 0
1324 1 28.176946314000002 21.351707395368013 1.4182536937632029 0 0 0
1323 1 29.938005458625003 18.301463481744012 1.4182536937632024 0 0 0
1327 1 33.460123747874995 18.301463481744012 1.4182536937632024 0 0 0
1325 3 31.69906460325 19.31821145295198 0.00333281783783633 0 0 0
1322 3 29.938005458625003 22.368455366575983 0.0033328178378377407 0 0 0
1328 1 31.69906460325 21.351707395368013 1.4182536937632042 0 0 0
1326 3 33.460123747874995 22.368455366575983 0.003332817837837741 0 0 0
1331 1 36.982242037125 18.301463481744012 1.4182536937632026 0 0 0
1335 1 40.504360326375 18.301463481744012 1.4182536937632038 0 0 0
1329 3 35.2211828925 19.31821145295198 0.0033328178378375936 0 0 0
1333 3 38.743301181750006 19.31821145295198 0.003332817837837743 0 0 0
1332 1 35.2211828925 21.351707395368013 1.4182536937632029 0 0 0
1330 3 36.982242037125 22.368455366575983 0.0033328178378375945 0 0 0
1336 1 38.743301181750006 21.351707395368013 1.4182536937632029 0 0 0
1334 3 40.504360326375 22.368455366575983 0.0033328178378363308 0 0 0
1339 1 44.026478615625 18.301463481744012 1.4182536937632026 0 0 0
1337 3 42.265419470999994 19.31821145295198 0.003332817837837741 0 0 0
1341 3 45.78753776025 19.31821145295198 0.0033328178378375945 0 0 0
1340 1 42.265419470999994 21.351707395368013 1.4182536937632029 0 0 0
1338 3 44.026478615625 22.368455366575983 0.0033328178378375928 0 0 0
1344 1 45.78753776025 21.351707395368013 1.4182536937632029 0 0 0
1343 1 47.548596904875005 18.301463481744012 1.4182536937632024 0 0 0
1235 1 51.070715194125 18.301463481744012 1.4182536937632024 -1 0 0
1233 3 49.3096560495 19.31821145295198 0.0033328178378369566 -1 0 0
1342 3 47.548596904875005 22.368455366575983 0.0033328178378376674 0 0 0
1236 1 49.3096560495 21.351707395368013 1.4182536937632035 -1 0 0
1234 3 51.070715194125 22.368455366575983 0.0033328178378376544 -1 0 0
1239 1 54.592833483375 18.301463481744012 1.418253693763203 -1 0 0
1237 3 52.83177433875 19.31821145295198 0.0033328178378376552 -1 0 0
1241 3 56.353892628 19.31821145295198 0.003332817837837029 -1 0 0
1240 1 52.83177433875 21.351707395368013 1.4182536937632029 -1 0 0
1238 3 54.592833483375 22.368455366575983 0.0033328178378370294 -1 0 0
1244 1 56.353892628 21.351707395368013 1.4182536937632035 -1 0 0
1243 1 58.114951772625 18.301463481744012 1.4182536937632024 -1 0 0
1247 1 61.637070061875 18.301463481744012 1.4182536937632024 -1 0 0
1245 3 59.87601091725 19.31821145295198 0.0033328178378375815 -1 0 0
1249 3 63.3981292065 19.31821145295198 0.0033328178378369557 -1 0 0
1242 3 58.114951772625 22.368455366575983 0.0033328178378376552 -1 0 0
1248 1 59.87601091725 21.351707395368013 1.4182536937632029 -1 0 0
1246 3 61.637070061875 22.368455366575983 0.0033328178378376544 -1 0 0
1252 1 63.3981292065 21.351707395368013 1.4182536937632035 -1 0 0
1251 1 65.159188351125 18.301463481744012 1.4182536937632024 -1 0 0
1255 1 68.681306640375 18.301463481744012 1.4182536937632038 -1 0 0
1253 3 66.92024749575 19.31821145295198 0.003332817837837742 -1 0 0
1256 1 66.92024749575 21.351707395368013 1.4182536937632029 -1 0 0
1250 3 65.159188351125 22.368455366575983 0.003332817837837667 -1 0 0
1254 3 68.681306640375 22.368455366575983 0.00333281783783633 -1 0 0
1259 1 72.203424929625 18.301463481744012 1.4182536937632026 -1 0 0
1257 3 70.44236578499999 19.31821145295198 0.003332817837837741 -1 0 0
1261 3 73.96448407425 19.31821145295198 0.0033328178378375936 -1 0 0
1260 1 70.44236578499999 21.351707395368013 1.4182536937632029 -1 0 0
1258 3 72.203424929625 22.368455366575983 0.0033328178378375928 -1 0 0
1264 1 73.96448407425 21.351707395368013 1.4182536937632029 -1 0 0
1263 1 75.725543218875 18.301463481744012 1.4182536937632024 -1 0 0
1267 1 79.24766150812499 18.301463481744012 1.4182536937632026 -1 0 0
1265 3 77.4866023635 19.31821145295198 0.0033328178378363295 -1 0 0
1269 3 81.00872065275 19.31821145295198 0.003332817837838857 -1 0 0
1262 3 75.725543218875 22.368455366575983 0.0033328178378377407 -1 0 0
1268 1 77.4866023635 21.351707395368013 1.4182536937632042 -1 0 0
1266 3 79.24766150812499 22.368455366575983 0.003332817837837594 -1 0 0
1272 1 81.00872065275 21.351707395368017 1.4182536937632018 -1 0 0
1271 1 82.76977979737501 18.301463481744012 1.4182536937632026 -1 0 0
1275 1 86.291898086625 18.301463481744012 1.4182536937632038 -1 0 0
1273 3 84.530838942 19.31821145295198 0.0033328178378364774 -1 0 0