LAMMPS data file via write_data, version 29 Aug 2024, timestep = 0, units = metal

1560 atoms
1 atom types

0 100.697088009128 xlo xhi
0 100.62258034962 ylo yhi
0 15.2 zlo zhi

Masses

1 28.085

Atoms # atomic

784 1 0 1.1180286705510056 0 0 0 0
782 1 1.9364824617140002 0 0.4587979830369999 0 0 0
788 1 3.8729649234280004 1.1180286705510056 0 0 0 0
786 1 5.8094473851420005 0 0.4587979830369999 0 0 0
792 1 7.745929846856001 1.1180286705510056 0 0 0 0
790 1 9.682412308570001 0 0.4587979830369999 0 0 0
796 1 11.618894770284001 1.1180286705510056 0 0 0 0
794 1 13.555377231998001 0 0.4587979830369999 0 0 0
800 1 15.491859693712009 1.1180286705510056 0 0 0 0
798 1 17.428342155426 0 0.4587979830369999 0 0 0
804 1 19.36482461714001 1.1180286705510056 0 0 0 0
802 1 21.301307078854002 0 0.4587979830369999 0 0 0
808 1 23.23778954056801 1.1180286705510056 0 0 0 0
806 1 25.174272002282002 0 0.4587979830369999 0 0 0
812 1 27.110754463995995 1.1180286705510056 0 0 0 0
810 1 29.047236925710003 0 0.4587979830369999 0 0 0
816 1 30.983719387423996 1.1180286705510056 0 0 0 0
814 1 32.920201849138 0 0.4587979830369999 0 0 0
820 1 34.856684310851996 1.1180286705510056 0 0 0 0
818 1 36.793166772566 0 0.4587979830369999 0 0 0
824 1 38.72964923428 1.1180286705510056 0 0 0 0
822 1 40.666131695994004 0 0.4587979830369999 0 0 0
828 1 42.602614157708 1.1180286705510056 0 0 0 0
826 1 44.539096619422004 0 0.4587979830369999 0 0 0
832 1 46.475579081136 1.1180286705510056 0 0 0 0
830 1 48.412061542850005 0 0.4587979830369999 0 0 0
732 1 50.348544004564 1.1180286705510056 0 -1 0 0
730 1 52.285026466278 0 0.4587979830369999 -1 0 0
736 1 54.221508927992 1.1180286705510056 0 -1 0 0
734 1 56.157991389706 0 0.4587979830369999 -1 0 0
740 1 58.09447385142 1.1180286705510056 0 -1 0 0
738 1 60.030956313134 0 0.4587979830369999 -1 0 0
744 1 61.967438774848 1.1180286705510056 0 -1 0 0
742 1 63.903921236562 0 0.4587979830369999 -1 0 0
748 1 65.84040369827599 1.1180286705510056 0 -1 0 0
746 1 67.77688615999 0 0.4587979830369999 -1 0 0
752 1 69.71336862170399 1.1180286705510056 0 -1 0 0
750 1 71.649851083418 0 0.4587979830369999 -1 0 0
756 1 73.58633354513199 1.1180286705510056 0 -1 0 0
754 1 75.522816006846 0 0.4587979830369999 -1 0 0
760 1 77.45929846856 1.1180286705510056 0 -1 0 0
758 1 79.395780930274 0 0.4587979830369999 -1 0 0
764 1 81.332263391988 1.1180286705510056 0 -1 0 0
762 1 83.268745853702 0 0.4587979830369999 -1 0 0
768 1 85.20522831541601 1.1180286705510056 0 -1 0 0
766 1 87.14171077713 0 0.4587979830369999 -1 0 0
772 1 89.078193238844 1.1180286705510056 0 -1 0 0
770 1 91.014675700558 0 0.4587979830369999 -1 0 0
776 1 92.951158162272 1.1180286705510056 0 -1 0 0
774 1 94.88764062398599 0 0.4587979830369999 -1 0 0
780 1 96.8241230857 1.1180286705510056 0 -1 0 0
778 1 98.760605547414 0 0.4587979830369999 -1 0 0
885 1 0 3.3540860116540046 0.4587979830369999 0 0 0
889 1 3.8729649234280004 3.3540860116540046 0.4587979830369999 0 0 0
893 1 7.745929846856001 3.3540860116540046 0.4587979830369999 0 0 0
897 1 11.618894770284001 3.3540860116540046 0.4587979830369999 0 0 0
901 1 15.491859693712009 3.3540860116540046 0.4587979830369999 0 0 0
905 1 19.36482461714001 3.3540860116540046 0.4587979830369999 0 0 0
909 1 23.23778954056801 3.3540860116540046 0.4587979830369999 0 0 0
913 1 27.110754463995995 3.3540860116540046 0.4587979830369999 0 0 0
917 1 30.983719387423996 3.3540860116540046 0.4587979830369999 0 0 0
921 1 34.856684310851996 3.3540860116540046 0.4587979830369999 0 0 0
925 1 38.72964923428 3.3540860116540046 0.4587979830369999 0 0 0
929 1 42.602614157708 3.3540860116540046 0.4587979830369999 0 0 0
933 1 46.475579081136 3.3540860116540046 0.4587979830369999 0 0 0
833 1 50.348544004564 3.3540860116540046 0.4587979830369999 -1 0 0
837 1 54.221508927992 3.3540860116540046 0.4587979830369999 -1 0 0
841 1 58.09447385142 3.3540860116540046 0.4587979830369999 -1 0 0
845 1 61.967438774848 3.3540860116540046 0.4587979830369999 -1 0 0
849 1 65.84040369827599 3.3540860116540046 0.4587979830369999 -1 0 0
853 1 69.71336862170399 3.3540860116540046 0.4587979830369999 -1 0 0
857 1 73.58633354513199 3.3540860116540046 0.4587979830369999 -1 0 0
861 1 77.45929846856 3.3540860116540046 0.4587979830369999 -1 0 0
865 1 81.332263391988 3.3540860116540046 0.4587979830369999 -1 0 0
869 1 85.20522831541601 3.3540860116540046 0.4587979830369999 -1 0 0
873 1 89.078193238844 3.3540860116540046 0.4587979830369999 -1 0 0
877 1 92.951158162272 3.3540860116540046 0.4587979830369999 -1 0 0
881 1 96.8241230857 3.3540860116540046 0.4587979830369999 -1 0 0
887 1 1.9364824617140002 4.472114682205003 0 0 0 0
891 1 5.8094473851420005 4.472114682205003 0 0 0 0
895 1 9.682412308570001 4.472114682205003 0 0 0 0
899 1 13.555377231998001 4.472114682205003 0 0 0 0
903 1 17.428342155426 4.472114682205003 0 0 0 0
907 1 21.301307078854002 4.472114682205003 0 0 0 0
911 1 25.174272002282002 4.472114682205003 0 0 0 0
915 1 29.047236925710003 4.472114682205003 0 0 0 0
919 1 32.920201849138 4.472114682205003 0 0 0 0
923 1 36.793166772566 4.472114682205003 0 0 0 0
927 1 40.666131695994004 4.472114682205003 0 0 0 0
931 1 44.539096619422004 4.472114682205003 0 0 0 0
935 1 48.412061542850005 4.472114682205003 0 0 0 0
835 1 52.285026466278 4.472114682205003 0 -1 0 0
839 1 56.157991389706 4.472114682205003 0 -1 0 0
843 1 60.030956313134 4.472114682205003 0 -1 0 0
847 1 63.903921236562 4.472114682205003 0 -1 0 0
851 1 67.77688615999 4.472114682205003 0 -1 0 0
855 1 71.649851083418 4.472114682205003 0 -1 0 0
859 1 75.522816006846 4.472114682205003 0 -1 0 0
863 1 79.395780930274 4.472114682205003 0 -1 0 0
867 1 83.268745853702 4.472114682205003 0 -1 0 0
871 1 87.14171077713 4.472114682205003 0 -1 0 0
875 1 91.014675700558 4.472114682205003 0 -1 0 0
879 1 94.88764062398599 4.472114682205003 0 -1 0 0
883 1 98.760605547414 4.472114682205003 0 -1 0 0
886 1 1.9364824617140002 6.708172023308002 0.4587979830369999 0 0 0
890 1 5.8094473851420005 6.708172023308002 0.4587979830369999 0 0 0
894 1 9.682412308570001 6.708172023308002 0.4587979830369999 0 0 0
898 1 13.555377231998001 6.708172023308002 0.4587979830369999 0 0 0
902 1 17.428342155426 6.708172023308002 0.4587979830369999 0 0 0
906 1 21.301307078854002 6.708172023308002 0.4587979830369999 0 0 0
910 1 25.174272002282002 6.708172023308002 0.4587979830369999 0 0 0
914 1 29.047236925710003 6.708172023308002 0.4587979830369999 0 0 0
918 1 32.920201849138 6.708172023308002 0.4587979830369999 0 0 0
922 1 36.793166772566 6.708172023308002 0.4587979830369999 0 0 0
926 1 40.666131695994004 6.708172023308002 0.4587979830369999 0 0 0
930 1 44.539096619422004 6.708172023308002 0.4587979830369999 0 0 0
934 1 48.412061542850005 6.708172023308002 0.4587979830369999 0 0 0
834 1 52.285026466278 6.708172023308002 0.4587979830369999 -1 0 0
838 1 56.157991389706 6.708172023308002 0.4587979830369999 -1 0 0
842 1 60.030956313134 6.708172023308002 0.4587979830369999 -1 0 0
846 1 63.903921236562 6.708172023308002 0.4587979830369999 -1 0 0
850 1 67.77688615999 6.708172023308002 0.4587979830369999 -1 0 0
854 1 71.649851083418 6.708172023308002 0.4587979830369999 -1 0 0
858 1 75.522816006846 6.708172023308002 0.4587979830369999 -1 0 0
862 1 79.395780930274 6.708172023308002 0.4587979830369999 -1 0 0
866 1 83.268745853702 6.708172023308002 0.4587979830369999 -1 0 0
870 1 87.14171077713 6.708172023308002 0.4587979830369999 -1 0 0
874 1 91.014675700558 6.708172023308002 0.4587979830369999 -1 0 0
878 1 94.88764062398599 6.708172023308002 0.4587979830369999 -1 0 0
882 1 98.760605547414 6.708172023308002 0.4587979830369999 -1 0 0
888 1 0 7.8262006938590005 0 0 0 0
892 1 3.8729649234280004 7.8262006938590005 0 0 0 0
896 1 7.745929846856001 7.8262006938590005 0 0 0 0
900 1 11.618894770284001 7.8262006938590005 0 0 0 0
904 1 15.491859693712009 7.8262006938590005 0 0 0 0
908 1 19.36482461714001 7.8262006938590005 0 0 0 0
912 1 23.23778954056801 7.8262006938590005 0 0 0 0
916 1 27.110754463995995 7.8262006938590005 0 0 0 0
920 1 30.983719387423996 7.8262006938590005 0 0 0 0
924 1 34.856684310851996 7.8262006938590005 0 0 0 0
928 1 38.72964923428 7.8262006938590005 0 0 0 0
932 1 42.602614157708 7.8262006938590005 0 0 0 0
936 1 46.475579081136 7.8262006938590005 0 0 0 0
836 1 50.348544004564 7.8262006938590005 0 -1 0 0
840 1 54.221508927992 7.8262006938590005 0 -1 0 0
844 1 58.09447385142 7.8262006938590005 0 -1 0 0
848 1 61.967438774848 7.8262006938590005 0 -1 0 0
852 1 65.84040369827599 7.8262006938590005 0 -1 0 0
856 1 69.71336862170399 7.8262006938590005 0 -1 0 0
860 1 73.58633354513199 7.8262006938590005 0 -1 0 0
864 1 77.45929846856 7.8262006938590005 0 -1 0 0
868 1 81.332263391988 7.8262006938590005 0 -1 0 0
872 1 85.20522831541601 7.8262006938590005 0 -1 0 0
876 1 89.078193238844 7.8262006938590005 0 -1 0 0
880 1 92.951158162272 7.8262006938590005 0 -1 0 0
884 1 96.8241230857 7.8262006938590005 0 -1 0 0
989 1 0 10.062258034962 0.4587979830369999 0 0 0
993 1 3.8729649234280004 10.062258034962 0.4587979830369999 0 0 0
997 1 7.745929846856001 10.062258034962 0.4587979830369999 0 0 0
1001 1 11.618894770284001 10.062258034962 0.4587979830369999 0 0 0
1005 1 15.491859693712009 10.062258034962 0.4587979830369999 0 0 0
1009 1 19.36482461714001 10.062258034962 0.4587979830369999 0 0 0
1013 1 23.23778954056801 10.062258034962 0.4587979830369999 0 0 0
1017 1 27.110754463995995 10.062258034962 0.4587979830369999 0 0 0
1021 1 30.983719387423996 10.062258034962 0.4587979830369999 0 0 0
1025 1 34.856684310851996 10.062258034962 0.4587979830369999 0 0 0
1029 1 38.72964923428 10.062258034962 0.4587979830369999 0 0 0
1033 1 42.602614157708 10.062258034962 0.4587979830369999 0 0 0
1037 1 46.475579081136 10.062258034962 0.4587979830369999 0 0 0
937 1 50.348544004564 10.062258034962 0.4587979830369999 -1 0 0
941 1 54.221508927992 10.062258034962 0.4587979830369999 -1 0 0
945 1 58.09447385142 10.062258034962 0.4587979830369999 -1 0 0
949 1 61.967438774848 10.062258034962 0.4587979830369999 -1 0 0
953 1 65.84040369827599 10.062258034962 0.4587979830369999 -1 0 0
957 1 69.71336862170399 10.062258034962 0.4587979830369999 -1 0 0
961 1 73.58633354513199 10.062258034962 0.4587979830369999 -1 0 0
965 1 77.45929846856 10.062258034962 0.4587979830369999 -1 0 0
969 1 81.332263391988 10.062258034962 0.4587979830369999 -1 0 0
973 1 85.20522831541601 10.062258034962 0.4587979830369999 -1 0 0
977 1 89.078193238844 10.062258034962 0.4587979830369999 -1 0 0
981 1 92.951158162272 10.062258034962 0.4587979830369999 -1 0 0
985 1 96.8241230857 10.062258034962 0.4587979830369999 -1 0 0
991 1 1.9364824617140002 11.180286705513005 0 0 0 0
995 1 5.8094473851420005 11.180286705513005 0 0 0 0
999 1 9.682412308570001 11.180286705513005 0 0 0 0
1003 1 13.555377231998001 11.180286705513005 0 0 0 0
1007 1 17.428342155426 11.180286705513005 0 0 0 0
1011 1 21.301307078854002 11.180286705513005 0 0 0 0
1015 1 25.174272002282002 11.180286705513005 0 0 0 0
1019 1 29.047236925710003 11.180286705513005 0 0 0 0
1023 1 32.920201849138 11.180286705513005 0 0 0 0
1027 1 36.793166772566 11.180286705513005 0 0 0 0
1031 1 40.666131695994004 11.180286705513005 0 0 0 0
1035 1 44.539096619422004 11.180286705513005 0 0 0 0
1039 1 48.412061542850005 11.180286705513005 0 0 0 0
939 1 52.285026466278 11.180286705513005 0 -1 0 0
943 1 56.157991389706 11.180286705513005 0 -1 0 0
947 1 60.030956313134 11.180286705513005 0 -1 0 0
951 1 63.903921236562 11.180286705513005 0 -1 0 0
955 1 67.77688615999 11.180286705513005 0 -1 0 0
959 1 71.649851083418 11.180286705513005 0 -1 0 0
963 1 75.522816006846 11.180286705513005 0 -1 0 0
967 1 79.395780930274 11.180286705513005 0 -1 0 0
971 1 83.268745853702 11.180286705513005 0 -1 0 0
975 1 87.14171077713 11.180286705513005 0 -1 0 0
979 1 91.014675700558 11.180286705513005 0 -1 0 0
983 1 94.88764062398599 11.180286705513005 0 -1 0 0
987 1 98.760605547414 11.180286705513005 0 -1 0 0
990 1 1.9364824617140002 13.416344046616004 0.4587979830369999 0 0 0
994 1 5.8094473851420005 13.416344046616004 0.4587979830369999 0 0 0
998 1 9.682412308570001 13.416344046616004 0.4587979830369999 0 0 0
1002 1 13.555377231998001 13.416344046616004 0.4587979830369999 0 0 0
1006 1 17.428342155426 13.416344046616004 0.4587979830369999 0 0 0
1010 1 21.301307078854002 13.416344046616004 0.4587979830369999 0 0 0
1014 1 25.174272002282002 13.416344046616004 0.4587979830369999 0 0 0
1018 1 29.047236925710003 13.416344046616004 0.4587979830369999 0 0 0
1022 1 32.920201849138 13.416344046616004 0.4587979830369999 0 0 0
1026 1 36.793166772566 13.416344046616004 0.4587979830369999 0 0 0
1030 1 40.666131695994004 13.416344046616004 0.4587979830369999 0 0 0
1034 1 44.539096619422004 13.416344046616004 0.4587979830369999 0 0 0
1038 1 48.412061542850005 13.416344046616004 0.4587979830369999 0 0 0
938 1 52.285026466278 13.416344046616004 0.4587979830369999 -1 0 0
942 1 56.157991389706 13.416344046616004 0.4587979830369999 -1 0 0
946 1 60.030956313134 13.416344046616004 0.4587979830369999 -1 0 0
950 1 63.903921236562 13.416344046616004 0.4587979830369999 -1 0 0
954 1 67.77688615999 13.416344046616004 0.4587979830369999 -1 0 0
958 1 71.649851083418 13.416344046616004 0.4587979830369999 -1 0 0
962 1 75.522816006846 13.416344046616004 0.4587979830369999 -1 0 0
966 1 79.395780930274 13.416344046616004 0.4587979830369999 -1 0 0
970 1 83.268745853702 13.416344046616004 0.4587979830369999 -1 0 0
974 1 87.14171077713 13.416344046616004 0.4587979830369999 -1 0 0
978 1 91.014675700558 13.416344046616004 0.4587979830369999 -1 0 0
982 1 94.88764062398599 13.416344046616004 0.4587979830369999 -1 0 0
986 1 98.760605547414 13.416344046616004 0.4587979830369999 -1 0 0
992 1 0 14.534372717167003 0 0 0 0
996 1 3.8729649234280004 14.534372717167003 0 0 0 0
1000 1 7.745929846856001 14.534372717167003 0 0 0 0
1004 1 11.618894770284001 14.534372717167003 0 0 0 0
1008 1 15.491859693712009 14.534372717167003 0 0 0 0
1012 1 19.36482461714001 14.534372717167003 0 0 0 0
1016 1 23.23778954056801 14.534372717167003 0 0 0 0
1020 1 27.110754463995995 14.534372717167003 0 0 0 0
1024 1 30.983719387423996 14.534372717167003 0 0 0 0
1028 1 34.856684310851996 14.534372717167003 0 0 0 0
1032 1 38.72964923428 14.534372717167003 0 0 0 0
1036 1 42.602614157708 14.534372717167003 0 0 0 0
1040 1 46.475579081136 14.534372717167003 0 0 0 0
940 1 50.348544004564 14.534372717167003 0 -1 0 0
944 1 54.221508927992 14.534372717167003 0 -1 0 0
948 1 58.09447385142 14.534372717167003 0 -1 0 0
952 1 61.967438774848 14.534372717167003 0 -1 0 0
956 1 65.84040369827599 14.534372717167003 0 -1 0 0
960 1 69.71336862170399 14.534372717167003 0 -1 0 0
964 1 73.58633354513199 14.534372717167003 0 -1 0 0
968 1 77.45929846856 14.534372717167003 0 -1 0 0
972 1 81.332263391988 14.534372717167003 0 -1 0 0
976 1 85.20522831541601 14.534372717167003 0 -1 0 0
980 1 89.078193238844 14.534372717167003 0 -1 0 0
984 1 92.951158162272 14.534372717167003 0 -1 0 0
988 1 96.8241230857 14.534372717167003 0 -1 0 0
1093 1 0 16.77043005827001 0.4587979830369999 0 0 0
1097 1 3.8729649234280004 16.77043005827001 0.4587979830369999 0 0 0
1101 1 7.745929846856001 16.77043005827001 0.4587979830369999 0 0 0
1105 1 11.618894770284001 16.77043005827001 0.4587979830369999 0 0 0
1109 1 15.491859693712009 16.77043005827001 0.4587979830369999 0 0 0
1113 1 19.36482461714001 16.77043005827001 0.4587979830369999 0 0 0
1117 1 23.23778954056801 16.77043005827001 0.4587979830369999 0 0 0
1121 1 27.110754463995995 16.77043005827001 0.4587979830369999 0 0 0
1125 1 30.983719387423996 16.77043005827001 0.4587979830369999 0 0 0
1129 1 34.856684310851996 16.77043005827001 0.4587979830369999 0 0 0
1133 1 38.72964923428 16.77043005827001 0.4587979830369999 0 0 0
1137 1 42.602614157708 16.77043005827001 0.4587979830369999 0 0 0
1141 1 46.475579081136 16.77043005827001 0.4587979830369999 0 0 0
1041 1 50.348544004564 16.77043005827001 0.4587979830369999 -1 0 0
1045 1 54.221508927992 16.77043005827001 0.4587979830369999 -1 0 0
1049 1 58.09447385142 16.77043005827001 0.4587979830369999 -1 0 0
1053 1 61.967438774848 16.77043005827001 0.4587979830369999 -1 0 0
1057 1 65.84040369827599 16.77043005827001 0.4587979830369999 -1 0 0
1061 1 69.71336862170399 16.77043005827001 0.4587979830369999 -1 0 0
1065 1 73.58633354513199 16.77043005827001 0.4587979830369999 -1 0 0
1069 1 77.45929846856 16.77043005827001 0.4587979830369999 -1 0 0
1073 1 81.332263391988 16.77043005827001 0.4587979830369999 -1 0 0
1077 1 85.20522831541601 16.77043005827001 0.4587979830369999 -1 0 0
1081 1 89.078193238844 16.77043005827001 0.4587979830369999 -1 0 0
1085 1 92.951158162272 16.77043005827001 0.4587979830369999 -1 0 0
1089 1 96.8241230857 16.77043005827001 0.4587979830369999 -1 0 0
1095 1 1.9364824617140002 17.888458728821007 0 0 0 0
1099 1 5.8094473851420005 17.888458728821007 0 0 0 0
1103 1 9.682412308570001 17.888458728821007 0 0 0 0
1107 1 13.555377231998001 17.888458728821007 0 0 0 0
1111 1 17.428342155426 17.888458728821007 0 0 0 0
1115 1 21.301307078854002 17.888458728821007 0 0 0 0
1119 1 25.174272002282002 17.888458728821007 0 0 0 0
1123 1 29.047236925710003 17.888458728821007 0 0 0 0
1127 1 32.920201849138 17.888458728821007 0 0 0 0
1131 1 36.793166772566 17.888458728821007 0 0 0 0
1135 1 40.666131695994004 17.888458728821007 0 0 0 0
1139 1 44.539096619422004 17.888458728821007 0 0 0 0
1143 1 48.412061542850005 17.888458728821007 0 0 0 0
1043 1 52.285026466278 17.888458728821007 0 -1 0 0
1047 1 56.157991389706 17.888458728821007 0 -1 0 0
1051 1 60.030956313134 17.888458728821007 0 -1 0 0
1055 1 63.903921236562 17.888458728821007 0 -1 0 0
1059 1 67.77688615999 17.888458728821007 0 -1 0 0
1063 1 71.649851083418 17.888458728821007 0 -1 0 0
1067 1 75.522816006846 17.888458728821007 0 -1 0 0
1071 1 79.395780930274 17.888458728821007 0 -1 0 0
1075 1 83.268745853702 17.888458728821007 0 -1 0 0
1079 1 87.14171077713 17.888458728821007 0 -1 0 0
1083 1 91.014675700558 17.888458728821007 0 -1 0 0
1087 1 94.88764062398599 17.888458728821007 0 -1 0 0
1091 1 98.760605547414 17.888458728821007 0 -1 0 0
1094 1 1.9364824617140002 20.124516069924 0.4587979830369999 0 0 0
1098 1 5.8094473851420005 20.124516069924 0.4587979830369999 0 0 0
1102 1 9.682412308570001 20.124516069924 0.4587979830369999 0 0 0
1106 1 13.555377231998001 20.124516069924 0.4587979830369999 0 0 0
1110 1 17.428342155426 20.124516069924 0.4587979830369999 0 0 0
1114 1 21.301307078854002 20.124516069924 0.4587979830369999 0 0 0
1118 1 25.174272002282002 20.124516069924 0.4587979830369999 0 0 0
1122 1 29.047236925710003 20.124516069924 0.4587979830369999 0 0 0
1126 1 32.920201849138 20.124516069924 0.4587979830369999 0 0 0
1130 1 36.793166772566 20.124516069924 0.4587979830369999 0 0 0
1134 1 40.666131695994004 20.124516069924 0.4587979830369999 0 0 0
1138 1 44.539096619422004 20.124516069924 0.4587979830369999 0 0 0
1142 1 48.412061542850005 20.124516069924 0.4587979830369999 0 0 0
1042 1 52.285026466278 20.124516069924 0.4587979830369999 -1 0 0
1046 1 56.157991389706 20.124516069924 0.4587979830369999 -1 0 0
1050 1 60.030956313134 20.124516069924 0.4587979830369999 -1 0 0
1054 1 63.903921236562 20.124516069924 0.4587979830369999 -1 0 0
1058 1 67.77688615999 20.124516069924 0.4587979830369999 -1 0 0
1062 1 71.649851083418 20.124516069924 0.4587979830369999 -1 0 0
1066 1 75.522816006846 20.124516069924 0.4587979830369999 -1 0 0
1070 1 79.395780930274 20.124516069924 0.4587979830369999 -1 0 0
1074 1 83.268745853702 20.124516069924 0.4587979830369999 -1 0 0
1078 1 87.14171077713 20.124516069924 0.4587979830369999 -1 0 0
1082 1 91.014675700558 20.124516069924 0.4587979830369999 -1 0 0
1086 1 94.88764062398599 20.124516069924 0.4587979830369999 -1 0 0
1090 1 98.760605547414 20.124516069924 0.4587979830369999 -1 0 0
1096 1 0 21.242544740474997 0 0 0 0
1100 1 3.8729649234280004 21.242544740474997 0 0 0 0
1104 1 7.745929846856001 21.242544740474997 0 0 0 0
1108 1 11.618894770284001 21.242544740474997 0 0 0 0
1112 1 15.491859693712009 21.242544740474997 0 0 0 0
1116 1 19.36482461714001 21.242544740474997 0 0 0 0
1120 1 23.23778954056801 21.242544740474997 0 0 0 0
1124 1 27.110754463995995 21.242544740474997 0 0 0 0
1128 1 30.983719387423996 21.242544740474997 0 0 0 0
1132 1 34.856684310851996 21.242544740474997 0 0 0 0
1136 1 38.72964923428 21.242544740474997 0 0 0 0
1140 1 42.602614157708 21.242544740474997 0 0 0 0
1144 1 46.475579081136 21.242544740474997 0 0 0 0
1044 1 50.348544004564 21.242544740474997 0 -1 0 0
1048 1 54.221508927992 21.242544740474997 0 -1 0 0
1052 1 58.09447385142 21.242544740474997 0 -1 0 0
1056 1 61.967438774848 21.242544740474997 0 -1 0 0
1060 1 65.84040369827599 21.242544740474997 0 -1 0 0
1064 1 69.71336862170399 21.242544740474997 0 -1 0 0
1068 1 73.58633354513199 21.242544740474997 0 -1 0 0
1072 1 77.45929846856 21.242544740474997 0 -1 0 0
1076 1 81.332263391988 21.242544740474997 0 -1 0 0
1080 1 85.20522831541601 21.242544740474997 0 -1 0 0
1084 1 89.078193238844 21.242544740474997 0 -1 0 0
1088 1 92.951158162272 21.242544740474997 0 -1 0 0
1092 1 96.8241230857 21.242544740474997 0 -1 0 0
1197 1 0 23.478602081578003 0.4587979830369999 0 0 0
1201 1 3.8729649234280004 23.478602081578003 0.4587979830369999 0 0 0
1205 1 7.745929846856001 23.478602081578003 0.4587979830369999 0 0 0
1209 1 11.618894770284001 23.478602081578003 0.4587979830369999 0 0 0
1213 1 15.491859693712009 23.478602081578003 0.4587979830369999 0 0 0
1217 1 19.36482461714001 23.478602081578003 0.4587979830369999 0 0 0
1221 1 23.23778954056801 23.478602081578003 0.4587979830369999 0 0 0
1225 1 27.110754463995995 23.478602081578003 0.4587979830369999 0 0 0
1229 1 30.983719387423996 23.478602081578003 0.4587979830369999 0 0 0
1233 1 34.856684310851996 23.478602081578003 0.4587979830369999 0 0 0
1237 1 38.72964923428 23.478602081578003 0.4587979830369999 0 0 0
1241 1 42.602614157708 23.478602081578003 0.4587979830369999 0 0 0
1245 1 46.475579081136 23.478602081578003 0.4587979830369999 0 0 0
1145 1 50.348544004564 23.478602081578003 0.4587979830369999 -1 0 0
1149 1 54.221508927992 23.478602081578003 0.4587979830369999 -1 0 0
1153 1 58.09447385142 23.478602081578003 0.4587979830369999 -1 0 0
1157 1 61.967438774848 23.478602081578003 0.4587979830369999 -1 0 0
1161 1 65.84040369827599 23.478602081578003 0.4587979830369999 -1 0 0
1165 1 69.71336862170399 23.478602081578003 0.4587979830369999 -1 0 0
1169 1 73.58633354513199 23.478602081578003 0.4587979830369999 -1 0 0
1173 1 77.45929846856 23.478602081578003 0.4587979830369999 -1 0 0
1177 1 81.332263391988 23.478602081578003 0.4587979830369999 -1 0 0
1181 1 85.20522831541601 23.478602081578003 0.4587979830369999 -1 0 0
1185 1 89.078193238844 23.478602081578003 0.4587979830369999 -1 0 0
1189 1 92.951158162272 23.478602081578003 0.4587979830369999 -1 0 0
1193 1 96.8241230857 23.478602081578003 0.4587979830369999 -1 0 0
1199 1 1.9364824617140002 24.596630752129002 0 0 0 0
1203 1 5.8094473851420005 24.596630752129002 0 0 0 0
1207 1 9.682412308570001 24.596630752129002 0 0 0 0
1211 1 13.555377231998001 24.596630752129002 0 0 0 0
1215 1 17.428342155426 24.596630752129002 0 0 0 0
1219 1 21.301307078854002 24.596630752129002 0 0 0 0
1223 1 25.174272002282002 24.596630752129002 0 0 0 0
1227 1 29.047236925710003 24.596630752129002 0 0 0 0
1231 1 32.920201849138 24.596630752129002 0 0 0 0
1235 1 36.793166772566 24.596630752129002 0 0 0 0
1239 1 40.666131695994004 24.596630752129002 0 0 0 0
1243 1 44.539096619422004 24.596630752129002 0 0 0 0
1247 1 48.412061542850005 24.596630752129002 0 0 0 0
1147 1 52.285026466278 24.596630752129002 0 -1 0 0
1151 1 56.157991389706 24.596630752129002 0 -1 0 0
1155 1 60.030956313134 24.596630752129002 0 -1 0 0
1159 1 63.903921236562 24.596630752129002 0 -1 0 0
1163 1 67.77688615999 24.596630752129002 0 -1 0 0
1167 1 71.649851083418 24.596630752129002 0 -1 0 0
1171 1 75.522816006846 24.596630752129002 0 -1 0 0
1175 1 79.395780930274 24.596630752129002 0 -1 0 0
1179 1 83.268745853702 24.596630752129002 0 -1 0 0
1183 1 87.14171077713 24.596630752129002 0 -1 0 0
1187 1 91.014675700558 24.596630752129002 0 -1 0 0
1191 1 94.88764062398599 24.596630752129002 0 -1 0 0
1195 1 98.760605547414 24.596630752129002 0 -1 0 0
1198 1 1.9364824617140002 26.832688093232008 0.4587979830369999 0 0 0
1202 1 5.8094473851420005 26.832688093232008 0.4587979830369999 0 0 0
1206 1 9.682412308570001 26.832688093232008 0.4587979830369999 0 0 0
1210 1 13.555377231998001 26.832688093232008 0.4587979830369999 0 0 0
1214 1 17.428342155426 26.832688093232008 0.4587979830369999 0 0 0
1218 1 21.301307078854002 26.832688093232008 0.4587979830369999 0 0 0
1222 1 25.174272002282002 26.832688093232008 0.4587979830369999 0 0 0
1226 1 29.047236925710003 26.832688093232008 0.4587979830369999 0 0 0
1230 1 32.920201849138 26.832688093232008 0.4587979830369999 0 0 0
1234 1 36.793166772566 26.832688093232008 0.4587979830369999 0 0 0
1238 1 40.666131695994004 26.832688093232008 0.4587979830369999 0 0 0
1242 1 44.539096619422004 26.832688093232008 0.4587979830369999 0 0 0
1246 1 48.412061542850005 26.832688093232008 0.4587979830369999 0 0 0
1146 1 52.285026466278 26.832688093232008 0.4587979830369999 -1 0 0
1150 1 56.157991389706 26.832688093232008 0.4587979830369999 -1 0 0
1154 1 60.030956313134 26.832688093232008 0.4587979830369999 -1 0 0
1158 1 63.903921236562 26.832688093232008 0.4587979830369999 -1 0 0
1162 1 67.77688615999 26.832688093232008 0.4587979830369999 -1 0 0
1166 1 71.649851083418 26.832688093232008 0.4587979830369999 -1 0 0
1170 1 75.522816006846 26.832688093232008 0.4587979830369999 -1 0 0
1174 1 79.395780930274 26.832688093232008 0.4587979830369999 -1 0 0
1178 1 83.268745853702 26.832688093232008 0.4587979830369999 -1 0 0
1182 1 87.14171077713 26.832688093232008 0.4587979830369999 -1 0 0
1186 1 91.014675700558 26.832688093232008 0.4587979830369999 -1 0 0
1190 1 94.88764062398599 26.832688093232008 0.4587979830369999 -1 0 0
1194 1 98.760605547414 26.832688093232008 0.4587979830369999 -1 0 0
1200 1 0 27.950716763783007 0 0 0 0
1204 1 3.8729649234280004 27.950716763783007 0 0 0 0
1208 1 7.745929846856001 27.950716763783007 0 0 0 0
1212 1 11.618894770284001 27.950716763783007 0 0 0 0
1216 1 15.491859693712009 27.950716763783007 0 0 0 0
1220 1 19.36482461714001 27.950716763783007 0 0 0 0
1224 1 23.23778954056801 27.950716763783007 0 0 0 0
1228 1 27.110754463995995 27.950716763783007 0 0 0 0
1232 1 30.983719387423996 27.950716763783007 0 0 0 0
1236 1 34.856684310851996 27.950716763783007 0 0 0 0
1240 1 38.72964923428 27.950716763783007 0 0 0 0
1244 1 42.602614157708 27.950716763783007 0 0 0 0
1248 1 46.475579081136 27.950716763783007 0 0 0 0
1148 1 50.348544004564 27.950716763783007 0 -1 0 0
1152 1 54.221508927992 27.950716763783007 0 -1 0 0
1156 1 58.09447385142 27.950716763783007 0 -1 0 0
1160 1 61.967438774848 27.950716763783007 0 -1 0 0
1164 1 65.84040369827599 27.950716763783007 0 -1 0 0
1168 1 69.71336862170399 27.950716763783007 0 -1 0 0
1172 1 73.58633354513199 27.950716763783007 0 -1 0 0
1176 1 77.45929846856 27.950716763783007 0 -1 0 0
1180 1 81.332263391988 27.950716763783007 0 -1 0 0
1184 1 85.20522831541601 27.950716763783007 0 -1 0 0
1188 1 89.078193238844 27.950716763783007 0 -1 0 0
1192 1 92.951158162272 27.950716763783007 0 -1 0 0
1196 1 96.8241230857 27.950716763783007 0 -1 0 0
1301 1 0 30.186774104886 0.4587979830369999 0 0 0
1305 1 3.8729649234280004 30.186774104886 0.4587979830369999 0 0 0
1309 1 7.745929846856001 30.186774104886 0.4587979830369999 0 0 0
1313 1 11.618894770284001 30.186774104886 0.4587979830369999 0 0 0
1317 1 15.491859693712009 30.186774104886 0.4587979830369999 0 0 0
1321 1 19.36482461714001 30.186774104886 0.4587979830369999 0 0 0
1325 1 23.23778954056801 30.186774104886 0.4587979830369999 0 0 0
1329 1 27.110754463995995 30.186774104886 0.4587979830369999 0 0 0
1333 1 30.983719387423996 30.186774104886 0.4587979830369999 0 0 0
1337 1 34.856684310851996 30.186774104886 0.4587979830369999 0 0 0
1341 1 38.72964923428 30.186774104886 0.4587979830369999 0 0 0
1345 1 42.602614157708 30.186774104886 0.4587979830369999 0 0 0
1349 1 46.475579081136 30.186774104886 0.4587979830369999 0 0 0
1249 1 50.348544004564 30.186774104886 0.4587979830369999 -1 0 0
1253 1 54.221508927992 30.186774104886 0.4587979830369999 -1 0 0
1257 1 58.09447385142 30.186774104886 0.4587979830369999 -1 0 0
1261 1 61.967438774848 30.186774104886 0.4587979830369999 -1 0 0
1265 1 65.84040369827599 30.186774104886 0.4587979830369999 -1 0 0
1269 1 69.71336862170399 30.186774104886 0.4587979830369999 -1 0 0
1273 1 73.58633354513199 30.186774104886 0.4587979830369999 -1 0 0
1277 1 77.45929846856 30.186774104886 0.4587979830369999 -1 0 0
1281 1 81.332263391988 30.186774104886 0.4587979830369999 -1 0 0
1285 1 85.20522831541601 30.186774104886 0.4587979830369999 -1 0 0
1289 1 89.078193238844 30.186774104886 0.4587979830369999 -1 0 0
1293 1 92.951158162272 30.186774104886 0.4587979830369999 -1 0 0
1297 1 96.8241230857 30.186774104886 0.4587979830369999 -1 0 0
1303 1 1.9364824617140002 31.304802775436997 0 0 0 0
1307 1 5.8094473851420005 31.304802775436997 0 0 0 0
1311 1 9.682412308570001 31.304802775436997 0 0 0 0
1315 1 13.555377231998001 31.304802775436997 0 0 0 0
1319 1 17.428342155426 31.304802775436997 0 0 0 0
1323 1 21.301307078854002 31.304802775436997 0 0 0 0
1327 1 25.174272002282002 31.304802775436997 0 0 0 0
1331 1 29.047236925710003 31.304802775436997 0 0 0 0
1335 1 32.920201849138 31.304802775436997 0 0 0 0
1339 1 36.793166772566 31.304802775436997 0 0 0 0
1343 1 40.666131695994004 31.304802775436997 0 0 0 0
1347 1 44.539096619422004 31.304802775436997 0 0 0 0
1351 1 48.412061542850005 31.304802775436997 0 0 0 0
1251 1 52.285026466278 31.304802775436997 0 -1 0 0
1255 1 56.157991389706 31.304802775436997 0 -1 0 0
1259 1 60.030956313134 31.304802775436997 0 -1 0 0
1263 1 63.903921236562 31.304802775436997 0 -1 0 0
1267 1 67.77688615999 31.304802775436997 0 -1 0 0
1271 1 71.649851083418 31.304802775436997 0 -1 0 0