LAMMPS data file via write_data, version 29 Aug 2024, timestep = 2, units = metal

3120 atoms
2 atom types

0 100.697088009128 xlo xhi
0 100.62258034962 ylo yhi
-50 50 zlo zhi

Masses

1 28.085
2 28.085

Atoms # atomic

784 1 8.865779627884462e-15 1.1160948489091946 0.02375026451538964 0 0 0
788 1 3.8729649234280004 1.1160948489091918 0.02375026451539331 0 0 0
885 1 8.996977260979725e-15 3.3497881984835827 0.44146819157307227 0 0 0
889 1 3.8729649234280004 3.3497881984835853 0.4414681915730685 0 0 0
887 1 1.9364824617140022 4.470180860563197 0.023750264515389335 0 0 0
891 1 5.8094473851420005 4.470180860563197 0.023750264515389648 0 0 0
792 1 7.745929846856001 1.116094848909192 0.02375026451539332 0 0 0
796 1 11.618894770284003 1.1160948489091915 0.0237502645153935 0 0 0
893 1 7.745929846856001 3.3497881984835853 0.4414681915730686 0 0 0
897 1 11.618894770284003 3.3497881984835858 0.4414681915730683 0 0 0
895 1 9.682412308570001 4.470180860563197 0.02375026451538962 0 0 0
800 1 15.49185969371199 1.116094848909192 0.023750264515393183 0 0 0
901 1 15.49185969371199 3.3497881984835853 0.4414681915730687 0 0 0
899 1 13.55537723199801 4.470180860563194 0.023750264515392923 0 0 0
903 1 17.42834215542602 4.470180860563197 0.02375026451538925 0 0 0
804 1 19.36482461713999 1.1160948489091922 0.023750264515392944 0 0 0
808 1 23.237789540567988 1.1160948489091929 0.02375026451539254 0 0 0
905 1 19.36482461713999 3.349788198483585 0.4414681915730689 0 0 0
909 1 23.237789540567988 3.3497881984835844 0.4414681915730694 0 0 0
907 1 21.30130707885402 4.470180860563197 0.023750264515389356 0 0 0
812 1 27.110754463996017 1.1160948489091929 0.023750264515392545 0 0 0
913 1 27.110754463996017 3.3497881984835844 0.4414681915730694 0 0 0
911 1 25.174272002282002 4.470180860563202 0.023750264515382365 0 0 0
915 1 29.047236925709985 4.470180860563197 0.023750264515389346 0 0 0
816 1 30.983719387424014 1.1160948489091922 0.023750264515392937 0 0 0
820 1 34.85668431085201 1.1160948489091922 0.023750264515392933 0 0 0
917 1 30.983719387424014 3.349788198483585 0.4414681915730689 0 0 0
921 1 34.85668431085201 3.349788198483585 0.4414681915730689 0 0 0
919 1 32.92020184913799 4.470180860563197 0.0237502645153893 0 0 0
824 1 38.72964923428001 1.1160948489091922 0.02375026451539297 0 0 0
925 1 38.72964923428001 3.349788198483585 0.44146819157306894 0 0 0
923 1 36.79316677256599 4.470180860563197 0.023750264515389294 0 0 0
927 1 40.66613169599399 4.470180860563197 0.023750264515389294 0 0 0
828 1 42.60261415770801 1.1160948489091922 0.023750264515392933 0 0 0
832 1 46.47557908113601 1.1160948489091922 0.02375026451539298 0 0 0
929 1 42.60261415770801 3.349788198483585 0.4414681915730689 0 0 0
933 1 46.47557908113601 3.349788198483585 0.4414681915730689 0 0 0
931 1 44.53909661942199 4.470180860563197 0.0237502645153893 0 0 0
732 1 50.348544004564005 1.1160948489091944 0.0237502645153897 -1 0 0
833 1 50.348544004564005 3.3497881984835827 0.44146819157307216 -1 0 0
935 1 48.41206154284998 4.470180860563197 0.02375026451538909 0 0 0
835 1 52.285026466278 4.470180860563197 0.02375026451538938 -1 0 0
736 1 54.221508927992 1.1160948489091918 0.02375026451539333 -1 0 0
740 1 58.09447385142 1.116094848909192 0.02375026451539331 -1 0 0
837 1 54.221508927992 3.3497881984835853 0.44146819157306855 -1 0 0
841 1 58.09447385142 3.3497881984835853 0.44146819157306855 -1 0 0
839 1 56.157991389706 4.470180860563197 0.023750264515389648 -1 0 0
744 1 61.967438774848 1.1160948489091924 0.02375026451539309 -1 0 0
845 1 61.967438774848 3.349788198483585 0.44146819157306877 -1 0 0
843 1 60.030956313134 4.470180860563197 0.02375026451538965 -1 0 0
847 1 63.90392123656199 4.470180860563199 0.023750264515385987 -1 0 0
748 1 65.840403698276 1.1160948489091926 0.02375026451539273 -1 0 0
752 1 69.713368621704 1.1160948489091922 0.02375026451539294 -1 0 0
849 1 65.840403698276 3.3497881984835844 0.44146819157306916 -1 0 0
853 1 69.713368621704 3.349788198483585 0.4414681915730689 -1 0 0
851 1 67.77688615998999 4.470180860563197 0.023750264515389304 -1 0 0
756 1 73.586333545132 1.1160948489091922 0.023750264515392944 -1 0 0
857 1 73.586333545132 3.349788198483585 0.4414681915730689 -1 0 0
855 1 71.64985108341799 4.470180860563197 0.02375026451538929 -1 0 0
859 1 75.52281600684599 4.470180860563197 0.02375026451538928 -1 0 0
760 1 77.45929846856001 1.1160948489091922 0.023750264515392947 -1 0 0
764 1 81.33226339198801 1.1160948489091915 0.023750264515393426 -1 0 0
861 1 77.45929846856001 3.349788198483585 0.4414681915730689 -1 0 0
865 1 81.33226339198801 3.3497881984835858 0.4414681915730685 -1 0 0
863 1 79.39578093027399 4.470180860563197 0.02375026451538922 -1 0 0
768 1 85.20522831541598 1.1160948489091922 0.023750264515392968 -1 0 0
869 1 85.20522831541598 3.349788198483585 0.4414681915730689 -1 0 0
867 1 83.268745853702 4.470180860563192 0.0237502645153962 -1 0 0
871 1 87.14171077713 4.470180860563202 0.02375026451538232 -1 0 0
772 1 89.07819323884401 1.1160948489091926 0.02375026451539258 -1 0 0
776 1 92.951158162272 1.116094848909197 0.023750264515386102 -1 0 0
873 1 89.07819323884401 3.3497881984835844 0.44146819157306927 -1 0 0
877 1 92.951158162272 3.34978819848358 0.4414681915730758 -1 0 0
875 1 91.01467570055799 4.470180860563198 0.02375026451538891 -1 0 0
780 1 96.8241230857 1.1160948489091873 0.023750264515399876 -1 0 0
881 1 96.8241230857 3.3497881984835898 0.44146819157306194 -1 0 0
879 1 94.88764062398602 4.470180860563197 0.02375026451538927 -1 0 0
883 1 98.76060554741397 4.470180860563197 0.0237502645153895 -1 0 0
886 1 1.936482461714002 6.703874210137585 0.44146819157306916 0 0 0
890 1 5.8094473851420005 6.703874210137586 0.4414681915730689 0 0 0
888 1 9.005394197774373e-15 7.8242668722172 0.023750264515386237 0 0 0
892 1 3.8729649234280004 7.824266872217198 0.023750264515389904 0 0 0
989 1 8.939935047493516e-15 10.05796022179159 0.44146819157306844 0 0 0
993 1 3.8729649234280004 10.057960221791594 0.44146819157306477 0 0 0
991 1 1.9364824617140022 11.17835288387119 0.02375026451539356 0 0 0
995 1 5.8094473851420005 11.178352883871188 0.023750264515393794 0 0 0
894 1 9.682412308570001 6.703874210137585 0.44146819157306894 0 0 0
896 1 7.745929846856001 7.824266872217198 0.023750264515389915 0 0 0
900 1 11.618894770284003 7.824266872217197 0.023750264515390113 0 0 0
997 1 7.745929846856001 10.057960221791594 0.4414681915730648 0 0 0
1001 1 11.618894770284003 10.057960221791594 0.4414681915730645 0 0 0
999 1 9.682412308570001 11.178352883871188 0.02375026451539377 0 0 0
898 1 13.55537723199801 6.703874210137588 0.44146819157306566 0 0 0
902 1 17.42834215542602 6.703874210137585 0.4414681915730692 0 0 0
904 1 15.49185969371199 7.824266872217197 0.023750264515389752 0 0 0
1005 1 15.49185969371199 10.057960221791593 0.4414681915730649 0 0 0
1003 1 13.55537723199801 11.178352883871186 0.023750264515397107 0 0 0
1007 1 17.42834215542602 11.178352883871188 0.02375026451539352 0 0 0
906 1 21.30130707885402 6.703874210137585 0.4414681915730692 0 0 0
908 1 19.36482461713999 7.824266872217198 0.023750264515389537 0 0 0
912 1 23.237789540567988 7.824266872217199 0.023750264515389103 0 0 0
1009 1 19.36482461713999 10.057960221791593 0.4414681915730651 0 0 0
1013 1 23.237789540567988 10.057960221791593 0.4414681915730655 0 0 0
1011 1 21.30130707885402 11.178352883871188 0.02375026451539362 0 0 0
910 1 25.174272002282002 6.703874210137581 0.4414681915730761 0 0 0
914 1 29.047236925709985 6.703874210137585 0.44146819157306916 0 0 0
916 1 27.110754463996017 7.824266872217199 0.023750264515389113 0 0 0
1017 1 27.110754463996017 10.057960221791593 0.4414681915730655 0 0 0
1015 1 25.174272002282002 11.178352883871193 0.02375026451538675 0 0 0
1019 1 29.047236925709985 11.178352883871188 0.023750264515393624 0 0 0
918 1 32.92020184913799 6.703874210137585 0.4414681915730692 0 0 0
920 1 30.983719387424014 7.824266872217198 0.02375026451538953 0 0 0
924 1 34.85668431085201 7.824266872217198 0.023750264515389537 0 0 0
1021 1 30.983719387424014 10.057960221791593 0.4414681915730651 0 0 0
1025 1 34.85668431085201 10.057960221791593 0.4414681915730651 0 0 0
1023 1 32.92020184913799 11.178352883871188 0.02375026451539357 0 0 0
922 1 36.79316677256599 6.703874210137585 0.4414681915730692 0 0 0
926 1 40.66613169599399 6.703874210137585 0.4414681915730692 0 0 0
928 1 38.72964923428001 7.824266872217198 0.023750264515389547 0 0 0
1029 1 38.72964923428001 10.057960221791593 0.4414681915730651 0 0 0
1027 1 36.79316677256599 11.178352883871188 0.02375026451539355 0 0 0
1031 1 40.66613169599399 11.178352883871188 0.02375026451539355 0 0 0
930 1 44.53909661942199 6.703874210137585 0.4414681915730692 0 0 0
932 1 42.60261415770801 7.824266872217198 0.02375026451538953 0 0 0
936 1 46.47557908113601 7.824266872217198 0.02375026451538955 0 0 0
1033 1 42.60261415770801 10.057960221791593 0.4414681915730651 0 0 0
1037 1 46.47557908113601 10.057960221791593 0.4414681915730651 0 0 0
1035 1 44.53909661942199 11.178352883871188 0.023750264515393568 0 0 0
934 1 48.41206154284998 6.703874210137585 0.44146819157306944 0 0 0
834 1 52.285026466278 6.703874210137585 0.44146819157306916 -1 0 0
836 1 50.348544004564005 7.8242668722172 0.023750264515386275 -1 0 0
937 1 50.348544004564005 10.057960221791593 0.4414681915730683 -1 0 0
1039 1 48.41206154284998 11.17835288387119 0.023750264515393305 0 0 0
939 1 52.285026466278 11.17835288387119 0.023750264515393565 -1 0 0
838 1 56.157991389706 6.703874210137586 0.4414681915730689 -1 0 0
840 1 54.221508927992 7.824266872217198 0.023750264515389943 -1 0 0
844 1 58.09447385142 7.824266872217198 0.023750264515389904 -1 0 0
941 1 54.221508927992 10.057960221791594 0.44146819157306477 -1 0 0
945 1 58.09447385142 10.057960221791594 0.44146819157306477 -1 0 0
943 1 56.157991389706 11.178352883871188 0.023750264515393794 -1 0 0
842 1 60.030956313134 6.703874210137586 0.4414681915730688 -1 0 0
846 1 63.90392123656199 6.703874210137584 0.44146819157307243 -1 0 0
848 1 61.967438774848 7.824266872217198 0.023750264515389665 -1 0 0
949 1 61.967438774848 10.057960221791593 0.441468191573065 -1 0 0
947 1 60.030956313134 11.178352883871188 0.023750264515393832 -1 0 0
951 1 63.90392123656199 11.178352883871192 0.02375026451539025 -1 0 0
850 1 67.77688615998999 6.703874210137585 0.44146819157306916 -1 0 0
852 1 65.840403698276 7.824266872217199 0.023750264515389315 -1 0 0
856 1 69.713368621704 7.824266872217198 0.02375026451538953 -1 0 0
953 1 65.840403698276 10.057960221791594 0.4414681915730653 -1 0 0
957 1 69.713368621704 10.057960221791593 0.4414681915730651 -1 0 0
955 1 67.77688615998999 11.178352883871188 0.023750264515393575 -1 0 0
854 1 71.64985108341799 6.703874210137585 0.4414681915730692 -1 0 0
858 1 75.52281600684599 6.703874210137585 0.4414681915730692 -1 0 0
860 1 73.586333545132 7.824266872217198 0.02375026451538953 -1 0 0
961 1 73.586333545132 10.057960221791593 0.4414681915730651 -1 0 0
959 1 71.64985108341799 11.178352883871188 0.023750264515393565 -1 0 0
963 1 75.52281600684599 11.178352883871188 0.023750264515393547 -1 0 0
862 1 79.39578093027399 6.703874210137585 0.44146819157306927 -1 0 0
864 1 77.45929846856001 7.824266872217198 0.023750264515389533 -1 0 0
868 1 81.33226339198801 7.824266872217197 0.023750264515389967 -1 0 0
965 1 77.45929846856001 10.057960221791593 0.4414681915730651 -1 0 0
969 1 81.33226339198801 10.057960221791594 0.44146819157306466 -1 0 0
967 1 79.39578093027399 11.178352883871188 0.023750264515393492 -1 0 0
866 1 83.268745853702 6.703874210137591 0.4414681915730623 -1 0 0
870 1 87.14171077713 6.703874210137581 0.44146819157307615 -1 0 0
872 1 85.20522831541598 7.824266872217198 0.02375026451538952 -1 0 0
973 1 85.20522831541598 10.057960221791593 0.4414681915730651 -1 0 0
971 1 83.268745853702 11.178352883871185 0.023750264515400413 -1 0 0
975 1 87.14171077713 11.178352883871193 0.023750264515386713 -1 0 0
874 1 91.01467570055799 6.703874210137585 0.44146819157306966 -1 0 0
876 1 89.07819323884401 7.824266872217199 0.023750264515389148 -1 0 0
880 1 92.951158162272 7.824266872217202 0.023750264515382567 -1 0 0
977 1 89.07819323884401 10.057960221791593 0.44146819157306544 -1 0 0
981 1 92.951158162272 10.057960221791587 0.441468191573072 -1 0 0
979 1 91.01467570055799 11.17835288387119 0.023750264515393152 -1 0 0
878 1 94.88764062398602 6.703874210137585 0.4414681915730692 -1 0 0
882 1 98.76060554741397 6.703874210137586 0.441468191573069 -1 0 0
884 1 96.8241230857 7.824266872217192 0.02375026451539644 -1 0 0
985 1 96.8241230857 10.057960221791598 0.4414681915730583 -1 0 0
983 1 94.88764062398602 11.178352883871188 0.02375026451539356 -1 0 0
987 1 98.76060554741397 11.178352883871188 0.023750264515393707 -1 0 0
990 1 1.9364824617140022 13.412046233445588 0.4414681915730682 0 0 0
994 1 5.8094473851420005 13.412046233445588 0.44146819157306794 0 0 0
992 1 9.002575161149682e-15 14.53243889552521 0.02375026451538985 0 0 0
996 1 3.8729649234280004 14.532438895525209 0.023750264515393516 0 0 0
1093 1 9.146556363425615e-15 16.766132245099573 0.4414681915730695 0 0 0
1097 1 3.8729649234280004 16.766132245099577 0.44146819157306577 0 0 0
998 1 9.682412308570001 13.412046233445588 0.441468191573068 0 0 0
1000 1 7.745929846856001 14.532438895525209 0.023750264515393523 0 0 0
1004 1 11.618894770284003 14.532438895525209 0.023750264515393738 0 0 0
1101 1 7.745929846856001 16.766132245099577 0.4414681915730659 0 0 0
1105 1 11.618894770284003 16.766132245099577 0.44146819157306555 0 0 0
1002 1 13.55537723199801 13.41204623344559 0.4414681915730647 0 0 0
1006 1 17.42834215542602 13.412046233445588 0.44146819157306827 0 0 0
1008 1 15.49185969371199 14.532438895525209 0.02375026451539341 0 0 0
1109 1 15.49185969371199 16.766132245099577 0.44146819157306594 0 0 0
1010 1 21.30130707885402 13.412046233445588 0.44146819157306827 0 0 0
1012 1 19.36482461713999 14.532438895525209 0.02375026451539316 0 0 0
1016 1 23.237789540567988 14.53243889552521 0.023750264515392673 0 0 0
1113 1 19.36482461713999 16.766132245099577 0.44146819157306616 0 0 0
1117 1 23.237789540567988 16.766132245099577 0.44146819157306666 0 0 0
1014 1 25.174272002282002 13.412046233445583 0.4414681915730751 0 0 0
1018 1 29.047236925709985 13.412046233445588 0.44146819157306827 0 0 0
1020 1 27.110754463996017 14.53243889552521 0.02375026451539268 0 0 0
1121 1 27.110754463996017 16.766132245099577 0.44146819157306666 0 0 0
1022 1 32.92020184913799 13.412046233445588 0.4414681915730683 0 0 0
1024 1 30.983719387424014 14.532438895525209 0.023750264515393162 0 0 0
1028 1 34.85668431085201 14.532438895525209 0.02375026451539316 0 0 0
1125 1 30.983719387424014 16.766132245099577 0.44146819157306616 0 0 0
1129 1 34.85668431085201 16.766132245099577 0.44146819157306616 0 0 0
1026 1 36.79316677256599 13.412046233445588 0.44146819157306827 0 0 0
1030 1 40.66613169599399 13.412046233445588 0.44146819157306827 0 0 0
1032 1 38.72964923428001 14.532438895525209 0.023750264515393173 0 0 0
1133 1 38.72964923428001 16.766132245099577 0.4414681915730662 0 0 0
1034 1 44.53909661942199 13.412046233445588 0.4414681915730683 0 0 0
1036 1 42.60261415770801 14.532438895525209 0.02375026451539316 0 0 0
1040 1 46.47557908113601 14.532438895525209 0.023750264515393207 0 0 0
1137 1 42.60261415770801 16.766132245099577 0.44146819157306616 0 0 0
1141 1 46.47557908113601 16.766132245099577 0.4414681915730661 0 0 0
1038 1 48.41206154284998 13.412046233445588 0.44146819157306855 0 0 0
938 1 52.285026466278 13.412046233445588 0.44146819157306816 -1 0 0
940 1 50.348544004564005 14.53243889552521 0.023750264515389894 -1 0 0
1041 1 50.348544004564005 16.766132245099573 0.4414681915730694 -1 0 0
942 1 56.157991389706 13.412046233445588 0.44146819157306794 -1 0 0
944 1 54.221508927992 14.532438895525209 0.023750264515393565 -1 0 0
948 1 58.09447385142 14.532438895525209 0.02375026451539352 -1 0 0
1045 1 54.221508927992 16.766132245099577 0.44146819157306577 -1 0 0
1049 1 58.09447385142 16.766132245099577 0.44146819157306577 -1 0 0
946 1 60.030956313134 13.412046233445588 0.44146819157306794 -1 0 0
950 1 63.90392123656199 13.412046233445585 0.4414681915730716 -1 0 0
952 1 61.967438774848 14.532438895525209 0.023750264515393284 -1 0 0
1053 1 61.967438774848 16.766132245099577 0.44146819157306594 -1 0 0
954 1 67.77688615998999 13.412046233445588 0.44146819157306827 -1 0 0
956 1 65.840403698276 14.532438895525209 0.023750264515392912 -1 0 0
960 1 69.713368621704 14.532438895525209 0.023750264515393155 -1 0 0
1057 1 65.840403698276 16.766132245099577 0.4414681915730664 -1 0 0
1061 1 69.713368621704 16.766132245099577 0.44146819157306616 -1 0 0
958 1 71.64985108341799 13.412046233445588 0.4414681915730683 -1 0 0
962 1 75.52281600684599 13.412046233445588 0.44146819157306827 -1 0 0
964 1 73.586333545132 14.532438895525209 0.023750264515393166 -1 0 0
1065 1 73.586333545132 16.766132245099577 0.44146819157306616 -1 0 0
966 1 79.39578093027399 13.412046233445588 0.4414681915730684 -1 0 0
968 1 77.45929846856001 14.532438895525209 0.023750264515393155 -1 0 0
972 1 81.33226339198801 14.532438895525209 0.023750264515393627 -1 0 0
1069 1 77.45929846856001 16.766132245099577 0.44146819157306616 -1 0 0
1073 1 81.33226339198801 16.766132245099577 0.4414681915730657 -1 0 0
970 1 83.268745853702 13.412046233445594 0.4414681915730614 -1 0 0
974 1 87.14171077713 13.412046233445583 0.4414681915730752 -1 0 0
976 1 85.20522831541598 14.532438895525209 0.0237502645153932 -1 0 0
1077 1 85.20522831541598 16.766132245099577 0.44146819157306616 -1 0 0
978 1 91.01467570055799 13.412046233445587 0.44146819157306866 -1 0 0
980 1 89.07819323884401 14.53243889552521 0.023750264515392732 -1 0 0
984 1 92.951158162272 14.532438895525214 0.02375026451538627 -1 0 0
1081 1 89.07819323884401 16.766132245099577 0.44146819157306655 -1 0 0
1085 1 92.951158162272 16.766132245099573 0.4414681915730731 -1 0 0
982 1 94.88764062398602 13.412046233445588 0.44146819157306827 -1 0 0
986 1 98.76060554741397 13.412046233445587 0.44146819157306805 -1 0 0
988 1 96.8241230857 14.532438895525203 0.02375026451540013 -1 0 0
1089 1 96.8241230857 16.76613224509958 0.44146819157305933 -1 0 0
1095 1 1.9364824617140022 17.886524907179187 0.023750264515386484 0 0 0
1099 1 5.8094473851420005 17.886524907179187 0.02375026451538679 0 0 0
1094 1 1.9364824617140022 20.1202182567536 0.441468191573072 0 0 0
1098 1 5.8094473851420005 20.1202182567536 0.4414681915730717 0 0 0
1096 1 8.876184923121253e-15 21.24061091883321 0.023750264515389002 0 0 0
1100 1 3.8729649234280004 21.240610918833205 0.023750264515392628 0 0 0
1197 1 9.129815167809795e-15 23.474304268407575 0.44146819157306805 0 0 0
1201 1 3.8729649234280004 23.47430426840758 0.44146819157306433 0 0 0
1103 1 9.682412308570001 17.886524907179187 0.023750264515386754 0 0 0
1102 1 9.682412308570001 20.1202182567536 0.44146819157307177 0 0 0
1104 1 7.745929846856001 21.240610918833205 0.02375026451539263 0 0 0
1108 1 11.618894770284003 21.240610918833205 0.02375026451539284 0 0 0
1205 1 7.745929846856001 23.47430426840758 0.44146819157306444 0 0 0
1209 1 11.618894770284003 23.47430426840758 0.4414681915730641 0 0 0
1107 1 13.55537723199801 17.886524907179183 0.02375026451539004 0 0 0
1111 1 17.42834215542602 17.886524907179187 0.023750264515386227 0 0 0
1106 1 13.55537723199801 20.1202182567536 0.4414681915730685 0 0 0
1110 1 17.42834215542602 20.120218256753596 0.44146819157307204 0 0 0
1112 1 15.49185969371199 21.240610918833205 0.023750264515392604 0 0 0
1213 1 15.49185969371199 23.47430426840758 0.4414681915730645 0 0 0
1115 1 21.30130707885402 17.886524907179187 0.02375026451538635 0 0 0
1114 1 21.30130707885402 20.120218256753596 0.441468191573072 0 0 0
1116 1 19.36482461713999 21.240610918833205 0.02375026451539244 0 0 0
1120 1 23.237789540567988 21.24061091883321 0.023750264515391938 0 0 0
1217 1 19.36482461713999 23.47430426840758 0.4414681915730647 0 0 0
1221 1 23.237789540567988 23.47430426840758 0.4414681915730652 0 0 0
1119 1 25.174272002282002 17.88652490717919 0.023750264515379392 0 0 0
1123 1 29.047236925709985 17.886524907179187 0.023750264515386338 0 0 0
1118 1 25.174272002282002 20.120218256753592 0.44146819157307887 0 0 0
1122 1 29.047236925709985 20.120218256753596 0.441468191573072 0 0 0
1124 1 27.110754463996017 21.24061091883321 0.023750264515391944 0 0 0
1225 1 27.110754463996017 23.47430426840758 0.4414681915730652 0 0 0
1127 1 32.92020184913799 17.886524907179187 0.02375026451538627 0 0 0
1126 1 32.92020184913799 20.120218256753596 0.44146819157307204 0 0 0
1128 1 30.983719387424014 21.240610918833205 0.023750264515392444 0 0 0
1132 1 34.85668431085201 21.240610918833205 0.023750264515392434 0 0 0
1229 1 30.983719387424014 23.47430426840758 0.4414681915730647 0 0 0
1233 1 34.85668431085201 23.47430426840758 0.4414681915730647 0 0 0
1131 1 36.79316677256599 17.886524907179187 0.02375026451538626 0 0 0
1135 1 40.66613169599399 17.886524907179187 0.02375026451538626 0 0 0
1130 1 36.79316677256599 20.120218256753596 0.44146819157307204 0 0 0
1134 1 40.66613169599399 20.120218256753596 0.44146819157307204 0 0 0
1136 1 38.72964923428001 21.240610918833205 0.02375026451539245 0 0 0
1237 1 38.72964923428001 23.47430426840758 0.44146819157306477 0 0 0
1139 1 44.53909661942199 17.886524907179187 0.023750264515386272 0 0 0
1138 1 44.53909661942199 20.120218256753596 0.4414681915730721 0 0 0
1140 1 42.60261415770801 21.240610918833205 0.023750264515392437 0 0 0
1144 1 46.47557908113601 21.240610918833205 0.023750264515392402 0 0 0
1241 1 42.60261415770801 23.47430426840758 0.4414681915730647 0 0 0
1245 1 46.47557908113601 23.47430426840758 0.44146819157306466 0 0 0
1143 1 48.41206154284998 17.886524907179187 0.023750264515386203 0 0 0
1043 1 52.285026466278 17.886524907179187 0.023750264515386522 -1 0 0
1142 1 48.41206154284998 20.1202182567536 0.4414681915730723 0 0 0
1042 1 52.285026466278 20.1202182567536 0.44146819157307204 -1 0 0
1044 1 50.348544004564005 21.24061091883321 0.02375026451538901 -1 0 0
1145 1 50.348544004564005 23.474304268407575 0.44146819157306794 -1 0 0
1047 1 56.157991389706 17.886524907179187 0.02375026451538679 -1 0 0
1046 1 56.157991389706 20.1202182567536 0.4414681915730717 -1 0 0
1048 1 54.221508927992 21.240610918833205 0.023750264515392673 -1 0 0
1052 1 58.09447385142 21.240610918833205 0.02375026451539263 -1 0 0
1149 1 54.221508927992 23.47430426840758 0.44146819157306433 -1 0 0
1153 1 58.09447385142 23.47430426840758 0.44146819157306433 -1 0 0
1051 1 60.030956313134 17.886524907179187 0.023750264515386824 -1 0 0
1055 1 63.90392123656199 17.88652490717919 0.02375026451538316 -1 0 0
1050 1 60.030956313134 20.1202182567536 0.44146819157307166 -1 0 0
1054 1 63.90392123656199 20.120218256753596 0.4414681915730753 -1 0 0
1056 1 61.967438774848 21.24061091883321 0.023750264515392396 -1 0 0
1157 1 61.967438774848 23.47430426840758 0.4414681915730646 -1 0 0
1059 1 67.77688615998999 17.886524907179187 0.0237502645153863 -1 0 0
1058 1 67.77688615998999 20.120218256753596 0.44146819157307204 -1 0 0
1060 1 65.840403698276 21.24061091883321 0.023750264515392104 -1 0 0
1064 1 69.713368621704 21.240610918833205 0.023750264515392427 -1 0 0
1161 1 65.840403698276 23.47430426840758 0.44146819157306494 -1 0 0
1165 1 69.713368621704 23.47430426840758 0.4414681915730647 -1 0 0
1063 1 71.64985108341799 17.886524907179187 0.023750264515386275 -1 0 0
1067 1 75.52281600684599 17.886524907179187 0.023750264515386255 -1 0 0
1062 1 71.64985108341799 20.120218256753596 0.44146819157307204 -1 0 0
1066 1 75.52281600684599 20.120218256753596 0.441468191573072 -1 0 0
1068 1 73.586333545132 21.240610918833205 0.023750264515392437 -1 0 0
1169 1 73.586333545132 23.47430426840758 0.44146819157306477 -1 0 0
1071 1 79.39578093027399 17.886524907179187 0.02375026451538621 -1 0 0
1070 1 79.39578093027399 20.120218256753596 0.44146819157307216 -1 0 0
1072 1 77.45929846856001 21.240610918833205 0.02375026451539244 -1 0 0
1076 1 81.33226339198801 21.240610918833205 0.0237502645153929 -1 0 0
1173 1 77.45929846856001 23.47430426840758 0.44146819157306477 -1 0 0
1177 1 81.33226339198801 23.47430426840758 0.4414681915730643 -1 0 0
1075 1 83.268745853702 17.88652490717918 0.023750264515393162 -1 0 0
1079 1 87.14171077713 17.88652490717919 0.023750264515379354 -1 0 0
1074 1 83.268745853702 20.1202182567536 0.44146819157306516 -1 0 0
1078 1 87.14171077713 20.120218256753592 0.441468191573079 -1 0 0
1080 1 85.20522831541598 21.240610918833205 0.023750264515392413 -1 0 0
1181 1 85.20522831541598 23.47430426840758 0.4414681915730647 -1 0 0
1083 1 91.01467570055799 17.886524907179187 0.02375026451538602 -1 0 0
1082 1 91.01467570055799 20.120218256753596 0.4414681915730725 -1 0 0
1084 1 89.07819323884401 21.24061091883321 0.02375026451539192 -1 0 0
1088 1 92.951158162272 21.240610918833212 0.02375026451538544 -1 0 0
1185 1 89.07819323884401 23.47430426840758 0.4414681915730651 -1 0 0
1189 1 92.951158162272 23.474304268407575 0.44146819157307166 -1 0 0
1087 1 94.88764062398602 17.886524907179187 0.02375026451538625 -1 0 0
1091 1 98.76060554741397 17.886524907179187 0.023750264515386463 -1 0 0
1086 1 94.88764062398602 20.120218256753596 0.4414681915730721 -1 0 0
1090 1 98.76060554741397 20.120218256753596 0.4414681915730719 -1 0 0
1092 1 96.8241230857 21.2406109188332 0.023750264515399303 -1 0 0
1193 1 96.8241230857 23.474304268407582 0.44146819157305783 -1 0 0
1199 1 1.9364824617140022 24.594696930487206 0.02375026451539395 0 0 0
1203 1 5.8094473851420005 24.594696930487206 0.02375026451539423 0 0 0
1198 1 1.9364824617140022 26.828390280061576 0.44146819157306616 0 0 0
1202 1 5.8094473851420005 26.828390280061576 0.4414681915730659 0 0 0
1200 1 9.153893078688644e-15 27.94878294214119 0.023750264515383077 0 0 0
1204 1 3.8729649234280004 27.948782942141186 0.0237502645153868 0 0 0
1207 1 9.682412308570001 24.594696930487206 0.0237502645153942 0 0 0
1206 1 9.682412308570001 26.828390280061576 0.44146819157306594 0 0 0
1208 1 7.745929846856001 27.948782942141186 0.023750264515386796 0 0 0
1212 1 11.618894770284003 27.948782942141186 0.023750264515387007 0 0 0
1211 1 13.55537723199801 24.594696930487203 0.023750264515397485 0 0 0
1215 1 17.42834215542602 24.594696930487206 0.02375026451539383 0 0 0
1210 1 13.55537723199801 26.82839028006158 0.44146819157306266 0 0 0
1214 1 17.42834215542602 26.828390280061576 0.44146819157306627 0 0 0
1216 1 15.49185969371199 27.948782942141186 0.023750264515386515 0 0 0
1219 1 21.30130707885402 24.594696930487206 0.023750264515393953 0 0 0
1218 1 21.30130707885402 26.828390280061576 0.4414681915730662 0 0 0
1220 1 19.36482461713999 27.948782942141186 0.023750264515386265 0 0 0
1224 1 23.237789540567988 27.948782942141186 0.023750264515385967 0 0 0
1223 1 25.174272002282002 24.59469693048721 0.023750264515387018 0 0 0
1227 1 29.047236925709985 24.594696930487206 0.023750264515393943 0 0 0
1222 1 25.174272002282002 26.828390280061573 0.44146819157307304 0 0 0
1226 1 29.047236925709985 26.828390280061576 0.44146819157306616 0 0 0
1228 1 27.110754463996017 27.948782942141186 0.023750264515385963 0 0 0
1231 1 32.92020184913799 24.594696930487206 0.023750264515393877 0 0 0
1230 1 32.92020184913799 26.828390280061576 0.4414681915730662 0 0 0
1232 1 30.983719387424014 27.948782942141186 0.02375026451538626 0 0 0
1236 1 34.85668431085201 27.948782942141186 0.02375026451538626 0 0 0
1235 1 36.79316677256599 24.594696930487206 0.023750264515393863 0 0 0
1239 1 40.66613169599399 24.594696930487206 0.02375026451539387 0 0 0
1234 1 36.79316677256599 26.828390280061576 0.44146819157306627 0 0 0
1238 1 40.66613169599399 26.828390280061576 0.44146819157306627 0 0 0
1240 1 38.72964923428001 27.948782942141186 0.023750264515386275 0 0 0
1243 1 44.53909661942199 24.594696930487206 0.02375026451539388 0 0 0
1242 1 44.53909661942199 26.828390280061576 0.4414681915730662 0 0 0
1244 1 42.60261415770801 27.948782942141186 0.023750264515386258 0 0 0
1248 1 46.47557908113601 27.948782942141186 0.023750264515386296 0 0 0
1247 1 48.41206154284998 24.594696930487206 0.023750264515393638 0 0 0
1147 1 52.285026466278 24.594696930487206 0.023750264515393995 -1 0 0
1246 1 48.41206154284998 26.828390280061576 0.4414681915730665 0 0 0
1146 1 52.285026466278 26.828390280061576 0.4414681915730661 -1 0 0
1148 1 50.348544004564005 27.94878294214119 0.023750264515383153 -1 0 0
1151 1 56.157991389706 24.594696930487206 0.023750264515394234 -1 0 0
1150 1 56.157991389706 26.828390280061576 0.4414681915730659 -1 0 0
1152 1 54.221508927992 27.948782942141186 0.023750264515386824 -1 0 0
1156 1 58.09447385142 27.948782942141186 0.023750264515386785 -1 0 0
1155 1 60.030956313134 24.594696930487206 0.02375026451539427 -1 0 0
1159 1 63.90392123656199 24.594696930487206 0.023750264515390612 -1 0 0
1154 1 60.030956313134 26.828390280061576 0.4414681915730658 -1 0 0
1158 1 63.90392123656199 26.828390280061573 0.4414681915730695 -1 0 0
1160 1 61.967438774848 27.948782942141186 0.02375026451538653 -1 0 0
1163 1 67.77688615998999 24.594696930487206 0.023750264515393908 -1 0 0
1162 1 67.77688615998999 26.828390280061576 0.4414681915730662 -1 0 0
1164 1 65.840403698276 27.948782942141186 0.023750264515386192 -1 0 0
1168 1 69.713368621704 27.948782942141186 0.02375026451538626 -1 0 0
1167 1 71.64985108341799 24.594696930487206 0.023750264515393877 -1 0 0
1171 1 75.52281600684599 24.594696930487206 0.023750264515393863 -1 0 0
1166 1 71.64985108341799 26.828390280061576 0.4414681915730662 -1 0 0
1170 1 75.52281600684599 26.828390280061576 0.4414681915730662 -1 0 0
1172 1 73.586333545132 27.948782942141186 0.023750264515386275 -1 0 0
1175 1 79.39578093027399 24.594696930487206 0.023750264515393808 -1 0 0
1174 1 79.39578093027399 26.828390280061576 0.4414681915730663 -1 0 0
1176 1 77.45929846856001 27.948782942141186 0.02375026451538627 -1 0 0
1180 1 81.33226339198801 27.948782942141182 0.023750264515386723 -1 0 0
1179 1 83.268745853702 24.5946969304872 0.02375026451540079 -1 0 0