LAMMPS data file via write_data, version 29 Aug 2024, timestep = 3, units = metal

4680 atoms
3 atom types

0 100.697088009128 xlo xhi
0 100.62258034962 ylo yhi
-50 50 zlo zhi

Masses

1 28.085
2 28.085
3 28.085

Atoms # atomic

784 1 1.3026937064299697e-15 1.114384076205328 0.02238375613600068 0 0 0
788 1 3.8729649234280012 1.114384076205329 0.02238375613600295 0 0 0
885 1 1.4457241614905316e-15 3.351186973291436 0.44589176964131716 0 0 0
889 1 3.8729649234280012 3.3511869732914352 0.4458917696413149 0 0 0
887 1 1.9364824617140026 4.468470087859325 0.022383756136000913 0 0 0
891 1 5.8094473851420005 4.468470087859324 0.022383756136001607 0 0 0
792 1 7.745929846856001 1.1143840762053285 0.022383756136003085 0 0 0
796 1 11.618894770284005 1.1143840762053276 0.022383756136004067 0 0 0
893 1 7.745929846856001 3.3511869732914357 0.4458917696413149 0 0 0
897 1 11.618894770284003 3.3511869732914366 0.4458917696413137 0 0 0
895 1 9.682412308570003 4.468470087859324 0.02238375613600172 0 0 0
800 1 15.49185969371201 1.1143840762053279 0.02238375613600365 0 0 0
901 1 15.491859693712009 3.3511869732914366 0.4458917696413142 0 0 0
899 1 13.555377231998 4.468470087859327 0.022383756136003255 0 0 0
903 1 17.428342155425998 4.468470087859324 0.022383756136001496 0 0 0
804 1 19.364824617140012 1.1143840762053285 0.022383756136002964 0 0 0
808 1 23.237789540568006 1.1143840762053303 0.022383756136001295 0 0 0
905 1 19.364824617140012 3.3511869732914357 0.44589176964131494 0 0 0
909 1 23.23778954056801 3.351186973291434 0.44589176964131655 0 0 0
907 1 21.301307078854 4.468470087859324 0.022383756136001173 0 0 0
812 1 27.110754463996 1.1143840762053303 0.022383756136001284 0 0 0
913 1 27.110754463995995 3.351186973291434 0.4458917696413165 0 0 0
911 1 25.174272002282002 4.468470087859318 0.022383756135997995 0 0 0
915 1 29.047236925710006 4.468470087859324 0.022383756136001222 0 0 0
816 1 30.983719387423992 1.114384076205328 0.022383756136003036 0 0 0
820 1 34.856684310851996 1.1143840762053285 0.022383756136002967 0 0 0
917 1 30.983719387423992 3.3511869732914357 0.44589176964131516 0 0 0
921 1 34.856684310851996 3.3511869732914357 0.44589176964131505 0 0 0
919 1 32.920201849138 4.468470087859324 0.022383756136001475 0 0 0
824 1 38.72964923428 1.1143840762053285 0.022383756136002957 0 0 0
925 1 38.72964923428 3.3511869732914357 0.44589176964131505 0 0 0
923 1 36.793166772566 4.468470087859324 0.02238375613600134 0 0 0
927 1 40.666131695994004 4.468470087859324 0.022383756136001347 0 0 0
828 1 42.602614157708 1.1143840762053285 0.02238375613600267 0 0 0
832 1 46.47557908113599 1.1143840762053296 0.022383756136002284 0 0 0
929 1 42.602614157708 3.351186973291436 0.44589176964131505 0 0 0
933 1 46.47557908113599 3.351186973291436 0.4458917696413149 0 0 0
931 1 44.539096619422004 4.468470087859324 0.022383756136001392 0 0 0
732 1 50.34854400456399 1.1143840762053254 0.02238375613600173 -1 0 0
833 1 50.348544004564 3.351186973291438 0.44589176964131655 -1 0 0
935 1 48.412061542850005 4.468470087859325 0.02238375613600044 0 0 0
835 1 52.285026466278 4.468470087859325 0.02238375613600063 -1 0 0
736 1 54.221508927992 1.1143840762053285 0.022383756136003168 -1 0 0
740 1 58.09447385142 1.1143840762053288 0.022383756136003047 -1 0 0
837 1 54.221508927992 3.3511869732914357 0.4458917696413147 -1 0 0
841 1 58.09447385142 3.3511869732914352 0.4458917696413148 -1 0 0
839 1 56.157991389706 4.468470087859324 0.02238375613600158 -1 0 0
744 1 61.967438774848 1.114384076205329 0.022383756136002353 -1 0 0
845 1 61.967438774848 3.3511869732914343 0.4458917696413157 -1 0 0
843 1 60.030956313134 4.468470087859324 0.022383756136001656 -1 0 0
847 1 63.903921236562 4.468470087859322 0.022383756135999605 -1 0 0
748 1 65.84040369827599 1.1143840762053283 0.022383756136002117 -1 0 0
752 1 69.71336862170399 1.1143840762053285 0.02238375613600295 -1 0 0
849 1 65.84040369827599 3.351186973291435 0.4458917696413159 -1 0 0
853 1 69.71336862170399 3.3511869732914357 0.44589176964131494 -1 0 0
851 1 67.77688615999 4.468470087859324 0.02238375613600145 -1 0 0
756 1 73.58633354513199 1.1143840762053285 0.02238375613600295 -1 0 0
857 1 73.58633354513199 3.3511869732914357 0.44589176964131494 -1 0 0
855 1 71.649851083418 4.468470087859324 0.022383756136001333 -1 0 0
859 1 75.522816006846 4.468470087859324 0.02238375613600139 -1 0 0
760 1 77.45929846856 1.1143840762053285 0.022383756136002943 -1 0 0
764 1 81.332263391988 1.1143840762053265 0.022383756136004816 -1 0 0
861 1 77.45929846856 3.3511869732914357 0.44589176964131494 -1 0 0
865 1 81.332263391988 3.3511869732914374 0.4458917696413131 -1 0 0
863 1 79.395780930274 4.468470087859324 0.022383756136001166 -1 0 0
768 1 85.205228315416 1.1143840762053285 0.0223837561360029 -1 0 0
869 1 85.205228315416 3.3511869732914357 0.4458917696413149 -1 0 0
867 1 83.268745853702 4.46847008785933 0.02238375613600405 -1 0 0
871 1 87.14171077713 4.468470087859318 0.02238375613599886 -1 0 0
772 1 89.078193238844 1.11438407620533 0.022383756136001253 -1 0 0
776 1 92.951158162272 1.1143840762053216 0.02238375613600031 -1 0 0
873 1 89.078193238844 3.3511869732914343 0.4458917696413164 -1 0 0
877 1 92.951158162272 3.3511869732914423 0.4458917696413175 -1 0 0
875 1 91.014675700558 4.468470087859325 0.022383756135999758 -1 0 0
780 1 96.8241230857 1.1143840762053348 0.02238375613600555 -1 0 0
881 1 96.8241230857 3.3511869732914294 0.44589176964131233 -1 0 0
879 1 94.887640623986 4.468470087859324 0.022383756136001392 -1 0 0
883 1 98.760605547414 4.468470087859325 0.022383756136001614 -1 0 0
886 1 1.9364824617140022 6.705272984945436 0.44589176964131605 0 0 0
890 1 5.8094473851420005 6.705272984945437 0.44589176964131544 0 0 0
888 1 1.4367529065121649e-15 7.822556099513326 0.02238375613599991 0 0 0
892 1 3.8729649234280012 7.822556099513328 0.022383756136002356 0 0 0
989 1 1.4547203514233568e-15 10.059358996599435 0.44589176964131566 0 0 0
993 1 3.8729649234280012 10.059358996599434 0.4458917696413132 0 0 0
991 1 1.9364824617140024 11.176642111167329 0.022383756136003474 0 0 0
995 1 5.8094473851420005 11.176642111167329 0.022383756136004133 0 0 0
894 1 9.682412308570003 6.705272984945437 0.44589176964131527 0 0 0
896 1 7.745929846856001 7.822556099513327 0.022383756136002478 0 0 0
900 1 11.618894770284003 7.822556099513326 0.022383756136003286 0 0 0
997 1 7.745929846856001 10.059358996599434 0.4458917696413133 0 0 0
1001 1 11.618894770284003 10.059358996599435 0.44589176964131233 0 0 0
999 1 9.682412308570001 11.176642111167329 0.02238375613600421 0 0 0
898 1 13.555377231998 6.7052729849454344 0.4458917696413138 0 0 0
902 1 17.428342155425998 6.705272984945437 0.4458917696413154 0 0 0
904 1 15.491859693712009 7.822556099513326 0.022383756136002953 0 0 0
1005 1 15.491859693712009 10.059358996599435 0.44589176964131266 0 0 0
1003 1 13.555377231998 11.17664211116733 0.022383756136005784 0 0 0
1007 1 17.428342155425998 11.176642111167329 0.022383756136003866 0 0 0
906 1 21.301307078854 6.705272984945437 0.44589176964131577 0 0 0
908 1 19.364824617140012 7.822556099513328 0.022383756136002318 0 0 0
912 1 23.237789540568006 7.822556099513329 0.0223837561360006 0 0 0
1009 1 19.364824617140012 10.059358996599435 0.4458917696413134 0 0 0
1013 1 23.237789540568006 10.059358996599434 0.4458917696413151 0 0 0
1011 1 21.301307078854 11.176642111167329 0.02238375613600368 0 0 0
910 1 25.174272002282002 6.705272984945443 0.4458917696413189 0 0 0
914 1 29.047236925710006 6.705272984945437 0.44589176964131566 0 0 0
916 1 27.110754463996 7.822556099513329 0.022383756136000597 0 0 0
1017 1 27.110754463996 10.059358996599434 0.44589176964131505 0 0 0
1015 1 25.174272002282002 11.176642111167322 0.022383756136000542 0 0 0
1019 1 29.047236925710006 11.176642111167329 0.022383756136003685 0 0 0
918 1 32.920201849138 6.705272984945437 0.4458917696413153 0 0 0
920 1 30.983719387423992 7.822556099513327 0.022383756136002197 0 0 0
924 1 34.856684310851996 7.822556099513328 0.022383756136002332 0 0 0
1021 1 30.983719387423992 10.059358996599435 0.44589176964131316 0 0 0
1025 1 34.856684310851996 10.059358996599435 0.44589176964131333 0 0 0
1023 1 32.920201849138 11.176642111167329 0.02238375613600363 0 0 0
922 1 36.793166772566 6.705272984945437 0.4458917696413155 0 0 0
926 1 40.666131695994004 6.705272984945437 0.4458917696413155 0 0 0
928 1 38.72964923428 7.822556099513328 0.02238375613600234 0 0 0
1029 1 38.72964923428 10.059358996599435 0.4458917696413134 0 0 0
1027 1 36.793166772566 11.176642111167329 0.022383756136003817 0 0 0
1031 1 40.666131695994004 11.176642111167329 0.022383756136003817 0 0 0
930 1 44.539096619422004 6.705272984945437 0.44589176964131555 0 0 0
932 1 42.602614157708 7.822556099513328 0.02238375613600234 0 0 0
936 1 46.475579081136 7.822556099513327 0.022383756136002405 0 0 0
1033 1 42.602614157708 10.059358996599435 0.44589176964131333 0 0 0
1037 1 46.47557908113599 10.059358996599434 0.4458917696413138 0 0 0
1035 1 44.539096619422004 11.176642111167329 0.022383756136003824 0 0 0
934 1 48.412061542850005 6.705272984945437 0.44589176964131655 0 0 0
834 1 52.285026466278 6.705272984945436 0.4458917696413162 -1 0 0
836 1 50.348544004564 7.822556099513325 0.02238375613600037 -1 0 0
937 1 50.348544004564 10.059358996599435 0.44589176964131527 -1 0 0
1039 1 48.412061542850005 11.176642111167329 0.022383756136003085 0 0 0
939 1 52.285026466278 11.176642111167329 0.02238375613600328 -1 0 0
838 1 56.157991389706 6.705272984945437 0.44589176964131544 -1 0 0
840 1 54.221508927992 7.822556099513327 0.02238375613600263 -1 0 0
844 1 58.09447385142 7.822556099513327 0.022383756136002506 -1 0 0
941 1 54.221508927992 10.059358996599434 0.44589176964131305 -1 0 0
945 1 58.09447385142 10.059358996599434 0.4458917696413132 -1 0 0
943 1 56.157991389706 11.176642111167329 0.02238375613600411 -1 0 0
842 1 60.030956313134 6.705272984945437 0.4458917696413152 -1 0 0
846 1 63.903921236562 6.705272984945439 0.44589176964131727 -1 0 0
848 1 61.967438774848 7.822556099513329 0.022383756136001656 -1 0 0
949 1 61.967438774848 10.059358996599434 0.44589176964131416 -1 0 0
947 1 60.030956313134 11.176642111167329 0.022383756136004185 -1 0 0
951 1 63.903921236562 11.176642111167327 0.022383756136002183 -1 0 0
850 1 67.77688615999 6.705272984945438 0.44589176964131544 -1 0 0
852 1 65.84040369827599 7.822556099513329 0.02238375613600142 -1 0 0
856 1 69.71336862170399 7.822556099513328 0.022383756136002336 -1 0 0
953 1 65.84040369827599 10.059358996599434 0.44589176964131444 -1 0 0
957 1 69.71336862170399 10.059358996599435 0.44589176964131333 -1 0 0
955 1 67.77688615999 11.176642111167329 0.022383756136003886 -1 0 0
854 1 71.649851083418 6.705272984945437 0.44589176964131555 -1 0 0
858 1 75.522816006846 6.705272984945437 0.44589176964131544 -1 0 0
860 1 73.58633354513199 7.822556099513328 0.022383756136002308 -1 0 0
961 1 73.58633354513199 10.059358996599435 0.44589176964131333 -1 0 0
959 1 71.649851083418 11.176642111167329 0.02238375613600382 -1 0 0
963 1 75.522816006846 11.176642111167329 0.022383756136003817 -1 0 0
862 1 79.395780930274 6.705272984945437 0.44589176964131577 -1 0 0
864 1 77.45929846856 7.822556099513328 0.022383756136002297 -1 0 0
868 1 81.332263391988 7.822556099513326 0.022383756136004164 -1 0 0
965 1 77.45929846856 10.059358996599435 0.44589176964131333 -1 0 0
969 1 81.332263391988 10.059358996599437 0.4458917696413115 -1 0 0
967 1 79.395780930274 11.176642111167329 0.02238375613600363 -1 0 0
866 1 83.268745853702 6.705272984945431 0.445891769641313 -1 0 0
870 1 87.14171077713 6.705272984945444 0.44589176964131816 -1 0 0
872 1 85.205228315416 7.822556099513328 0.02238375613600228 -1 0 0
973 1 85.205228315416 10.059358996599435 0.4458917696413134 -1 0 0
971 1 83.268745853702 11.176642111167334 0.02238375613600625 -1 0 0
975 1 87.14171077713 11.176642111167322 0.02238375613600141 -1 0 0
874 1 91.014675700558 6.705272984945436 0.44589176964131716 -1 0 0
876 1 89.078193238844 7.822556099513329 0.022383756136000535 -1 0 0
880 1 92.951158162272 7.822556099513322 0.022383756135999786 -1 0 0
977 1 89.078193238844 10.059358996599434 0.44589176964131505 -1 0 0
981 1 92.951158162272 10.05935899659944 0.44589176964131577 -1 0 0
979 1 91.014675700558 11.17664211116733 0.022383756136002415 -1 0 0
878 1 94.887640623986 6.705272984945437 0.4458917696413156 -1 0 0
882 1 98.760605547414 6.705272984945437 0.4458917696413153 -1 0 0
884 1 96.8241230857 7.822556099513333 0.02238375613600498 -1 0 0
985 1 96.8241230857 10.059358996599428 0.44589176964131083 -1 0 0
983 1 94.887640623986 11.176642111167329 0.022383756136003793 -1 0 0
987 1 98.760605547414 11.176642111167329 0.022383756136004296 -1 0 0
990 1 1.9364824617140022 13.413445008253436 0.4458917696413138 0 0 0
994 1 5.8094473851420005 13.413445008253438 0.4458917696413131 0 0 0
992 1 1.8048422410737753e-15 14.530728122821321 0.022383756136001187 0 0 0
996 1 3.8729649234280012 14.530728122821321 0.022383756136003533 0 0 0
1093 1 1.943190192960732e-15 16.76753101990744 0.44589176964131744 0 0 0
1097 1 3.8729649234280012 16.767531019907437 0.4458917696413148 0 0 0
998 1 9.682412308570003 13.413445008253438 0.445891769641313 0 0 0
1000 1 7.745929846856001 14.530728122821321 0.022383756136003664 0 0 0
1004 1 11.618894770284003 14.530728122821321 0.02238375613600449 0 0 0
1101 1 7.745929846856001 16.767531019907437 0.4458917696413147 0 0 0
1105 1 11.618894770284003 16.76753101990744 0.4458917696413139 0 0 0
1002 1 13.555377231998 13.413445008253435 0.4458917696413115 0 0 0
1006 1 17.428342155425998 13.413445008253438 0.44589176964131333 0 0 0
1008 1 15.49185969371201 14.530728122821323 0.022383756136004497 0 0 0
1109 1 15.49185969371201 16.76753101990744 0.44589176964131444 0 0 0
1010 1 21.301307078854 13.413445008253438 0.4458917696413137 0 0 0
1012 1 19.364824617140012 14.530728122821321 0.02238375613600342 0 0 0
1016 1 23.237789540568006 14.530728122821323 0.022383756136001978 0 0 0
1113 1 19.364824617140012 16.76753101990744 0.44589176964131505 0 0 0
1117 1 23.23778954056801 16.767531019907437 0.4458917696413164 0 0 0
1014 1 25.174272002282002 13.413445008253442 0.4458917696413167 0 0 0
1018 1 29.047236925710006 13.413445008253438 0.4458917696413136 0 0 0
1020 1 27.110754463996 14.530728122821323 0.02238375613600197 0 0 0
1121 1 27.110754463996 16.767531019907437 0.4458917696413163 0 0 0
1022 1 32.920201849138 13.413445008253438 0.44589176964131333 0 0 0
1024 1 30.983719387423992 14.530728122821321 0.02238375613600327 0 0 0
1028 1 34.856684310851996 14.530728122821321 0.022383756136003442 0 0 0
1125 1 30.983719387423992 16.767531019907437 0.4458917696413153 0 0 0
1129 1 34.856684310851996 16.767531019907437 0.4458917696413152 0 0 0
1026 1 36.793166772566 13.413445008253438 0.44589176964131344 0 0 0
1030 1 40.666131695994004 13.413445008253438 0.44589176964131344 0 0 0
1032 1 38.72964923428 14.530728122821321 0.02238375613600342 0 0 0
1133 1 38.72964923428 16.76753101990744 0.44589176964131505 0 0 0
1034 1 44.539096619422004 13.413445008253438 0.44589176964131344 0 0 0
1036 1 42.602614157708 14.530728122821321 0.022383756136003425 0 0 0
1040 1 46.475579081136 14.530728122821323 0.0223837561360041 0 0 0
1137 1 42.602614157708 16.76753101990744 0.445891769641315 0 0 0
1141 1 46.475579081136 16.76753101990744 0.44589176964131494 0 0 0
1038 1 48.412061542850005 13.413445008253436 0.44589176964131394 0 0 0
938 1 52.285026466278 13.413445008253436 0.44589176964131394 -1 0 0
940 1 50.348544004564 14.53072812282132 0.022383756136001784 -1 0 0
1041 1 50.348544004564 16.76753101990744 0.4458917696413167 -1 0 0
942 1 56.157991389706 13.413445008253438 0.4458917696413131 -1 0 0
944 1 54.221508927992 14.530728122821321 0.022383756136003765 -1 0 0
948 1 58.09447385142 14.530728122821321 0.02238375613600368 -1 0 0
1045 1 54.221508927992 16.767531019907437 0.4458917696413146 -1 0 0
1049 1 58.09447385142 16.767531019907437 0.44589176964131466 -1 0 0
946 1 60.030956313134 13.413445008253436 0.4458917696413129 -1 0 0
950 1 63.903921236562 13.413445008253438 0.44589176964131505 -1 0 0
952 1 61.967438774848 14.530728122821323 0.02238375613600272 -1 0 0
1053 1 61.967438774848 16.767531019907437 0.4458917696413156 -1 0 0
954 1 67.77688615999 13.413445008253438 0.44589176964131333 -1 0 0
956 1 65.84040369827599 14.530728122821323 0.022383756136002533 -1 0 0
960 1 69.71336862170399 14.530728122821321 0.022383756136003408 -1 0 0
1057 1 65.84040369827599 16.767531019907437 0.4458917696413157 -1 0 0
1061 1 69.71336862170399 16.76753101990744 0.44589176964131505 -1 0 0
958 1 71.649851083418 13.413445008253438 0.44589176964131344 -1 0 0
962 1 75.522816006846 13.413445008253438 0.4458917696413134 -1 0 0
964 1 73.58633354513199 14.530728122821321 0.022383756136003418 -1 0 0
1065 1 73.58633354513199 16.76753101990744 0.44589176964131494 -1 0 0
966 1 79.395780930274 13.413445008253438 0.4458917696413137 -1 0 0
968 1 77.45929846856 14.530728122821321 0.0223837561360034 -1 0 0
972 1 81.332263391988 14.530728122821321 0.022383756136005604 -1 0 0
1069 1 77.45929846856 16.76753101990744 0.445891769641315 -1 0 0
1073 1 81.332263391988 16.76753101990744 0.44589176964131316 -1 0 0
970 1 83.268745853702 13.413445008253431 0.44589176964131105 -1 0 0
974 1 87.14171077713 13.413445008253444 0.44589176964131577 -1 0 0
976 1 85.205228315416 14.530728122821323 0.02238375613600383 -1 0 0
1077 1 85.205228315416 16.76753101990744 0.44589176964131494 -1 0 0
978 1 91.014675700558 13.413445008253436 0.44589176964131483 -1 0 0
980 1 89.078193238844 14.530728122821323 0.02238375613600175 -1 0 0
984 1 92.951158162272 14.530728122821314 0.022383756136000566 -1 0 0
1081 1 89.078193238844 16.767531019907437 0.4458917696413165 -1 0 0
1085 1 92.951158162272 16.767531019907445 0.4458917696413176 -1 0 0
982 1 94.887640623986 13.413445008253438 0.4458917696413135 -1 0 0
986 1 98.760605547414 13.413445008253436 0.44589176964131294 -1 0 0
988 1 96.8241230857 14.530728122821328 0.02238375613600615 -1 0 0
1089 1 96.8241230857 16.76753101990743 0.44589176964131283 -1 0 0
1095 1 1.9364824617140026 17.884814134475327 0.02238375613599993 0 0 0
1099 1 5.8094473851420005 17.884814134475327 0.022383756136001128 0 0 0
1094 1 1.9364824617140028 20.121617031561435 0.4458917696413171 0 0 0
1098 1 5.8094473851420005 20.121617031561435 0.4458917696413162 0 0 0
1096 1 1.9325008117812207e-15 21.238900146129325 0.022383756135999914 0 0 0
1100 1 3.872964923428001 21.238900146129325 0.02238375613600218 0 0 0
1197 1 1.3950689837013584e-15 23.475703043215443 0.4458917696413147 0 0 0
1201 1 3.872964923428001 23.475703043215443 0.4458917696413124 0 0 0
1103 1 9.682412308570003 17.884814134475327 0.022383756136001232 0 0 0
1102 1 9.682412308570001 20.121617031561435 0.44589176964131627 0 0 0
1104 1 7.745929846856001 21.238900146129325 0.022383756136002107 0 0 0
1108 1 11.618894770284005 21.238900146129325 0.022383756136002922 0 0 0
1205 1 7.745929846856001 23.475703043215443 0.4458917696413124 0 0 0
1209 1 11.618894770284005 23.475703043215443 0.4458917696413114 0 0 0
1107 1 13.555377231998 17.88481413447533 0.022383756136002447 0 0 0
1111 1 17.428342155425998 17.884814134475327 0.022383756136000823 0 0 0
1106 1 13.555377231998 20.12161703156143 0.4458917696413144 0 0 0
1110 1 17.428342155425998 20.121617031561435 0.44589176964131627 0 0 0
1112 1 15.491859693712009 21.238900146129325 0.022383756136002627 0 0 0
1213 1 15.491859693712009 23.475703043215443 0.4458917696413117 0 0 0
1115 1 21.301307078854 17.884814134475327 0.02238375613600072 0 0 0
1114 1 21.301307078854 20.121617031561435 0.4458917696413168 0 0 0
1116 1 19.364824617140012 21.238900146129325 0.022383756136001867 0 0 0
1120 1 23.23778954056801 21.23890014612933 0.022383756136000365 0 0 0
1217 1 19.364824617140012 23.475703043215443 0.44589176964131255 0 0 0
1221 1 23.23778954056801 23.47570304321544 0.4458917696413139 0 0 0
1119 1 25.174272002282002 17.88481413447532 0.022383756135997447 0 0 0
1123 1 29.047236925710006 17.884814134475327 0.0223837561360007 0 0 0
1118 1 25.174272002282002 20.121617031561442 0.44589176964132005 0 0 0
1122 1 29.047236925710006 20.121617031561435 0.44589176964131666 0 0 0
1124 1 27.110754463995995 21.23890014612933 0.022383756136000358 0 0 0
1225 1 27.110754463995995 23.47570304321544 0.4458917696413139 0 0 0
1127 1 32.920201849138 17.884814134475327 0.022383756136001083 0 0 0
1126 1 32.920201849138 20.121617031561435 0.4458917696413159 0 0 0
1128 1 30.983719387423992 21.238900146129325 0.022383756136001774 0 0 0
1132 1 34.856684310851996 21.238900146129325 0.022383756136001867 0 0 0
1229 1 30.983719387423992 23.475703043215443 0.44589176964131255 0 0 0
1233 1 34.856684310851996 23.475703043215443 0.4458917696413125 0 0 0
1131 1 36.793166772566 17.884814134475327 0.02238375613600095 0 0 0
1135 1 40.666131695994004 17.884814134475327 0.02238375613600097 0 0 0
1130 1 36.793166772566 20.121617031561435 0.44589176964131644 0 0 0
1134 1 40.666131695994004 20.121617031561435 0.44589176964131644 0 0 0
1136 1 38.72964923428 21.238900146129325 0.02238375613600187 0 0 0
1237 1 38.72964923428 23.475703043215443 0.44589176964131255 0 0 0
1139 1 44.539096619422004 17.884814134475327 0.02238375613600071 0 0 0
1138 1 44.539096619422004 20.121617031561435 0.44589176964131644 0 0 0
1140 1 42.602614157708 21.238900146129325 0.022383756136001874 0 0 0
1144 1 46.475579081136 21.238900146129325 0.02238375613600217 0 0 0
1241 1 42.602614157708 23.475703043215443 0.4458917696413125 0 0 0
1245 1 46.475579081136 23.475703043215443 0.44589176964131244 0 0 0
1143 1 48.412061542850005 17.884814134475327 0.02238375613599946 0 0 0
1043 1 52.285026466278 17.884814134475327 0.022383756135999817 -1 0 0
1142 1 48.412061542850005 20.121617031561435 0.44589176964131727 0 0 0
1042 1 52.285026466278 20.121617031561435 0.44589176964131716 -1 0 0
1044 1 50.348544004564 21.23890014612932 0.022383756136000584 -1 0 0
1145 1 50.348544004564 23.475703043215443 0.44589176964131416 -1 0 0
1047 1 56.157991389706 17.884814134475327 0.022383756136001118 -1 0 0
1046 1 56.157991389706 20.121617031561435 0.4458917696413162 -1 0 0
1048 1 54.221508927992 21.238900146129325 0.02238375613600239 -1 0 0
1052 1 58.09447385142 21.238900146129325 0.022383756136002124 -1 0 0
1149 1 54.221508927992 23.475703043215443 0.4458917696413122 -1 0 0
1153 1 58.09447385142 23.475703043215443 0.4458917696413123 -1 0 0
1051 1 60.030956313134 17.884814134475327 0.022383756136001184 -1 0 0
1055 1 63.903921236562 17.884814134475324 0.022383756135998804 -1 0 0
1050 1 60.030956313134 20.121617031561435 0.44589176964131616 -1 0 0
1054 1 63.903921236562 20.12161703156144 0.44589176964131816 -1 0 0
1056 1 61.967438774848 21.238900146129325 0.02238375613600138 -1 0 0
1157 1 61.967438774848 23.475703043215443 0.4458917696413132 -1 0 0
1059 1 67.77688615999 17.884814134475327 0.02238375613600098 -1 0 0
1058 1 67.77688615999 20.121617031561435 0.4458917696413164 -1 0 0
1060 1 65.84040369827599 21.238900146129325 0.022383756136001232 -1 0 0
1064 1 69.71336862170399 21.238900146129325 0.022383756136001864 -1 0 0
1161 1 65.84040369827599 23.475703043215443 0.44589176964131344 -1 0 0
1165 1 69.71336862170399 23.475703043215443 0.44589176964131255 -1 0 0
1063 1 71.649851083418 17.884814134475327 0.022383756136000972 -1 0 0
1067 1 75.522816006846 17.884814134475327 0.02238375613600091 -1 0 0
1062 1 71.649851083418 20.121617031561435 0.44589176964131644 -1 0 0
1066 1 75.522816006846 20.121617031561435 0.4458917696413164 -1 0 0
1068 1 73.58633354513199 21.238900146129325 0.022383756136001867 -1 0 0
1169 1 73.58633354513199 23.475703043215443 0.4458917696413125 -1 0 0
1071 1 79.395780930274 17.884814134475327 0.022383756136000237 -1 0 0
1070 1 79.395780930274 20.121617031561435 0.44589176964131677 -1 0 0
1072 1 77.45929846856 21.238900146129325 0.02238375613600206 -1 0 0
1076 1 81.332263391988 21.238900146129325 0.02238375613600406 -1 0 0
1173 1 77.45929846856 23.475703043215443 0.44589176964131255 -1 0 0
1177 1 81.332263391988 23.475703043215443 0.4458917696413105 -1 0 0
1075 1 83.268745853702 17.884814134475334 0.02238375613600334 -1 0 0
1079 1 87.14171077713 17.88481413447532 0.02238375613599797 -1 0 0
1074 1 83.268745853702 20.121617031561428 0.4458917696413141 -1 0 0
1078 1 87.14171077713 20.121617031561442 0.4458917696413192 -1 0 0
1080 1 85.205228315416 21.238900146129325 0.022383756136001704 -1 0 0
1181 1 85.205228315416 23.475703043215443 0.44589176964131255 -1 0 0
1083 1 91.014675700558 17.884814134475327 0.02238375613599907 -1 0 0
1082 1 91.014675700558 20.121617031561435 0.4458917696413179 -1 0 0
1084 1 89.078193238844 21.23890014612933 0.02238375613600054 -1 0 0
1088 1 92.951158162272 21.238900146129318 0.022383756135999203 -1 0 0
1185 1 89.078193238844 23.475703043215443 0.4458917696413139 -1 0 0
1189 1 92.951158162272 23.47570304321545 0.44589176964131544 -1 0 0
1087 1 94.887640623986 17.884814134475327 0.022383756136000924 -1 0 0
1091 1 98.760605547414 17.884814134475327 0.02238375613600106 -1 0 0
1086 1 94.887640623986 20.121617031561435 0.44589176964131605 -1 0 0
1090 1 98.760605547414 20.121617031561435 0.44589176964131594 -1 0 0
1092 1 96.8241230857 21.238900146129332 0.022383756136004573 -1 0 0
1193 1 96.8241230857 23.475703043215436 0.44589176964130994 -1 0 0
1199 1 1.9364824617140028 24.59298615778332 0.022383756136004115 0 0 0
1203 1 5.8094473851420005 24.59298615778332 0.022383756136004896 0 0 0
1198 1 1.9364824617140026 26.829789054869437 0.44589176964131527 0 0 0
1202 1 5.8094473851420005 26.829789054869437 0.44589176964131444 0 0 0
1200 1 1.965530590057557e-15 27.947072169437327 0.02238375613599817 0 0 0
1204 1 3.8729649234280012 27.947072169437327 0.022383756136000972 0 0 0
1207 1 9.682412308570001 24.59298615778332 0.022383756136004972 0 0 0
1206 1 9.682412308570001 26.829789054869437 0.44589176964131466 0 0 0
1208 1 7.745929846856001 27.947072169437327 0.02238375613600108 0 0 0
1212 1 11.618894770284003 27.947072169437327 0.02238375613600169 0 0 0
1211 1 13.555377231998 24.592986157783322 0.02238375613600684 0 0 0
1215 1 17.428342155425998 24.59298615778332 0.022383756136004775 0 0 0
1210 1 13.555377231998 26.829789054869433 0.4458917696413134 0 0 0
1214 1 17.428342155425998 26.829789054869437 0.4458917696413148 0 0 0
1216 1 15.49185969371201 27.947072169437327 0.022383756136001475 0 0 0
1219 1 21.301307078854 24.59298615778332 0.022383756136004494 0 0 0
1218 1 21.301307078854 26.829789054869437 0.445891769641315 0 0 0
1220 1 19.364824617140012 27.947072169437327 0.022383756136000892 0 0 0
1224 1 23.23778954056801 27.947072169437327 0.02238375613599912 0 0 0
1223 1 25.174272002282002 24.59298615778331 0.022383756136000972 0 0 0
1227 1 29.047236925710006 24.59298615778332 0.022383756136004494 0 0 0
1222 1 25.174272002282002 26.829789054869444 0.4458917696413182 0 0 0
1226 1 29.047236925710006 26.829789054869437 0.44589176964131494 0 0 0
1228 1 27.110754463995995 27.947072169437327 0.02238375613599911 0 0 0
1231 1 32.920201849138 24.59298615778332 0.022383756136004816 0 0 0
1230 1 32.920201849138 26.829789054869437 0.4458917696413146 0 0 0
1232 1 30.983719387423992 27.947072169437327 0.022383756136000434 0 0 0
1236 1 34.856684310851996 27.947072169437327 0.022383756136000913 0 0 0
1235 1 36.793166772566 24.59298615778332 0.022383756136004657 0 0 0
1239 1 40.666131695994004 24.59298615778332 0.022383756136004667 0 0 0
1234 1 36.793166772566 26.829789054869437 0.44589176964131466 0 0 0
1238 1 40.666131695994004 26.829789054869437 0.44589176964131466 0 0 0
1240 1 38.72964923428 27.947072169437327 0.022383756136000948 0 0 0
1243 1 44.539096619422004 24.59298615778332 0.022383756136004657 0 0 0
1242 1 44.539096619422004 26.829789054869437 0.4458917696413147 0 0 0
1244 1 42.602614157708 27.947072169437327 0.022383756136000892 0 0 0
1248 1 46.475579081136 27.947072169437327 0.02238375613600097 0 0 0
1247 1 48.412061542850005 24.59298615778332 0.02238375613600375 0 0 0
1147 1 52.285026466278 24.59298615778332 0.022383756136003984 -1 0 0
1246 1 48.412061542850005 26.829789054869437 0.44589176964131555 0 0 0
1146 1 52.285026466278 26.829789054869437 0.44589176964131544 -1 0 0
1148 1 50.348544004564 27.947072169437323 0.02238375613599881 -1 0 0
1151 1 56.157991389706 24.59298615778332 0.02238375613600489 -1 0 0
1150 1 56.157991389706 26.829789054869437 0.4458917696413145 -1 0 0
1152 1 54.221508927992 27.947072169437327 0.02238375613600118 -1 0 0
1156 1 58.09447385142 27.947072169437327 0.022383756136001107 -1 0 0
1155 1 60.030956313134 24.59298615778332 0.022383756136004962 -1 0 0
1159 1 63.903921236562 24.592986157783315 0.022383756136002946 -1 0 0
1154 1 60.030956313134 26.829789054869437 0.44589176964131444 -1 0 0
1158 1 63.903921236562 26.829789054869437 0.4458917696413163 -1 0 0
1160 1 61.967438774848 27.947072169437327 0.022383756135999834 -1 0 0
1163 1 67.77688615999 24.59298615778332 0.022383756136004733 -1 0 0
1162 1 67.77688615999 26.829789054869437 0.4458917696413146 -1 0 0
1164 1 65.84040369827599 27.947072169437327 0.022383756135999668 -1 0 0
1168 1 69.71336862170399 27.947072169437327 0.022383756136000896 -1 0 0
1167 1 71.649851083418 24.59298615778332 0.022383756136004664 -1 0 0
1171 1 75.522816006846 24.59298615778332 0.022383756136004664 -1 0 0
1166 1 71.649851083418 26.829789054869437 0.4458917696413147 -1 0 0
1170 1 75.522816006846 26.829789054869437 0.4458917696413146 -1 0 0
1172 1 73.58633354513199 27.947072169437327 0.0223837561360009 -1 0 0
1175 1 79.395780930274 24.59298615778332 0.022383756136004268 -1 0 0
1174 1 79.395780930274 26.829789054869437 0.4458917696413151 -1 0 0
1176 1 77.45929846856 27.947072169437327 0.022383756136000875 -1 0 0
1180 1 81.332263391988 27.947072169437323 0.022383756136002568 -1 0 0
1179 1 83.268745853702 24.592986157783326 0.02238375613600713 -1 0 0
1183 1 87.14171077713 24.59298615778331 0.022383756136002138 -1 0 0
1178 1 83.268745853702 26.82978905486943 0.4458917696413126 -1 0 0
1182 1 87.14171077713 26.829789054869444 0.44589176964131766 -1 0 0