LAMMPS data file via write_data, version 29 Aug 2024, timestep = 2, units = metal

5568 atoms
6 atom types

0 101.584219448854 xlo xhi
0 97.075326528352 ylo yhi
-50 50 zlo zhi

Masses

1 180.94788
2 180.94788
3 78.971
4 78.971
5 78.971
6 78.971

Atoms # atomic

1487 4 1.7514638287492745 2.022403387967545 0.060879970884848165 0 0 0
1480 1 0.000315552638505853 3.033284590537099 1.650147531538227 0 0 0
1486 1 3.5032196715645085 3.0332845905370993 1.6501475315382275 0 0 0
1493 4 5.254367947675276 2.022403387967546 0.06087997088484877 0 0 0
1482 4 1.176928627473627e-05 5.056007341978546 0.060879970884847985 0 0 0
1488 4 3.502915888212275 5.056007341978546 0.06087997088484815 0 0 0
1492 1 7.006123790490509 3.0332845905370993 1.6501475315382275 0 0 0
1499 4 8.757272066601276 2.022403387967545 0.060879970884847846 0 0 0
1498 1 10.509027909416508 3.0332845905370993 1.6501475315382272 0 0 0
1494 4 7.005820007138277 5.056007341978546 0.06087997088484749 0 0 0
1500 4 10.508724126064275 5.056007341978545 0.06087997088484713 0 0 0
1505 4 12.260176185527273 2.022403387967545 0.06087997088484792 0 0 0
1504 1 14.011932028342507 3.033284590537099 1.6501475315382272 0 0 0
1511 4 15.763080304453277 2.0224033879675463 0.060879970884849435 0 0 0
1510 1 17.514836147268507 3.033284590537099 1.6501475315382272 0 0 0
1506 4 14.011628244990273 5.056007341978546 0.060879970884848165 0 0 0
1512 4 17.514532363916278 5.056007341978546 0.06087997088484753 0 0 0
1517 4 19.265984423379276 2.0224033879675454 0.06087997088484775 0 0 0
1516 1 21.017740266194505 3.033284590537099 1.6501475315382275 0 0 0
1523 4 22.768888542305273 2.0224033879675454 0.06087997088484819 0 0 0
1518 4 21.017436482842275 5.056007341978545 0.06087997088484727 0 0 0
1529 4 26.271792661231277 2.0224033879675454 0.06087997088484818 0 0 0
1522 1 24.52064438512051 3.0332845905370993 1.6501475315382275 0 0 0
1528 1 28.02354850404651 3.033284590537099 1.6501475315382275 0 0 0
1535 4 29.774696780157274 2.0224033879675454 0.06087997088484774 0 0 0
1524 4 24.520340601768275 5.056007341978547 0.06087997088484896 0 0 0
1530 4 28.023244720694276 5.056007341978545 0.060879970884847284 0 0 0
1534 1 31.52645262297251 3.033284590537099 1.6501475315382272 0 0 0
1541 4 33.277600899083275 2.0224033879675463 0.06087997088484956 0 0 0
1540 1 35.02935674189851 3.0332845905370993 1.6501475315382275 0 0 0
1536 4 31.526148839620273 5.056007341978546 0.06087997088484778 0 0 0
1542 4 35.02905295854628 5.056007341978546 0.060879970884847506 0 0 0
1547 4 36.78050501800928 2.0224033879675454 0.06087997088484772 0 0 0
1546 1 38.53226086082451 3.033284590537099 1.6501475315382275 0 0 0
1553 4 40.283409136935276 2.022403387967545 0.060879970884848214 0 0 0
1548 4 38.53195707747228 5.056007341978545 0.060879970884847284 0 0 0
1552 1 42.03516497975051 3.0332845905370993 1.6501475315382275 0 0 0
1559 4 43.78631325586128 2.0224033879675454 0.06087997088484816 0 0 0
1558 1 45.538069098676516 3.033284590537099 1.6501475315382275 0 0 0
1565 4 47.28921737478728 2.0224033879675454 0.06087997088484777 0 0 0
1554 4 42.034861196398275 5.056007341978547 0.06087997088484892 0 0 0
1560 4 45.53776531532428 5.056007341978545 0.06087997088484726 0 0 0
1397 4 50.792121493713275 2.0224033879675454 0.06087997088484849 -1 0 0
1564 1 49.04097321760251 3.033284590537099 1.6501475315382272 0 0 0
1396 1 52.54387733652851 3.0332845905370993 1.6501475315382275 -1 0 0
1566 4 49.040669434250276 5.056007341978545 0.060879970884847215 0 0 0
1398 4 52.54357355317627 5.056007341978546 0.0608799708848475 -1 0 0
1403 4 54.29502561263927 2.0224033879675454 0.06087997088484845 -1 0 0
1402 1 56.04678145545451 3.0332845905370993 1.6501475315382275 -1 0 0
1409 4 57.797929731565276 2.022403387967545 0.060879970884848214 -1 0 0
1408 1 59.54968557438051 3.0332845905370993 1.6501475315382275 -1 0 0
1404 4 56.04647767210228 5.056007341978547 0.06087997088484839 -1 0 0
1410 4 59.549381791028274 5.056007341978545 0.06087997088484709 -1 0 0
1415 4 61.30083385049127 2.0224033879675454 0.060879970884848526 -1 0 0
1414 1 63.05258969330651 3.0332845905370993 1.650147531538228 -1 0 0
1421 4 64.80373796941727 2.022403387967545 0.06087997088484763 -1 0 0
1416 4 63.05228590995428 5.056007341978546 0.060879970884847666 -1 0 0
1420 1 66.55549381223251 3.0332845905370984 1.6501475315382264 -1 0 0
1427 4 68.30664208834328 2.0224033879675454 0.06087997088484867 -1 0 0
1426 1 70.05839793115851 3.0332845905370993 1.6501475315382275 -1 0 0
1422 4 66.55519002888028 5.056007341978547 0.06087997088484892 -1 0 0
1428 4 70.05809414780627 5.056007341978545 0.06087997088484729 -1 0 0
1433 4 71.80954620726928 2.0224033879675454 0.060879970884847784 -1 0 0
1432 1 73.5613020500845 3.0332845905370993 1.6501475315382275 -1 0 0
1439 4 75.31245032619528 2.0224033879675454 0.060879970884847756 -1 0 0
1438 1 77.0642061690105 3.0332845905370998 1.6501475315382284 -1 0 0
1434 4 73.56099826673227 5.056007341978545 0.06087997088484731 -1 0 0
1440 4 77.06390238565827 5.056007341978545 0.06087997088484701 -1 0 0
1445 4 78.81535444512127 2.0224033879675463 0.06087997088484937 -1 0 0
1444 1 80.56711028793652 3.0332845905370993 1.6501475315382275 -1 0 0
1451 4 82.31825856404727 2.022403387967545 0.06087997088484762 -1 0 0
1446 4 80.56680650458428 5.056007341978546 0.06087997088484804 -1 0 0
1450 1 84.07001440686251 3.0332845905370984 1.6501475315382264 -1 0 0
1457 4 85.82116268297328 2.0224033879675454 0.06087997088484866 -1 0 0
1456 1 87.57291852578851 3.0332845905370998 1.6501475315382284 -1 0 0
1463 4 89.32406680189928 2.0224033879675463 0.06087997088484939 -1 0 0
1452 4 84.06971062351028 5.056007341978547 0.06087997088484892 -1 0 0
1458 4 87.57261474243627 5.056007341978545 0.06087997088484699 -1 0 0
1462 1 91.07582264471452 3.0332845905370993 1.6501475315382275 -1 0 0
1469 4 92.82697092082527 2.0224033879675436 0.060879970884846216 -1 0 0
1468 1 94.5787267636405 3.033284590537099 1.6501475315382272 -1 0 0
1464 4 91.07551886136228 5.056007341978545 0.06087997088484732 -1 0 0
1470 4 94.57842298028827 5.056007341978545 0.060879970884847305 -1 0 0
1475 4 96.32987503975127 2.0224033879675463 0.06087997088484939 -1 0 0
1474 1 98.08163088256651 3.0332845905370993 1.6501475315382275 -1 0 0
1481 4 99.83277915867727 2.0224033879675454 0.0608799708848478 -1 0 0
1476 4 98.08132709921428 5.056007341978546 0.06087997088484805 -1 0 0
1659 1 1.751767612101507 6.066888544548099 1.6501475315382272 0 0 0
1665 1 5.254671731027508 6.066888544548099 1.6501475315382272 0 0 0
1661 4 1.7514638287492748 8.089611295989545 0.060879970884847194 0 0 0
1654 1 0.00031555263850582523 9.100492498559099 1.650147531538226 0 0 0
1660 1 3.5032196715645085 9.100492498559099 1.6501475315382264 0 0 0
1667 4 5.254367947675276 8.089611295989547 0.06087997088484781 0 0 0
1656 4 1.1769286274791658e-05 11.123215250000548 0.06087997088484788 0 0 0
1662 4 3.502915888212275 11.123215250000548 0.06087997088484803 0 0 0
1671 1 8.757575849953508 6.066888544548099 1.6501475315382275 0 0 0
1666 1 7.006123790490509 9.100492498559099 1.6501475315382264 0 0 0
1673 4 8.757272066601276 8.089611295989545 0.06087997088484695 0 0 0
1672 1 10.509027909416508 9.100492498559099 1.6501475315382261 0 0 0
1668 4 7.005820007138277 11.123215250000548 0.060879970884847256 0 0 0
1674 4 10.508724126064275 11.123215250000548 0.06087997088484703 0 0 0
1677 1 12.260479968879507 6.066888544548099 1.6501475315382272 0 0 0
1683 1 15.763384087805509 6.066888544548099 1.6501475315382272 0 0 0
1679 4 12.260176185527273 8.089611295989545 0.06087997088484692 0 0 0
1678 1 14.011932028342507 9.100492498559099 1.6501475315382264 0 0 0
1685 4 15.763080304453277 8.089611295989547 0.060879970884848575 0 0 0
1684 1 17.514836147268507 9.100492498559099 1.6501475315382261 0 0 0
1680 4 14.011628244990273 11.123215250000548 0.06087997088484809 0 0 0
1686 4 17.514532363916278 11.123215250000548 0.0608799708848473 0 0 0
1689 1 19.26628820673151 6.066888544548099 1.6501475315382272 0 0 0
1695 1 22.76919232565751 6.066888544548099 1.6501475315382272 0 0 0
1691 4 19.265984423379276 8.089611295989545 0.06087997088484694 0 0 0
1690 1 21.017740266194505 9.100492498559099 1.6501475315382264 0 0 0
1697 4 22.768888542305273 8.089611295989545 0.06087997088484723 0 0 0
1692 4 21.017436482842275 11.123215250000548 0.06087997088484703 0 0 0
1701 1 26.272096444583507 6.066888544548099 1.6501475315382272 0 0 0
1707 1 29.775000563509504 6.066888544548099 1.6501475315382272 0 0 0
1703 4 26.271792661231277 8.089611295989545 0.060879970884847215 0 0 0
1696 1 24.52064438512051 9.100492498559099 1.6501475315382261 0 0 0
1702 1 28.02354850404651 9.100492498559099 1.6501475315382264 0 0 0
1709 4 29.774696780157274 8.089611295989545 0.060879970884846916 0 0 0
1698 4 24.520340601768275 11.12321525000055 0.06087997088484883 0 0 0
1704 4 28.023244720694276 11.123215250000548 0.060879970884847034 0 0 0
1713 1 33.27790468243551 6.066888544548099 1.6501475315382272 0 0 0
1708 1 31.52645262297251 9.100492498559099 1.6501475315382264 0 0 0
1715 4 33.277600899083275 8.089611295989547 0.060879970884848686 0 0 0
1714 1 35.02935674189851 9.100492498559099 1.6501475315382261 0 0 0
1710 4 31.526148839620273 11.123215250000548 0.060879970884847534 0 0 0
1716 4 35.02905295854628 11.123215250000548 0.06087997088484728 0 0 0
1719 1 36.780808801361516 6.066888544548099 1.6501475315382272 0 0 0
1725 1 40.28371292028751 6.066888544548099 1.6501475315382272 0 0 0
1721 4 36.78050501800928 8.089611295989545 0.06087997088484691 0 0 0
1720 1 38.53226086082451 9.100492498559099 1.6501475315382264 0 0 0
1727 4 40.283409136935276 8.089611295989545 0.06087997088484725 0 0 0
1722 4 38.53195707747228 11.123215250000548 0.06087997088484706 0 0 0
1731 1 43.78661703921351 6.066888544548099 1.6501475315382272 0 0 0
1737 1 47.28952115813951 6.066888544548099 1.6501475315382272 0 0 0
1726 1 42.03516497975051 9.100492498559099 1.6501475315382261 0 0 0
1733 4 43.78631325586128 8.089611295989545 0.060879970884847194 0 0 0
1732 1 45.538069098676516 9.100492498559099 1.6501475315382264 0 0 0
1739 4 47.28921737478728 8.089611295989545 0.060879970884846944 0 0 0
1728 4 42.034861196398275 11.12321525000055 0.06087997088484879 0 0 0
1734 4 45.53776531532428 11.123215250000548 0.06087997088484703 0 0 0
1569 1 50.792425277065504 6.066888544548099 1.6501475315382272 -1 0 0
1571 4 50.792121493713275 8.089611295989547 0.06087997088484773 -1 0 0
1738 1 49.04097321760251 9.100492498559099 1.6501475315382264 0 0 0
1570 1 52.54387733652851 9.100492498559099 1.6501475315382264 -1 0 0
1740 4 49.040669434250276 11.123215250000548 0.06087997088484698 0 0 0
1572 4 52.54357355317627 11.123215250000548 0.06087997088484739 -1 0 0
1575 1 54.29532939599151 6.066888544548099 1.6501475315382272 -1 0 0
1581 1 57.79823351491751 6.066888544548099 1.6501475315382272 -1 0 0
1577 4 54.29502561263927 8.089611295989547 0.06087997088484754 -1 0 0
1576 1 56.04678145545451 9.100492498559099 1.6501475315382264 -1 0 0
1583 4 57.797929731565276 8.089611295989545 0.060879970884847215 -1 0 0
1582 1 59.54968557438051 9.100492498559099 1.6501475315382264 -1 0 0
1578 4 56.04647767210228 11.123215250000548 0.0608799708848483 -1 0 0
1584 4 59.549381791028274 11.123215250000548 0.06087997088484696 -1 0 0
1587 1 61.30113763384351 6.066888544548099 1.6501475315382272 -1 0 0
1593 1 64.8040417527695 6.066888544548099 1.6501475315382277 -1 0 0
1589 4 61.30083385049127 8.089611295989547 0.06087997088484771 -1 0 0
1588 1 63.05258969330651 9.1004924985591 1.6501475315382268 -1 0 0
1595 4 64.80373796941727 8.089611295989545 0.06087997088484667 -1 0 0
1590 4 63.05228590995428 11.123215250000548 0.06087997088484743 -1 0 0
1599 1 68.3069458716955 6.066888544548099 1.6501475315382272 -1 0 0
1594 1 66.55549381223251 9.100492498559099 1.6501475315382252 -1 0 0
1601 4 68.30664208834328 8.089611295989545 0.060879970884847714 -1 0 0
1600 1 70.05839793115851 9.100492498559099 1.6501475315382264 -1 0 0
1596 4 66.55519002888028 11.12321525000055 0.06087997088484879 -1 0 0
1602 4 70.05809414780627 11.123215250000548 0.06087997088484706 -1 0 0
1605 1 71.8098499906215 6.066888544548099 1.6501475315382272 -1 0 0
1611 1 75.3127541095475 6.066888544548099 1.6501475315382272 -1 0 0
1607 4 71.80954620726928 8.089611295989545 0.06087997088484695 -1 0 0
1606 1 73.5613020500845 9.100492498559099 1.6501475315382264 -1 0 0
1613 4 75.31245032619528 8.089611295989545 0.06087997088484694 -1 0 0
1612 1 77.0642061690105 9.1004924985591 1.6501475315382272 -1 0 0
1608 4 73.56099826673227 11.123215250000548 0.060879970884847076 -1 0 0
1614 4 77.06390238565827 11.123215250000548 0.06087997088484677 -1 0 0
1617 1 78.81565822847351 6.066888544548099 1.6501475315382264 -1 0 0
1623 1 82.3185623473995 6.0668885445481 1.6501475315382281 -1 0 0
1619 4 78.81535444512127 8.089611295989547 0.06087997088484849 -1 0 0
1618 1 80.56711028793652 9.100492498559099 1.6501475315382261 -1 0 0
1625 4 82.31825856404727 8.089611295989545 0.06087997088484666 -1 0 0
1620 4 80.56680650458428 11.123215250000548 0.060879970884847805 -1 0 0
1629 1 85.82146646632552 6.066888544548099 1.6501475315382272 -1 0 0
1635 1 89.32437058525151 6.066888544548099 1.6501475315382264 -1 0 0
1624 1 84.07001440686251 9.100492498559099 1.6501475315382252 -1 0 0
1631 4 85.82116268297328 8.089611295989545 0.0608799708848477 -1 0 0
1630 1 87.57291852578851 9.1004924985591 1.6501475315382272 -1 0 0
1637 4 89.32406680189928 8.089611295989547 0.06087997088484851 -1 0 0
1626 4 84.06971062351028 11.12321525000055 0.06087997088484879 -1 0 0
1632 4 87.57261474243627 11.123215250000548 0.06087997088484675 -1 0 0
1641 1 92.82727470417751 6.0668885445481 1.6501475315382284 -1 0 0
1636 1 91.07582264471452 9.100492498559099 1.6501475315382261 -1 0 0
1643 4 92.82697092082527 8.089611295989544 0.060879970884845334 -1 0 0
1642 1 94.5787267636405 9.100492498559099 1.6501475315382264 -1 0 0
1638 4 91.07551886136228 11.123215250000548 0.06087997088484708 -1 0 0
1644 4 94.57842298028827 11.123215250000548 0.060879970884847055 -1 0 0
1647 1 96.33017882310351 6.066888544548099 1.6501475315382261 -1 0 0
1653 1 99.8330829420295 6.066888544548099 1.6501475315382277 -1 0 0
1649 4 96.32987503975127 8.089611295989547 0.06087997088484851 -1 0 0
1648 1 98.08163088256651 9.100492498559099 1.6501475315382261 -1 0 0
1655 4 99.83277915867727 8.089611295989545 0.06087997088484684 -1 0 0
1650 4 98.08132709921428 11.123215250000548 0.06087997088484782 -1 0 0
1833 1 1.7517676121015069 12.1340964525701 1.6501475315382272 0 0 0
1839 1 5.254671731027508 12.1340964525701 1.6501475315382272 0 0 0
1835 4 1.7514638287492748 14.156819204011548 0.060879970884847485 0 0 0
1828 1 0.0003155526385057764 15.1677004065811 1.6501475315382268 0 0 0
1834 1 3.503219671564508 15.1677004065811 1.6501475315382272 0 0 0
1841 4 5.254367947675276 14.156819204011548 0.0608799708848483 0 0 0
1845 1 8.757575849953508 12.1340964525701 1.6501475315382272 0 0 0
1840 1 7.006123790490509 15.1677004065811 1.6501475315382272 0 0 0
1847 4 8.757272066601276 14.156819204011548 0.06087997088484728 0 0 0
1846 1 10.509027909416508 15.1677004065811 1.6501475315382272 0 0 0
1851 1 12.260479968879507 12.1340964525701 1.6501475315382272 0 0 0
1857 1 15.763384087805509 12.1340964525701 1.650147531538227 0 0 0
1853 4 12.260176185527273 14.156819204011548 0.06087997088484738 0 0 0
1852 1 14.011932028342507 15.1677004065811 1.6501475315382272 0 0 0
1859 4 15.763080304453277 14.15681920401155 0.06087997088484895 0 0 0
1858 1 17.514836147268507 15.1677004065811 1.6501475315382272 0 0 0
1863 1 19.26628820673151 12.1340964525701 1.6501475315382272 0 0 0
1869 1 22.76919232565751 12.1340964525701 1.6501475315382272 0 0 0
1865 4 19.265984423379276 14.156819204011548 0.06087997088484734 0 0 0
1864 1 21.017740266194505 15.1677004065811 1.6501475315382272 0 0 0
1871 4 22.768888542305273 14.156819204011548 0.06087997088484762 0 0 0
1875 1 26.272096444583507 12.1340964525701 1.6501475315382272 0 0 0
1881 1 29.775000563509504 12.1340964525701 1.6501475315382272 0 0 0
1877 4 26.271792661231277 14.156819204011548 0.06087997088484761 0 0 0
1870 1 24.52064438512051 15.1677004065811 1.6501475315382275 0 0 0
1876 1 28.02354850404651 15.1677004065811 1.6501475315382272 0 0 0
1883 4 29.774696780157274 14.156819204011548 0.06087997088484732 0 0 0
1887 1 33.27790468243551 12.1340964525701 1.6501475315382272 0 0 0
1882 1 31.526452622972506 15.1677004065811 1.6501475315382272 0 0 0
1889 4 33.277600899083275 14.15681920401155 0.060879970884849186 0 0 0
1888 1 35.02935674189851 15.1677004065811 1.6501475315382272 0 0 0
1893 1 36.780808801361516 12.1340964525701 1.6501475315382272 0 0 0
1899 1 40.28371292028751 12.1340964525701 1.6501475315382272 0 0 0
1895 4 36.78050501800928 14.156819204011548 0.06087997088484731 0 0 0
1894 1 38.53226086082451 15.1677004065811 1.6501475315382272 0 0 0
1901 4 40.283409136935276 14.156819204011548 0.06087997088484764 0 0 0
1905 1 43.78661703921351 12.1340964525701 1.6501475315382272 0 0 0
1911 1 47.28952115813951 12.1340964525701 1.6501475315382272 0 0 0
1900 1 42.03516497975051 15.1677004065811 1.6501475315382275 0 0 0
1907 4 43.78631325586128 14.156819204011548 0.06087997088484759 0 0 0
1906 1 45.538069098676516 15.1677004065811 1.6501475315382272 0 0 0
1913 4 47.28921737478728 14.156819204011548 0.060879970884847354 0 0 0
1743 1 50.792425277065504 12.1340964525701 1.6501475315382272 -1 0 0
1745 4 50.792121493713275 14.156819204011548 0.060879970884848186 -1 0 0
1912 1 49.04097321760251 15.1677004065811 1.6501475315382272 0 0 0
1744 1 52.54387733652851 15.1677004065811 1.650147531538227 -1 0 0
1749 1 54.29532939599151 12.1340964525701 1.6501475315382272 -1 0 0
1755 1 57.79823351491751 12.1340964525701 1.6501475315382272 -1 0 0
1751 4 54.29502561263927 14.156819204011548 0.060879970884847985 -1 0 0
1750 1 56.04678145545451 15.1677004065811 1.6501475315382272 -1 0 0
1757 4 57.797929731565276 14.156819204011548 0.06087997088484769 -1 0 0
1756 1 59.54968557438051 15.1677004065811 1.650147531538227 -1 0 0
1761 1 61.30113763384351 12.1340964525701 1.650147531538227 -1 0 0
1767 1 64.8040417527695 12.1340964525701 1.6501475315382277 -1 0 0
1763 4 61.30083385049127 14.156819204011548 0.0608799708848482 -1 0 0
1762 1 63.05258969330651 15.1677004065811 1.6501475315382277 -1 0 0
1769 4 64.80373796941727 14.156819204011548 0.060879970884847055 -1 0 0
1773 1 68.3069458716955 12.1340964525701 1.6501475315382272 -1 0 0
1768 1 66.55549381223251 15.1677004065811 1.6501475315382264 -1 0 0
1775 4 68.30664208834328 14.156819204011548 0.06087997088484812 -1 0 0
1774 1 70.05839793115851 15.1677004065811 1.6501475315382275 -1 0 0
1779 1 71.8098499906215 12.1340964525701 1.6501475315382272 -1 0 0
1785 1 75.3127541095475 12.1340964525701 1.6501475315382272 -1 0 0
1781 4 71.80954620726928 14.156819204011548 0.060879970884847354 -1 0 0
1780 1 73.5613020500845 15.1677004065811 1.6501475315382272 -1 0 0
1787 4 75.31245032619528 14.156819204011548 0.06087997088484735 -1 0 0
1786 1 77.0642061690105 15.1677004065811 1.6501475315382284 -1 0 0
1791 1 78.81565822847351 12.1340964525701 1.6501475315382261 -1 0 0
1797 1 82.3185623473995 12.1340964525701 1.6501475315382281 -1 0 0
1793 4 78.81535444512127 14.15681920401155 0.06087997088484895 -1 0 0
1792 1 80.56711028793652 15.1677004065811 1.6501475315382275 -1 0 0
1799 4 82.31825856404727 14.156819204011548 0.06087997088484704 -1 0 0
1803 1 85.8214664663255 12.1340964525701 1.6501475315382272 -1 0 0
1809 1 89.32437058525151 12.1340964525701 1.6501475315382261 -1 0 0
1798 1 84.07001440686251 15.1677004065811 1.6501475315382264 -1 0 0
1805 4 85.82116268297328 14.156819204011548 0.060879970884848096 -1 0 0
1804 1 87.57291852578851 15.1677004065811 1.6501475315382284 -1 0 0
1811 4 89.32406680189928 14.15681920401155 0.06087997088484896 -1 0 0
1815 1 92.82727470417751 12.1340964525701 1.6501475315382281 -1 0 0
1810 1 91.07582264471452 15.1677004065811 1.6501475315382272 -1 0 0
1817 4 92.82697092082527 14.156819204011546 0.060879970884845584 -1 0 0
1816 1 94.5787267636405 15.1677004065811 1.6501475315382272 -1 0 0
1821 1 96.33017882310351 12.1340964525701 1.6501475315382261 -1 0 0
1827 1 99.8330829420295 12.1340964525701 1.6501475315382277 -1 0 0
1823 4 96.32987503975127 14.15681920401155 0.06087997088484896 -1 0 0
1822 1 98.08163088256651 15.1677004065811 1.6501475315382272 -1 0 0
1829 4 99.83277915867727 14.156819204011548 0.06087997088484721 -1 0 0
1830 4 1.1769286274738753e-05 17.190423158022547 0.06087997088484809 0 0 0
2007 1 1.751767612101507 18.2013043605921 1.650147531538227 0 0 0
1836 4 3.502915888212275 17.190423158022547 0.060879970884848277 0 0 0
2013 1 5.254671731027508 18.201304360592097 1.6501475315382275 0 0 0
2009 4 1.7514638287492748 20.224027112033546 0.06087997088484748 0 0 0
2015 4 5.254367947675276 20.224027112033546 0.06087997088484829 0 0 0
2002 1 0.000315552638505777 21.234908314603096 1.650147531538227 0 0 0
2008 1 3.503219671564508 21.234908314603096 1.6501475315382275 0 0 0
1842 4 7.005820007138277 17.190423158022547 0.060879970884847465 0 0 0
2019 1 8.757575849953508 18.2013043605921 1.6501475315382272 0 0 0
1848 4 10.508724126064275 17.190423158022547 0.0608799708848472 0 0 0
2021 4 8.757272066601276 20.224027112033546 0.060879970884847284 0 0 0
2014 1 7.006123790490509 21.2349083146031 1.650147531538227 0 0 0
2020 1 10.509027909416508 21.2349083146031 1.6501475315382272 0 0 0
2025 1 12.260479968879507 18.2013043605921 1.650147531538227 0 0 0
1854 4 14.011628244990273 17.190423158022547 0.060879970884848374 0 0 0
2031 1 15.763384087805509 18.201304360592097 1.6501475315382272 0 0 0
1860 4 17.514532363916278 17.190423158022547 0.06087997088484758 0 0 0
2027 4 12.260176185527273 20.224027112033546 0.06087997088484739 0 0 0
2033 4 15.763080304453275 20.224027112033546 0.06087997088484894 0 0 0
2026 1 14.011932028342507 21.234908314603096 1.6501475315382272 0 0 0
2032 1 17.514836147268507 21.2349083146031 1.650147531538227 0 0 0
2037 1 19.26628820673151 18.2013043605921 1.6501475315382272 0 0 0
1866 4 21.017436482842275 17.190423158022547 0.060879970884847326 0 0 0
2043 1 22.769192325657507 18.2013043605921 1.650147531538227 0 0 0
2039 4 19.265984423379276 20.224027112033546 0.06087997088484734 0 0 0
2045 4 22.768888542305273 20.224027112033546 0.0608799708848476 0 0 0
2038 1 21.017740266194505 21.2349083146031 1.6501475315382272 0 0 0
1872 4 24.520340601768275 17.190423158022547 0.06087997088484895 0 0 0
2049 1 26.272096444583507 18.2013043605921 1.650147531538227 0 0 0
1878 4 28.023244720694276 17.190423158022547 0.06087997088484733 0 0 0
2055 1 29.775000563509504 18.2013043605921 1.6501475315382272 0 0 0
2051 4 26.271792661231277 20.224027112033546 0.060879970884847597 0 0 0
2057 4 29.774696780157274 20.224027112033546 0.060879970884847326 0 0 0
2044 1 24.52064438512051 21.2349083146031 1.6501475315382275 0 0 0
2050 1 28.02354850404651 21.2349083146031 1.6501475315382272 0 0 0
1884 4 31.526148839620273 17.190423158022547 0.06087997088484782 0 0 0
2061 1 33.27790468243551 18.2013043605921 1.6501475315382275 0 0 0
1890 4 35.02905295854628 17.190423158022547 0.06087997088484756 0 0 0
2063 4 33.277600899083275 20.224027112033546 0.0608799708848492 0 0 0
2056 1 31.52645262297251 21.2349083146031 1.650147531538227 0 0 0
2062 1 35.02935674189851 21.2349083146031 1.650147531538227 0 0 0
2067 1 36.780808801361516 18.2013043605921 1.6501475315382272 0 0 0
1896 4 38.53195707747228 17.190423158022547 0.06087997088484734 0 0 0
2073 1 40.28371292028751 18.2013043605921 1.650147531538227 0 0 0
2069 4 36.78050501800928 20.224027112033546 0.06087997088484731 0 0 0
2075 4 40.283409136935276 20.224027112033546 0.060879970884847624 0 0 0
2068 1 38.53226086082451 21.2349083146031 1.6501475315382272 0 0 0
1902 4 42.034861196398275 17.190423158022547 0.060879970884849 0 0 0
2079 1 43.78661703921351 18.2013043605921 1.650147531538227 0 0 0
1908 4 45.53776531532428 17.190423158022547 0.060879970884847305 0 0 0
2085 1 47.28952115813951 18.2013043605921 1.6501475315382272 0 0 0
2081 4 43.78631325586128 20.224027112033546 0.060879970884847576 0 0 0
2087 4 47.28921737478728 20.224027112033546 0.060879970884847354 0 0 0
2074 1 42.03516497975051 21.2349083146031 1.6501475315382275 0 0 0
2080 1 45.538069098676516 21.2349083146031 1.6501475315382272 0 0 0
1914 4 49.040669434250276 17.190423158022547 0.060879970884847256 0 0 0
1917 1 50.792425277065504 18.2013043605921 1.6501475315382275 -1 0 0
1746 4 52.54357355317627 17.190423158022547 0.06087997088484758 -1 0 0
1919 4 50.792121493713275 20.224027112033546 0.060879970884848186 -1 0 0
2086 1 49.04097321760251 21.2349083146031 1.650147531538227 0 0 0
1918 1 52.54387733652851 21.2349083146031 1.650147531538227 -1 0 0
1923 1 54.29532939599151 18.201304360592097 1.6501475315382275 -1 0 0
1752 4 56.04647767210228 17.190423158022547 0.060879970884848464 -1 0 0
1929 1 57.79823351491751 18.2013043605921 1.6501475315382272 -1 0 0
1758 4 59.549381791028274 17.190423158022547 0.060879970884847166 -1 0 0
1925 4 54.29502561263927 20.224027112033546 0.06087997088484798 -1 0 0
1931 4 57.797929731565276 20.224027112033546 0.06087997088484768 -1 0 0
1924 1 56.04678145545451 21.234908314603096 1.6501475315382275 -1 0 0
1930 1 59.54968557438051 21.2349083146031 1.650147531538227 -1 0 0
1935 1 61.30113763384351 18.2013043605921 1.6501475315382275 -1 0 0
1764 4 63.05228590995428 17.190423158022547 0.060879970884847714 -1 0 0
1941 1 64.8040417527695 18.2013043605921 1.6501475315382277 -1 0 0
1937 4 61.30083385049127 20.224027112033546 0.06087997088484819 -1 0 0
1943 4 64.80373796941727 20.224027112033546 0.06087997088484704 -1 0 0
1936 1 63.05258969330651 21.2349083146031 1.6501475315382275 -1 0 0
1770 4 66.55519002888028 17.190423158022547 0.060879970884849 -1 0 0
1947 1 68.30694587169552 18.2013043605921 1.6501475315382272 -1 0 0
1776 4 70.05809414780627 17.190423158022547 0.06087997088484734 -1 0 0
1949 4 68.30664208834328 20.224027112033546 0.0608799708848481 -1 0 0
1942 1 66.55549381223251 21.234908314603096 1.6501475315382264 -1 0 0
1948 1 70.05839793115851 21.2349083146031 1.6501475315382272 -1 0 0
1953 1 71.8098499906215 18.2013043605921 1.6501475315382272 -1 0 0
1782 4 73.56099826673227 17.190423158022547 0.060879970884847354 -1 0 0
1788 4 77.06390238565827 17.190423158022547 0.060879970884847055 -1 0 0
1959 1 75.3127541095475 18.2013043605921 1.6501475315382272 -1 0 0
1955 4 71.80954620726928 20.224027112033546 0.060879970884847354 -1 0 0
1961 4 75.31245032619528 20.224027112033546 0.06087997088484735 -1 0 0
1954 1 73.5613020500845 21.2349083146031 1.6501475315382272 -1 0 0
1960 1 77.0642061690105 21.2349083146031 1.6501475315382281 -1 0 0
1965 1 78.81565822847351 18.201304360592097 1.6501475315382264 -1 0 0
1794 4 80.56680650458428 17.190423158022547 0.060879970884848096 -1 0 0
1971 1 82.3185623473995 18.2013043605921 1.6501475315382281 -1 0 0
1967 4 78.81535444512127 20.224027112033546 0.060879970884849 -1 0 0
1973 4 82.31825856404727 20.224027112033546 0.060879970884847034 -1 0 0
1966 1 80.56711028793652 21.2349083146031 1.6501475315382272 -1 0 0
1800 4 84.06971062351028 17.190423158022547 0.060879970884849 -1 0 0
1977 1 85.82146646632552 18.2013043605921 1.6501475315382272 -1 0 0
1806 4 87.57261474243627 17.190423158022547 0.06087997088484704 -1 0 0
1983 1 89.32437058525151 18.201304360592097 1.6501475315382264 -1 0 0
1979 4 85.82116268297328 20.224027112033546 0.06087997088484809 -1 0 0
1985 4 89.32406680189928 20.224027112033546 0.06087997088484902 -1 0 0
1972 1 84.07001440686251 21.234908314603096 1.6501475315382264 -1 0 0
1978 1 87.57291852578851 21.2349083146031 1.6501475315382281 -1 0 0
1812 4 91.07551886136228 17.190423158022547 0.060879970884847374 -1 0 0
1989 1 92.82727470417751 18.2013043605921 1.6501475315382286 -1 0 0
1818 4 94.57842298028827 17.190423158022547 0.06087997088484737 -1 0 0
1991 4 92.82697092082527 20.224027112033543 0.06087997088484554 -1 0 0
1984 1 91.07582264471452 21.2349083146031 1.650147531538227 -1 0 0
1990 1 94.5787267636405 21.2349083146031 1.6501475315382268 -1 0 0
1995 1 96.33017882310351 18.201304360592097 1.6501475315382264 -1 0 0
1824 4 98.08132709921428 17.190423158022547 0.0608799708848481 -1 0 0
2001 1 99.8330829420295 18.2013043605921 1.6501475315382277 -1 0 0
1997 4 96.32987503975127 20.224027112033546 0.06087997088484902 -1 0 0
2003 4 99.83277915867727 20.224027112033546 0.060879970884847215 -1 0 0
1996 1 98.08163088256651 21.2349083146031 1.650147531538227 -1 0 0
2004 4 1.1769286274738753e-05 23.257631066044546 0.06087997088484809 0 0 0
2181 1 1.751767612101507 24.2685122686141 1.650147531538227 0 0 0
2010 4 3.502915888212275 23.257631066044546 0.060879970884848277 0 0 0
2187 1 5.254671731027508 24.268512268614096 1.6501475315382275 0 0 0
2183 4 1.7514638287492748 26.291235020055545 0.06087997088484748 0 0 0
2189 4 5.254367947675276 26.291235020055545 0.06087997088484829 0 0 0
2176 1 0.000315552638505777 27.302116222625095 1.650147531538227 0 0 0
2182 1 3.503219671564508 27.302116222625095 1.6501475315382275 0 0 0
2016 4 7.005820007138277 23.257631066044546 0.060879970884847465 0 0 0
2193 1 8.757575849953508 24.2685122686141 1.6501475315382272 0 0 0
2022 4 10.508724126064275 23.257631066044546 0.0608799708848472 0 0 0
2195 4 8.757272066601276 26.291235020055545 0.060879970884847284 0 0 0
2188 1 7.006123790490509 27.3021162226251 1.650147531538227 0 0 0
2194 1 10.509027909416508 27.3021162226251 1.6501475315382272 0 0 0
2199 1 12.260479968879507 24.2685122686141 1.650147531538227 0 0 0
2028 4 14.011628244990273 23.257631066044546 0.06087997088484836 0 0 0
2205 1 15.763384087805509 24.268512268614096 1.6501475315382272 0 0 0
2034 4 17.514532363916278 23.257631066044546 0.060879970884847576 0 0 0
2201 4 12.260176185527273 26.291235020055545 0.06087997088484739 0 0 0
2207 4 15.763080304453275 26.291235020055545 0.06087997088484894 0 0 0
2200 1 14.011932028342507 27.302116222625095 1.6501475315382272 0 0 0
2206 1 17.514836147268507 27.3021162226251 1.650147531538227 0 0 0