LAMMPS data file via write_data, version 29 Aug 2024, timestep = 2, units = metal

8352 atoms
9 atom types

0 101.584219448854 xlo xhi
0 97.075326528352 ylo yhi
-50 50 zlo zhi

Masses

1 180.94788
2 180.94788
3 180.94788
4 78.971
5 78.971
6 78.971
7 78.971
8 78.971
9 78.971

Atoms # atomic

1487 5 1.7514637810013134 2.0224033810336506 0.060492663289703666 0 0 0
1480 1 0.0003204217957029492 3.033279719283222 1.650102102643363 0 0 0
1486 1 3.503224540721705 3.0332797192832217 1.6501021026433627 0 0 0
1493 5 5.254367899927316 2.022403381033651 0.0604926632897042 0 0 0
1482 5 1.1721538313975039e-05 5.056007335044652 0.060492663289702896 0 0 0
1488 5 3.5029158404643135 5.056007335044652 0.06049266328970355 0 0 0
1492 1 7.006128659647707 3.0332797192832217 1.6501021026433627 0 0 0
1499 5 8.757272018853314 2.02240338103365 0.06049266328970319 0 0 0
1498 1 10.509032778573703 3.0332797192832217 1.6501021026433624 0 0 0
1494 5 7.005819959390315 5.056007335044651 0.06049266328970278 0 0 0
1500 5 10.508724078316313 5.056007335044651 0.060492663289702556 0 0 0
1505 5 12.260176137779311 2.0224033810336506 0.06049266328970336 0 0 0
1504 1 14.011936897499703 3.0332797192832217 1.6501021026433627 0 0 0
1511 5 15.763080256705315 2.022403381033652 0.06049266328970512 0 0 0
1510 1 17.514841016425706 3.0332797192832217 1.6501021026433627 0 0 0
1506 5 14.011628197242313 5.056007335044652 0.06049266328970368 0 0 0
1512 5 17.514532316168317 5.056007335044651 0.060492663289702854 0 0 0
1517 5 19.265984375631316 2.02240338103365 0.06049266328970319 0 0 0
1516 1 21.017745135351703 3.0332797192832217 1.6501021026433627 0 0 0
1523 5 22.768888494557313 2.0224033810336506 0.060492663289703624 0 0 0
1518 5 21.017436435094314 5.056007335044651 0.060492663289702875 0 0 0
1529 5 26.271792613483317 2.0224033810336506 0.06049266328970332 0 0 0
1522 1 24.520649254277707 3.0332797192832217 1.6501021026433627 0 0 0
1528 1 28.023553373203708 3.0332797192832217 1.6501021026433627 0 0 0
1535 5 29.774696732409314 2.0224033810336506 0.060492663289703416 0 0 0
1524 5 24.520340554020315 5.056007335044653 0.06049266328970411 0 0 0
1530 5 28.023244672946316 5.056007335044651 0.060492663289702646 0 0 0
1534 1 31.52645749212971 3.0332797192832217 1.6501021026433627 0 0 0
1541 5 33.277600851335315 2.022403381033652 0.060492663289704776 0 0 0
1540 1 35.029361611055705 3.0332797192832217 1.6501021026433627 0 0 0
1536 5 31.526148791872313 5.056007335044651 0.06049266328970294 0 0 0
1542 5 35.02905291079832 5.056007335044651 0.06049266328970302 0 0 0
1547 5 36.78050497026131 2.02240338103365 0.06049266328970314 0 0 0
1546 1 38.5322657299817 3.0332797192832217 1.6501021026433627 0 0 0
1553 5 40.28340908918731 2.0224033810336506 0.06049266328970361 0 0 0
1548 5 38.53195702972432 5.056007335044651 0.06049266328970266 0 0 0
1552 1 42.03516984890771 3.0332797192832213 1.6501021026433622 0 0 0
1559 5 43.78631320811332 2.0224033810336506 0.06049266328970358 0 0 0
1558 1 45.53807396783371 3.0332797192832217 1.6501021026433627 0 0 0
1565 5 47.28921732703932 2.02240338103365 0.060492663289703145 0 0 0
1554 5 42.034861148650315 5.056007335044653 0.06049266328970411 0 0 0
1560 5 45.53776526757631 5.056007335044651 0.06049266328970267 0 0 0
1397 5 50.792121445965314 2.022403381033651 0.06049266328970391 -1 0 0
1564 1 49.04097808675971 3.033279719283222 1.650102102643363 0 0 0
1396 1 52.543882205685705 3.0332797192832217 1.6501021026433627 -1 0 0
1566 5 49.04066938650231 5.056007335044651 0.06049266328970255 0 0 0
1398 5 52.54357350542831 5.056007335044651 0.060492663289702875 -1 0 0
1403 5 54.29502556489131 2.022403381033651 0.06049266328970399 -1 0 0
1402 1 56.0467863246117 3.0332797192832217 1.6501021026433627 -1 0 0
1409 5 57.797929683817316 2.0224033810336506 0.06049266328970361 -1 0 0
1408 1 59.549690443537706 3.0332797192832217 1.6501021026433627 -1 0 0
1404 5 56.04647762435432 5.056007335044652 0.060492663289703846 -1 0 0
1410 5 59.549381743280314 5.056007335044651 0.060492663289702486 -1 0 0
1415 5 61.30083380274331 2.022403381033651 0.0604926632897039 -1 0 0
1414 1 63.0525945624637 3.0332797192832213 1.650102102643362 -1 0 0
1421 5 64.80373792166931 2.02240338103365 0.06049266328970305 -1 0 0
1416 5 63.05228586220632 5.056007335044652 0.06049266328970303 -1 0 0
1420 1 66.55549868138971 3.033279719283222 1.6501021026433638 -1 0 0
1427 5 68.30664204059532 2.022403381033651 0.06049266328970421 -1 0 0
1426 1 70.0584028003157 3.0332797192832217 1.6501021026433627 -1 0 0
1422 5 66.55518998113232 5.056007335044653 0.0604926632897042 -1 0 0
1428 5 70.05809410005831 5.056007335044651 0.06049266328970265 -1 0 0
1433 5 71.80954615952132 2.02240338103365 0.06049266328970315 -1 0 0
1432 1 73.5613069192417 3.0332797192832217 1.6501021026433627 -1 0 0
1439 5 75.31245027844732 2.02240338103365 0.060492663289703055 -1 0 0
1438 1 77.0642110381677 3.0332797192832213 1.6501021026433615 -1 0 0
1434 5 73.56099821898431 5.056007335044651 0.060492663289702674 -1 0 0
1440 5 77.0639023379103 5.056007335044651 0.060492663289702465 -1 0 0
1445 5 78.81535439737331 2.0224033810336515 0.06049266328970479 -1 0 0
1444 1 80.56711515709371 3.0332797192832217 1.6501021026433627 -1 0 0
1451 5 82.31825851629931 2.0224033810336506 0.06049266328970304 -1 0 0
1446 5 80.56680645683632 5.056007335044652 0.06049266328970352 -1 0 0
1450 1 84.0700192760197 3.033279719283222 1.6501021026433638 -1 0 0
1457 5 85.82116263522532 2.0224033810336506 0.06049266328970411 -1 0 0
1456 1 87.5729233949457 3.0332797192832213 1.6501021026433615 -1 0 0
1463 5 89.32406675415132 2.0224033810336515 0.0604926632897048 -1 0 0
1452 5 84.06971057576231 5.056007335044653 0.060492663289704166 -1 0 0
1458 5 87.57261469468831 5.056007335044651 0.060492663289702445 -1 0 0
1462 1 91.07582751387172 3.0332797192832217 1.6501021026433624 -1 0 0
1469 5 92.82697087307731 2.0224033810336493 0.06049266328970161 -1 0 0
1468 1 94.5787316327977 3.0332797192832217 1.6501021026433627 -1 0 0
1464 5 91.07551881361431 5.056007335044651 0.06049266328970274 -1 0 0
1470 5 94.5784229325403 5.056007335044651 0.060492663289702694 -1 0 0
1475 5 96.32987499200331 2.0224033810336515 0.06049266328970489 -1 0 0
1474 1 98.08163575172371 3.0332797192832217 1.6501021026433627 -1 0 0
1481 5 99.83277911092931 2.02240338103365 0.06049266328970323 -1 0 0
1476 5 98.08132705146632 5.056007335044652 0.06049266328970362 -1 0 0
1659 1 1.7517724812587037 6.066883673294221 1.6501021026433627 0 0 0
1665 1 5.2546766001847045 6.066883673294221 1.6501021026433624 0 0 0
1661 5 1.7514637810013134 8.08961128905565 0.06049266328970268 0 0 0
1654 1 0.00032042179570291354 9.100487627305222 1.6501021026433622 0 0 0
1660 1 3.503224540721705 9.100487627305222 1.6501021026433615 0 0 0
1667 5 5.254367899927315 8.089611289055652 0.0604926632897033 0 0 0
1656 5 1.1721538313918057e-05 11.123215243066653 0.060492663289702764 0 0 0
1662 5 3.5029158404643135 11.123215243066653 0.060492663289703354 0 0 0
1671 1 8.757580719110704 6.066883673294221 1.6501021026433627 0 0 0
1666 1 7.006128659647707 9.100487627305222 1.6501021026433618 0 0 0
1673 5 8.757272018853314 8.08961128905565 0.06049266328970228 0 0 0
1672 1 10.509032778573703 9.100487627305222 1.6501021026433618 0 0 0
1668 5 7.005819959390315 11.123215243066653 0.06049266328970265 0 0 0
1674 5 10.508724078316313 11.123215243066653 0.06049266328970249 0 0 0
1677 1 12.260484838036701 6.066883673294221 1.6501021026433624 0 0 0
1683 1 15.763388956962705 6.066883673294221 1.6501021026433627 0 0 0
1679 5 12.260176137779313 8.08961128905565 0.06049266328970235 0 0 0
1678 1 14.011936897499703 9.100487627305222 1.6501021026433615 0 0 0
1685 5 15.763080256705315 8.089611289055652 0.06049266328970421 0 0 0
1684 1 17.514841016425706 9.100487627305222 1.6501021026433615 0 0 0
1680 5 14.011628197242311 11.123215243066653 0.060492663289703666 0 0 0
1686 5 17.514532316168317 11.123215243066653 0.060492663289702674 0 0 0
1689 1 19.266293075888708 6.066883673294221 1.6501021026433624 0 0 0
1695 1 22.76919719481471 6.066883673294221 1.6501021026433624 0 0 0
1691 5 19.265984375631316 8.08961128905565 0.06049266328970235 0 0 0
1690 1 21.017745135351703 9.100487627305222 1.6501021026433615 0 0 0
1697 5 22.768888494557313 8.08961128905565 0.06049266328970266 0 0 0
1692 5 21.017436435094314 11.123215243066653 0.06049266328970273 0 0 0
1701 1 26.272101313740706 6.066883673294221 1.6501021026433624 0 0 0
1707 1 29.775005432666703 6.066883673294221 1.6501021026433624 0 0 0
1703 5 26.271792613483317 8.08961128905565 0.060492663289702354 0 0 0
1696 1 24.520649254277707 9.100487627305222 1.6501021026433615 0 0 0
1702 1 28.023553373203708 9.100487627305222 1.6501021026433618 0 0 0
1709 5 29.774696732409314 8.08961128905565 0.06049266328970262 0 0 0
1698 5 24.520340554020315 11.123215243066655 0.06049266328970386 0 0 0
1704 5 28.023244672946316 11.123215243066653 0.06049266328970273 0 0 0
1713 1 33.27790955159271 6.066883673294221 1.650102102643362 0 0 0
1708 1 31.52645749212971 9.100487627305222 1.6501021026433618 0 0 0
1715 5 33.277600851335315 8.089611289055652 0.060492663289703985 0 0 0
1714 1 35.029361611055705 9.100487627305222 1.6501021026433615 0 0 0
1710 5 31.526148791872313 11.123215243066653 0.060492663289702736 0 0 0
1716 5 35.02905291079831 11.123215243066653 0.06049266328970284 0 0 0
1719 1 36.78081367051871 6.066883673294221 1.6501021026433624 0 0 0
1725 1 40.28371778944471 6.066883673294221 1.6501021026433629 0 0 0
1721 5 36.78050497026131 8.08961128905565 0.06049266328970231 0 0 0
1720 1 38.5322657299817 9.100487627305222 1.6501021026433618 0 0 0
1727 5 40.28340908918731 8.08961128905565 0.06049266328970264 0 0 0
1722 5 38.53195702972432 11.123215243066653 0.06049266328970243 0 0 0
1731 1 43.786621908370705 6.066883673294221 1.6501021026433624 0 0 0
1737 1 47.2895260272967 6.066883673294221 1.6501021026433624 0 0 0
1726 1 42.03516984890771 9.100487627305222 1.650102102643361 0 0 0
1733 5 43.78631320811332 8.08961128905565 0.06049266328970262 0 0 0
1732 1 45.53807396783371 9.100487627305222 1.6501021026433615 0 0 0
1739 5 47.28921732703932 8.08961128905565 0.060492663289702306 0 0 0
1728 5 42.034861148650315 11.123215243066655 0.06049266328970418 0 0 0
1734 5 45.53776526757631 11.123215243066653 0.06049266328970242 0 0 0
1569 1 50.7924301462227 6.066883673294221 1.6501021026433624 -1 0 0
1571 5 50.792121445965314 8.089611289055652 0.06049266328970313 -1 0 0
1738 1 49.04097808675971 9.100487627305222 1.6501021026433622 0 0 0
1570 1 52.543882205685705 9.100487627305222 1.6501021026433615 -1 0 0
1740 5 49.040669386502316 11.123215243066653 0.06049266328970238 0 0 0
1572 5 52.54357350542831 11.123215243066653 0.060492663289702854 -1 0 0
1575 1 54.2953342651487 6.066883673294221 1.6501021026433624 -1 0 0
1581 1 57.79823838407471 6.066883673294221 1.6501021026433624 -1 0 0
1577 5 54.29502556489131 8.089611289055652 0.06049266328970303 -1 0 0
1576 1 56.0467863246117 9.100487627305222 1.6501021026433615 -1 0 0
1583 5 57.797929683817316 8.08961128905565 0.060492663289702694 -1 0 0
1582 1 59.549690443537706 9.100487627305222 1.6501021026433618 -1 0 0
1578 5 56.04647762435432 11.123215243066653 0.06049266328970371 -1 0 0
1584 5 59.549381743280314 11.123215243066653 0.0604926632897024 -1 0 0
1587 1 61.301142503000705 6.066883673294221 1.650102102643362 -1 0 0
1593 1 64.8040466219267 6.066883673294221 1.6501021026433624 -1 0 0
1589 5 61.30083380274331 8.089611289055652 0.06049266328970307 -1 0 0
1588 1 63.0525945624637 9.100487627305222 1.650102102643361 -1 0 0
1595 5 64.80373792166931 8.08961128905565 0.060492663289702084 -1 0 0
1590 5 63.05228586220632 11.123215243066653 0.06049266328970282 -1 0 0
1599 1 68.30695074085271 6.066883673294221 1.6501021026433624 -1 0 0
1594 1 66.55549868138971 9.100487627305222 1.6501021026433627 -1 0 0
1601 5 68.30664204059532 8.08961128905565 0.06049266328970324 -1 0 0
1600 1 70.0584028003157 9.100487627305222 1.6501021026433618 -1 0 0
1596 5 66.55518998113232 11.123215243066655 0.060492663289704186 -1 0 0
1602 5 70.05809410005831 11.123215243066653 0.0604926632897025 -1 0 0
1605 1 71.80985485977871 6.066883673294221 1.6501021026433624 -1 0 0
1611 1 75.31275897870471 6.066883673294221 1.6501021026433624 -1 0 0
1607 5 71.80954615952132 8.08961128905565 0.06049266328970236 -1 0 0
1606 1 73.5613069192417 9.100487627305222 1.6501021026433618 -1 0 0
1613 5 75.31245027844732 8.08961128905565 0.060492663289702264 -1 0 0
1612 1 77.0642110381677 9.100487627305222 1.6501021026433607 -1 0 0
1608 5 73.56099821898431 11.123215243066653 0.06049266328970252 -1 0 0
1614 5 77.0639023379103 11.123215243066653 0.06049266328970222 -1 0 0
1617 1 78.8156630976307 6.066883673294222 1.6501021026433635 -1 0 0
1623 1 82.3185672165567 6.06688367329422 1.6501021026433615 -1 0 0
1619 5 78.81535439737331 8.089611289055652 0.06049266328970399 -1 0 0
1618 1 80.56711515709371 9.100487627305222 1.6501021026433615 -1 0 0
1625 5 82.31825851629931 8.08961128905565 0.06049266328970208 -1 0 0
1620 5 80.56680645683632 11.123215243066653 0.06049266328970334 -1 0 0
1629 1 85.82147133548271 6.066883673294221 1.6501021026433624 -1 0 0
1635 1 89.32437545440871 6.066883673294222 1.6501021026433635 -1 0 0
1624 1 84.0700192760197 9.100487627305222 1.6501021026433627 -1 0 0
1631 5 85.82116263522532 8.08961128905565 0.06049266328970314 -1 0 0
1630 1 87.5729233949457 9.100487627305222 1.6501021026433607 -1 0 0
1637 5 89.32406675415132 8.089611289055652 0.060492663289704006 -1 0 0
1626 5 84.06971057576231 11.123215243066655 0.060492663289704145 -1 0 0
1632 5 87.57261469468831 11.123215243066653 0.06049266328970221 -1 0 0
1641 1 92.8272795733347 6.06688367329422 1.6501021026433613 -1 0 0
1636 1 91.07582751387172 9.100487627305222 1.6501021026433615 -1 0 0
1643 5 92.82697087307731 8.089611289055648 0.06049266328970072 -1 0 0
1642 1 94.57873163279771 9.100487627305222 1.6501021026433615 -1 0 0
1638 5 91.07551881361431 11.123215243066653 0.06049266328970252 -1 0 0
1644 5 94.5784229325403 11.123215243066653 0.06049266328970253 -1 0 0
1647 1 96.3301836922607 6.066883673294222 1.6501021026433635 -1 0 0
1653 1 99.8330878111867 6.066883673294221 1.6501021026433622 -1 0 0
1649 5 96.32987499200331 8.089611289055652 0.06049266328970409 -1 0 0
1648 1 98.08163575172371 9.100487627305222 1.6501021026433615 -1 0 0
1655 5 99.83277911092931 8.08961128905565 0.06049266328970226 -1 0 0
1650 5 98.08132705146632 11.123215243066653 0.06049266328970338 -1 0 0
1833 1 1.7517724812587037 12.134091581316223 1.6501021026433624 0 0 0
1839 1 5.2546766001847045 12.134091581316222 1.6501021026433624 0 0 0
1835 5 1.7514637810013132 14.156819197077652 0.06049266328970308 0 0 0
1828 1 0.00032042179570299724 15.167695535327223 1.6501021026433629 0 0 0
1834 1 3.503224540721705 15.167695535327221 1.6501021026433624 0 0 0
1841 5 5.254367899927316 14.156819197077652 0.06049266328970363 0 0 0
1845 1 8.757580719110704 12.134091581316223 1.6501021026433627 0 0 0
1840 1 7.006128659647706 15.167695535327223 1.6501021026433624 0 0 0
1847 5 8.757272018853314 14.156819197077652 0.06049266328970273 0 0 0
1846 1 10.509032778573703 15.167695535327223 1.6501021026433622 0 0 0
1851 1 12.260484838036701 12.134091581316223 1.6501021026433624 0 0 0
1857 1 15.763388956962705 12.134091581316223 1.6501021026433624 0 0 0
1853 5 12.260176137779311 14.156819197077652 0.06049266328970281 0 0 0
1852 1 14.011936897499703 15.167695535327221 1.6501021026433627 0 0 0
1859 5 15.763080256705315 14.156819197077654 0.06049266328970434 0 0 0
1858 1 17.514841016425706 15.167695535327223 1.6501021026433624 0 0 0
1863 1 19.266293075888708 12.134091581316223 1.6501021026433624 0 0 0
1869 1 22.76919719481471 12.134091581316223 1.6501021026433627 0 0 0
1865 5 19.265984375631316 14.156819197077652 0.060492663289702944 0 0 0
1864 1 21.017745135351703 15.167695535327223 1.6501021026433622 0 0 0
1871 5 22.768888494557313 14.156819197077652 0.06049266328970307 0 0 0
1875 1 26.272101313740706 12.134091581316223 1.6501021026433624 0 0 0
1881 1 29.775005432666703 12.134091581316223 1.6501021026433624 0 0 0
1877 5 26.271792613483317 14.156819197077652 0.060492663289702826 0 0 0
1870 1 24.520649254277707 15.167695535327221 1.6501021026433624 0 0 0
1876 1 28.023553373203708 15.167695535327223 1.6501021026433622 0 0 0
1883 5 29.774696732409314 14.156819197077652 0.06049266328970292 0 0 0
1887 1 33.27790955159271 12.134091581316223 1.6501021026433624 0 0 0
1882 1 31.52645749212971 15.167695535327223 1.6501021026433624 0 0 0
1889 5 33.277600851335315 14.156819197077654 0.06049266328970435 0 0 0
1888 1 35.029361611055705 15.167695535327223 1.6501021026433624 0 0 0
1893 1 36.78081367051871 12.134091581316222 1.650102102643362 0 0 0
1899 1 40.28371778944471 12.134091581316223 1.650102102643363 0 0 0
1895 5 36.78050497026131 14.156819197077652 0.06049266328970264 0 0 0
1894 1 38.5322657299817 15.167695535327221 1.6501021026433615 0 0 0
1901 5 40.283409089187316 14.156819197077652 0.06049266328970316 0 0 0
1905 1 43.786621908370705 12.134091581316223 1.6501021026433624 0 0 0
1911 1 47.2895260272967 12.134091581316222 1.650102102643362 0 0 0
1900 1 42.03516984890771 15.167695535327223 1.650102102643363 0 0 0
1907 5 43.78631320811331 14.156819197077652 0.06049266328970309 0 0 0
1906 1 45.53807396783371 15.167695535327221 1.6501021026433618 0 0 0
1913 5 47.28921732703932 14.156819197077652 0.06049266328970266 0 0 0
1743 1 50.7924301462227 12.134091581316223 1.650102102643363 -1 0 0
1745 5 50.792121445965314 14.156819197077652 0.06049266328970364 -1 0 0
1912 1 49.04097808675971 15.167695535327223 1.6501021026433629 0 0 0
1744 1 52.543882205685705 15.167695535327223 1.6501021026433624 -1 0 0
1749 1 54.2953342651487 12.134091581316222 1.6501021026433627 -1 0 0
1755 1 57.79823838407471 12.134091581316223 1.6501021026433624 -1 0 0
1751 5 54.29502556489131 14.156819197077652 0.06049266328970337 -1 0 0
1750 1 56.0467863246117 15.167695535327221 1.6501021026433624 -1 0 0
1757 5 57.797929683817316 14.156819197077652 0.060492663289703125 -1 0 0
1756 1 59.549690443537706 15.167695535327223 1.6501021026433624 -1 0 0
1761 1 61.301142503000705 12.134091581316222 1.650102102643362 -1 0 0
1767 1 64.8040466219267 12.134091581316223 1.6501021026433624 -1 0 0
1763 5 61.30083380274331 14.156819197077652 0.060492663289703485 -1 0 0
1762 1 63.0525945624637 15.167695535327221 1.6501021026433618 -1 0 0
1769 5 64.80373792166931 14.156819197077652 0.06049266328970256 -1 0 0
1773 1 68.30695074085271 12.134091581316223 1.6501021026433624 -1 0 0
1768 1 66.55549868138971 15.167695535327223 1.6501021026433635 -1 0 0
1775 5 68.30664204059532 14.156819197077652 0.06049266328970367 -1 0 0
1774 1 70.0584028003157 15.167695535327223 1.6501021026433622 -1 0 0
1779 1 71.80985485977871 12.134091581316223 1.6501021026433624 -1 0 0
1785 1 75.31275897870471 12.134091581316223 1.6501021026433624 -1 0 0
1781 5 71.80954615952132 14.156819197077652 0.06049266328970273 -1 0 0
1780 1 73.5613069192417 15.167695535327223 1.6501021026433622 -1 0 0
1787 5 75.31245027844732 14.156819197077652 0.060492663289702625 -1 0 0
1786 1 77.0642110381677 15.167695535327221 1.6501021026433615 -1 0 0
1791 1 78.8156630976307 12.134091581316223 1.6501021026433635 -1 0 0
1797 1 82.3185672165567 12.134091581316222 1.6501021026433613 -1 0 0
1793 5 78.81535439737331 14.156819197077654 0.06049266328970432 -1 0 0
1792 1 80.56711515709371 15.167695535327223 1.6501021026433624 -1 0 0
1799 5 82.31825851629931 14.156819197077652 0.06049266328970255 -1 0 0
1803 1 85.82147133548271 12.134091581316223 1.6501021026433624 -1 0 0
1809 1 89.32437545440871 12.134091581316223 1.6501021026433635 -1 0 0
1798 1 84.0700192760197 15.167695535327223 1.6501021026433635 -1 0 0
1805 5 85.82116263522532 14.156819197077652 0.06049266328970357 -1 0 0
1804 1 87.5729233949457 15.167695535327221 1.6501021026433613 -1 0 0
1811 5 89.32406675415132 14.156819197077654 0.06049266328970433 -1 0 0
1815 1 92.8272795733347 12.134091581316222 1.6501021026433613 -1 0 0
1810 1 91.07582751387172 15.167695535327223 1.6501021026433624 -1 0 0
1817 5 92.82697087307731 14.15681919707765 0.06049266328970096 -1 0 0
1816 1 94.5787316327977 15.167695535327223 1.6501021026433624 -1 0 0
1821 1 96.3301836922607 12.134091581316223 1.6501021026433635 -1 0 0
1827 1 99.8330878111867 12.134091581316223 1.6501021026433622 -1 0 0
1823 5 96.32987499200331 14.156819197077654 0.060492663289704415 -1 0 0
1822 1 98.08163575172371 15.167695535327223 1.6501021026433624 -1 0 0
1829 5 99.83277911092931 14.156819197077652 0.06049266328970258 -1 0 0
1830 5 1.1721538313919233e-05 17.190423151088652 0.06049266328970304 0 0 0
2007 1 1.7517724812587037 18.201299489338222 1.6501021026433624 0 0 0
1836 5 3.5029158404643135 17.190423151088652 0.06049266328970361 0 0 0
2013 1 5.2546766001847045 18.201299489338222 1.6501021026433624 0 0 0
2009 5 1.7514637810013132 20.22402710509965 0.060492663289703076 0 0 0
2015 5 5.254367899927316 20.22402710509965 0.06049266328970363 0 0 0
2002 1 0.00032042179570299724 21.23490344334922 1.6501021026433629 0 0 0
2008 1 3.503224540721705 21.23490344334922 1.6501021026433624 0 0 0
1842 5 7.005819959390315 17.190423151088652 0.06049266328970285 0 0 0
2019 1 8.757580719110704 18.201299489338222 1.6501021026433627 0 0 0
1848 5 10.508724078316313 17.190423151088652 0.06049266328970275 0 0 0
2021 5 8.757272018853314 20.22402710509965 0.060492663289702736 0 0 0
2014 1 7.006128659647706 21.23490344334922 1.6501021026433624 0 0 0
2020 1 10.509032778573703 21.23490344334922 1.6501021026433624 0 0 0
2025 1 12.260484838036703 18.201299489338222 1.6501021026433624 0 0 0
1854 5 14.011628197242311 17.190423151088652 0.06049266328970382 0 0 0
2031 1 15.763388956962705 18.201299489338222 1.6501021026433624 0 0 0
1860 5 17.514532316168317 17.190423151088652 0.06049266328970291 0 0 0
2027 5 12.260176137779311 20.22402710509965 0.06049266328970282 0 0 0
2033 5 15.763080256705315 20.22402710509965 0.060492663289704394 0 0 0
2026 1 14.011936897499703 21.23490344334922 1.6501021026433624 0 0 0
2032 1 17.514841016425706 21.23490344334922 1.6501021026433624 0 0 0
2037 1 19.266293075888708 18.201299489338222 1.6501021026433624 0 0 0
1866 5 21.017436435094314 17.190423151088652 0.060492663289703 0 0 0
2043 1 22.76919719481471 18.201299489338222 1.6501021026433624 0 0 0
2039 5 19.265984375631316 20.22402710509965 0.060492663289702944 0 0 0
2045 5 22.768888494557313 20.22402710509965 0.060492663289703055 0 0 0
2038 1 21.017745135351703 21.23490344334922 1.6501021026433624 0 0 0
1872 5 24.520340554020315 17.190423151088652 0.06049266328970414 0 0 0
2049 1 26.272101313740706 18.201299489338222 1.6501021026433624 0 0 0
1878 5 28.023244672946316 17.190423151088652 0.06049266328970301 0 0 0
2055 1 29.775005432666703 18.201299489338222 1.6501021026433627 0 0 0
2051 5 26.271792613483317 20.22402710509965 0.06049266328970282 0 0 0
2057 5 29.774696732409314 20.22402710509965 0.060492663289702944 0 0 0
2044 1 24.520649254277707 21.23490344334922 1.6501021026433624 0 0 0
2050 1 28.023553373203708 21.23490344334922 1.6501021026433624 0 0 0
1884 5 31.526148791872313 17.190423151088652 0.06049266328970302 0 0 0
2061 1 33.27790955159271 18.201299489338222 1.6501021026433624 0 0 0
1890 5 35.02905291079831 17.190423151088652 0.06049266328970307 0 0 0
2063 5 33.277600851335315 20.22402710509965 0.060492663289704415 0 0 0
2056 1 31.52645749212971 21.23490344334922 1.6501021026433624 0 0 0
2062 1 35.029361611055705 21.23490344334922 1.6501021026433624 0 0 0
2067 1 36.78081367051871 18.201299489338222 1.650102102643362 0 0 0
1896 5 38.53195702972432 17.190423151088652 0.0604926632897027 0 0 0
2073 1 40.28371778944471 18.201299489338222 1.650102102643363 0 0 0
2069 5 36.78050497026131 20.22402710509965 0.060492663289702646 0 0 0
2075 5 40.283409089187316 20.22402710509965 0.060492663289703145 0 0 0
2068 1 38.5322657299817 21.23490344334922 1.6501021026433618 0 0 0
1902 5 42.034861148650315 17.190423151088652 0.06049266328970447 0 0 0
2079 1 43.786621908370705 18.201299489338222 1.6501021026433624 0 0 0
1908 5 45.53776526757631 17.190423151088652 0.0604926632897027 0 0 0
2085 1 47.2895260272967 18.201299489338222 1.650102102643362 0 0 0
2081 5 43.78631320811331 20.22402710509965 0.06049266328970314 0 0 0
2087 5 47.28921732703932 20.22402710509965 0.06049266328970265 0 0 0
2074 1 42.03516984890771 21.23490344334922 1.650102102643363 0 0 0
2080 1 45.53807396783371 21.23490344334922 1.6501021026433618 0 0 0
1914 5 49.040669386502316 17.190423151088652 0.060492663289702646 0 0 0
1917 1 50.7924301462227 18.201299489338222 1.6501021026433629 -1 0 0
1746 5 52.54357350542831 17.190423151088652 0.060492663289703104 -1 0 0
1919 5 50.792121445965314 20.22402710509965 0.06049266328970363 -1 0 0
2086 1 49.04097808675971 21.23490344334922 1.650102102643363 0 0 0
1918 1 52.543882205685705 21.23490344334922 1.6501021026433624 -1 0 0
1923 1 54.2953342651487 18.201299489338222 1.6501021026433624 -1 0 0
1752 5 56.04647762435432 17.190423151088652 0.060492663289703916 -1 0 0
1929 1 57.79823838407471 18.201299489338222 1.6501021026433624 -1 0 0
1758 5 59.549381743280314 17.190423151088652 0.060492663289702604 -1 0 0
1925 5 54.29502556489131 20.22402710509965 0.06049266328970337 -1 0 0
1931 5 57.797929683817316 20.22402710509965 0.06049266328970312 -1 0 0
1924 1 56.0467863246117 21.23490344334922 1.6501021026433624 -1 0 0
1930 1 59.549690443537706 21.23490344334922 1.6501021026433624 -1 0 0
1935 1 61.301142503000705 18.201299489338222 1.650102102643362 -1 0 0
1764 5 63.05228586220632 17.190423151088652 0.060492663289703014 -1 0 0
1941 1 64.8040466219267 18.201299489338222 1.6501021026433624 -1 0 0
1937 5 61.30083380274331 20.22402710509965 0.060492663289703485 -1 0 0
1943 5 64.80373792166931 20.22402710509965 0.06049266328970255 -1 0 0
1936 1 63.0525945624637 21.23490344334922 1.650102102643362 -1 0 0
1770 5 66.55518998113232 17.190423151088652 0.060492663289704415 -1 0 0
1947 1 68.30695074085271 18.201299489338222 1.6501021026433624 -1 0 0
1776 5 70.05809410005831 17.190423151088652 0.06049266328970271 -1 0 0
1949 5 68.30664204059532 20.22402710509965 0.06049266328970366 -1 0 0
1942 1 66.55549868138971 21.23490344334922 1.6501021026433635 -1 0 0
1948 1 70.0584028003157 21.23490344334922 1.6501021026433624 -1 0 0
1953 1 71.80985485977871 18.201299489338222 1.6501021026433624 -1 0 0
1782 5 73.56099821898431 17.190423151088652 0.060492663289702785 -1 0 0
1788 5 77.0639023379103 17.190423151088652 0.0604926632897025 -1 0 0
1959 1 75.31275897870471 18.201299489338222 1.6501021026433624 -1 0 0
1955 5 71.80954615952132 20.22402710509965 0.06049266328970273 -1 0 0
1961 5 75.31245027844732 20.22402710509965 0.06049266328970263 -1 0 0
1954 1 73.5613069192417 21.23490344334922 1.6501021026433624 -1 0 0
1960 1 77.0642110381677 21.23490344334922 1.6501021026433615 -1 0 0
1965 1 78.8156630976307 18.201299489338222 1.6501021026433635 -1 0 0
1794 5 80.56680645683632 17.190423151088652 0.060492663289703576 -1 0 0
1971 1 82.3185672165567 18.201299489338222 1.6501021026433615 -1 0 0
1967 5 78.81535439737331 20.22402710509965 0.06049266328970437 -1 0 0
1973 5 82.31825851629931 20.22402710509965 0.06049266328970254 -1 0 0
1966 1 80.56711515709371 21.23490344334922 1.6501021026433624 -1 0 0
1800 5 84.06971057576231 17.190423151088652 0.060492663289704374 -1 0 0
1977 1 85.82147133548271 18.201299489338222 1.6501021026433624 -1 0 0
1806 5 87.57261469468831 17.190423151088652 0.060492663289702486 -1 0 0
1983 1 89.32437545440871 18.201299489338222 1.6501021026433635 -1 0 0
1979 5 85.82116263522532 20.22402710509965 0.06049266328970356 -1 0 0
1985 5 89.32406675415132 20.22402710509965 0.06049266328970439 -1 0 0
1972 1 84.0700192760197 21.23490344334922 1.6501021026433635 -1 0 0
1978 1 87.5729233949457 21.23490344334922 1.6501021026433613 -1 0 0
1812 5 91.07551881361431 17.190423151088652 0.06049266328970273 -1 0 0
1989 1 92.8272795733347 18.201299489338222 1.6501021026433613 -1 0 0
1818 5 94.5784229325403 17.190423151088652 0.060492663289702805 -1 0 0
1991 5 92.82697087307731 20.224027105099648 0.06049266328970091 -1 0 0
1984 1 91.07582751387172 21.23490344334922 1.6501021026433624 -1 0 0
1990 1 94.57873163279771 21.23490344334922 1.6501021026433624 -1 0 0
1995 1 96.3301836922607 18.201299489338222 1.6501021026433633 -1 0 0
1824 5 98.08132705146632 17.190423151088652 0.060492663289703666 -1 0 0
2001 1 99.8330878111867 18.201299489338222 1.6501021026433624 -1 0 0
1997 5 96.32987499200331 20.22402710509965 0.06049266328970447 -1 0 0
2003 5 99.83277911092931 20.22402710509965 0.0604926632897026 -1 0 0
1996 1 98.08163575172371 21.23490344334922 1.6501021026433624 -1 0 0
2004 5 1.1721538313919233e-05 23.25763105911065 0.06049266328970304 0 0 0
2181 1 1.7517724812587037 24.26850739736022 1.6501021026433624 0 0 0
2010 5 3.5029158404643135 23.25763105911065 0.06049266328970361 0 0 0
2187 1 5.2546766001847045 24.26850739736022 1.6501021026433624 0 0 0
2183 5 1.7514637810013132 26.29123501312165 0.060492663289703076 0 0 0
2189 5 5.254367899927316 26.29123501312165 0.06049266328970363 0 0 0
2176 1 0.00032042179570299724 27.30211135137122 1.6501021026433629 0 0 0
2182 1 3.503224540721705 27.30211135137122 1.6501021026433624 0 0 0
2016 5 7.005819959390315 23.25763105911065 0.06049266328970285 0 0 0
2193 1 8.757580719110704 24.26850739736022 1.6501021026433627 0 0 0
2022 5 10.508724078316313 23.25763105911065 0.06049266328970275 0 0 0
2195 5 8.757272018853314 26.29123501312165 0.060492663289702736 0 0 0
2188 1 7.006128659647706 27.30211135137122 1.6501021026433624 0 0 0
2194 1 10.509032778573703 27.30211135137122 1.6501021026433624 0 0 0
2199 1 12.260484838036703 24.26850739736022 1.6501021026433624 0 0 0
2028 5 14.011628197242311 23.25763105911065 0.06049266328970381 0 0 0
2205 1 15.763388956962705 24.26850739736022 1.6501021026433624 0 0 0
2034 5 17.514532316168317 23.25763105911065 0.060492663289702896 0 0 0
2201 5 12.260176137779311 26.29123501312165 0.06049266328970282 0 0 0