LAMMPS data file via write_data, version 29 Aug 2024, timestep = 0, units = metal

2784 atoms
3 atom types

0 101.584219448854 xlo xhi
0 97.075326528352 ylo yhi
0 18.30338599651 zlo zhi

Masses

1 180.94788
2 78.95999999999999
3 78.971

Atoms # atomic

1485 1 1.7514520594629985 0 1.6525419873139997 0 0 0
1491 1 5.254356178389003 0 1.6525419873139997 0 0 0
1497 1 8.757260297315 0 1.6525419873139997 0 0 0
1503 1 12.260164416240997 0 1.6525419873139997 0 0 0
1509 1 15.763068535167001 0 1.6525419873139997 0 0 0
1515 1 19.265972654092998 0 1.6525419873139997 0 0 0
1521 1 22.768876773018995 0 1.6525419873139997 0 0 0
1527 1 26.271780891945006 0 1.6525419873139997 0 0 0
1533 1 29.774685010871003 0 1.6525419873139997 0 0 0
1539 1 33.277589129797 0 1.6525419873139997 0 0 0
1545 1 36.780493248723 0 1.6525419873139997 0 0 0
1551 1 40.283397367648995 0 1.6525419873139997 0 0 0
1557 1 43.786301486575006 0 1.6525419873139997 0 0 0
1563 1 47.289205605501 0 1.6525419873139997 0 0 0
1395 1 50.792109724427 0 1.6525419873139997 -1 0 0
1401 1 54.295013843353 0 1.6525419873139997 -1 0 0
1407 1 57.797917962279 0 1.6525419873139997 -1 0 0
1413 1 61.300822081205 0 1.6525419873139997 -1 0 0
1419 1 64.803726200131 0 1.6525419873139997 -1 0 0
1425 1 68.306630319057 0 1.6525419873139997 -1 0 0
1431 1 71.809534437983 0 1.6525419873139997 -1 0 0
1437 1 75.312438556909 0 1.6525419873139997 -1 0 0
1443 1 78.815342675835 0 1.6525419873139997 -1 0 0
1449 1 82.318246794761 0 1.6525419873139997 -1 0 0
1455 1 85.821150913687 0 1.6525419873139997 -1 0 0
1461 1 89.324055032613 0 1.6525419873139997 -1 0 0
1467 1 92.826959151539 0 1.6525419873139997 -1 0 0
1473 1 96.329863270465 0 1.6525419873139997 -1 0 0
1479 1 99.832767389391 0 1.6525419873139997 -1 0 0
1487 3 1.7514520594629985 2.0224026360070013 0 0 0 0
1480 1 0 3.0336039540110065 1.6525419873139997 0 0 0
1486 1 3.502904118925997 3.0336039540110065 1.6525419873139997 0 0 0
1493 3 5.254356178389003 2.0224026360070013 0 0 0 0
1492 1 7.005808237852001 3.0336039540110065 1.6525419873139997 0 0 0
1499 3 8.757260297315 2.0224026360070013 0 0 0 0
1498 1 10.508712356777998 3.0336039540110065 1.6525419873139997 0 0 0
1505 3 12.260164416240997 2.0224026360070013 0 0 0 0
1504 1 14.011616475703995 3.0336039540110065 1.6525419873139997 0 0 0
1511 3 15.763068535167001 2.0224026360070013 0 0 0 0
1510 1 17.514520594630007 3.0336039540110065 1.6525419873139997 0 0 0
1517 3 19.265972654092998 2.0224026360070013 0 0 0 0
1516 1 21.017424713556004 3.0336039540110065 1.6525419873139997 0 0 0
1523 3 22.768876773018995 2.0224026360070013 0 0 0 0
1529 3 26.271780891945006 2.0224026360070013 0 0 0 0
1522 1 24.520328832482 3.0336039540110065 1.6525419873139997 0 0 0
1528 1 28.023232951407998 3.0336039540110065 1.6525419873139997 0 0 0
1535 3 29.774685010871003 2.0224026360070013 0 0 0 0
1534 1 31.526137070333995 3.0336039540110065 1.6525419873139997 0 0 0
1541 3 33.277589129797 2.0224026360070013 0 0 0 0
1540 1 35.029041189260006 3.0336039540110065 1.6525419873139997 0 0 0
1547 3 36.780493248723 2.0224026360070013 0 0 0 0
1546 1 38.531945308186 3.0336039540110065 1.6525419873139997 0 0 0
1553 3 40.283397367648995 2.0224026360070013 0 0 0 0
1552 1 42.034849427112 3.0336039540110065 1.6525419873139997 0 0 0
1559 3 43.786301486575006 2.0224026360070013 0 0 0 0
1558 1 45.537753546038 3.0336039540110065 1.6525419873139997 0 0 0
1565 3 47.289205605501 2.0224026360070013 0 0 0 0
1397 3 50.792109724427 2.0224026360070013 0 -1 0 0
1564 1 49.040657664963994 3.0336039540110065 1.6525419873139997 0 0 0
1396 1 52.54356178389 3.0336039540110065 1.6525419873139997 -1 0 0
1403 3 54.295013843353 2.0224026360070013 0 -1 0 0
1402 1 56.046465902816 3.0336039540110065 1.6525419873139997 -1 0 0
1409 3 57.797917962279 2.0224026360070013 0 -1 0 0
1408 1 59.549370021742 3.0336039540110065 1.6525419873139997 -1 0 0
1415 3 61.300822081205 2.0224026360070013 0 -1 0 0
1414 1 63.052274140668004 3.0336039540110065 1.6525419873139997 -1 0 0
1421 3 64.803726200131 2.0224026360070013 0 -1 0 0
1420 1 66.555178259594 3.0336039540110065 1.6525419873139997 -1 0 0
1427 3 68.306630319057 2.0224026360070013 0 -1 0 0
1426 1 70.05808237852 3.0336039540110065 1.6525419873139997 -1 0 0
1433 3 71.809534437983 2.0224026360070013 0 -1 0 0
1432 1 73.560986497446 3.0336039540110065 1.6525419873139997 -1 0 0
1439 3 75.312438556909 2.0224026360070013 0 -1 0 0
1438 1 77.06389061637199 3.0336039540110065 1.6525419873139997 -1 0 0
1445 3 78.815342675835 2.0224026360070013 0 -1 0 0
1444 1 80.566794735298 3.0336039540110065 1.6525419873139997 -1 0 0
1451 3 82.318246794761 2.0224026360070013 0 -1 0 0
1450 1 84.069698854224 3.0336039540110065 1.6525419873139997 -1 0 0
1457 3 85.821150913687 2.0224026360070013 0 -1 0 0
1456 1 87.57260297315 3.0336039540110065 1.6525419873139997 -1 0 0
1463 3 89.324055032613 2.0224026360070013 0 -1 0 0
1462 1 91.07550709207601 3.0336039540110065 1.6525419873139997 -1 0 0
1469 3 92.826959151539 2.0224026360070013 0 -1 0 0
1468 1 94.57841121100199 3.0336039540110065 1.6525419873139997 -1 0 0
1475 3 96.329863270465 2.0224026360070013 0 -1 0 0
1474 1 98.081315329928 3.0336039540110065 1.6525419873139997 -1 0 0
1481 3 99.832767389391 2.0224026360070013 0 -1 0 0
1482 3 0 5.056006590018001 0 0 0 0
1488 3 3.502904118925997 5.056006590018001 0 0 0 0
1494 3 7.005808237852001 5.056006590018001 0 0 0 0
1500 3 10.508712356777998 5.056006590018001 0 0 0 0
1506 3 14.011616475703995 5.056006590018001 0 0 0 0
1512 3 17.514520594630007 5.056006590018001 0 0 0 0
1518 3 21.017424713556004 5.056006590018001 0 0 0 0
1524 3 24.520328832482 5.056006590018001 0 0 0 0
1530 3 28.023232951407998 5.056006590018001 0 0 0 0
1536 3 31.526137070333995 5.056006590018001 0 0 0 0
1542 3 35.029041189260006 5.056006590018001 0 0 0 0
1548 3 38.531945308186 5.056006590018001 0 0 0 0
1554 3 42.034849427112 5.056006590018001 0 0 0 0
1560 3 45.537753546038 5.056006590018001 0 0 0 0
1566 3 49.040657664963994 5.056006590018001 0 0 0 0
1398 3 52.54356178389 5.056006590018001 0 -1 0 0
1404 3 56.046465902816 5.056006590018001 0 -1 0 0
1410 3 59.549370021742 5.056006590018001 0 -1 0 0
1416 3 63.052274140668004 5.056006590018001 0 -1 0 0
1422 3 66.555178259594 5.056006590018001 0 -1 0 0
1428 3 70.05808237852 5.056006590018001 0 -1 0 0
1434 3 73.560986497446 5.056006590018001 0 -1 0 0
1440 3 77.06389061637199 5.056006590018001 0 -1 0 0
1446 3 80.566794735298 5.056006590018001 0 -1 0 0
1452 3 84.069698854224 5.056006590018001 0 -1 0 0
1458 3 87.57260297315 5.056006590018001 0 -1 0 0
1464 3 91.07550709207601 5.056006590018001 0 -1 0 0
1470 3 94.57841121100199 5.056006590018001 0 -1 0 0
1476 3 98.081315329928 5.056006590018001 0 -1 0 0
1659 1 1.7514520594629985 6.067207908022006 1.6525419873139997 0 0 0
1665 1 5.254356178389003 6.067207908022006 1.6525419873139997 0 0 0
1671 1 8.757260297315 6.067207908022006 1.6525419873139997 0 0 0
1677 1 12.260164416240997 6.067207908022006 1.6525419873139997 0 0 0
1683 1 15.763068535167001 6.067207908022006 1.6525419873139997 0 0 0
1689 1 19.265972654092998 6.067207908022006 1.6525419873139997 0 0 0
1695 1 22.768876773018995 6.067207908022006 1.6525419873139997 0 0 0
1701 1 26.271780891945006 6.067207908022006 1.6525419873139997 0 0 0
1707 1 29.774685010871003 6.067207908022006 1.6525419873139997 0 0 0
1713 1 33.277589129797 6.067207908022006 1.6525419873139997 0 0 0
1719 1 36.780493248723 6.067207908022006 1.6525419873139997 0 0 0
1725 1 40.283397367648995 6.067207908022006 1.6525419873139997 0 0 0
1731 1 43.786301486575006 6.067207908022006 1.6525419873139997 0 0 0
1737 1 47.289205605501 6.067207908022006 1.6525419873139997 0 0 0
1569 1 50.792109724427 6.067207908022006 1.6525419873139997 -1 0 0
1575 1 54.295013843353 6.067207908022006 1.6525419873139997 -1 0 0
1581 1 57.797917962279 6.067207908022006 1.6525419873139997 -1 0 0
1587 1 61.300822081205 6.067207908022006 1.6525419873139997 -1 0 0
1593 1 64.803726200131 6.067207908022006 1.6525419873139997 -1 0 0
1599 1 68.306630319057 6.067207908022006 1.6525419873139997 -1 0 0
1605 1 71.809534437983 6.067207908022006 1.6525419873139997 -1 0 0
1611 1 75.312438556909 6.067207908022006 1.6525419873139997 -1 0 0
1617 1 78.815342675835 6.067207908022006 1.6525419873139997 -1 0 0
1623 1 82.318246794761 6.067207908022006 1.6525419873139997 -1 0 0
1629 1 85.821150913687 6.067207908022006 1.6525419873139997 -1 0 0
1635 1 89.324055032613 6.067207908022006 1.6525419873139997 -1 0 0
1641 1 92.826959151539 6.067207908022006 1.6525419873139997 -1 0 0
1647 1 96.329863270465 6.067207908022006 1.6525419873139997 -1 0 0
1653 1 99.832767389391 6.067207908022006 1.6525419873139997 -1 0 0
1661 3 1.7514520594629985 8.089610544029 0 0 0 0
1654 1 0 9.100811862033005 1.6525419873139997 0 0 0
1660 1 3.502904118925997 9.100811862033005 1.6525419873139997 0 0 0
1667 3 5.254356178389003 8.089610544029 0 0 0 0
1666 1 7.005808237852001 9.100811862033005 1.6525419873139997 0 0 0
1673 3 8.757260297315 8.089610544029 0 0 0 0
1672 1 10.508712356777998 9.100811862033005 1.6525419873139997 0 0 0
1679 3 12.260164416240997 8.089610544029 0 0 0 0
1678 1 14.011616475703995 9.100811862033005 1.6525419873139997 0 0 0
1685 3 15.763068535167001 8.089610544029 0 0 0 0
1684 1 17.514520594630007 9.100811862033005 1.6525419873139997 0 0 0
1691 3 19.265972654092998 8.089610544029 0 0 0 0
1690 1 21.017424713556004 9.100811862033005 1.6525419873139997 0 0 0
1697 3 22.768876773018995 8.089610544029 0 0 0 0
1703 3 26.271780891945006 8.089610544029 0 0 0 0
1696 1 24.520328832482 9.100811862033005 1.6525419873139997 0 0 0
1702 1 28.023232951407998 9.100811862033005 1.6525419873139997 0 0 0
1709 3 29.774685010871003 8.089610544029 0 0 0 0
1708 1 31.526137070333995 9.100811862033005 1.6525419873139997 0 0 0
1715 3 33.277589129797 8.089610544029 0 0 0 0
1714 1 35.029041189260006 9.100811862033005 1.6525419873139997 0 0 0
1721 3 36.780493248723 8.089610544029 0 0 0 0
1720 1 38.531945308186 9.100811862033005 1.6525419873139997 0 0 0
1727 3 40.283397367648995 8.089610544029 0 0 0 0
1726 1 42.034849427112 9.100811862033005 1.6525419873139997 0 0 0
1733 3 43.786301486575006 8.089610544029 0 0 0 0
1732 1 45.537753546038 9.100811862033005 1.6525419873139997 0 0 0
1739 3 47.289205605501 8.089610544029 0 0 0 0
1571 3 50.792109724427 8.089610544029 0 -1 0 0
1738 1 49.040657664963994 9.100811862033005 1.6525419873139997 0 0 0
1570 1 52.54356178389 9.100811862033005 1.6525419873139997 -1 0 0
1577 3 54.295013843353 8.089610544029 0 -1 0 0
1576 1 56.046465902816 9.100811862033005 1.6525419873139997 -1 0 0
1583 3 57.797917962279 8.089610544029 0 -1 0 0
1582 1 59.549370021742 9.100811862033005 1.6525419873139997 -1 0 0
1589 3 61.300822081205 8.089610544029 0 -1 0 0
1588 1 63.052274140668004 9.100811862033005 1.6525419873139997 -1 0 0
1595 3 64.803726200131 8.089610544029 0 -1 0 0
1594 1 66.555178259594 9.100811862033005 1.6525419873139997 -1 0 0
1601 3 68.306630319057 8.089610544029 0 -1 0 0
1600 1 70.05808237852 9.100811862033005 1.6525419873139997 -1 0 0
1607 3 71.809534437983 8.089610544029 0 -1 0 0
1606 1 73.560986497446 9.100811862033005 1.6525419873139997 -1 0 0
1613 3 75.312438556909 8.089610544029 0 -1 0 0
1612 1 77.06389061637199 9.100811862033005 1.6525419873139997 -1 0 0
1619 3 78.815342675835 8.089610544029 0 -1 0 0
1618 1 80.566794735298 9.100811862033005 1.6525419873139997 -1 0 0
1625 3 82.318246794761 8.089610544029 0 -1 0 0
1624 1 84.069698854224 9.100811862033005 1.6525419873139997 -1 0 0
1631 3 85.821150913687 8.089610544029 0 -1 0 0
1630 1 87.57260297315 9.100811862033005 1.6525419873139997 -1 0 0
1637 3 89.324055032613 8.089610544029 0 -1 0 0
1636 1 91.07550709207601 9.100811862033005 1.6525419873139997 -1 0 0
1643 3 92.826959151539 8.089610544029 0 -1 0 0
1642 1 94.57841121100199 9.100811862033005 1.6525419873139997 -1 0 0
1649 3 96.329863270465 8.089610544029 0 -1 0 0
1648 1 98.081315329928 9.100811862033005 1.6525419873139997 -1 0 0
1655 3 99.832767389391 8.089610544029 0 -1 0 0
1656 3 0 11.123214498040007 0 0 0 0
1662 3 3.502904118925997 11.123214498040007 0 0 0 0
1668 3 7.005808237852001 11.123214498040007 0 0 0 0
1674 3 10.508712356777998 11.123214498040007 0 0 0 0
1680 3 14.011616475703995 11.123214498040007 0 0 0 0
1686 3 17.514520594630007 11.123214498040007 0 0 0 0
1692 3 21.017424713556004 11.123214498040007 0 0 0 0
1698 3 24.520328832482 11.123214498040007 0 0 0 0
1704 3 28.023232951407998 11.123214498040007 0 0 0 0
1710 3 31.526137070333995 11.123214498040007 0 0 0 0
1716 3 35.029041189260006 11.123214498040007 0 0 0 0
1722 3 38.531945308186 11.123214498040007 0 0 0 0
1728 3 42.034849427112 11.123214498040007 0 0 0 0
1734 3 45.537753546038 11.123214498040007 0 0 0 0
1740 3 49.040657664963994 11.123214498040007 0 0 0 0
1572 3 52.54356178389 11.123214498040007 0 -1 0 0
1578 3 56.046465902816 11.123214498040007 0 -1 0 0
1584 3 59.549370021742 11.123214498040007 0 -1 0 0
1590 3 63.052274140668004 11.123214498040007 0 -1 0 0
1596 3 66.555178259594 11.123214498040007 0 -1 0 0
1602 3 70.05808237852 11.123214498040007 0 -1 0 0
1608 3 73.560986497446 11.123214498040007 0 -1 0 0
1614 3 77.06389061637199 11.123214498040007 0 -1 0 0
1620 3 80.566794735298 11.123214498040007 0 -1 0 0
1626 3 84.069698854224 11.123214498040007 0 -1 0 0
1632 3 87.57260297315 11.123214498040007 0 -1 0 0
1638 3 91.07550709207601 11.123214498040007 0 -1 0 0
1644 3 94.57841121100199 11.123214498040007 0 -1 0 0
1650 3 98.081315329928 11.123214498040007 0 -1 0 0
1833 1 1.7514520594629985 12.134415816044005 1.6525419873139997 0 0 0
1839 1 5.254356178389003 12.134415816044005 1.6525419873139997 0 0 0
1845 1 8.757260297315 12.134415816044005 1.6525419873139997 0 0 0
1851 1 12.260164416240997 12.134415816044005 1.6525419873139997 0 0 0
1857 1 15.763068535167001 12.134415816044005 1.6525419873139997 0 0 0
1863 1 19.265972654092998 12.134415816044005 1.6525419873139997 0 0 0
1869 1 22.768876773018995 12.134415816044005 1.6525419873139997 0 0 0
1875 1 26.271780891945006 12.134415816044005 1.6525419873139997 0 0 0
1881 1 29.774685010871003 12.134415816044005 1.6525419873139997 0 0 0
1887 1 33.277589129797 12.134415816044005 1.6525419873139997 0 0 0
1893 1 36.780493248723 12.134415816044005 1.6525419873139997 0 0 0
1899 1 40.283397367648995 12.134415816044005 1.6525419873139997 0 0 0
1905 1 43.786301486575006 12.134415816044005 1.6525419873139997 0 0 0
1911 1 47.289205605501 12.134415816044005 1.6525419873139997 0 0 0
1743 1 50.792109724427 12.134415816044005 1.6525419873139997 -1 0 0
1749 1 54.295013843353 12.134415816044005 1.6525419873139997 -1 0 0
1755 1 57.797917962279 12.134415816044005 1.6525419873139997 -1 0 0
1761 1 61.300822081205 12.134415816044005 1.6525419873139997 -1 0 0
1767 1 64.803726200131 12.134415816044005 1.6525419873139997 -1 0 0
1773 1 68.306630319057 12.134415816044005 1.6525419873139997 -1 0 0
1779 1 71.809534437983 12.134415816044005 1.6525419873139997 -1 0 0
1785 1 75.312438556909 12.134415816044005 1.6525419873139997 -1 0 0
1791 1 78.815342675835 12.134415816044005 1.6525419873139997 -1 0 0
1797 1 82.318246794761 12.134415816044005 1.6525419873139997 -1 0 0
1803 1 85.821150913687 12.134415816044005 1.6525419873139997 -1 0 0
1809 1 89.324055032613 12.134415816044005 1.6525419873139997 -1 0 0
1815 1 92.826959151539 12.134415816044005 1.6525419873139997 -1 0 0
1821 1 96.329863270465 12.134415816044005 1.6525419873139997 -1 0 0
1827 1 99.832767389391 12.134415816044005 1.6525419873139997 -1 0 0
1835 3 1.7514520594629985 14.156818452051006 0 0 0 0
1828 1 0 15.168019770055004 1.6525419873139997 0 0 0
1834 1 3.502904118925997 15.168019770055004 1.6525419873139997 0 0 0
1841 3 5.254356178389003 14.156818452051006 0 0 0 0
1840 1 7.005808237852001 15.168019770055004 1.6525419873139997 0 0 0
1847 3 8.757260297315 14.156818452051006 0 0 0 0
1846 1 10.508712356777998 15.168019770055004 1.6525419873139997 0 0 0
1853 3 12.260164416240997 14.156818452051006 0 0 0 0
1852 1 14.011616475703995 15.168019770055004 1.6525419873139997 0 0 0
1859 3 15.763068535167001 14.156818452051006 0 0 0 0
1858 1 17.514520594630007 15.168019770055004 1.6525419873139997 0 0 0
1865 3 19.265972654092998 14.156818452051006 0 0 0 0
1864 1 21.017424713556004 15.168019770055004 1.6525419873139997 0 0 0
1871 3 22.768876773018995 14.156818452051006 0 0 0 0
1877 3 26.271780891945006 14.156818452051006 0 0 0 0
1870 1 24.520328832482 15.168019770055004 1.6525419873139997 0 0 0
1876 1 28.023232951407998 15.168019770055004 1.6525419873139997 0 0 0
1883 3 29.774685010871003 14.156818452051006 0 0 0 0
1882 1 31.526137070333995 15.168019770055004 1.6525419873139997 0 0 0
1889 3 33.277589129797 14.156818452051006 0 0 0 0
1888 1 35.029041189260006 15.168019770055004 1.6525419873139997 0 0 0
1895 3 36.780493248723 14.156818452051006 0 0 0 0
1894 1 38.531945308186 15.168019770055004 1.6525419873139997 0 0 0
1901 3 40.283397367648995 14.156818452051006 0 0 0 0
1900 1 42.034849427112 15.168019770055004 1.6525419873139997 0 0 0
1907 3 43.786301486575006 14.156818452051006 0 0 0 0
1906 1 45.537753546038 15.168019770055004 1.6525419873139997 0 0 0
1913 3 47.289205605501 14.156818452051006 0 0 0 0
1745 3 50.792109724427 14.156818452051006 0 -1 0 0
1912 1 49.040657664963994 15.168019770055004 1.6525419873139997 0 0 0
1744 1 52.54356178389 15.168019770055004 1.6525419873139997 -1 0 0
1751 3 54.295013843353 14.156818452051006 0 -1 0 0
1750 1 56.046465902816 15.168019770055004 1.6525419873139997 -1 0 0
1757 3 57.797917962279 14.156818452051006 0 -1 0 0
1756 1 59.549370021742 15.168019770055004 1.6525419873139997 -1 0 0
1763 3 61.300822081205 14.156818452051006 0 -1 0 0
1762 1 63.052274140668004 15.168019770055004 1.6525419873139997 -1 0 0
1769 3 64.803726200131 14.156818452051006 0 -1 0 0
1768 1 66.555178259594 15.168019770055004 1.6525419873139997 -1 0 0
1775 3 68.306630319057 14.156818452051006 0 -1 0 0
1774 1 70.05808237852 15.168019770055004 1.6525419873139997 -1 0 0
1781 3 71.809534437983 14.156818452051006 0 -1 0 0
1780 1 73.560986497446 15.168019770055004 1.6525419873139997 -1 0 0
1787 3 75.312438556909 14.156818452051006 0 -1 0 0
1786 1 77.06389061637199 15.168019770055004 1.6525419873139997 -1 0 0
1793 3 78.815342675835 14.156818452051006 0 -1 0 0
1792 1 80.566794735298 15.168019770055004 1.6525419873139997 -1 0 0
1799 3 82.318246794761 14.156818452051006 0 -1 0 0
1798 1 84.069698854224 15.168019770055004 1.6525419873139997 -1 0 0
1805 3 85.821150913687 14.156818452051006 0 -1 0 0
1804 1 87.57260297315 15.168019770055004 1.6525419873139997 -1 0 0
1811 3 89.324055032613 14.156818452051006 0 -1 0 0
1810 1 91.07550709207601 15.168019770055004 1.6525419873139997 -1 0 0
1817 3 92.826959151539 14.156818452051006 0 -1 0 0
1816 1 94.57841121100199 15.168019770055004 1.6525419873139997 -1 0 0
1823 3 96.329863270465 14.156818452051006 0 -1 0 0
1822 1 98.081315329928 15.168019770055004 1.6525419873139997 -1 0 0
1829 3 99.832767389391 14.156818452051006 0 -1 0 0
1830 3 0 17.190422406062005 0 0 0 0
2007 1 1.7514520594629985 18.201623724066003 1.6525419873139997 0 0 0
1836 3 3.502904118925997 17.190422406062005 0 0 0 0
2013 1 5.254356178389003 18.201623724066003 1.6525419873139997 0 0 0
1842 3 7.005808237852001 17.190422406062005 0 0 0 0
2019 1 8.757260297315 18.201623724066003 1.6525419873139997 0 0 0
1848 3 10.508712356777998 17.190422406062005 0 0 0 0
2025 1 12.260164416240997 18.201623724066003 1.6525419873139997 0 0 0
1854 3 14.011616475703995 17.190422406062005 0 0 0 0
2031 1 15.763068535167001 18.201623724066003 1.6525419873139997 0 0 0
1860 3 17.514520594630007 17.190422406062005 0 0 0 0
2037 1 19.265972654092998 18.201623724066003 1.6525419873139997 0 0 0
1866 3 21.017424713556004 17.190422406062005 0 0 0 0
2043 1 22.768876773018995 18.201623724066003 1.6525419873139997 0 0 0
1872 3 24.520328832482 17.190422406062005 0 0 0 0
2049 1 26.271780891945006 18.201623724066003 1.6525419873139997 0 0 0
1878 3 28.023232951407998 17.190422406062005 0 0 0 0
2055 1 29.774685010871003 18.201623724066003 1.6525419873139997 0 0 0
1884 3 31.526137070333995 17.190422406062005 0 0 0 0
2061 1 33.277589129797 18.201623724066003 1.6525419873139997 0 0 0
1890 3 35.029041189260006 17.190422406062005 0 0 0 0
2067 1 36.780493248723 18.201623724066003 1.6525419873139997 0 0 0
1896 3 38.531945308186 17.190422406062005 0 0 0 0
2073 1 40.283397367648995 18.201623724066003 1.6525419873139997 0 0 0
1902 3 42.034849427112 17.190422406062005 0 0 0 0
2079 1 43.786301486575006 18.201623724066003 1.6525419873139997 0 0 0
1908 3 45.537753546038 17.190422406062005 0 0 0 0
2085 1 47.289205605501 18.201623724066003 1.6525419873139997 0 0 0
1914 3 49.040657664963994 17.190422406062005 0 0 0 0
1917 1 50.792109724427 18.201623724066003 1.6525419873139997 -1 0 0
1746 3 52.54356178389 17.190422406062005 0 -1 0 0
1923 1 54.295013843353 18.201623724066003 1.6525419873139997 -1 0 0
1752 3 56.046465902816 17.190422406062005 0 -1 0 0
1929 1 57.797917962279 18.201623724066003 1.6525419873139997 -1 0 0
1758 3 59.549370021742 17.190422406062005 0 -1 0 0
1935 1 61.300822081205 18.201623724066003 1.6525419873139997 -1 0 0
1764 3 63.052274140668004 17.190422406062005 0 -1 0 0
1941 1 64.803726200131 18.201623724066003 1.6525419873139997 -1 0 0
1770 3 66.555178259594 17.190422406062005 0 -1 0 0
1947 1 68.306630319057 18.201623724066003 1.6525419873139997 -1 0 0
1776 3 70.05808237852 17.190422406062005 0 -1 0 0
1953 1 71.809534437983 18.201623724066003 1.6525419873139997 -1 0 0
1782 3 73.560986497446 17.190422406062005 0 -1 0 0
1788 3 77.06389061637199 17.190422406062005 0 -1 0 0
1959 1 75.312438556909 18.201623724066003 1.6525419873139997 -1 0 0
1965 1 78.815342675835 18.201623724066003 1.6525419873139997 -1 0 0
1794 3 80.566794735298 17.190422406062005 0 -1 0 0
1971 1 82.318246794761 18.201623724066003 1.6525419873139997 -1 0 0
1800 3 84.069698854224 17.190422406062005 0 -1 0 0
1977 1 85.821150913687 18.201623724066003 1.6525419873139997 -1 0 0
1806 3 87.57260297315 17.190422406062005 0 -1 0 0
1983 1 89.324055032613 18.201623724066003 1.6525419873139997 -1 0 0
1812 3 91.07550709207601 17.190422406062005 0 -1 0 0
1989 1 92.826959151539 18.201623724066003 1.6525419873139997 -1 0 0
1818 3 94.57841121100199 17.190422406062005 0 -1 0 0
1995 1 96.329863270465 18.201623724066003 1.6525419873139997 -1 0 0
1824 3 98.081315329928 17.190422406062005 0 -1 0 0
2001 1 99.832767389391 18.201623724066003 1.6525419873139997 -1 0 0
2009 3 1.7514520594629985 20.224026360073005 0 0 0 0
2015 3 5.254356178389003 20.224026360073005 0 0 0 0
2021 3 8.757260297315 20.224026360073005 0 0 0 0
2027 3 12.260164416240997 20.224026360073005 0 0 0 0
2033 3 15.763068535167001 20.224026360073005 0 0 0 0
2039 3 19.265972654092998 20.224026360073005 0 0 0 0
2045 3 22.768876773018995 20.224026360073005 0 0 0 0
2051 3 26.271780891945006 20.224026360073005 0 0 0 0
2057 3 29.774685010871003 20.224026360073005 0 0 0 0
2063 3 33.277589129797 20.224026360073005 0 0 0 0
2069 3 36.780493248723 20.224026360073005 0 0 0 0
2075 3 40.283397367648995 20.224026360073005 0 0 0 0
2081 3 43.786301486575006 20.224026360073005 0 0 0 0
2087 3 47.289205605501 20.224026360073005 0 0 0 0
1919 3 50.792109724427 20.224026360073005 0 -1 0 0
1925 3 54.295013843353 20.224026360073005 0 -1 0 0
1931 3 57.797917962279 20.224026360073005 0 -1 0 0
1937 3 61.300822081205 20.224026360073005 0 -1 0 0
1943 3 64.803726200131 20.224026360073005 0 -1 0 0
1949 3 68.306630319057 20.224026360073005 0 -1 0 0
1955 3 71.809534437983 20.224026360073005 0 -1 0 0
1961 3 75.312438556909 20.224026360073005 0 -1 0 0
1967 3 78.815342675835 20.224026360073005 0 -1 0 0
1973 3 82.318246794761 20.224026360073005 0 -1 0 0
1979 3 85.821150913687 20.224026360073005 0 -1 0 0
1985 3 89.324055032613 20.224026360073005 0 -1 0 0
1991 3 92.826959151539 20.224026360073005 0 -1 0 0
1997 3 96.329863270465 20.224026360073005 0 -1 0 0
2003 3 99.832767389391 20.224026360073005 0 -1 0 0
2002 1 0 21.235227678077003 1.6525419873139997 0 0 0
2008 1 3.502904118925997 21.235227678077003 1.6525419873139997 0 0 0
2014 1 7.005808237852001 21.235227678077003 1.6525419873139997 0 0 0
2020 1 10.508712356777998 21.235227678077003 1.6525419873139997 0 0 0
2026 1 14.011616475703995 21.235227678077003 1.6525419873139997 0 0 0
2032 1 17.514520594630007 21.235227678077003 1.6525419873139997 0 0 0
2038 1 21.017424713556004 21.235227678077003 1.6525419873139997 0 0 0
2044 1 24.520328832482 21.235227678077003 1.6525419873139997 0 0 0
2050 1 28.023232951407998 21.235227678077003 1.6525419873139997 0 0 0
2056 1 31.526137070333995 21.235227678077003 1.6525419873139997 0 0 0
2062 1 35.029041189260006 21.235227678077003 1.6525419873139997 0 0 0
2068 1 38.531945308186 21.235227678077003 1.6525419873139997 0 0 0
2074 1 42.034849427112 21.235227678077003 1.6525419873139997 0 0 0
2080 1 45.537753546038 21.235227678077003 1.6525419873139997 0 0 0
2086 1 49.040657664963994 21.235227678077003 1.6525419873139997 0 0 0
1918 1 52.54356178389 21.235227678077003 1.6525419873139997 -1 0 0
1924 1 56.046465902816 21.235227678077003 1.6525419873139997 -1 0 0
1930 1 59.549370021742 21.235227678077003 1.6525419873139997 -1 0 0
1936 1 63.052274140668004 21.235227678077003 1.6525419873139997 -1 0 0
1942 1 66.555178259594 21.235227678077003 1.6525419873139997 -1 0 0
1948 1 70.05808237852 21.235227678077003 1.6525419873139997 -1 0 0
1954 1 73.560986497446 21.235227678077003 1.6525419873139997 -1 0 0
1960 1 77.06389061637199 21.235227678077003 1.6525419873139997 -1 0 0
1966 1 80.566794735298 21.235227678077003 1.6525419873139997 -1 0 0
1972 1 84.069698854224 21.235227678077003 1.6525419873139997 -1 0 0
1978 1 87.57260297315 21.235227678077003 1.6525419873139997 -1 0 0
1984 1 91.07550709207601 21.235227678077003 1.6525419873139997 -1 0 0
1990 1 94.57841121100199 21.235227678077003 1.6525419873139997 -1 0 0
1996 1 98.081315329928 21.235227678077003 1.6525419873139997 -1 0 0
2004 3 0 23.257630314084004 0 0 0 0
2181 1 1.7514520594629985 24.268831632088002 1.6525419873139997 0 0 0
2010 3 3.502904118925997 23.257630314084004 0 0 0 0
2187 1 5.254356178389003 24.268831632088002 1.6525419873139997 0 0 0
2016 3 7.005808237852001 23.257630314084004 0 0 0 0
2193 1 8.757260297315 24.268831632088002 1.6525419873139997 0 0 0
2022 3 10.508712356777998 23.257630314084004 0 0 0 0
2199 1 12.260164416240997 24.268831632088002 1.6525419873139997 0 0 0
2028 3 14.011616475703995 23.257630314084004 0 0 0 0
2205 1 15.763068535167001 24.268831632088002 1.6525419873139997 0 0 0
2034 3 17.514520594630007 23.257630314084004 0 0 0 0
2211 1 19.265972654092998 24.268831632088002 1.6525419873139997 0 0 0
2040 3 21.017424713556004 23.257630314084004 0 0 0 0
2217 1 22.768876773018995 24.268831632088002 1.6525419873139997 0 0 0
2046 3 24.520328832482 23.257630314084004 0 0 0 0
2223 1 26.271780891945006 24.268831632088002 1.6525419873139997 0 0 0
2052 3 28.023232951407998 23.257630314084004 0 0 0 0
2229 1 29.774685010871003 24.268831632088002 1.6525419873139997 0 0 0
2058 3 31.526137070333995 23.257630314084004 0 0 0 0
2235 1 33.277589129797 24.268831632088002 1.6525419873139997 0 0 0
2064 3 35.029041189260006 23.257630314084004 0 0 0 0
2241 1 36.780493248723 24.268831632088002 1.6525419873139997 0 0 0
2070 3 38.531945308186 23.257630314084004 0 0 0 0
2247 1 40.283397367648995 24.268831632088002 1.6525419873139997 0 0 0
2076 3 42.034849427112 23.257630314084004 0 0 0 0
2253 1 43.786301486575006 24.268831632088002 1.6525419873139997 0 0 0
2082 3 45.537753546038 23.257630314084004 0 0 0 0
2259 1 47.289205605501 24.268831632088002 1.6525419873139997 0 0 0
2088 3 49.040657664963994 23.257630314084004 0 0 0 0
2091 1 50.792109724427 24.268831632088002 1.6525419873139997 -1 0 0
1920 3 52.54356178389 23.257630314084004 0 -1 0 0
2097 1 54.295013843353 24.268831632088002 1.6525419873139997 -1 0 0
1926 3 56.046465902816 23.257630314084004 0 -1 0 0
2103 1 57.797917962279 24.268831632088002 1.6525419873139997 -1 0 0
1932 3 59.549370021742 23.257630314084004 0 -1 0 0
2109 1 61.300822081205 24.268831632088002 1.6525419873139997 -1 0 0
1938 3 63.052274140668004 23.257630314084004 0 -1 0 0
2115 1 64.803726200131 24.268831632088002 1.6525419873139997 -1 0 0
1944 3 66.555178259594 23.257630314084004 0 -1 0 0
2121 1 68.306630319057 24.268831632088002 1.6525419873139997 -1 0 0
1950 3 70.05808237852 23.257630314084004 0 -1 0 0
2127 1 71.809534437983 24.268831632088002 1.6525419873139997 -1 0 0
1956 3 73.560986497446 23.257630314084004 0 -1 0 0
1962 3 77.06389061637199 23.257630314084004 0 -1 0 0
2133 1 75.312438556909 24.268831632088002 1.6525419873139997 -1 0 0
2139 1 78.815342675835 24.268831632088002 1.6525419873139997 -1 0 0
1968 3 80.566794735298 23.257630314084004 0 -1 0 0
2145 1 82.318246794761 24.268831632088002 1.6525419873139997 -1 0 0
1974 3 84.069698854224 23.257630314084004 0 -1 0 0
2151 1 85.821150913687 24.268831632088002 1.6525419873139997 -1 0 0
1980 3 87.57260297315 23.257630314084004 0 -1 0 0
2157 1 89.324055032613 24.268831632088002 1.6525419873139997 -1 0 0
1986 3 91.07550709207601 23.257630314084004 0 -1 0 0
2163 1 92.826959151539 24.268831632088002 1.6525419873139997 -1 0 0
1992 3 94.57841121100199 23.257630314084004 0 -1 0 0
2169 1 96.329863270465 24.268831632088002 1.6525419873139997 -1 0 0
1998 3 98.081315329928 23.257630314084004 0 -1 0 0
2175 1 99.832767389391 24.268831632088002 1.6525419873139997 -1 0 0
2183 3 1.7514520594629985 26.291234268095003 0 0 0 0
2189 3 5.254356178389003 26.291234268095003 0 0 0 0
2195 3 8.757260297315 26.291234268095003 0 0 0 0
2201 3 12.260164416240997 26.291234268095003 0 0 0 0
2207 3 15.763068535167001 26.291234268095003 0 0 0 0
2213 3 19.265972654092998 26.291234268095003 0 0 0 0
2219 3 22.768876773018995 26.291234268095003 0 0 0 0
2225 3 26.271780891945006 26.291234268095003 0 0 0 0
2231 3 29.774685010871003 26.291234268095003 0 0 0 0
2237 3 33.277589129797 26.291234268095003 0 0 0 0
2243 3 36.780493248723 26.291234268095003 0 0 0 0
2249 3 40.283397367648995 26.291234268095003 0 0 0 0
2255 3 43.786301486575006 26.291234268095003 0 0 0 0