LAMMPS data file via write_data, version 29 Aug 2024, timestep = 2, units = metal

5376 atoms
6 atom types

0 100.795832904928 xlo xhi
0 99.762002161472 ylo yhi
-50 50 zlo zhi

Masses

1 50.9415
2 50.9415
3 127.6
4 127.6
5 127.6
6 127.6

Atoms # atomic

1431 4 0 2.0783750450302647 0.05931557919170702 0 0 0
1430 1 1.7999255875879994 3.1175625675455914 1.730049548388267 0 0 0
1437 4 3.599851175175999 2.0783750450302634 0.05931557919170551 0 0 0
1436 1 5.399776762763999 3.1175625675455914 1.730049548388267 0 0 0
1432 4 1.7999255875879994 5.195937612576264 0.05931557919170472 0 0 0
1438 4 5.399776762763999 5.195937612576264 0.05931557919170459 0 0 0
1443 4 7.199702350351998 2.0783750450302634 0.05931557919170547 0 0 0
1442 1 8.999627937939998 3.1175625675455914 1.730049548388267 0 0 0
1449 4 10.799553525527998 2.0783750450302634 0.05931557919170545 0 0 0
1444 4 8.999627937939998 5.195937612576264 0.05931557919170459 0 0 0
1448 1 12.599479113115997 3.1175625675455914 1.730049548388267 0 0 0
1455 4 14.399404700703998 2.0783750450302643 0.05931557919170644 0 0 0
1454 1 16.199330288291996 3.1175625675455914 1.730049548388267 0 0 0
1450 4 12.599479113115997 5.195937612576264 0.05931557919170473 0 0 0
1456 4 16.199330288292 5.195937612576264 0.05931557919170474 0 0 0
1461 4 17.99925587588 2.0783750450302634 0.059315579191705575 0 0 0
1460 1 19.799181463467995 3.1175625675455914 1.730049548388267 0 0 0
1467 4 21.599107051056 2.0783750450302634 0.05931557919170559 0 0 0
1466 1 23.399032638643995 3.1175625675455914 1.730049548388267 0 0 0
1462 4 19.799181463468 5.195937612576264 0.05931557919170453 0 0 0
1468 4 23.399032638643998 5.195937612576264 0.05931557919170453 0 0 0
1473 4 25.198958226231998 2.0783750450302634 0.05931557919170559 0 0 0
1472 1 26.998883813819994 3.1175625675455914 1.730049548388267 0 0 0
1479 4 28.798809401407997 2.0783750450302634 0.0593155791917056 0 0 0
1474 4 26.998883813819997 5.195937612576264 0.05931557919170453 0 0 0
1478 1 30.598734988995993 3.1175625675455914 1.730049548388267 0 0 0
1485 4 32.39866057658399 2.0783750450302634 0.05931557919170559 0 0 0
1484 1 34.19858616417199 3.1175625675455914 1.730049548388267 0 0 0
1480 4 30.598734988995997 5.195937612576264 0.05931557919170453 0 0 0
1486 4 34.198586164172 5.195937612576264 0.05931557919170458 0 0 0
1491 4 35.99851175175999 2.0783750450302634 0.059315579191705596 0 0 0
1490 1 37.79843733934799 3.1175625675455914 1.730049548388267 0 0 0
1497 4 39.59836292693599 2.078375045030264 0.05931557919170595 0 0 0
1496 1 41.398288514524 3.1175625675455914 1.7300495483882667 0 0 0
1492 4 37.798437339348 5.195937612576264 0.05931557919170458 0 0 0
1498 4 41.398288514524 5.195937612576266 0.059315579191706214 0 0 0
1503 4 43.198214102112004 2.078375045030264 0.05931557919170594 0 0 0
1502 1 44.998139689700004 3.1175625675455914 1.730049548388267 0 0 0
1509 4 46.798065277288 2.0783750450302634 0.05931557919170558 0 0 0
1504 4 44.9981396897 5.195937612576264 0.05931557919170458 0 0 0
1508 1 48.597990864876 3.1175625675455914 1.730049548388267 0 0 0
1347 4 50.397916452464 2.0783750450302643 0.059315579191706394 -1 0 0
1346 1 52.197842040052 3.1175625675455914 1.730049548388267 -1 0 0
1510 4 48.597990864875996 5.195937612576264 0.059315579191705055 0 0 0
1348 4 52.197842040052 5.195937612576264 0.05931557919170448 -1 0 0
1353 4 53.99776762764 2.0783750450302634 0.05931557919170546 -1 0 0
1352 1 55.797693215228 3.1175625675455914 1.730049548388267 -1 0 0
1359 4 57.597618802816 2.0783750450302634 0.05931557919170546 -1 0 0
1354 4 55.797693215228 5.195937612576264 0.05931557919170459 -1 0 0
1358 1 59.397544390404 3.1175625675455914 1.730049548388267 -1 0 0
1365 4 61.197469977992 2.0783750450302643 0.059315579191706394 -1 0 0
1364 1 62.99739556558 3.1175625675455914 1.730049548388267 -1 0 0
1371 4 64.797321153168 2.078375045030264 0.059315579191706144 -1 0 0
1360 4 59.397544390404 5.195937612576264 0.05931557919170448 -1 0 0
1366 4 62.99739556558001 5.195937612576264 0.059315579191704486 -1 0 0
1377 4 68.397172328344 2.0783750450302634 0.059315579191705645 -1 0 0
1370 1 66.597246740756 3.1175625675455914 1.730049548388267 -1 0 0
1376 1 70.197097915932 3.1175625675455914 1.730049548388267 -1 0 0
1372 4 66.597246740756 5.195937612576264 0.05931557919170459 -1 0 0
1378 4 70.197097915932 5.195937612576264 0.05931557919170459 -1 0 0
1383 4 71.99702350352 2.0783750450302634 0.059315579191705645 -1 0 0
1382 1 73.796949091108 3.1175625675455914 1.730049548388267 -1 0 0
1389 4 75.596874678696 2.0783750450302634 0.05931557919170543 -1 0 0
1384 4 73.796949091108 5.195937612576264 0.059315579191704576 -1 0 0
1388 1 77.396800266284 3.1175625675455914 1.7300495483882667 -1 0 0
1395 4 79.19672585387201 2.0783750450302634 0.059315579191705645 -1 0 0
1394 1 80.99665144146 3.1175625675455914 1.730049548388267 -1 0 0
1401 4 82.796577029048 2.0783750450302634 0.059315579191705645 -1 0 0
1390 4 77.396800266284 5.195937612576266 0.05931557919170746 -1 0 0
1396 4 80.99665144146 5.195937612576262 0.0593155791917017 -1 0 0
1400 1 84.596502616636 3.1175625675455914 1.730049548388267 -1 0 0
1407 4 86.39642820422401 2.0783750450302634 0.059315579191705645 -1 0 0
1406 1 88.196353791812 3.1175625675455914 1.730049548388267 -1 0 0
1402 4 84.596502616636 5.195937612576266 0.059315579191707477 -1 0 0
1408 4 88.196353791812 5.195937612576262 0.0593155791917017 -1 0 0
1413 4 89.9962793794 2.0783750450302634 0.05931557919170563 -1 0 0
1412 1 91.796204966988 3.1175625675455914 1.7300495483882667 -1 0 0
1419 4 93.596130554576 2.0783750450302634 0.05931557919170543 -1 0 0
1414 4 91.796204966988 5.195937612576266 0.05931557919170746 -1 0 0
1418 1 95.396056142164 3.1175625675455914 1.730049548388267 -1 0 0
1425 4 97.195981729752 2.0783750450302634 0.05931557919170564 -1 0 0
1424 1 98.99590731734 3.1175625675455914 1.7300495483882672 -1 0 0
1420 4 95.396056142164 5.195937612576264 0.059315579191704576 -1 0 0
1426 4 98.99590731734 5.195937612576264 0.059315579191704215 -1 0 0
1597 1 0 6.23512513509159 1.730049548388267 0 0 0
1603 1 3.599851175175999 6.23512513509159 1.7300495483882665 0 0 0
1599 4 0 8.313500180122263 0.05931557919170708 0 0 0
1598 1 1.7999255875879994 9.35268770263759 1.730049548388267 0 0 0
1605 4 3.599851175175999 8.313500180122261 0.059315579191705596 0 0 0
1604 1 5.399776762763999 9.35268770263759 1.7300495483882667 0 0 0
1600 4 1.7999255875879994 11.431062747668262 0.05931557919170635 0 0 0
1606 4 5.399776762763999 11.431062747668262 0.05931557919170623 0 0 0
1609 1 7.199702350351998 6.23512513509159 1.7300495483882665 0 0 0
1615 1 10.799553525527998 6.23512513509159 1.7300495483882667 0 0 0
1611 4 7.199702350351998 8.313500180122261 0.05931557919170562 0 0 0
1610 1 8.999627937939998 9.35268770263759 1.730049548388267 0 0 0
1617 4 10.799553525527998 8.313500180122261 0.0593155791917056 0 0 0
1612 4 8.999627937939998 11.431062747668262 0.05931557919170623 0 0 0
1621 1 14.399404700704 6.23512513509159 1.7300495483882667 0 0 0
1616 1 12.599479113115997 9.35268770263759 1.730049548388267 0 0 0
1623 4 14.399404700703998 8.313500180122263 0.059315579191706574 0 0 0
1622 1 16.199330288291996 9.35268770263759 1.7300495483882667 0 0 0
1618 4 12.599479113115997 11.431062747668262 0.059315579191706366 0 0 0
1624 4 16.199330288292 11.431062747668264 0.05931557919170641 0 0 0
1627 1 17.999255875880003 6.23512513509159 1.7300495483882667 0 0 0
1633 1 21.599107051056002 6.23512513509159 1.7300495483882667 0 0 0
1629 4 17.99925587588 8.313500180122263 0.05931557919170563 0 0 0
1628 1 19.799181463467995 9.35268770263759 1.7300495483882667 0 0 0
1635 4 21.599107051056 8.313500180122263 0.059315579191705645 0 0 0
1634 1 23.399032638643995 9.35268770263759 1.7300495483882667 0 0 0
1630 4 19.799181463468 11.431062747668264 0.05931557919170619 0 0 0
1636 4 23.399032638643998 11.431062747668264 0.05931557919170619 0 0 0
1639 1 25.198958226232 6.23512513509159 1.7300495483882667 0 0 0
1645 1 28.798809401408 6.23512513509159 1.7300495483882667 0 0 0
1641 4 25.198958226231998 8.313500180122263 0.059315579191705645 0 0 0
1640 1 26.998883813819994 9.35268770263759 1.7300495483882667 0 0 0
1647 4 28.798809401407997 8.313500180122263 0.05931557919170566 0 0 0
1642 4 26.998883813819997 11.431062747668264 0.05931557919170619 0 0 0
1651 1 32.398660576584 6.23512513509159 1.7300495483882667 0 0 0
1646 1 30.598734988995993 9.35268770263759 1.7300495483882667 0 0 0
1653 4 32.39866057658399 8.313500180122263 0.05931557919170568 0 0 0
1652 1 34.19858616417199 9.35268770263759 1.7300495483882667 0 0 0
1648 4 30.598734988995997 11.431062747668264 0.05931557919170619 0 0 0
1654 4 34.198586164172 11.431062747668264 0.059315579191706234 0 0 0
1657 1 35.99851175176 6.23512513509159 1.7300495483882667 0 0 0
1663 1 39.598362926936 6.23512513509159 1.7300495483882667 0 0 0
1659 4 35.99851175175999 8.313500180122263 0.05931557919170568 0 0 0
1658 1 37.79843733934799 9.35268770263759 1.7300495483882667 0 0 0
1665 4 39.59836292693599 8.313500180122263 0.0593155791917061 0 0 0
1664 1 41.398288514524 9.35268770263759 1.7300495483882667 0 0 0
1660 4 37.798437339348 11.431062747668264 0.05931557919170624 0 0 0
1666 4 41.398288514524 11.431062747668264 0.059315579191708066 0 0 0
1669 1 43.198214102112 6.23512513509159 1.7300495483882667 0 0 0
1675 1 46.798065277287996 6.23512513509159 1.7300495483882667 0 0 0
1671 4 43.198214102112004 8.313500180122263 0.0593155791917061 0 0 0
1670 1 44.998139689700004 9.35268770263759 1.7300495483882667 0 0 0
1677 4 46.798065277288 8.313500180122263 0.05931557919170567 0 0 0
1672 4 44.9981396897 11.431062747668264 0.05931557919170623 0 0 0
1513 1 50.397916452464 6.23512513509159 1.7300495483882667 -1 0 0
1676 1 48.597990864876 9.35268770263759 1.7300495483882667 0 0 0
1515 4 50.397916452464 8.313500180122263 0.05931557919170657 -1 0 0
1514 1 52.197842040052 9.35268770263759 1.730049548388267 -1 0 0
1678 4 48.597990864875996 11.431062747668264 0.0593155791917067 0 0 0
1516 4 52.197842040052 11.431062747668262 0.059315579191706116 -1 0 0
1519 1 53.99776762764 6.23512513509159 1.7300495483882667 -1 0 0
1525 1 57.597618802816 6.23512513509159 1.7300495483882667 -1 0 0
1521 4 53.99776762764 8.313500180122261 0.05931557919170561 -1 0 0
1520 1 55.797693215228 9.35268770263759 1.730049548388267 -1 0 0
1527 4 57.597618802816 8.313500180122261 0.05931557919170561 -1 0 0
1522 4 55.797693215228 11.431062747668262 0.05931557919170623 -1 0 0
1531 1 61.197469977992 6.23512513509159 1.7300495483882667 -1 0 0
1537 1 64.797321153168 6.23512513509159 1.7300495483882667 -1 0 0
1526 1 59.397544390404 9.35268770263759 1.730049548388267 -1 0 0
1533 4 61.197469977992 8.313500180122263 0.059315579191706574 -1 0 0
1532 1 62.99739556558 9.35268770263759 1.7300495483882667 -1 0 0
1539 4 64.797321153168 8.313500180122263 0.05931557919170624 -1 0 0
1528 4 59.397544390404 11.431062747668262 0.05931557919170611 -1 0 0
1534 4 62.99739556558001 11.431062747668264 0.059315579191706144 -1 0 0
1543 1 68.397172328344 6.23512513509159 1.7300495483882667 -1 0 0
1545 4 68.397172328344 8.313500180122263 0.05931557919170568 -1 0 0
1538 1 66.597246740756 9.35268770263759 1.7300495483882667 -1 0 0
1544 1 70.197097915932 9.35268770263759 1.7300495483882667 -1 0 0
1540 4 66.597246740756 11.431062747668264 0.05931557919170625 -1 0 0
1546 4 70.197097915932 11.431062747668264 0.05931557919170625 -1 0 0
1549 1 71.99702350352 6.23512513509159 1.7300495483882667 -1 0 0
1555 1 75.596874678696 6.23512513509159 1.7300495483882665 -1 0 0
1551 4 71.99702350352 8.313500180122263 0.05931557919170569 -1 0 0
1550 1 73.796949091108 9.35268770263759 1.7300495483882667 -1 0 0
1557 4 75.596874678696 8.313500180122261 0.05931557919170555 -1 0 0
1552 4 73.796949091108 11.431062747668264 0.05931557919170624 -1 0 0
1561 1 79.19672585387201 6.23512513509159 1.7300495483882665 -1 0 0
1567 1 82.796577029048 6.23512513509159 1.7300495483882665 -1 0 0
1556 1 77.396800266284 9.35268770263759 1.7300495483882667 -1 0 0
1563 4 79.19672585387201 8.313500180122263 0.0593155791917057 -1 0 0
1562 1 80.99665144146 9.35268770263759 1.730049548388267 -1 0 0
1569 4 82.796577029048 8.313500180122263 0.059315579191705686 -1 0 0
1558 4 77.396800266284 11.431062747668266 0.05931557919170921 -1 0 0
1564 4 80.99665144146 11.431062747668262 0.05931557919170325 -1 0 0
1573 1 86.39642820422401 6.23512513509159 1.7300495483882665 -1 0 0
1568 1 84.596502616636 9.35268770263759 1.7300495483882667 -1 0 0
1575 4 86.39642820422401 8.313500180122263 0.05931557919170569 -1 0 0
1574 1 88.196353791812 9.35268770263759 1.7300495483882667 -1 0 0
1570 4 84.596502616636 11.431062747668266 0.05931557919170923 -1 0 0
1576 4 88.196353791812 11.431062747668262 0.05931557919170325 -1 0 0
1579 1 89.9962793794 6.23512513509159 1.7300495483882665 -1 0 0
1585 1 93.596130554576 6.23512513509159 1.7300495483882665 -1 0 0
1581 4 89.9962793794 8.313500180122263 0.059315579191705686 -1 0 0
1580 1 91.796204966988 9.35268770263759 1.7300495483882667 -1 0 0
1587 4 93.596130554576 8.313500180122261 0.05931557919170555 -1 0 0
1582 4 91.796204966988 11.431062747668266 0.05931557919170921 -1 0 0
1591 1 97.195981729752 6.23512513509159 1.7300495483882667 -1 0 0
1586 1 95.396056142164 9.35268770263759 1.7300495483882667 -1 0 0
1593 4 97.195981729752 8.313500180122263 0.059315579191705686 -1 0 0
1592 1 98.99590731734 9.35268770263759 1.730049548388267 -1 0 0
1588 4 95.396056142164 11.431062747668264 0.05931557919170623 -1 0 0
1594 4 98.99590731734 11.431062747668264 0.059315579191705874 -1 0 0
1765 1 0 12.470250270183591 1.730049548388268 0 0 0
1771 1 3.599851175175999 12.470250270183591 1.7300495483882679 0 0 0
1767 4 0 14.548625315214263 0.05931557919170636 0 0 0
1773 4 3.599851175175999 14.548625315214261 0.059315579191704895 0 0 0
1766 1 1.7999255875879994 15.58781283772959 1.7300495483882665 0 0 0
1772 1 5.399776762763999 15.58781283772959 1.7300495483882667 0 0 0
1777 1 7.199702350351998 12.470250270183591 1.7300495483882679 0 0 0
1783 1 10.799553525527998 12.470250270183591 1.7300495483882679 0 0 0
1779 4 7.199702350351998 14.548625315214261 0.059315579191704854 0 0 0
1785 4 10.799553525527998 14.548625315214261 0.05931557919170484 0 0 0
1778 1 8.999627937939998 15.58781283772959 1.7300495483882667 0 0 0
1789 1 14.399404700704 12.470250270183591 1.7300495483882679 0 0 0
1791 4 14.399404700703998 14.548625315214261 0.059315579191705846 0 0 0
1784 1 12.599479113115997 15.58781283772959 1.7300495483882667 0 0 0
1790 1 16.199330288291996 15.58781283772959 1.7300495483882665 0 0 0
1795 1 17.999255875880003 12.470250270183591 1.730049548388268 0 0 0
1801 1 21.599107051056002 12.470250270183591 1.730049548388268 0 0 0
1797 4 17.99925587588 14.548625315214261 0.05931557919170484 0 0 0
1803 4 21.599107051056 14.548625315214261 0.059315579191704854 0 0 0
1796 1 19.799181463467995 15.58781283772959 1.7300495483882665 0 0 0
1802 1 23.399032638643995 15.58781283772959 1.7300495483882665 0 0 0
1807 1 25.198958226232 12.470250270183591 1.730049548388268 0 0 0
1813 1 28.798809401408 12.470250270183591 1.730049548388268 0 0 0
1809 4 25.198958226231998 14.548625315214261 0.059315579191704854 0 0 0
1815 4 28.798809401407997 14.548625315214261 0.05931557919170487 0 0 0
1808 1 26.998883813819994 15.58781283772959 1.7300495483882665 0 0 0
1819 1 32.398660576584 12.470250270183591 1.730049548388268 0 0 0
1821 4 32.39866057658399 14.548625315214263 0.05931557919170492 0 0 0
1814 1 30.598734988995993 15.58781283772959 1.7300495483882665 0 0 0
1820 1 34.19858616417199 15.58781283772959 1.7300495483882665 0 0 0
1825 1 35.99851175176 12.470250270183591 1.730049548388268 0 0 0
1831 1 39.598362926936 12.470250270183591 1.7300495483882679 0 0 0
1827 4 35.99851175175999 14.548625315214263 0.05931557919170492 0 0 0
1833 4 39.59836292693599 14.548625315214263 0.05931557919170533 0 0 0
1826 1 37.79843733934799 15.58781283772959 1.7300495483882665 0 0 0
1832 1 41.398288514524 15.58781283772959 1.7300495483882667 0 0 0
1837 1 43.198214102112 12.470250270183591 1.7300495483882679 0 0 0
1843 1 46.798065277287996 12.470250270183591 1.730049548388268 0 0 0
1839 4 43.198214102112004 14.548625315214263 0.05931557919170533 0 0 0
1845 4 46.798065277288 14.548625315214263 0.05931557919170492 0 0 0
1838 1 44.998139689700004 15.58781283772959 1.7300495483882665 0 0 0
1681 1 50.397916452464 12.470250270183591 1.7300495483882679 -1 0 0
1683 4 50.397916452464 14.548625315214263 0.05931557919170586 -1 0 0
1844 1 48.597990864876 15.58781283772959 1.7300495483882665 0 0 0
1682 1 52.197842040052 15.58781283772959 1.7300495483882667 -1 0 0
1687 1 53.99776762764 12.470250270183591 1.7300495483882679 -1 0 0
1693 1 57.597618802816 12.470250270183591 1.7300495483882679 -1 0 0
1689 4 53.99776762764 14.548625315214261 0.059315579191704854 -1 0 0
1695 4 57.597618802816 14.548625315214261 0.059315579191704854 -1 0 0
1688 1 55.797693215228 15.58781283772959 1.7300495483882667 -1 0 0
1699 1 61.197469977992 12.470250270183591 1.7300495483882679 -1 0 0
1705 1 64.797321153168 12.470250270183591 1.7300495483882679 -1 0 0
1701 4 61.197469977992 14.548625315214263 0.05931557919170586 -1 0 0
1707 4 64.797321153168 14.548625315214263 0.059315579191705485 -1 0 0
1694 1 59.397544390404 15.58781283772959 1.7300495483882667 -1 0 0
1700 1 62.99739556558 15.58781283772959 1.7300495483882665 -1 0 0
1711 1 68.397172328344 12.470250270183591 1.730049548388268 -1 0 0
1713 4 68.397172328344 14.548625315214263 0.059315579191704916 -1 0 0
1706 1 66.597246740756 15.58781283772959 1.7300495483882665 -1 0 0
1712 1 70.197097915932 15.58781283772959 1.7300495483882665 -1 0 0
1717 1 71.99702350352 12.470250270183591 1.7300495483882679 -1 0 0
1723 1 75.596874678696 12.470250270183591 1.7300495483882679 -1 0 0
1719 4 71.99702350352 14.548625315214263 0.059315579191704916 -1 0 0
1725 4 75.596874678696 14.548625315214261 0.059315579191704756 -1 0 0
1718 1 73.796949091108 15.58781283772959 1.7300495483882665 -1 0 0
1729 1 79.19672585387201 12.470250270183591 1.730049548388268 -1 0 0
1735 1 82.796577029048 12.470250270183591 1.730049548388268 -1 0 0
1731 4 79.19672585387201 14.548625315214263 0.05931557919170491 -1 0 0
1737 4 82.796577029048 14.548625315214263 0.05931557919170491 -1 0 0
1724 1 77.396800266284 15.58781283772959 1.7300495483882667 -1 0 0
1730 1 80.99665144146 15.58781283772959 1.7300495483882667 -1 0 0
1741 1 86.39642820422401 12.470250270183591 1.730049548388268 -1 0 0
1743 4 86.39642820422401 14.548625315214263 0.05931557919170491 -1 0 0
1736 1 84.596502616636 15.58781283772959 1.730049548388267 -1 0 0
1742 1 88.196353791812 15.58781283772959 1.7300495483882667 -1 0 0
1747 1 89.9962793794 12.470250270183591 1.7300495483882679 -1 0 0
1753 1 93.596130554576 12.470250270183591 1.7300495483882679 -1 0 0
1749 4 89.9962793794 14.548625315214263 0.0593155791917049 -1 0 0
1755 4 93.596130554576 14.548625315214261 0.059315579191704756 -1 0 0
1748 1 91.796204966988 15.58781283772959 1.7300495483882667 -1 0 0
1759 1 97.195981729752 12.470250270183591 1.7300495483882679 -1 0 0
1761 4 97.195981729752 14.548625315214263 0.05931557919170491 -1 0 0
1754 1 95.396056142164 15.58781283772959 1.7300495483882665 -1 0 0
1760 1 98.99590731734 15.58781283772959 1.7300495483882667 -1 0 0
1768 4 1.7999255875879994 17.666187882760262 0.059315579191705096 0 0 0
1933 1 0 18.705375405275593 1.7300495483882652 0 0 0
1939 1 3.599851175175999 18.705375405275593 1.730049548388265 0 0 0
1774 4 5.399776762763999 17.666187882760262 0.05931557919170496 0 0 0
1935 4 0 20.783750450306265 0.059315579191706574 0 0 0
1941 4 3.599851175175999 20.783750450306265 0.05931557919170522 0 0 0
1934 1 1.7999255875879994 21.82293797282159 1.730049548388267 0 0 0
1940 1 5.399776762763999 21.82293797282159 1.730049548388267 0 0 0
1945 1 7.199702350351998 18.705375405275593 1.730049548388265 0 0 0
1780 4 8.999627937939998 17.666187882760262 0.05931557919170496 0 0 0
1951 1 10.799553525527998 18.705375405275593 1.730049548388265 0 0 0
1947 4 7.199702350351998 20.783750450306265 0.059315579191705194 0 0 0
1953 4 10.799553525527998 20.783750450306265 0.05931557919170517 0 0 0
1946 1 8.999627937939998 21.82293797282159 1.730049548388267 0 0 0
1786 4 12.599479113115997 17.666187882760262 0.05931557919170516 0 0 0
1957 1 14.399404700704 18.705375405275593 1.730049548388265 0 0 0
1792 4 16.199330288292 17.666187882760262 0.05931557919170524 0 0 0
1959 4 14.399404700703998 20.783750450306265 0.0593155791917061 0 0 0
1952 1 12.599479113115997 21.82293797282159 1.730049548388267 0 0 0
1958 1 16.199330288291996 21.82293797282159 1.730049548388267 0 0 0
1963 1 17.999255875880003 18.705375405275593 1.730049548388265 0 0 0
1798 4 19.799181463468 17.666187882760262 0.059315579191705034 0 0 0
1969 1 21.599107051056002 18.705375405275593 1.730049548388265 0 0 0
1804 4 23.399032638643998 17.666187882760262 0.059315579191705034 0 0 0
1965 4 17.99925587588 20.783750450306265 0.05931557919170518 0 0 0
1971 4 21.599107051056 20.783750450306265 0.059315579191705194 0 0 0
1964 1 19.799181463467995 21.82293797282159 1.730049548388267 0 0 0
1970 1 23.399032638643995 21.82293797282159 1.730049548388267 0 0 0
1975 1 25.198958226232 18.705375405275593 1.730049548388265 0 0 0
1810 4 26.998883813819997 17.666187882760262 0.059315579191705034 0 0 0
1981 1 28.798809401408 18.705375405275593 1.730049548388265 0 0 0
1977 4 25.198958226231998 20.783750450306265 0.05931557919170519 0 0 0
1983 4 28.798809401407997 20.783750450306265 0.05931557919170521 0 0 0
1976 1 26.998883813819994 21.82293797282159 1.730049548388267 0 0 0
1816 4 30.598734988995997 17.666187882760262 0.059315579191705034 0 0 0
1822 4 34.198586164172 17.666187882760262 0.059315579191705006 0 0 0
1987 1 32.398660576584 18.705375405275593 1.7300495483882647 0 0 0
1989 4 32.39866057658399 20.783750450306265 0.05931557919170513 0 0 0
1982 1 30.598734988995993 21.82293797282159 1.730049548388267 0 0 0
1988 1 34.19858616417199 21.82293797282159 1.730049548388267 0 0 0
1993 1 35.99851175176 18.705375405275593 1.730049548388265 0 0 0
1828 4 37.798437339348 17.666187882760262 0.05931557919170501 0 0 0
1999 1 39.598362926936 18.705375405275593 1.7300495483882647 0 0 0
1834 4 41.398288514524 17.666187882760262 0.0593155791917068 0 0 0
1995 4 35.99851175175999 20.783750450306265 0.05931557919170514 0 0 0
2001 4 39.59836292693599 20.783750450306265 0.05931557919170565 0 0 0
1994 1 37.79843733934799 21.82293797282159 1.7300495483882674 0 0 0
2000 1 41.398288514524 21.82293797282159 1.7300495483882659 0 0 0
2005 1 43.198214102112 18.705375405275593 1.7300495483882647 0 0 0
1840 4 44.9981396897 17.666187882760262 0.05931557919170501 0 0 0
2011 1 46.798065277287996 18.705375405275593 1.730049548388265 0 0 0
2007 4 43.198214102112004 20.783750450306265 0.05931557919170565 0 0 0
2013 4 46.798065277288 20.783750450306265 0.05931557919170513 0 0 0
2006 1 44.998139689700004 21.82293797282159 1.7300495483882674 0 0 0
1846 4 48.597990864875996 17.666187882760262 0.05931557919170549 0 0 0
1849 1 50.397916452464 18.705375405275593 1.730049548388265 -1 0 0
1684 4 52.197842040052 17.666187882760262 0.05931557919170484 -1 0 0
1851 4 50.397916452464 20.783750450306265 0.059315579191706096 -1 0 0
2012 1 48.597990864876 21.82293797282159 1.730049548388267 0 0 0
1850 1 52.197842040052 21.82293797282159 1.730049548388267 -1 0 0
1855 1 53.99776762764 18.705375405275593 1.7300495483882647 -1 0 0
1690 4 55.797693215228 17.666187882760262 0.05931557919170496 -1 0 0
1861 1 57.597618802816 18.705375405275593 1.7300495483882647 -1 0 0
1857 4 53.99776762764 20.783750450306265 0.05931557919170519 -1 0 0
1863 4 57.597618802816 20.783750450306265 0.05931557919170518 -1 0 0
1856 1 55.797693215228 21.82293797282159 1.730049548388267 -1 0 0
1696 4 59.397544390404 17.666187882760262 0.05931557919170483 -1 0 0
1867 1 61.197469977992 18.705375405275593 1.7300495483882643 -1 0 0
1702 4 62.99739556558001 17.666187882760262 0.05931557919170493 -1 0 0
1873 1 64.797321153168 18.705375405275593 1.7300495483882654 -1 0 0
1869 4 61.197469977992 20.783750450306265 0.059315579191706096 -1 0 0
1875 4 64.797321153168 20.783750450306265 0.059315579191705686 -1 0 0
1862 1 59.397544390404 21.82293797282159 1.730049548388267 -1 0 0
1868 1 62.99739556558 21.82293797282159 1.730049548388267 -1 0 0
1708 4 66.597246740756 17.666187882760262 0.05931557919170503 -1 0 0
1879 1 68.397172328344 18.705375405275593 1.730049548388265 -1 0 0
1714 4 70.197097915932 17.666187882760262 0.05931557919170503 -1 0 0
1881 4 68.397172328344 20.783750450306265 0.05931557919170518 -1 0 0
1874 1 66.597246740756 21.82293797282159 1.730049548388267 -1 0 0
1880 1 70.197097915932 21.82293797282159 1.730049548388267 -1 0 0
1885 1 71.99702350352 18.705375405275593 1.730049548388265 -1 0 0
1720 4 73.796949091108 17.666187882760262 0.05931557919170502 -1 0 0
1891 1 75.596874678696 18.705375405275593 1.730049548388265 -1 0 0
1887 4 71.99702350352 20.783750450306265 0.05931557919170519 -1 0 0
1893 4 75.596874678696 20.783750450306265 0.05931557919170509 -1 0 0
1886 1 73.796949091108 21.82293797282159 1.730049548388267 -1 0 0
1726 4 77.396800266284 17.666187882760262 0.059315579191706824 -1 0 0
1897 1 79.196725853872 18.705375405275593 1.730049548388265 -1 0 0
1732 4 80.99665144146 17.666187882760262 0.05931557919170435 -1 0 0
1903 1 82.79657702904801 18.705375405275593 1.730049548388265 -1 0 0
1899 4 79.19672585387201 20.783750450306265 0.05931557919170524 -1 0 0
1905 4 82.796577029048 20.783750450306265 0.059315579191705235 -1 0 0
1892 1 77.396800266284 21.82293797282159 1.730049548388267 -1 0 0
1898 1 80.99665144146 21.82293797282159 1.730049548388267 -1 0 0
1738 4 84.596502616636 17.666187882760262 0.0593155791917057 -1 0 0
1909 1 86.396428204224 18.705375405275593 1.730049548388265 -1 0 0
1744 4 88.196353791812 17.666187882760262 0.05931557919170435 -1 0 0
1911 4 86.39642820422401 20.783750450306265 0.05931557919170523 -1 0 0
1904 1 84.596502616636 21.82293797282159 1.730049548388267 -1 0 0
1910 1 88.196353791812 21.82293797282159 1.7300495483882667 -1 0 0
1915 1 89.99627937940001 18.705375405275593 1.730049548388265 -1 0 0
1750 4 91.796204966988 17.666187882760262 0.059315579191706824 -1 0 0
1921 1 93.596130554576 18.705375405275593 1.730049548388265 -1 0 0
1917 4 89.9962793794 20.783750450306265 0.05931557919170522 -1 0 0
1923 4 93.596130554576 20.783750450306265 0.05931557919170509 -1 0 0
1916 1 91.796204966988 21.82293797282159 1.730049548388267 -1 0 0
1756 4 95.396056142164 17.666187882760262 0.05931557919170502 -1 0 0
1927 1 97.195981729752 18.705375405275593 1.730049548388265 -1 0 0
1762 4 98.99590731734 17.666187882760262 0.059315579191704666 -1 0 0
1929 4 97.195981729752 20.783750450306265 0.05931557919170518 -1 0 0
1922 1 95.396056142164 21.82293797282159 1.730049548388267 -1 0 0
1928 1 98.99590731734 21.82293797282159 1.7300495483882672 -1 0 0
1936 4 1.7999255875879991 23.901313017852267 0.0593155791917057 0 0 0
1942 4 5.399776762763999 23.901313017852267 0.05931557919170551 0 0 0
2101 1 0 24.94050054036759 1.7300495483882676 0 0 0
2107 1 3.599851175175999 24.94050054036759 1.7300495483882672 0 0 0
2103 4 0 27.018875585398266 0.059315579191705964 0 0 0
2102 1 1.7999255875879994 28.05806310791359 1.7300495483882683 0 0 0
2109 4 3.599851175175999 27.018875585398266 0.05931557919170462 0 0 0
2108 1 5.399776762763999 28.05806310791359 1.7300495483882683 0 0 0
1948 4 8.999627937939998 23.901313017852267 0.05931557919170551 0 0 0
2113 1 7.199702350351998 24.94050054036759 1.7300495483882672 0 0 0
2119 1 10.799553525527998 24.94050054036759 1.7300495483882672 0 0 0
2115 4 7.199702350351998 27.018875585398266 0.059315579191704576 0 0 0
2114 1 8.999627937939998 28.05806310791359 1.7300495483882683 0 0 0
2121 4 10.799553525527998 27.018875585398266 0.05931557919170456 0 0 0
1954 4 12.599479113115997 23.901313017852267 0.05931557919170571 0 0 0
1960 4 16.199330288292 23.901313017852267 0.05931557919170577 0 0 0
2125 1 14.399404700704 24.94050054036759 1.7300495483882672 0 0 0
2120 1 12.599479113115997 28.05806310791359 1.7300495483882683 0 0 0
2127 4 14.399404700703998 27.018875585398266 0.05931557919170544 0 0 0
2126 1 16.199330288291996 28.05806310791359 1.7300495483882685 0 0 0
1966 4 19.799181463468 23.901313017852267 0.059315579191705554 0 0 0
1972 4 23.399032638643998 23.901313017852267 0.059315579191705554 0 0 0
2131 1 17.999255875880003 24.94050054036759 1.730049548388267 0 0 0
2137 1 21.599107051056002 24.94050054036759 1.7300495483882672 0 0 0
2133 4 17.99925587588 27.018875585398266 0.059315579191704514 0 0 0
2132 1 19.799181463467995 28.05806310791359 1.7300495483882683 0 0 0
2139 4 21.599107051056 27.018875585398266 0.05931557919170453 0 0 0
2138 1 23.399032638643995 28.05806310791359 1.7300495483882685 0 0 0
1978 4 26.998883813819997 23.901313017852267 0.059315579191705554 0 0 0
2143 1 25.198958226232 24.94050054036759 1.7300495483882672 0 0 0
2149 1 28.798809401408 24.94050054036759 1.7300495483882672 0 0 0
2145 4 25.198958226231998 27.018875585398266 0.05931557919170453 0 0 0
2144 1 26.998883813819994 28.05806310791359 1.7300495483882685 0 0 0
2151 4 28.798809401407997 27.018875585398266 0.05931557919170454 0 0 0
1984 4 30.598734988995997 23.901313017852267 0.059315579191705554 0 0 0
1990 4 34.198586164172 23.901313017852267 0.05931557919170554 0 0 0
2155 1 32.398660576584 24.94050054036759 1.7300495483882672 0 0 0
2150 1 30.598734988995993 28.05806310791359 1.7300495483882685 0 0 0
2157 4 32.39866057658399 27.018875585398266 0.05931557919170456 0 0 0
2156 1 34.19858616417199 28.05806310791359 1.7300495483882685 0 0 0
1996 4 37.798437339348 23.901313017852267 0.05931557919170555 0 0 0
2002 4 41.398288514524 23.901313017852267 0.05931557919170738 0 0 0
2161 1 35.99851175176 24.94050054036759 1.7300495483882672 0 0 0
2167 1 39.598362926936 24.94050054036759 1.7300495483882672 0 0 0
2163 4 35.99851175175999 27.018875585398266 0.05931557919170457 0 0 0
2162 1 37.79843733934799 28.05806310791359 1.7300495483882685 0 0 0