LAMMPS data file via write_data, version 29 Aug 2024, timestep = 2, units = metal

8064 atoms
9 atom types

0 100.795832904928 xlo xhi
0 99.762002161472 ylo yhi
-50 50 zlo zhi

Masses

1 50.9415
2 50.9415
3 50.9415
4 127.6
5 127.6
6 127.6
7 127.6
8 127.6
9 127.6

Atoms # atomic

1431 5 0 2.078375045030262 0.05895776136895145 0 0 0
1430 1 1.7999255875879994 3.1175625675455967 1.7300077577603024 0 0 0
1437 5 3.599851175175999 2.0783750450302607 0.05895776136894997 0 0 0
1436 1 5.399776762763999 3.1175625675455967 1.7300077577603021 0 0 0
1432 5 1.7999255875879994 5.195937612576262 0.05895776136894936 0 0 0
1438 5 5.399776762763999 5.1959376125762615 0.0589577613689492 0 0 0
1443 5 7.199702350351998 2.0783750450302607 0.05895776136894999 0 0 0
1442 1 8.999627937939998 3.1175625675455967 1.7300077577603021 0 0 0
1449 5 10.799553525527998 2.0783750450302607 0.05895776136894998 0 0 0
1444 5 8.999627937939998 5.1959376125762615 0.0589577613689492 0 0 0
1448 1 12.599479113115997 3.1175625675455967 1.7300077577603024 0 0 0
1455 5 14.399404700703998 2.0783750450302616 0.05895776136895091 0 0 0
1454 1 16.199330288291996 3.1175625675455967 1.7300077577603024 0 0 0
1450 5 12.599479113115997 5.195937612576262 0.058957761368949375 0 0 0
1456 5 16.199330288292 5.195937612576262 0.058957761368949396 0 0 0
1461 5 17.99925587588 2.0783750450302607 0.05895776136895004 0 0 0
1460 1 19.799181463467995 3.1175625675455967 1.7300077577603024 0 0 0
1467 5 21.599107051056 2.0783750450302607 0.05895776136895006 0 0 0
1466 1 23.399032638643995 3.1175625675455967 1.7300077577603024 0 0 0
1462 5 19.799181463468 5.1959376125762615 0.05895776136894924 0 0 0
1468 5 23.399032638643998 5.1959376125762615 0.05895776136894923 0 0 0
1473 5 25.198958226231998 2.0783750450302607 0.05895776136895006 0 0 0
1472 1 26.998883813819994 3.1175625675455967 1.7300077577603024 0 0 0
1479 5 28.798809401407997 2.0783750450302607 0.058957761368950076 0 0 0
1474 5 26.998883813819997 5.1959376125762615 0.05895776136894924 0 0 0
1478 1 30.598734988995993 3.1175625675455967 1.7300077577603024 0 0 0
1485 5 32.39866057658399 2.0783750450302607 0.058957761368949986 0 0 0
1484 1 34.19858616417199 3.1175625675455967 1.7300077577603024 0 0 0
1480 5 30.598734988995997 5.1959376125762615 0.05895776136894924 0 0 0
1486 5 34.198586164172 5.1959376125762615 0.058957761368949216 0 0 0
1491 5 35.99851175175999 2.0783750450302607 0.05895776136894999 0 0 0
1490 1 37.79843733934799 3.1175625675455967 1.7300077577603024 0 0 0
1497 5 39.59836292693599 2.078375045030261 0.05895776136895055 0 0 0
1496 1 41.398288514524 3.1175625675455967 1.7300077577603024 0 0 0
1492 5 37.798437339348 5.1959376125762615 0.058957761368949216 0 0 0
1498 5 41.398288514524 5.195937612576262 0.058957761368950805 0 0 0
1503 5 43.198214102112004 2.078375045030261 0.05895776136895055 0 0 0
1502 1 44.998139689700004 3.1175625675455967 1.7300077577603024 0 0 0
1509 5 46.798065277288 2.0783750450302607 0.05895776136894998 0 0 0
1504 5 44.9981396897 5.1959376125762615 0.058957761368949216 0 0 0
1508 1 48.597990864876 3.1175625675455967 1.7300077577603024 0 0 0
1347 5 50.397916452464 2.0783750450302616 0.05895776136895091 -1 0 0
1346 1 52.197842040052 3.1175625675455967 1.7300077577603021 -1 0 0
1510 5 48.597990864875996 5.195937612576262 0.058957761368949646 0 0 0
1348 5 52.197842040052 5.1959376125762615 0.058957761368949105 -1 0 0
1353 5 53.99776762764 2.0783750450302607 0.058957761368949986 -1 0 0
1352 1 55.797693215228 3.1175625675455967 1.7300077577603021 -1 0 0
1359 5 57.597618802816 2.0783750450302607 0.058957761368949986 -1 0 0
1354 5 55.797693215228 5.1959376125762615 0.0589577613689492 -1 0 0
1358 1 59.397544390404 3.1175625675455967 1.7300077577603021 -1 0 0
1365 5 61.197469977992 2.0783750450302616 0.05895776136895091 -1 0 0
1364 1 62.99739556558 3.1175625675455967 1.7300077577603024 -1 0 0
1371 5 64.797321153168 2.078375045030261 0.058957761368950555 -1 0 0
1360 5 59.397544390404 5.1959376125762615 0.058957761368949105 -1 0 0
1366 5 62.99739556558001 5.1959376125762615 0.05895776136894908 -1 0 0
1377 5 68.397172328344 2.0783750450302607 0.05895776136894999 -1 0 0
1370 1 66.597246740756 3.1175625675455967 1.7300077577603024 -1 0 0
1376 1 70.197097915932 3.1175625675455967 1.7300077577603024 -1 0 0
1372 5 66.597246740756 5.1959376125762615 0.05895776136894918 -1 0 0
1378 5 70.197097915932 5.1959376125762615 0.05895776136894918 -1 0 0
1383 5 71.99702350352 2.0783750450302607 0.05895776136894999 -1 0 0
1382 1 73.796949091108 3.1175625675455967 1.7300077577603024 -1 0 0
1389 5 75.596874678696 2.0783750450302607 0.05895776136894997 -1 0 0
1384 5 73.796949091108 5.1959376125762615 0.05895776136894917 -1 0 0
1388 1 77.396800266284 3.1175625675455967 1.7300077577603024 -1 0 0
1395 5 79.19672585387201 2.0783750450302607 0.05895776136895006 -1 0 0
1394 1 80.99665144146 3.1175625675455967 1.7300077577603026 -1 0 0
1401 5 82.796577029048 2.0783750450302607 0.05895776136895006 -1 0 0
1390 5 77.396800266284 5.195937612576263 0.05895776136895199 -1 0 0
1396 5 80.99665144146 5.19593761257626 0.05895776136894633 -1 0 0
1400 1 84.596502616636 3.1175625675455967 1.7300077577603024 -1 0 0
1407 5 86.39642820422401 2.0783750450302607 0.05895776136895006 -1 0 0
1406 1 88.196353791812 3.1175625675455967 1.7300077577603024 -1 0 0
1402 5 84.596502616636 5.195937612576263 0.058957761368952005 -1 0 0
1408 5 88.196353791812 5.19593761257626 0.05895776136894633 -1 0 0
1413 5 89.9962793794 2.0783750450302607 0.05895776136895005 -1 0 0
1412 1 91.796204966988 3.1175625675455967 1.7300077577603024 -1 0 0
1419 5 93.596130554576 2.0783750450302607 0.05895776136894997 -1 0 0
1414 5 91.796204966988 5.195937612576263 0.05895776136895199 -1 0 0
1418 1 95.396056142164 3.1175625675455967 1.7300077577603024 -1 0 0
1425 5 97.195981729752 2.0783750450302607 0.058957761368949986 -1 0 0
1424 1 98.99590731734 3.1175625675455967 1.7300077577603024 -1 0 0
1420 5 95.396056142164 5.1959376125762615 0.05895776136894917 -1 0 0
1426 5 98.99590731734 5.1959376125762615 0.05895776136894886 -1 0 0
1597 1 0 6.235125135091596 1.7300077577603024 0 0 0
1603 1 3.599851175175999 6.235125135091596 1.730007757760302 0 0 0
1599 5 0 8.31350018012226 0.05895776136895177 0 0 0
1598 1 1.7999255875879994 9.352687702637594 1.7300077577603024 0 0 0
1605 5 3.599851175175999 8.31350018012226 0.058957761368950215 0 0 0
1604 1 5.399776762763999 9.352687702637594 1.7300077577603021 0 0 0
1600 5 1.7999255875879991 11.431062747668262 0.05895776136895094 0 0 0
1606 5 5.399776762763999 11.431062747668262 0.05895776136895079 0 0 0
1609 1 7.199702350351998 6.235125135091596 1.730007757760302 0 0 0
1615 1 10.799553525527998 6.235125135091596 1.730007757760302 0 0 0
1611 5 7.199702350351998 8.31350018012226 0.05895776136895023 0 0 0
1610 1 8.999627937939998 9.352687702637594 1.7300077577603021 0 0 0
1617 5 10.799553525527998 8.31350018012226 0.05895776136895022 0 0 0
1612 5 8.999627937939998 11.431062747668262 0.05895776136895079 0 0 0
1621 1 14.399404700704 6.235125135091595 1.7300077577603021 0 0 0
1616 1 12.599479113115997 9.352687702637594 1.7300077577603021 0 0 0
1623 5 14.399404700703998 8.31350018012226 0.058957761368951235 0 0 0
1622 1 16.199330288291996 9.352687702637594 1.7300077577603024 0 0 0
1618 5 12.599479113115997 11.431062747668262 0.05895776136895095 0 0 0
1624 5 16.199330288292 11.431062747668262 0.05895776136895103 0 0 0
1627 1 17.999255875880003 6.235125135091596 1.7300077577603021 0 0 0
1633 1 21.599107051056002 6.235125135091596 1.7300077577603021 0 0 0
1629 5 17.99925587588 8.31350018012226 0.058957761368950326 0 0 0
1628 1 19.799181463467995 9.352687702637594 1.7300077577603021 0 0 0
1635 5 21.599107051056 8.31350018012226 0.05895776136895034 0 0 0
1634 1 23.399032638643995 9.352687702637594 1.7300077577603021 0 0 0
1630 5 19.799181463468 11.431062747668262 0.05895776136895087 0 0 0
1636 5 23.399032638643998 11.431062747668262 0.05895776136895087 0 0 0
1639 1 25.198958226232 6.235125135091596 1.7300077577603021 0 0 0
1645 1 28.798809401408 6.235125135091596 1.7300077577603021 0 0 0
1641 5 25.198958226231998 8.31350018012226 0.05895776136895034 0 0 0
1640 1 26.998883813819994 9.352687702637594 1.7300077577603021 0 0 0
1647 5 28.798809401407997 8.31350018012226 0.058957761368950354 0 0 0
1642 5 26.998883813819997 11.431062747668262 0.05895776136895087 0 0 0
1651 1 32.398660576584 6.235125135091596 1.7300077577603021 0 0 0
1646 1 30.598734988995993 9.352687702637594 1.7300077577603021 0 0 0
1653 5 32.39866057658399 8.31350018012226 0.05895776136895039 0 0 0
1652 1 34.19858616417199 9.352687702637594 1.7300077577603021 0 0 0
1648 5 30.598734988995997 11.431062747668262 0.05895776136895087 0 0 0
1654 5 34.198586164172 11.43106274766826 0.05895776136895078 0 0 0
1657 1 35.99851175176 6.235125135091595 1.7300077577603021 0 0 0
1663 1 39.598362926936 6.235125135091595 1.7300077577603021 0 0 0
1659 5 35.99851175175999 8.31350018012226 0.05895776136895039 0 0 0
1658 1 37.79843733934799 9.352687702637594 1.7300077577603021 0 0 0
1665 5 39.59836292693599 8.31350018012226 0.058957761368950735 0 0 0
1664 1 41.398288514524 9.352687702637594 1.7300077577603024 0 0 0
1660 5 37.798437339348 11.43106274766826 0.05895776136895078 0 0 0
1666 5 41.398288514524 11.431062747668262 0.05895776136895257 0 0 0
1669 1 43.198214102112 6.235125135091595 1.7300077577603021 0 0 0
1675 1 46.798065277287996 6.235125135091595 1.7300077577603021 0 0 0
1671 5 43.198214102112004 8.31350018012226 0.058957761368950735 0 0 0
1670 1 44.998139689700004 9.352687702637594 1.7300077577603021 0 0 0
1677 5 46.798065277288 8.31350018012226 0.05895776136895038 0 0 0
1672 5 44.9981396897 11.43106274766826 0.05895776136895077 0 0 0
1513 1 50.397916452464 6.235125135091595 1.7300077577603021 -1 0 0
1676 1 48.597990864876 9.352687702637594 1.7300077577603021 0 0 0
1515 5 50.397916452464 8.31350018012226 0.05895776136895123 -1 0 0
1514 1 52.197842040052 9.352687702637594 1.7300077577603021 -1 0 0
1678 5 48.597990864875996 11.431062747668262 0.058957761368951256 0 0 0
1516 5 52.197842040052 11.431062747668262 0.05895776136895067 -1 0 0
1519 1 53.99776762764 6.235125135091596 1.730007757760302 -1 0 0
1525 1 57.597618802816 6.235125135091596 1.730007757760302 -1 0 0
1521 5 53.99776762764 8.31350018012226 0.05895776136895023 -1 0 0
1520 1 55.797693215228 9.352687702637594 1.7300077577603021 -1 0 0
1527 5 57.597618802816 8.31350018012226 0.05895776136895023 -1 0 0
1522 5 55.797693215228 11.431062747668262 0.05895776136895079 -1 0 0
1531 1 61.197469977992 6.235125135091595 1.7300077577603021 -1 0 0
1537 1 64.797321153168 6.235125135091596 1.7300077577603021 -1 0 0
1526 1 59.397544390404 9.352687702637594 1.7300077577603021 -1 0 0
1533 5 61.197469977992 8.31350018012226 0.05895776136895124 -1 0 0
1532 1 62.99739556558 9.352687702637594 1.7300077577603021 -1 0 0
1539 5 64.797321153168 8.31350018012226 0.05895776136895096 -1 0 0
1528 5 59.397544390404 11.431062747668262 0.05895776136895067 -1 0 0
1534 5 62.99739556558001 11.431062747668262 0.05895776136895075 -1 0 0
1543 1 68.397172328344 6.235125135091596 1.7300077577603021 -1 0 0
1545 5 68.397172328344 8.31350018012226 0.05895776136895038 -1 0 0
1538 1 66.597246740756 9.352687702637594 1.7300077577603021 -1 0 0
1544 1 70.197097915932 9.352687702637594 1.7300077577603021 -1 0 0
1540 5 66.597246740756 11.431062747668262 0.05895776136895086 -1 0 0
1546 5 70.197097915932 11.431062747668262 0.05895776136895086 -1 0 0
1549 1 71.99702350352 6.235125135091596 1.7300077577603021 -1 0 0
1555 1 75.596874678696 6.235125135091595 1.7300077577603021 -1 0 0
1551 5 71.99702350352 8.31350018012226 0.05895776136895039 -1 0 0
1550 1 73.796949091108 9.352687702637594 1.7300077577603021 -1 0 0
1557 5 75.596874678696 8.31350018012226 0.05895776136895016 -1 0 0
1552 5 73.796949091108 11.431062747668262 0.05895776136895084 -1 0 0
1561 1 79.19672585387201 6.235125135091596 1.7300077577603021 -1 0 0
1567 1 82.796577029048 6.235125135091596 1.7300077577603021 -1 0 0
1556 1 77.396800266284 9.352687702637594 1.7300077577603021 -1 0 0
1563 5 79.19672585387201 8.31350018012226 0.05895776136895038 -1 0 0
1562 1 80.99665144146 9.352687702637594 1.7300077577603024 -1 0 0
1569 5 82.796577029048 8.31350018012226 0.058957761368950375 -1 0 0
1558 5 77.396800266284 11.431062747668264 0.05895776136895378 -1 0 0
1564 5 80.99665144146 11.431062747668259 0.05895776136894786 -1 0 0
1573 1 86.39642820422401 6.235125135091596 1.7300077577603021 -1 0 0
1568 1 84.596502616636 9.352687702637594 1.7300077577603021 -1 0 0
1575 5 86.39642820422401 8.31350018012226 0.05895776136895038 -1 0 0
1574 1 88.196353791812 9.352687702637594 1.7300077577603024 -1 0 0
1570 5 84.596502616636 11.431062747668264 0.0589577613689538 -1 0 0
1576 5 88.196353791812 11.431062747668259 0.05895776136894786 -1 0 0
1579 1 89.9962793794 6.235125135091596 1.7300077577603021 -1 0 0
1585 1 93.596130554576 6.235125135091595 1.7300077577603021 -1 0 0
1581 5 89.9962793794 8.31350018012226 0.058957761368950375 -1 0 0
1580 1 91.796204966988 9.352687702637594 1.7300077577603021 -1 0 0
1587 5 93.596130554576 8.31350018012226 0.05895776136895016 -1 0 0
1582 5 91.796204966988 11.431062747668264 0.05895776136895378 -1 0 0
1591 1 97.195981729752 6.235125135091596 1.7300077577603021 -1 0 0
1586 1 95.396056142164 9.352687702637594 1.7300077577603021 -1 0 0
1593 5 97.195981729752 8.31350018012226 0.05895776136895038 -1 0 0
1592 1 98.99590731734 9.352687702637594 1.7300077577603024 -1 0 0
1588 5 95.396056142164 11.431062747668262 0.05895776136895083 -1 0 0
1594 5 98.99590731734 11.43106274766826 0.0589577613689505 -1 0 0
1765 1 0 12.470250270183596 1.7300077577603035 0 0 0
1771 1 3.599851175175999 12.470250270183596 1.7300077577603032 0 0 0
1767 5 0 14.54862531521426 0.058957761368951 0 0 0
1773 5 3.599851175175999 14.54862531521426 0.058957761368949486 0 0 0
1766 1 1.7999255875879994 15.587812837729595 1.730007757760302 0 0 0
1772 1 5.399776762763999 15.587812837729595 1.730007757760302 0 0 0
1777 1 7.199702350351998 12.470250270183595 1.7300077577603032 0 0 0
1783 1 10.799553525527998 12.470250270183596 1.7300077577603032 0 0 0
1779 5 7.199702350351998 14.54862531521426 0.05895776136894951 0 0 0
1785 5 10.799553525527998 14.54862531521426 0.05895776136894961 0 0 0
1778 1 8.999627937939998 15.587812837729595 1.730007757760302 0 0 0
1789 1 14.399404700704 12.470250270183596 1.7300077577603035 0 0 0
1791 5 14.399404700703998 14.54862531521426 0.0589577613689506 0 0 0
1784 1 12.599479113115997 15.587812837729595 1.7300077577603017 0 0 0
1790 1 16.199330288291996 15.587812837729595 1.730007757760302 0 0 0
1795 1 17.999255875880003 12.470250270183596 1.7300077577603032 0 0 0
1801 1 21.599107051056002 12.470250270183596 1.7300077577603032 0 0 0
1797 5 17.99925587588 14.54862531521426 0.058957761368949556 0 0 0
1803 5 21.599107051056 14.54862531521426 0.05895776136894957 0 0 0
1796 1 19.799181463467995 15.587812837729595 1.730007757760302 0 0 0
1802 1 23.399032638643995 15.587812837729595 1.730007757760302 0 0 0
1807 1 25.198958226232 12.470250270183596 1.7300077577603032 0 0 0
1813 1 28.798809401408 12.470250270183596 1.7300077577603032 0 0 0
1809 5 25.198958226231998 14.54862531521426 0.05895776136894957 0 0 0
1815 5 28.798809401407997 14.54862531521426 0.058957761368949584 0 0 0
1808 1 26.998883813819994 15.587812837729595 1.730007757760302 0 0 0
1819 1 32.398660576584 12.470250270183596 1.7300077577603032 0 0 0
1821 5 32.39866057658399 14.54862531521426 0.05895776136894951 0 0 0
1814 1 30.598734988995993 15.587812837729595 1.730007757760302 0 0 0
1820 1 34.19858616417199 15.587812837729595 1.730007757760302 0 0 0
1825 1 35.99851175176 12.470250270183596 1.7300077577603035 0 0 0
1831 1 39.598362926936 12.470250270183595 1.7300077577603035 0 0 0
1827 5 35.99851175175999 14.54862531521426 0.058957761368949514 0 0 0
1833 5 39.59836292693599 14.54862531521426 0.05895776136895001 0 0 0
1826 1 37.79843733934799 15.587812837729595 1.730007757760302 0 0 0
1832 1 41.398288514524 15.587812837729595 1.730007757760302 0 0 0
1837 1 43.198214102112 12.470250270183595 1.7300077577603035 0 0 0
1843 1 46.798065277287996 12.470250270183596 1.7300077577603035 0 0 0
1839 5 43.198214102112004 14.54862531521426 0.05895776136895001 0 0 0
1845 5 46.798065277288 14.54862531521426 0.05895776136894951 0 0 0
1838 1 44.998139689700004 15.587812837729595 1.730007757760302 0 0 0
1681 1 50.397916452464 12.470250270183596 1.7300077577603032 -1 0 0
1683 5 50.397916452464 14.54862531521426 0.05895776136895048 -1 0 0
1844 1 48.597990864876 15.587812837729595 1.730007757760302 0 0 0
1682 1 52.197842040052 15.587812837729595 1.730007757760302 -1 0 0
1687 1 53.99776762764 12.470250270183595 1.7300077577603032 -1 0 0
1693 1 57.597618802816 12.470250270183595 1.7300077577603032 -1 0 0
1689 5 53.99776762764 14.54862531521426 0.0589577613689495 -1 0 0
1695 5 57.597618802816 14.54862531521426 0.05895776136894962 -1 0 0
1688 1 55.797693215228 15.587812837729595 1.730007757760302 -1 0 0
1699 1 61.197469977992 12.470250270183596 1.7300077577603032 -1 0 0
1705 1 64.797321153168 12.470250270183596 1.7300077577603032 -1 0 0
1701 5 61.197469977992 14.54862531521426 0.058957761368950534 -1 0 0
1707 5 64.797321153168 14.54862531521426 0.058957761368950146 -1 0 0
1694 1 59.397544390404 15.587812837729595 1.730007757760302 -1 0 0
1700 1 62.99739556558 15.587812837729595 1.730007757760302 -1 0 0
1711 1 68.397172328344 12.470250270183596 1.7300077577603032 -1 0 0
1713 5 68.397172328344 14.54862531521426 0.058957761368949625 -1 0 0
1706 1 66.597246740756 15.587812837729595 1.730007757760302 -1 0 0
1712 1 70.197097915932 15.587812837729595 1.730007757760302 -1 0 0
1717 1 71.99702350352 12.470250270183596 1.7300077577603032 -1 0 0
1723 1 75.596874678696 12.470250270183595 1.7300077577603032 -1 0 0
1719 5 71.99702350352 14.54862531521426 0.05895776136894963 -1 0 0
1725 5 75.596874678696 14.54862531521426 0.058957761368949424 -1 0 0
1718 1 73.796949091108 15.587812837729595 1.730007757760302 -1 0 0
1729 1 79.19672585387201 12.470250270183596 1.7300077577603032 -1 0 0
1735 1 82.796577029048 12.470250270183596 1.7300077577603032 -1 0 0
1731 5 79.19672585387201 14.54862531521426 0.05895776136894963 -1 0 0
1737 5 82.796577029048 14.54862531521426 0.05895776136894963 -1 0 0
1724 1 77.396800266284 15.587812837729595 1.7300077577603021 -1 0 0
1730 1 80.99665144146 15.587812837729595 1.730007757760302 -1 0 0
1741 1 86.39642820422401 12.470250270183596 1.7300077577603032 -1 0 0
1743 5 86.39642820422401 14.54862531521426 0.05895776136894963 -1 0 0
1736 1 84.596502616636 15.587812837729595 1.7300077577603021 -1 0 0
1742 1 88.196353791812 15.587812837729595 1.730007757760302 -1 0 0
1747 1 89.9962793794 12.470250270183596 1.7300077577603032 -1 0 0
1753 1 93.596130554576 12.470250270183595 1.7300077577603032 -1 0 0
1749 5 89.9962793794 14.54862531521426 0.058957761368949625 -1 0 0
1755 5 93.596130554576 14.54862531521426 0.058957761368949424 -1 0 0
1748 1 91.796204966988 15.587812837729595 1.730007757760302 -1 0 0
1759 1 97.195981729752 12.470250270183596 1.7300077577603032 -1 0 0
1761 5 97.195981729752 14.54862531521426 0.058957761368949625 -1 0 0
1754 1 95.396056142164 15.587812837729595 1.730007757760302 -1 0 0
1760 1 98.99590731734 15.587812837729595 1.730007757760302 -1 0 0
1768 5 1.7999255875879994 17.66618788276026 0.05895776136894947 0 0 0
1933 1 0 18.705375405275596 1.730007757760301 0 0 0
1939 1 3.599851175175999 18.705375405275596 1.7300077577603008 0 0 0
1774 5 5.399776762763999 17.66618788276026 0.05895776136894933 0 0 0
1935 5 0 20.78375045030626 0.05895776136895117 0 0 0
1941 5 3.599851175175999 20.78375045030626 0.058957761368949695 0 0 0
1934 1 1.7999255875879994 21.822937972821595 1.7300077577603021 0 0 0
1940 1 5.399776762763999 21.822937972821595 1.7300077577603024 0 0 0
1945 1 7.199702350351998 18.705375405275596 1.7300077577603008 0 0 0
1780 5 8.999627937939998 17.66618788276026 0.05895776136894933 0 0 0
1951 1 10.799553525527998 18.705375405275596 1.7300077577603008 0 0 0
1947 5 7.199702350351998 20.78375045030626 0.0589577613689497 0 0 0
1953 5 10.799553525527998 20.78375045030626 0.058957761368949695 0 0 0
1946 1 8.999627937939998 21.822937972821595 1.7300077577603024 0 0 0
1786 5 12.599479113115997 17.66618788276026 0.058957761368949396 0 0 0
1957 1 14.399404700704 18.705375405275596 1.7300077577603008 0 0 0
1792 5 16.199330288292 17.66618788276026 0.05895776136894969 0 0 0
1959 5 14.399404700703998 20.78375045030626 0.05895776136895065 0 0 0
1952 1 12.599479113115997 21.822937972821595 1.7300077577603021 0 0 0
1958 1 16.199330288291996 21.822937972821595 1.7300077577603021 0 0 0
1963 1 17.999255875880003 18.705375405275596 1.7300077577603008 0 0 0
1798 5 19.799181463468 17.66618788276026 0.05895776136894946 0 0 0
1969 1 21.599107051056002 18.705375405275596 1.7300077577603008 0 0 0
1804 5 23.399032638643998 17.66618788276026 0.05895776136894946 0 0 0
1965 5 17.99925587588 20.78375045030626 0.05895776136894977 0 0 0
1971 5 21.599107051056 20.78375045030626 0.058957761368949785 0 0 0
1964 1 19.799181463467995 21.822937972821595 1.7300077577603024 0 0 0
1970 1 23.399032638643995 21.822937972821595 1.7300077577603024 0 0 0
1975 1 25.198958226232 18.705375405275596 1.7300077577603008 0 0 0
1810 5 26.998883813819997 17.66618788276026 0.05895776136894946 0 0 0
1981 1 28.798809401408 18.705375405275596 1.7300077577603008 0 0 0
1977 5 25.198958226231998 20.78375045030626 0.058957761368949785 0 0 0
1983 5 28.798809401407997 20.78375045030626 0.0589577613689498 0 0 0
1976 1 26.998883813819994 21.822937972821595 1.7300077577603024 0 0 0
1816 5 30.598734988995997 17.66618788276026 0.05895776136894946 0 0 0
1822 5 34.198586164172 17.66618788276026 0.05895776136894943 0 0 0
1987 1 32.398660576584 18.705375405275596 1.7300077577603008 0 0 0
1989 5 32.39866057658399 20.78375045030626 0.05895776136894983 0 0 0
1982 1 30.598734988995993 21.822937972821595 1.7300077577603024 0 0 0
1988 1 34.19858616417199 21.822937972821595 1.7300077577603024 0 0 0
1993 1 35.99851175176 18.705375405275596 1.7300077577603008 0 0 0
1828 5 37.798437339348 17.66618788276026 0.05895776136894944 0 0 0
1999 1 39.598362926936 18.705375405275596 1.7300077577603006 0 0 0
1834 5 41.398288514524 17.66618788276026 0.0589577613689512 0 0 0
1995 5 35.99851175175999 20.78375045030626 0.05895776136894983 0 0 0
2001 5 39.59836292693599 20.78375045030626 0.05895776136895021 0 0 0
1994 1 37.79843733934799 21.822937972821595 1.7300077577603028 0 0 0
2000 1 41.398288514524 21.822937972821595 1.7300077577603021 0 0 0
2005 1 43.198214102112 18.705375405275596 1.7300077577603006 0 0 0
1840 5 44.9981396897 17.66618788276026 0.05895776136894944 0 0 0
2011 1 46.798065277287996 18.705375405275596 1.7300077577603008 0 0 0
2007 5 43.198214102112004 20.78375045030626 0.05895776136895021 0 0 0
2013 5 46.798065277288 20.78375045030626 0.058957761368949826 0 0 0
2006 1 44.998139689700004 21.822937972821595 1.7300077577603024 0 0 0
1846 5 48.597990864875996 17.66618788276026 0.05895776136894995 0 0 0
1849 1 50.397916452464 18.705375405275596 1.7300077577603008 -1 0 0
1684 5 52.197842040052 17.66618788276026 0.058957761368949216 -1 0 0
1851 5 50.397916452464 20.78375045030626 0.05895776136895063 -1 0 0
2012 1 48.597990864876 21.822937972821595 1.7300077577603021 0 0 0
1850 1 52.197842040052 21.822937972821595 1.7300077577603021 -1 0 0
1855 1 53.99776762764 18.705375405275596 1.7300077577603008 -1 0 0
1690 5 55.797693215228 17.66618788276026 0.05895776136894933 -1 0 0
1861 1 57.597618802816 18.705375405275596 1.7300077577603008 -1 0 0
1857 5 53.99776762764 20.78375045030626 0.0589577613689497 -1 0 0
1863 5 57.597618802816 20.78375045030626 0.0589577613689497 -1 0 0
1856 1 55.797693215228 21.822937972821595 1.7300077577603024 -1 0 0
1696 5 59.397544390404 17.66618788276026 0.05895776136894907 -1 0 0
1867 1 61.197469977992 18.705375405275596 1.7300077577603008 -1 0 0
1702 5 62.99739556558001 17.66618788276026 0.05895776136894944 -1 0 0
1873 1 64.797321153168 18.705375405275596 1.7300077577603008 -1 0 0
1869 5 61.197469977992 20.78375045030626 0.05895776136895063 -1 0 0
1875 5 64.797321153168 20.78375045030626 0.05895776136895036 -1 0 0
1862 1 59.397544390404 21.822937972821595 1.7300077577603021 -1 0 0
1868 1 62.99739556558 21.822937972821595 1.7300077577603021 -1 0 0
1708 5 66.597246740756 17.66618788276026 0.058957761368949535 -1 0 0
1879 1 68.397172328344 18.705375405275596 1.7300077577603008 -1 0 0
1714 5 70.197097915932 17.66618788276026 0.058957761368949535 -1 0 0
1881 5 68.397172328344 20.78375045030626 0.058957761368949785 -1 0 0
1874 1 66.597246740756 21.822937972821595 1.7300077577603024 -1 0 0
1880 1 70.197097915932 21.822937972821595 1.7300077577603024 -1 0 0
1885 1 71.99702350352 18.705375405275596 1.7300077577603008 -1 0 0
1720 5 73.796949091108 17.66618788276026 0.05895776136894952 -1 0 0
1891 1 75.596874678696 18.705375405275596 1.7300077577603006 -1 0 0
1887 5 71.99702350352 20.78375045030626 0.058957761368949785 -1 0 0
1893 5 75.596874678696 20.78375045030626 0.058957761368949625 -1 0 0
1886 1 73.796949091108 21.822937972821595 1.7300077577603024 -1 0 0
1726 5 77.396800266284 17.66618788276026 0.05895776136895132 -1 0 0
1897 1 79.196725853872 18.705375405275596 1.7300077577603004 -1 0 0
1732 5 80.99665144146 17.66618788276026 0.05895776136894884 -1 0 0
1903 1 82.79657702904801 18.705375405275596 1.7300077577603004 -1 0 0
1899 5 79.19672585387201 20.78375045030626 0.058957761368949764 -1 0 0
1905 5 82.796577029048 20.78375045030626 0.058957761368949764 -1 0 0
1892 1 77.396800266284 21.822937972821595 1.7300077577603028 -1 0 0
1898 1 80.99665144146 21.822937972821595 1.7300077577603026 -1 0 0
1738 5 84.596502616636 17.66618788276026 0.058957761368950166 -1 0 0
1909 1 86.396428204224 18.705375405275596 1.7300077577603004 -1 0 0
1744 5 88.196353791812 17.66618788276026 0.05895776136894884 -1 0 0
1911 5 86.39642820422401 20.78375045030626 0.058957761368949764 -1 0 0
1904 1 84.596502616636 21.822937972821595 1.7300077577603028 -1 0 0
1910 1 88.196353791812 21.822937972821595 1.7300077577603026 -1 0 0
1915 1 89.99627937940001 18.705375405275596 1.7300077577603004 -1 0 0
1750 5 91.796204966988 17.66618788276026 0.05895776136895132 -1 0 0
1921 1 93.596130554576 18.705375405275596 1.7300077577603006 -1 0 0
1917 5 89.9962793794 20.78375045030626 0.05895776136894976 -1 0 0
1923 5 93.596130554576 20.78375045030626 0.058957761368949625 -1 0 0
1916 1 91.796204966988 21.822937972821595 1.7300077577603028 -1 0 0
1756 5 95.396056142164 17.66618788276026 0.05895776136894952 -1 0 0
1927 1 97.195981729752 18.705375405275596 1.7300077577603008 -1 0 0
1762 5 98.99590731734 17.66618788276026 0.05895776136894915 -1 0 0
1929 5 97.195981729752 20.78375045030626 0.058957761368949785 -1 0 0
1922 1 95.396056142164 21.822937972821595 1.7300077577603024 -1 0 0
1928 1 98.99590731734 21.822937972821595 1.7300077577603024 -1 0 0
1936 5 1.7999255875879994 23.901313017852264 0.058957761368950624 0 0 0
1942 5 5.399776762763999 23.901313017852264 0.05895776136895048 0 0 0
2101 1 0 24.940500540367598 1.7300077577603028 0 0 0
2107 1 3.599851175175999 24.940500540367598 1.7300077577603024 0 0 0
2103 5 0 27.018875585398263 0.05895776136895035 0 0 0
2102 1 1.7999255875879994 28.058063107913593 1.7300077577603037 0 0 0
2109 5 3.599851175175999 27.018875585398263 0.05895776136894891 0 0 0
2108 1 5.399776762763999 28.058063107913593 1.730007757760304 0 0 0
1948 5 8.999627937939998 23.901313017852264 0.05895776136895048 0 0 0
2113 1 7.199702350351998 24.940500540367598 1.7300077577603024 0 0 0
2119 1 10.799553525527998 24.940500540367598 1.7300077577603024 0 0 0
2115 5 7.199702350351998 27.018875585398263 0.058957761368948924 0 0 0
2114 1 8.999627937939998 28.058063107913593 1.730007757760304 0 0 0
2121 5 10.799553525527998 27.018875585398263 0.05895776136894891 0 0 0
1954 5 12.599479113115997 23.901313017852264 0.0589577613689507 0 0 0
1960 5 16.199330288292 23.901313017852264 0.058957761368950784 0 0 0
2125 1 14.399404700704 24.940500540367598 1.7300077577603026 0 0 0
2120 1 12.599479113115997 28.058063107913593 1.7300077577603037 0 0 0
2127 5 14.399404700703998 27.018875585398263 0.0589577613689498 0 0 0
2126 1 16.199330288291996 28.058063107913593 1.7300077577603037 0 0 0
1966 5 19.799181463468 23.901313017852264 0.05895776136895055 0 0 0
1972 5 23.399032638643998 23.901313017852264 0.05895776136895055 0 0 0
2131 1 17.999255875880003 24.940500540367598 1.7300077577603021 0 0 0
2137 1 21.599107051056002 24.940500540367598 1.7300077577603021 0 0 0
2133 5 17.99925587588 27.018875585398263 0.05895776136894885 0 0 0
2132 1 19.799181463467995 28.058063107913593 1.7300077577603037 0 0 0
2139 5 21.599107051056 27.018875585398263 0.05895776136894886 0 0 0
2138 1 23.399032638643995 28.058063107913593 1.7300077577603037 0 0 0
1978 5 26.998883813819997 23.901313017852264 0.05895776136895055 0 0 0
2143 1 25.198958226232 24.940500540367598 1.7300077577603021 0 0 0
2149 1 28.798809401408 24.940500540367598 1.7300077577603021 0 0 0
2145 5 25.198958226231998 27.018875585398263 0.05895776136894886 0 0 0
2144 1 26.998883813819994 28.058063107913593 1.7300077577603037 0 0 0
2151 5 28.798809401407997 27.018875585398263 0.058957761368948876 0 0 0
1984 5 30.598734988995997 23.901313017852264 0.05895776136895055 0 0 0
1990 5 34.198586164172 23.901313017852264 0.05895776136895048 0 0 0
2155 1 32.398660576584 24.940500540367598 1.7300077577603021 0 0 0
2150 1 30.598734988995993 28.058063107913593 1.7300077577603037 0 0 0
2157 5 32.39866057658399 27.018875585398263 0.05895776136894883 0 0 0
2156 1 34.19858616417199 28.058063107913593 1.7300077577603037 0 0 0
1996 5 37.798437339348 23.901313017852264 0.05895776136895048 0 0 0
2002 5 41.398288514524 23.901313017852264 0.058957761368952206 0 0 0
2161 1 35.99851175176 24.940500540367598 1.7300077577603021 0 0 0
2167 1 39.598362926936 24.940500540367598 1.7300077577603024 0 0 0