LAMMPS data file via write_data, version 29 Aug 2024, timestep = 1, units = metal

5184 atoms
6 atom types

0 98.987830285986 xlo xhi
0 101.601156377088 ylo yhi
-50 50 zlo zhi

Masses

1 72.63
2 72.63
3 72.63
4 78.971
5 78.971
6 78.971

Atoms # atomic

923 4 1.8331141120343735 1.0583388076382683 -0.0005389253823883667 0 0 0
927 4 5.4993300485523715 1.0583388076382674 -0.0005389253823870281 0 0 0
922 1 1.8329953014082119 3.1749136213565574 1.4531430207026423 0 0 0
926 1 5.49921123792621 3.1749136213565583 1.453143020702641 0 0 0
920 4 6.1437753762407005e-06 4.2333749444222715 -0.0005389253823900356 0 0 0
924 4 3.6662220802933714 4.233374944422271 -0.0005389253823887337 0 0 0
931 4 9.165545985070372 1.0583388076382674 -0.0005389253823870281 0 0 0
930 1 9.165427174444211 3.1749136213565583 1.453143020702641 0 0 0
928 4 7.332438016811372 4.233374944422271 -0.0005389253823888367 0 0 0
932 4 10.998653953329372 4.233374944422271 -0.0005389253823889363 0 0 0
935 4 12.831761921588374 1.0583388076382665 -0.0005389253823858308 0 0 0
939 4 16.497977858106378 1.0583388076382674 -0.000538925382387128 0 0 0
934 1 12.831643110962213 3.174913621356559 1.45314302070264 0 0 0
938 1 16.49785904748022 3.174913621356558 1.4531430207026412 0 0 0
936 4 14.664869889847377 4.23337494442227 -0.0005389253823876496 0 0 0
943 4 20.16419379462438 1.0583388076382674 -0.0005389253823870277 0 0 0
942 1 20.16407498399822 3.1749136213565583 1.453143020702641 0 0 0
940 4 18.33108582636538 4.233374944422271 -0.0005389253823888367 0 0 0
944 4 21.99730176288338 4.233374944422271 -0.0005389253823888363 0 0 0
947 4 23.83040973114238 1.0583388076382674 -0.0005389253823870269 0 0 0
951 4 27.496625667660382 1.0583388076382674 -0.0005389253823870267 0 0 0
946 1 23.83029092051622 3.1749136213565583 1.453143020702641 0 0 0
950 1 27.49650685703422 3.1749136213565583 1.453143020702641 0 0 0
948 4 25.663517699401382 4.233374944422271 -0.0005389253823888345 0 0 0
955 4 31.162841604178382 1.0583388076382674 -0.0005389253823870277 0 0 0
959 4 34.82905754069638 1.0583388076382674 -0.0005389253823870285 0 0 0
954 1 31.16272279355222 3.1749136213565583 1.453143020702641 0 0 0
958 1 34.82893873007022 3.1749136213565583 1.453143020702641 0 0 0
952 4 29.329733635919382 4.233374944422271 -0.0005389253823888361 0 0 0
956 4 32.99594957243738 4.233374944422271 -0.0005389253823888368 0 0 0
963 4 38.49527347721438 1.0583388076382674 -0.0005389253823870294 0 0 0
962 1 38.49515466658822 3.1749136213565583 1.453143020702641 0 0 0
960 4 36.66216550895538 4.233374944422271 -0.0005389253823888375 0 0 0
964 4 40.32838144547338 4.233374944422271 -0.0005389253823888378 0 0 0
967 4 42.16148941373238 1.0583388076382674 -0.0005389253823870285 0 0 0
971 4 45.82770535025038 1.0583388076382674 -0.0005389253823870281 0 0 0
966 1 42.16137060310622 3.1749136213565583 1.453143020702641 0 0 0
970 1 45.82758653962422 3.1749136213565583 1.453143020702641 0 0 0
968 4 43.99459738199138 4.233374944422271 -0.0005389253823888365 0 0 0
867 4 49.49392128676838 1.0583388076382674 -0.0005389253823870288 -1 0 0
866 1 49.49380247614222 3.1749136213565583 1.453143020702641 -1 0 0
972 4 47.66081331850938 4.233374944422271 -0.0005389253823888363 0 0 0
868 4 51.327029255027384 4.233374944422271 -0.0005389253823888366 -1 0 0
871 4 53.160137223286384 1.0583388076382674 -0.0005389253823870281 -1 0 0
875 4 56.826353159804384 1.0583388076382674 -0.0005389253823870281 -1 0 0
870 1 53.16001841266022 3.1749136213565583 1.453143020702641 -1 0 0
874 1 56.82623434917822 3.1749136213565583 1.453143020702641 -1 0 0
872 4 54.993245191545384 4.233374944422271 -0.0005389253823888363 -1 0 0
879 4 60.492569096322384 1.0583388076382674 -0.0005389253823870283 -1 0 0
878 1 60.49245028569622 3.1749136213565583 1.453143020702641 -1 0 0
876 4 58.659461128063384 4.233374944422271 -0.0005389253823888365 -1 0 0
880 4 62.325677064581384 4.233374944422271 -0.0005389253823888361 -1 0 0
883 4 64.15878503284038 1.0583388076382674 -0.0005389253823870285 -1 0 0
887 4 67.82500096935838 1.0583388076382674 -0.0005389253823870283 -1 0 0
882 1 64.15866622221422 3.1749136213565583 1.453143020702641 -1 0 0
886 1 67.82488215873222 3.1749136213565583 1.453143020702641 -1 0 0
884 4 65.99189300109938 4.233374944422271 -0.0005389253823888368 -1 0 0
888 4 69.65810893761738 4.233374944422271 -0.0005389253823888368 -1 0 0
891 4 71.49121690587639 1.0583388076382674 -0.0005389253823870283 -1 0 0
895 4 75.15743284239439 1.0583388076382674 -0.0005389253823870283 -1 0 0
890 1 71.49109809525022 3.1749136213565583 1.453143020702641 -1 0 0
894 1 75.15731403176822 3.1749136213565583 1.453143020702641 -1 0 0
892 4 73.32432487413539 4.233374944422271 -0.0005389253823888363 -1 0 0
899 4 78.82364877891239 1.0583388076382674 -0.0005389253823870281 -1 0 0
898 1 78.82352996828622 3.1749136213565583 1.453143020702641 -1 0 0
896 4 76.99054081065339 4.233374944422271 -0.0005389253823888364 -1 0 0
900 4 80.65675674717139 4.233374944422271 -0.0005389253823888366 -1 0 0
903 4 82.48986471543039 1.0583388076382674 -0.0005389253823870283 -1 0 0
907 4 86.15608065194839 1.0583388076382674 -0.0005389253823870283 -1 0 0
902 1 82.48974590480422 3.1749136213565583 1.453143020702641 -1 0 0
906 1 86.15596184132222 3.1749136213565583 1.453143020702641 -1 0 0
904 4 84.32297268368939 4.233374944422271 -0.0005389253823888365 -1 0 0
911 4 89.82229658846639 1.0583388076382674 -0.0005389253823870283 -1 0 0
910 1 89.82217777784022 3.1749136213565583 1.453143020702641 -1 0 0
908 4 87.98918862020739 4.233374944422271 -0.0005389253823888366 -1 0 0
912 4 91.65540455672539 4.233374944422271 -0.0005389253823888363 -1 0 0
915 4 93.48851252498439 1.0583388076382674 -0.0005389253823870283 -1 0 0
919 4 97.15472846150239 1.0583388076382674 -0.0005389253823869253 -1 0 0
914 1 93.48839371435822 3.1749136213565583 1.453143020702641 -1 0 0
918 1 97.15460965087622 3.1749136213565583 1.453143020702641 -1 0 0
916 4 95.32162049324339 4.233374944422271 -0.0005389253823888364 -1 0 0
1031 4 1.8331141120343732 7.408411081206273 -0.0005389253823898002 0 0 0
1029 1 3.66610326966721 6.34994975814056 1.4531430207026408 0 0 0
1035 4 5.4993300485523715 7.408411081206272 -0.000538925382388601 0 0 0
1030 1 1.8329953014082119 9.524985894924558 1.4531430207026437 0 0 0
1034 1 5.49921123792621 9.524985894924558 1.4531430207026426 0 0 0
1028 4 6.143775376269025e-06 10.58344721799027 -0.0005389253823919844 0 0 0
1032 4 3.6662220802933714 10.583447217990269 -0.0005389253823907058 0 0 0
1033 1 7.33231920618521 6.34994975814056 1.4531430207026408 0 0 0
1039 4 9.165545985070372 7.408411081206272 -0.0005389253823886008 0 0 0
1037 1 10.998535142703211 6.34994975814056 1.453143020702641 0 0 0
1038 1 9.165427174444211 9.524985894924558 1.4531430207026426 0 0 0
1036 4 7.332438016811372 10.583447217990269 -0.0005389253823908092 0 0 0
1040 4 10.998653953329372 10.583447217990269 -0.000538925382390908 0 0 0
1043 4 12.831761921588374 7.408411081206271 -0.0005389253823874136 0 0 0
1041 1 14.664751079221215 6.349949758140561 1.4531430207026397 0 0 0
1047 4 16.497977858106378 7.408411081206272 -0.0005389253823886997 0 0 0
1042 1 12.831643110962213 9.52498589492456 1.4531430207026412 0 0 0
1046 1 16.49785904748022 9.524985894924558 1.4531430207026426 0 0 0
1044 4 14.664869889847377 10.583447217990267 -0.0005389253823894609 0 0 0
1045 1 18.33096701573922 6.34994975814056 1.4531430207026408 0 0 0
1051 4 20.16419379462438 7.408411081206272 -0.0005389253823886007 0 0 0
1049 1 21.99718295225722 6.34994975814056 1.4531430207026408 0 0 0
1050 1 20.16407498399822 9.524985894924558 1.4531430207026426 0 0 0
1048 4 18.33108582636538 10.583447217990269 -0.0005389253823908089 0 0 0
1052 4 21.99730176288338 10.583447217990269 -0.0005389253823908086 0 0 0
1055 4 23.83040973114238 7.408411081206272 -0.0005389253823886 0 0 0
1053 1 25.66339888877522 6.34994975814056 1.4531430207026408 0 0 0
1059 4 27.496625667660382 7.408411081206272 -0.0005389253823885997 0 0 0
1054 1 23.83029092051622 9.524985894924558 1.4531430207026426 0 0 0
1058 1 27.49650685703422 9.524985894924558 1.4531430207026426 0 0 0
1056 4 25.663517699401382 10.583447217990269 -0.000538925382390807 0 0 0
1057 1 29.32961482529322 6.34994975814056 1.4531430207026408 0 0 0
1063 4 31.162841604178382 7.408411081206272 -0.0005389253823886007 0 0 0
1067 4 34.82905754069638 7.408411081206272 -0.000538925382388602 0 0 0
1061 1 32.99583076181122 6.34994975814056 1.4531430207026408 0 0 0
1062 1 31.16272279355222 9.524985894924558 1.4531430207026426 0 0 0
1066 1 34.82893873007022 9.524985894924558 1.4531430207026426 0 0 0
1060 4 29.329733635919382 10.583447217990269 -0.0005389253823908079 0 0 0
1064 4 32.99594957243738 10.583447217990269 -0.0005389253823908089 0 0 0
1065 1 36.66204669832922 6.34994975814056 1.4531430207026408 0 0 0
1071 4 38.49527347721438 7.408411081206272 -0.0005389253823886029 0 0 0
1069 1 40.32826263484722 6.34994975814056 1.4531430207026408 0 0 0
1070 1 38.49515466658822 9.524985894924558 1.4531430207026426 0 0 0
1068 4 36.66216550895538 10.583447217990269 -0.0005389253823908101 0 0 0
1072 4 40.32838144547338 10.583447217990269 -0.0005389253823908102 0 0 0
1075 4 42.16148941373238 7.408411081206272 -0.0005389253823886022 0 0 0
1073 1 43.99447857136522 6.34994975814056 1.4531430207026408 0 0 0
1079 4 45.82770535025038 7.408411081206272 -0.000538925382388602 0 0 0
1074 1 42.16137060310622 9.524985894924558 1.4531430207026426 0 0 0
1078 1 45.82758653962422 9.524985894924558 1.4531430207026426 0 0 0
1076 4 43.99459738199138 10.583447217990269 -0.000538925382390809 0 0 0
1077 1 47.66069450788322 6.34994975814056 1.4531430207026408 0 0 0
975 4 49.49392128676838 7.408411081206272 -0.000538925382388602 -1 0 0
973 1 51.32691044440122 6.34994975814056 1.4531430207026408 -1 0 0
974 1 49.49380247614222 9.524985894924558 1.4531430207026426 -1 0 0
1080 4 47.66081331850938 10.583447217990269 -0.0005389253823908088 0 0 0
976 4 51.327029255027384 10.583447217990269 -0.000538925382390809 -1 0 0
979 4 53.160137223286384 7.408411081206272 -0.0005389253823886017 -1 0 0
977 1 54.99312638091922 6.34994975814056 1.4531430207026408 -1 0 0
983 4 56.826353159804384 7.408411081206272 -0.0005389253823886015 -1 0 0
978 1 53.16001841266022 9.524985894924558 1.4531430207026426 -1 0 0
982 1 56.82623434917822 9.524985894924558 1.4531430207026426 -1 0 0
980 4 54.993245191545384 10.583447217990269 -0.0005389253823908088 -1 0 0
981 1 58.65934231743722 6.34994975814056 1.4531430207026408 -1 0 0
987 4 60.492569096322384 7.408411081206272 -0.0005389253823886012 -1 0 0
985 1 62.32555825395522 6.34994975814056 1.4531430207026408 -1 0 0
986 1 60.49245028569622 9.524985894924558 1.4531430207026426 -1 0 0
984 4 58.659461128063384 10.583447217990269 -0.0005389253823908089 -1 0 0
988 4 62.325677064581384 10.583447217990269 -0.0005389253823908084 -1 0 0
991 4 64.15878503284038 7.408411081206272 -0.0005389253823886017 -1 0 0
995 4 67.82500096935838 7.408411081206272 -0.0005389253823886014 -1 0 0
989 1 65.99177419047322 6.34994975814056 1.4531430207026408 -1 0 0
993 1 69.65799012699122 6.34994975814056 1.4531430207026408 -1 0 0
990 1 64.15866622221422 9.524985894924558 1.4531430207026426 -1 0 0
994 1 67.82488215873222 9.524985894924558 1.4531430207026426 -1 0 0
992 4 65.99189300109938 10.583447217990269 -0.0005389253823908091 -1 0 0
996 4 69.65810893761738 10.583447217990269 -0.0005389253823908089 -1 0 0
999 4 71.49121690587639 7.408411081206272 -0.0005389253823886008 -1 0 0
997 1 73.32420606350922 6.34994975814056 1.4531430207026408 -1 0 0
1003 4 75.15743284239439 7.408411081206272 -0.0005389253823886009 -1 0 0
998 1 71.49109809525022 9.524985894924558 1.4531430207026426 -1 0 0
1002 1 75.15731403176822 9.524985894924558 1.4531430207026426 -1 0 0
1000 4 73.32432487413539 10.583447217990269 -0.0005389253823908088 -1 0 0
1001 1 76.99042200002722 6.34994975814056 1.4531430207026408 -1 0 0
1007 4 78.82364877891239 7.408411081206272 -0.0005389253823886008 -1 0 0
1005 1 80.65663793654522 6.34994975814056 1.4531430207026408 -1 0 0
1006 1 78.82352996828622 9.524985894924558 1.4531430207026426 -1 0 0
1004 4 76.99054081065339 10.583447217990269 -0.0005389253823908089 -1 0 0
1008 4 80.65675674717139 10.583447217990269 -0.0005389253823908087 -1 0 0
1011 4 82.48986471543039 7.408411081206272 -0.0005389253823886006 -1 0 0
1009 1 84.32285387306322 6.34994975814056 1.4531430207026408 -1 0 0
1015 4 86.15608065194839 7.408411081206272 -0.0005389253823886008 -1 0 0
1010 1 82.48974590480422 9.524985894924558 1.4531430207026426 -1 0 0
1014 1 86.15596184132222 9.524985894924558 1.4531430207026426 -1 0 0
1012 4 84.32297268368939 10.583447217990269 -0.0005389253823908088 -1 0 0
1013 1 87.98906980958122 6.34994975814056 1.4531430207026408 -1 0 0
1019 4 89.82229658846639 7.408411081206272 -0.0005389253823886006 -1 0 0
1017 1 91.65528574609922 6.34994975814056 1.4531430207026408 -1 0 0
1018 1 89.82217777784022 9.524985894924558 1.4531430207026426 -1 0 0
1016 4 87.98918862020739 10.583447217990269 -0.0005389253823908088 -1 0 0
1020 4 91.65540455672539 10.583447217990269 -0.0005389253823908088 -1 0 0
1025 1 98.98771761913522 6.349949758140559 1.4531430207026421 -1 0 0
1023 4 93.48851252498439 7.408411081206272 -0.0005389253823886009 -1 0 0
1021 1 95.32150168261722 6.34994975814056 1.4531430207026408 -1 0 0
1027 4 97.15472846150239 7.408411081206272 -0.0005389253823884985 -1 0 0
1022 1 93.48839371435822 9.524985894924558 1.4531430207026426 -1 0 0
1026 1 97.15460965087622 9.524985894924558 1.4531430207026423 -1 0 0
1024 4 95.32162049324339 10.583447217990269 -0.0005389253823908089 -1 0 0
1137 1 3.66610326966721 12.700022031708558 1.4531430207026388 0 0 0
1139 4 1.8331141120343735 13.75848335477427 -0.0005389253823897863 0 0 0
1143 4 5.4993300485523715 13.75848335477427 -0.0005389253823884474 0 0 0
1136 4 6.1437753762685755e-06 16.93351949155827 -0.0005389253823899772 0 0 0
1138 1 1.8329953014082119 15.875058168492556 1.4531430207026457 0 0 0
1140 4 3.6662220802933714 16.93351949155827 -0.0005389253823886993 0 0 0
1142 1 5.49921123792621 15.875058168492558 1.4531430207026443 0 0 0
1141 1 7.33231920618521 12.700022031708558 1.4531430207026388 0 0 0
1145 1 10.998535142703211 12.700022031708558 1.4531430207026388 0 0 0
1147 4 9.165545985070372 13.75848335477427 -0.0005389253823884478 0 0 0
1144 4 7.332438016811372 16.93351949155827 -0.0005389253823888024 0 0 0
1146 1 9.165427174444211 15.875058168492558 1.4531430207026443 0 0 0
1148 4 10.998653953329372 16.93351949155827 -0.0005389253823889021 0 0 0
1149 1 14.664751079221215 12.700022031708558 1.4531430207026377 0 0 0
1151 4 12.831761921588374 13.758483354774269 -0.0005389253823872501 0 0 0
1155 4 16.497977858106378 13.75848335477427 -0.0005389253823885469 0 0 0
1150 1 12.831643110962213 15.875058168492558 1.453143020702643 0 0 0
1152 4 14.664869889847377 16.933519491558265 -0.0005389253823874542 0 0 0
1154 1 16.49785904748022 15.875058168492558 1.4531430207026446 0 0 0
1153 1 18.33096701573922 12.700022031708558 1.4531430207026388 0 0 0
1157 1 21.99718295225722 12.700022031708558 1.4531430207026388 0 0 0
1159 4 20.16419379462438 13.75848335477427 -0.0005389253823884473 0 0 0
1156 4 18.33108582636538 16.93351949155827 -0.000538925382388802 0 0 0
1158 1 20.16407498399822 15.875058168492558 1.4531430207026443 0 0 0
1160 4 21.99730176288338 16.93351949155827 -0.0005389253823888017 0 0 0
1161 1 25.66339888877522 12.700022031708558 1.4531430207026388 0 0 0
1163 4 23.83040973114238 13.75848335477427 -0.0005389253823884467 0 0 0
1167 4 27.496625667660382 13.75848335477427 -0.0005389253823884457 0 0 0
1162 1 23.83029092051622 15.875058168492558 1.4531430207026443 0 0 0
1164 4 25.663517699401382 16.93351949155827 -0.0005389253823888004 0 0 0
1166 1 27.49650685703422 15.875058168492558 1.4531430207026443 0 0 0
1165 1 29.32961482529322 12.700022031708558 1.4531430207026388 0 0 0
1169 1 32.99583076181122 12.700022031708558 1.4531430207026388 0 0 0
1171 4 31.162841604178382 13.75848335477427 -0.0005389253823884476 0 0 0
1175 4 34.82905754069638 13.75848335477427 -0.0005389253823884483 0 0 0
1168 4 29.329733635919382 16.93351949155827 -0.0005389253823888018 0 0 0
1170 1 31.16272279355222 15.875058168492558 1.4531430207026443 0 0 0
1172 4 32.99594957243738 16.93351949155827 -0.0005389253823888024 0 0 0
1174 1 34.82893873007022 15.875058168492558 1.4531430207026443 0 0 0
1173 1 36.66204669832922 12.700022031708558 1.4531430207026388 0 0 0
1177 1 40.32826263484722 12.700022031708558 1.4531430207026388 0 0 0
1179 4 38.49527347721438 13.75848335477427 -0.0005389253823884496 0 0 0
1176 4 36.66216550895538 16.93351949155827 -0.0005389253823888029 0 0 0
1178 1 38.49515466658822 15.875058168492558 1.4531430207026443 0 0 0
1180 4 40.32838144547338 16.93351949155827 -0.0005389253823888029 0 0 0
1181 1 43.99447857136522 12.700022031708558 1.4531430207026388 0 0 0
1183 4 42.16148941373238 13.75848335477427 -0.0005389253823884485 0 0 0
1187 4 45.82770535025038 13.75848335477427 -0.0005389253823884479 0 0 0
1182 1 42.16137060310622 15.875058168492558 1.4531430207026443 0 0 0
1184 4 43.99459738199138 16.93351949155827 -0.0005389253823888023 0 0 0
1186 1 45.82758653962422 15.875058168492558 1.4531430207026443 0 0 0
1185 1 47.66069450788322 12.700022031708558 1.4531430207026388 0 0 0
1081 1 51.32691044440122 12.700022031708558 1.4531430207026388 -1 0 0
1083 4 49.49392128676838 13.75848335477427 -0.000538925382388448 -1 0 0
1188 4 47.66081331850938 16.93351949155827 -0.0005389253823888023 0 0 0
1082 1 49.49380247614222 15.875058168492558 1.4531430207026443 -1 0 0
1084 4 51.327029255027384 16.93351949155827 -0.0005389253823888024 -1 0 0
1085 1 54.99312638091922 12.700022031708558 1.4531430207026388 -1 0 0
1087 4 53.160137223286384 13.75848335477427 -0.0005389253823884483 -1 0 0
1091 4 56.826353159804384 13.75848335477427 -0.0005389253823884475 -1 0 0
1086 1 53.16001841266022 15.875058168492558 1.4531430207026443 -1 0 0
1088 4 54.993245191545384 16.93351949155827 -0.0005389253823888023 -1 0 0
1090 1 56.82623434917822 15.875058168492558 1.4531430207026443 -1 0 0
1089 1 58.65934231743722 12.700022031708558 1.4531430207026388 -1 0 0
1093 1 62.32555825395522 12.700022031708558 1.4531430207026388 -1 0 0
1095 4 60.492569096322384 13.75848335477427 -0.0005389253823884479 -1 0 0
1092 4 58.659461128063384 16.93351949155827 -0.0005389253823888021 -1 0 0
1094 1 60.49245028569622 15.875058168492558 1.4531430207026443 -1 0 0
1096 4 62.325677064581384 16.93351949155827 -0.000538925382388802 -1 0 0
1097 1 65.99177419047322 12.700022031708558 1.4531430207026388 -1 0 0
1101 1 69.65799012699122 12.700022031708558 1.4531430207026388 -1 0 0
1099 4 64.15878503284038 13.75848335477427 -0.0005389253823884483 -1 0 0
1103 4 67.82500096935838 13.75848335477427 -0.0005389253823884479 -1 0 0
1098 1 64.15866622221422 15.875058168492558 1.4531430207026443 -1 0 0
1100 4 65.99189300109938 16.93351949155827 -0.0005389253823888027 -1 0 0
1102 1 67.82488215873222 15.875058168492558 1.4531430207026443 -1 0 0
1104 4 69.65810893761738 16.93351949155827 -0.000538925382388802 -1 0 0
1105 1 73.32420606350922 12.700022031708558 1.4531430207026388 -1 0 0
1107 4 71.49121690587639 13.75848335477427 -0.0005389253823884477 -1 0 0
1111 4 75.15743284239439 13.75848335477427 -0.0005389253823884472 -1 0 0
1106 1 71.49109809525022 15.875058168492558 1.4531430207026443 -1 0 0
1108 4 73.32432487413539 16.93351949155827 -0.0005389253823888019 -1 0 0
1110 1 75.15731403176822 15.875058168492558 1.4531430207026443 -1 0 0
1109 1 76.99042200002722 12.700022031708558 1.4531430207026388 -1 0 0
1113 1 80.65663793654522 12.700022031708558 1.4531430207026388 -1 0 0
1115 4 78.82364877891239 13.75848335477427 -0.0005389253823884475 -1 0 0
1112 4 76.99054081065339 16.93351949155827 -0.0005389253823888018 -1 0 0
1114 1 78.82352996828622 15.875058168492558 1.4531430207026443 -1 0 0
1116 4 80.65675674717139 16.93351949155827 -0.0005389253823888019 -1 0 0
1117 1 84.32285387306322 12.700022031708558 1.4531430207026388 -1 0 0
1119 4 82.48986471543039 13.75848335477427 -0.0005389253823884474 -1 0 0
1123 4 86.15608065194839 13.75848335477427 -0.0005389253823884471 -1 0 0
1118 1 82.48974590480422 15.875058168492558 1.4531430207026443 -1 0 0
1120 4 84.32297268368939 16.93351949155827 -0.000538925382388802 -1 0 0
1122 1 86.15596184132222 15.875058168492558 1.4531430207026443 -1 0 0
1121 1 87.98906980958122 12.700022031708558 1.4531430207026388 -1 0 0
1125 1 91.65528574609922 12.700022031708558 1.4531430207026388 -1 0 0
1127 4 89.82229658846639 13.75848335477427 -0.0005389253823884473 -1 0 0
1124 4 87.98918862020739 16.93351949155827 -0.0005389253823888018 -1 0 0
1126 1 89.82217777784022 15.875058168492558 1.4531430207026443 -1 0 0
1128 4 91.65540455672539 16.93351949155827 -0.0005389253823888019 -1 0 0
1133 1 98.98771761913522 12.700022031708556 1.4531430207026401 -1 0 0
1129 1 95.32150168261722 12.700022031708558 1.4531430207026388 -1 0 0
1131 4 93.48851252498439 13.75848335477427 -0.0005389253823884476 -1 0 0
1135 4 97.15472846150239 13.75848335477427 -0.0005389253823883452 -1 0 0
1130 1 93.48839371435822 15.875058168492558 1.4531430207026443 -1 0 0
1132 4 95.32162049324339 16.93351949155827 -0.0005389253823888018 -1 0 0
1134 1 97.15460965087622 15.875058168492558 1.4531430207026443 -1 0 0
1245 1 3.66610326966721 19.050094305276552 1.453143020702641 0 0 0
1247 4 1.8331141120343732 20.10855562834227 -0.0005389253823902094 0 0 0
1251 4 5.4993300485523715 20.10855562834227 -0.0005389253823890343 0 0 0
1246 1 1.8329953014082119 22.225130442060554 1.4531430207026421 0 0 0
1250 1 5.49921123792621 22.225130442060554 1.453143020702641 0 0 0
1244 4 6.1437753762685755e-06 23.28359176512627 -0.0005389253823902101 0 0 0
1248 4 3.6662220802933714 23.28359176512627 -0.0005389253823889329 0 0 0
1249 1 7.33231920618521 19.050094305276552 1.453143020702641 0 0 0
1253 1 10.998535142703211 19.050094305276552 1.4531430207026412 0 0 0
1255 4 9.165545985070372 20.10855562834227 -0.0005389253823890348 0 0 0
1254 1 9.165427174444211 22.225130442060554 1.453143020702641 0 0 0
1252 4 7.332438016811372 23.28359176512627 -0.0005389253823890359 0 0 0
1256 4 10.998653953329372 23.28359176512627 -0.0005389253823891352 0 0 0
1257 1 14.664751079221215 19.050094305276556 1.4531430207026397 0 0 0
1259 4 12.831761921588374 20.108555628342266 -0.0005389253823876864 0 0 0
1263 4 16.497977858106378 20.10855562834227 -0.0005389253823891338 0 0 0
1258 1 12.831643110962213 22.225130442060557 1.4531430207026397 0 0 0
1262 1 16.49785904748022 22.225130442060554 1.453143020702641 0 0 0
1260 4 14.664869889847377 23.283591765126268 -0.0005389253823876869 0 0 0
1261 1 18.33096701573922 19.050094305276552 1.453143020702641 0 0 0
1265 1 21.99718295225722 19.050094305276552 1.453143020702641 0 0 0
1267 4 20.16419379462438 20.10855562834227 -0.0005389253823890345 0 0 0
1266 1 20.16407498399822 22.225130442060554 1.453143020702641 0 0 0
1264 4 18.33108582636538 23.28359176512627 -0.0005389253823890355 0 0 0
1268 4 21.99730176288338 23.28359176512627 -0.0005389253823890353 0 0 0
1269 1 25.66339888877522 19.050094305276552 1.453143020702641 0 0 0
1271 4 23.83040973114238 20.10855562834227 -0.0005389253823890333 0 0 0
1275 4 27.496625667660382 20.10855562834227 -0.0005389253823890333 0 0 0
1270 1 23.83029092051622 22.225130442060554 1.453143020702641 0 0 0
1274 1 27.49650685703422 22.225130442060554 1.453143020702641 0 0 0
1272 4 25.663517699401382 23.28359176512627 -0.0005389253823890338 0 0 0
1273 1 29.32961482529322 19.050094305276552 1.453143020702641 0 0 0
1277 1 32.99583076181122 19.050094305276552 1.453143020702641 0 0 0
1279 4 31.162841604178382 20.10855562834227 -0.0005389253823890349 0 0 0
1283 4 34.82905754069638 20.10855562834227 -0.0005389253823890356 0 0 0
1278 1 31.16272279355222 22.225130442060554 1.453143020702641 0 0 0
1282 1 34.82893873007022 22.225130442060554 1.453143020702641 0 0 0
1276 4 29.329733635919382 23.28359176512627 -0.0005389253823890351 0 0 0
1280 4 32.99594957243738 23.28359176512627 -0.0005389253823890359 0 0 0
1281 1 36.66204669832922 19.050094305276552 1.453143020702641 0 0 0
1285 1 40.32826263484722 19.050094305276552 1.453143020702641 0 0 0
1287 4 38.49527347721438 20.10855562834227 -0.0005389253823890366 0 0 0
1286 1 38.49515466658822 22.225130442060554 1.453143020702641 0 0 0
1284 4 36.66216550895538 23.28359176512627 -0.0005389253823890367 0 0 0
1288 4 40.32838144547338 23.28359176512627 -0.0005389253823890367 0 0 0
1289 1 43.99447857136522 19.050094305276552 1.453143020702641 0 0 0
1291 4 42.16148941373238 20.10855562834227 -0.0005389253823890359 0 0 0
1295 4 45.82770535025038 20.10855562834227 -0.0005389253823890351 0 0 0
1290 1 42.16137060310622 22.225130442060554 1.453143020702641 0 0 0
1294 1 45.82758653962422 22.225130442060554 1.453143020702641 0 0 0
1292 4 43.99459738199138 23.28359176512627 -0.000538925382389036 0 0 0
1293 1 47.66069450788322 19.050094305276552 1.453143020702641 0 0 0
1189 1 51.32691044440122 19.050094305276552 1.453143020702641 -1 0 0
1191 4 49.49392128676838 20.10855562834227 -0.0005389253823890355 -1 0 0
1190 1 49.49380247614222 22.225130442060554 1.453143020702641 -1 0 0
1296 4 47.66081331850938 23.28359176512627 -0.0005389253823890358 0 0 0
1192 4 51.327029255027384 23.28359176512627 -0.0005389253823890359 -1 0 0
1193 1 54.99312638091922 19.050094305276552 1.453143020702641 -1 0 0
1195 4 53.160137223286384 20.10855562834227 -0.0005389253823890358 -1 0 0
1199 4 56.826353159804384 20.10855562834227 -0.0005389253823890348 -1 0 0
1194 1 53.16001841266022 22.225130442060554 1.453143020702641 -1 0 0
1198 1 56.82623434917822 22.225130442060554 1.453143020702641 -1 0 0
1196 4 54.993245191545384 23.28359176512627 -0.0005389253823890358 -1 0 0
1197 1 58.65934231743722 19.050094305276552 1.453143020702641 -1 0 0
1201 1 62.32555825395522 19.050094305276552 1.453143020702641 -1 0 0
1203 4 60.492569096322384 20.10855562834227 -0.0005389253823890351 -1 0 0
1202 1 60.49245028569622 22.225130442060554 1.453143020702641 -1 0 0
1200 4 58.659461128063384 23.28359176512627 -0.0005389253823890359 -1 0 0
1204 4 62.325677064581384 23.28359176512627 -0.0005389253823890356 -1 0 0
1205 1 65.99177419047322 19.050094305276552 1.453143020702641 -1 0 0
1209 1 69.65799012699122 19.050094305276552 1.453143020702641 -1 0 0
1207 4 64.15878503284038 20.10855562834227 -0.0005389253823890358 -1 0 0
1211 4 67.82500096935838 20.10855562834227 -0.0005389253823890351 -1 0 0
1206 1 64.15866622221422 22.225130442060554 1.453143020702641 -1 0 0
1210 1 67.82488215873222 22.225130442060554 1.453143020702641 -1 0 0
1208 4 65.99189300109938 23.28359176512627 -0.0005389253823890361 -1 0 0
1212 4 69.65810893761738 23.28359176512627 -0.0005389253823890357 -1 0 0
1213 1 73.32420606350922 19.050094305276552 1.453143020702641 -1 0 0
1215 4 71.49121690587639 20.10855562834227 -0.0005389253823890345 -1 0 0
1219 4 75.15743284239439 20.10855562834227 -0.0005389253823890341 -1 0 0
1214 1 71.49109809525022 22.225130442060554 1.453143020702641 -1 0 0
1218 1 75.15731403176822 22.225130442060554 1.453143020702641 -1 0 0
1216 4 73.32432487413539 23.28359176512627 -0.0005389253823890355 -1 0 0
1217 1 76.99042200002722 19.050094305276552 1.453143020702641 -1 0 0
1221 1 80.65663793654522 19.050094305276552 1.453143020702641 -1 0 0
1223 4 78.82364877891239 20.10855562834227 -0.0005389253823890345 -1 0 0
1222 1 78.82352996828622 22.225130442060554 1.453143020702641 -1 0 0
1220 4 76.99054081065339 23.28359176512627 -0.0005389253823890357 -1 0 0
1224 4 80.65675674717139 23.28359176512627 -0.0005389253823890355 -1 0 0
1225 1 84.32285387306322 19.050094305276552 1.453143020702641 -1 0 0
1227 4 82.48986471543039 20.10855562834227 -0.0005389253823890343 -1 0 0
1231 4 86.15608065194839 20.10855562834227 -0.000538925382389034 -1 0 0
1226 1 82.48974590480422 22.225130442060554 1.453143020702641 -1 0 0
1230 1 86.15596184132222 22.225130442060554 1.453143020702641 -1 0 0
1228 4 84.32297268368939 23.28359176512627 -0.0005389253823890357 -1 0 0
1229 1 87.98906980958122 19.050094305276552 1.453143020702641 -1 0 0
1233 1 91.65528574609922 19.050094305276552 1.453143020702641 -1 0 0
1235 4 89.82229658846639 20.10855562834227 -0.0005389253823890343 -1 0 0
1234 1 89.82217777784022 22.225130442060554 1.453143020702641 -1 0 0
1232 4 87.98918862020739 23.28359176512627 -0.0005389253823890357 -1 0 0
1236 4 91.65540455672539 23.28359176512627 -0.0005389253823890355 -1 0 0
1241 1 98.98771761913522 19.050094305276552 1.4531430207026421 -1 0 0
1237 1 95.32150168261722 19.050094305276552 1.453143020702641 -1 0 0
1239 4 93.48851252498439 20.10855562834227 -0.0005389253823890345 -1 0 0
1243 4 97.15472846150239 20.10855562834227 -0.0005389253823889323 -1 0 0
1238 1 93.48839371435822 22.225130442060554 1.453143020702641 -1 0 0
1242 1 97.15460965087622 22.225130442060554 1.453143020702641 -1 0 0
1240 4 95.32162049324339 23.28359176512627 -0.0005389253823890357 -1 0 0
1355 4 1.8331141120343732 26.458627901910273 -0.0005389253823902098 0 0 0
1353 1 3.66610326966721 25.400166578844555 1.453143020702641 0 0 0
1359 4 5.4993300485523715 26.458627901910273 -0.0005389253823890345 0 0 0
1354 1 1.8329953014082119 28.575202715628556 1.4531430207026421 0 0 0
1358 1 5.49921123792621 28.575202715628556 1.453143020702641 0 0 0
1352 4 6.1437753762685755e-06 29.633664038694274 -0.0005389253823902101 0 0 0
1356 4 3.6662220802933714 29.633664038694274 -0.0005389253823889329 0 0 0
1357 1 7.33231920618521 25.400166578844555 1.453143020702641 0 0 0
1363 4 9.165545985070372 26.458627901910273 -0.000538925382389035 0 0 0
1361 1 10.998535142703211 25.400166578844555 1.453143020702641 0 0 0
1362 1 9.165427174444211 28.575202715628556 1.453143020702641 0 0 0
1360 4 7.332438016811372 29.633664038694274 -0.0005389253823890359 0 0 0
1364 4 10.998653953329372 29.633664038694274 -0.0005389253823891352 0 0 0
1367 4 12.831761921588374 26.45862790191027 -0.0005389253823876866 0 0 0
1365 1 14.664751079221215 25.40016657884456 1.4531430207026397 0 0 0