LAMMPS data file via write_data, version 29 Aug 2024, timestep = 1, units = metal

3456 atoms
4 atom types

0 98.987830285986 xlo xhi
0 101.601156377088 ylo yhi
-50 50 zlo zhi

Masses

1 72.63
2 72.63
3 78.971
4 78.971

Atoms # atomic

923 3 1.833115538048323 1.058337282395199 -0.0006640137955299511 0 0 0
927 3 5.49933147456632 1.058337282395198 -0.0006640137955283017 0 0 0
922 1 1.8329691506310573 3.174887500329846 1.4544579194522869 0 0 0
926 1 5.499185087149055 3.1748875003298473 1.4544579194522853 0 0 0
920 3 7.569789324788542e-06 4.233373419179203 -0.0006640137955320074 0 0 0
924 3 3.6662235063073205 4.233373419179202 -0.0006640137955304032 0 0 0
931 3 9.16554741108432 1.058337282395198 -0.0006640137955283017 0 0 0
930 1 9.165401023667055 3.1748875003298473 1.4544579194522855 0 0 0
928 3 7.33243944282532 4.233373419179202 -0.0006640137955305303 0 0 0
932 3 10.99865537934332 4.233373419179202 -0.0006640137955306528 0 0 0
935 3 12.831763347602324 1.0583372823951969 -0.0006640137955268266 0 0 0
939 3 16.49797928412033 1.058337282395198 -0.000664013795528425 0 0 0
934 1 12.831616960185057 3.1748875003298482 1.454457919452284 0 0 0
938 1 16.497832896703063 3.174887500329847 1.4544579194522855 0 0 0
936 3 14.664871315861326 4.233373419179201 -0.0006640137955290675 0 0 0
943 3 20.16419522063833 1.058337282395198 -0.0006640137955283014 0 0 0
942 1 20.164048833221063 3.1748875003298473 1.4544579194522853 0 0 0
940 3 18.33108725237933 4.233373419179202 -0.0006640137955305303 0 0 0
944 3 21.99730318889733 4.233373419179202 -0.0006640137955305298 0 0 0
947 3 23.83041115715633 1.058337282395198 -0.0006640137955283003 0 0 0
951 3 27.49662709367433 1.058337282395198 -0.0006640137955283001 0 0 0
946 1 23.830264769739063 3.1748875003298473 1.4544579194522855 0 0 0
950 1 27.496480706257064 3.1748875003298473 1.4544579194522855 0 0 0
948 3 25.66351912541533 4.233373419179202 -0.0006640137955305275 0 0 0
955 3 31.16284303019233 1.058337282395198 -0.0006640137955283014 0 0 0
959 3 34.82905896671033 1.058337282395198 -0.0006640137955283023 0 0 0
954 1 31.162696642775064 3.1748875003298473 1.4544579194522853 0 0 0
958 1 34.82891257929307 3.1748875003298473 1.4544579194522853 0 0 0
952 3 29.32973506193333 4.233373419179202 -0.0006640137955305294 0 0 0
956 3 32.99595099845133 4.233373419179202 -0.0006640137955305304 0 0 0
963 3 38.49527490322833 1.058337282395198 -0.0006640137955283034 0 0 0
962 1 38.49512851581107 3.1748875003298473 1.4544579194522853 0 0 0
960 3 36.66216693496933 4.233373419179202 -0.0006640137955305313 0 0 0
964 3 40.32838287148733 4.233373419179202 -0.0006640137955305315 0 0 0
967 3 42.16149083974633 1.058337282395198 -0.0006640137955283023 0 0 0
971 3 45.82770677626433 1.058337282395198 -0.0006640137955283017 0 0 0
966 1 42.16134445232907 3.1748875003298473 1.4544579194522855 0 0 0
970 1 45.82756038884707 3.1748875003298473 1.4544579194522855 0 0 0
968 3 43.99459880800533 4.233373419179202 -0.00066401379553053 0 0 0
867 3 49.49392271278233 1.058337282395198 -0.0006640137955283027 -1 0 0
866 1 49.49377632536507 3.1748875003298473 1.4544579194522855 -1 0 0
972 3 47.66081474452333 4.233373419179202 -0.0006640137955305298 0 0 0
868 3 51.32703068104133 4.233373419179202 -0.0006640137955305301 -1 0 0
871 3 53.16013864930033 1.058337282395198 -0.0006640137955283017 -1 0 0
875 3 56.82635458581833 1.058337282395198 -0.0006640137955283017 -1 0 0
870 1 53.15999226188307 3.1748875003298473 1.4544579194522855 -1 0 0
874 1 56.82620819840107 3.1748875003298473 1.4544579194522855 -1 0 0
872 3 54.99324661755933 4.233373419179202 -0.0006640137955305298 -1 0 0
879 3 60.49257052233633 1.058337282395198 -0.000664013795528302 -1 0 0
878 1 60.49242413491907 3.1748875003298473 1.4544579194522855 -1 0 0
876 3 58.65946255407733 4.233373419179202 -0.00066401379553053 -1 0 0
880 3 62.32567849059533 4.233373419179202 -0.0006640137955305294 -1 0 0
883 3 64.15878645885434 1.058337282395198 -0.0006640137955283023 -1 0 0
887 3 67.82500239537234 1.058337282395198 -0.000664013795528302 -1 0 0
882 1 64.15864007143706 3.1748875003298473 1.4544579194522853 -1 0 0
886 1 67.82485600795506 3.1748875003298473 1.4544579194522853 -1 0 0
884 3 65.99189442711334 4.233373419179202 -0.0006640137955305304 -1 0 0
888 3 69.65811036363134 4.233373419179202 -0.0006640137955305304 -1 0 0
891 3 71.49121833189034 1.058337282395198 -0.000664013795528302 -1 0 0
895 3 75.15743426840834 1.058337282395198 -0.000664013795528302 -1 0 0
890 1 71.49107194447306 3.1748875003298473 1.4544579194522853 -1 0 0
894 1 75.15728788099106 3.1748875003298473 1.4544579194522853 -1 0 0
892 3 73.32432630014934 4.233373419179202 -0.0006640137955305298 -1 0 0
899 3 78.82365020492634 1.058337282395198 -0.0006640137955283017 -1 0 0
898 1 78.82350381750906 3.1748875003298473 1.4544579194522853 -1 0 0
896 3 76.99054223666734 4.233373419179202 -0.0006640137955305299 -1 0 0
900 3 80.65675817318534 4.233373419179202 -0.0006640137955305301 -1 0 0
903 3 82.48986614144434 1.058337282395198 -0.000664013795528302 -1 0 0
907 3 86.15608207796234 1.058337282395198 -0.000664013795528302 -1 0 0
902 1 82.48971975402706 3.1748875003298473 1.4544579194522853 -1 0 0
906 1 86.15593569054506 3.1748875003298473 1.4544579194522853 -1 0 0
904 3 84.32297410970334 4.233373419179202 -0.00066401379553053 -1 0 0
911 3 89.82229801448034 1.058337282395198 -0.000664013795528302 -1 0 0
910 1 89.82215162706306 3.1748875003298473 1.4544579194522853 -1 0 0
908 3 87.98919004622134 4.233373419179202 -0.0006640137955305301 -1 0 0
912 3 91.65540598273934 4.233373419179202 -0.0006640137955305298 -1 0 0
915 3 93.48851395099834 1.058337282395198 -0.000664013795528302 -1 0 0
919 3 97.15472988751634 1.058337282395198 -0.0006640137955281751 -1 0 0
914 1 93.48836756358106 3.1748875003298473 1.4544579194522853 -1 0 0
918 1 97.15458350009906 3.1748875003298473 1.4544579194522853 -1 0 0
916 3 95.32162191925734 4.233373419179202 -0.0006640137955305299 -1 0 0
1031 3 1.8331155380483228 7.408409555963204 -0.0006640137955317173 0 0 0
1029 1 3.666077118890055 6.349923637113849 1.454457919452285 0 0 0
1035 3 5.49933147456632 7.408409555963203 -0.0006640137955302399 0 0 0
1030 1 1.8329691506310573 9.524959773897846 1.4544579194522886 0 0 0
1034 1 5.499185087149055 9.524959773897848 1.4544579194522873 0 0 0
1028 3 7.569789324823441e-06 10.583445692747201 -0.0006640137955344085 0 0 0
1032 3 3.6662235063073205 10.583445692747201 -0.000664013795532833 0 0 0
1033 1 7.332293055408055 6.349923637113849 1.454457919452285 0 0 0
1039 3 9.16554741108432 7.408409555963203 -0.0006640137955302396 0 0 0
1037 1 10.998508991926055 6.349923637113848 1.4544579194522853 0 0 0
1038 1 9.165401023667055 9.524959773897848 1.4544579194522873 0 0 0
1036 3 7.33243944282532 10.583445692747201 -0.0006640137955329607 0 0 0
1040 3 10.99865537934332 10.583445692747201 -0.0006640137955330822 0 0 0
1043 3 12.831763347602324 7.408409555963202 -0.0006640137955287768 0 0 0
1041 1 14.66472492844406 6.34992363711385 1.4544579194522838 0 0 0
1047 3 16.49797928412033 7.408409555963203 -0.0006640137955303615 0 0 0
1042 1 12.831616960185059 9.524959773897848 1.4544579194522855 0 0 0
1046 1 16.497832896703063 9.524959773897848 1.4544579194522873 0 0 0
1044 3 14.664871315861326 10.5834456927472 -0.0006640137955312993 0 0 0
1045 1 18.330940864962063 6.349923637113849 1.454457919452285 0 0 0
1051 3 20.16419522063833 7.408409555963203 -0.0006640137955302394 0 0 0
1049 1 21.997156801480063 6.349923637113849 1.454457919452285 0 0 0
1050 1 20.164048833221063 9.524959773897848 1.4544579194522873 0 0 0
1048 3 18.33108725237933 10.583445692747201 -0.0006640137955329602 0 0 0
1052 3 21.99730318889733 10.583445692747201 -0.0006640137955329598 0 0 0
1055 3 23.83041115715633 7.408409555963203 -0.0006640137955302387 0 0 0
1053 1 25.663372737998063 6.349923637113849 1.454457919452285 0 0 0
1059 3 27.49662709367433 7.408409555963203 -0.0006640137955302382 0 0 0
1054 1 23.830264769739063 9.524959773897848 1.4544579194522873 0 0 0
1058 1 27.496480706257064 9.524959773897848 1.4544579194522873 0 0 0
1056 3 25.66351912541533 10.583445692747201 -0.0006640137955329577 0 0 0
1057 1 29.329588674516064 6.349923637113849 1.454457919452285 0 0 0
1063 3 31.16284303019233 7.408409555963203 -0.0006640137955302394 0 0 0
1067 3 34.82905896671033 7.408409555963203 -0.0006640137955302409 0 0 0
1061 1 32.99580461103407 6.349923637113849 1.454457919452285 0 0 0
1062 1 31.162696642775064 9.524959773897848 1.4544579194522873 0 0 0
1066 1 34.82891257929307 9.524959773897848 1.4544579194522873 0 0 0
1060 3 29.32973506193333 10.583445692747201 -0.0006640137955329589 0 0 0
1064 3 32.99595099845133 10.583445692747201 -0.0006640137955329602 0 0 0
1065 1 36.66202054755207 6.349923637113849 1.454457919452285 0 0 0
1071 3 38.49527490322833 7.408409555963203 -0.0006640137955302421 0 0 0
1069 1 40.32823648407007 6.349923637113849 1.454457919452285 0 0 0
1070 1 38.49512851581107 9.524959773897848 1.4544579194522873 0 0 0
1068 3 36.66216693496933 10.583445692747201 -0.0006640137955329616 0 0 0
1072 3 40.32838287148733 10.583445692747201 -0.0006640137955329617 0 0 0
1075 3 42.16149083974633 7.408409555963203 -0.0006640137955302413 0 0 0
1073 1 43.99445242058807 6.349923637113849 1.454457919452285 0 0 0
1079 3 45.82770677626433 7.408409555963203 -0.0006640137955302409 0 0 0
1074 1 42.16134445232907 9.524959773897848 1.4544579194522873 0 0 0
1078 1 45.82756038884707 9.524959773897848 1.4544579194522873 0 0 0
1076 3 43.99459880800533 10.583445692747201 -0.0006640137955329603 0 0 0
1077 1 47.66066835710607 6.349923637113849 1.454457919452285 0 0 0
975 3 49.49392271278233 7.408409555963203 -0.0006640137955302409 -1 0 0
973 1 51.32688429362407 6.349923637113849 1.454457919452285 -1 0 0
974 1 49.49377632536507 9.524959773897848 1.4544579194522873 -1 0 0
1080 3 47.66081474452333 10.583445692747201 -0.00066401379553296 0 0 0
976 3 51.32703068104133 10.583445692747201 -0.0006640137955329603 -1 0 0
979 3 53.16013864930033 7.408409555963203 -0.0006640137955302407 -1 0 0
977 1 54.99310023014207 6.349923637113849 1.454457919452285 -1 0 0
983 3 56.82635458581833 7.408409555963203 -0.0006640137955302404 -1 0 0
978 1 53.15999226188307 9.524959773897848 1.4544579194522873 -1 0 0
982 1 56.82620819840107 9.524959773897848 1.4544579194522873 -1 0 0
980 3 54.99324661755933 10.583445692747201 -0.00066401379553296 -1 0 0
981 1 58.65931616666007 6.349923637113849 1.454457919452285 -1 0 0
987 3 60.49257052233633 7.408409555963203 -0.0006640137955302402 -1 0 0
985 1 62.32553210317807 6.349923637113849 1.454457919452285 -1 0 0
986 1 60.49242413491907 9.524959773897848 1.4544579194522873 -1 0 0
984 3 58.65946255407733 10.583445692747201 -0.0006640137955329602 -1 0 0
988 3 62.32567849059533 10.583445692747201 -0.0006640137955329595 -1 0 0
991 3 64.15878645885434 7.408409555963203 -0.0006640137955302407 -1 0 0
995 3 67.82500239537234 7.408409555963203 -0.0006640137955302403 -1 0 0
989 1 65.99174803969606 6.349923637113849 1.454457919452285 -1 0 0
993 1 69.65796397621406 6.349923637113849 1.454457919452285 -1 0 0
990 1 64.15864007143706 9.524959773897848 1.4544579194522873 -1 0 0
994 1 67.82485600795506 9.524959773897848 1.4544579194522873 -1 0 0
992 3 65.99189442711334 10.583445692747201 -0.0006640137955329604 -1 0 0
996 3 69.65811036363134 10.583445692747201 -0.0006640137955329602 -1 0 0
999 3 71.49121833189034 7.408409555963203 -0.0006640137955302396 -1 0 0
997 1 73.32417991273206 6.349923637113849 1.454457919452285 -1 0 0
1003 3 75.15743426840834 7.408409555963203 -0.0006640137955302397 -1 0 0
998 1 71.49107194447306 9.524959773897848 1.4544579194522873 -1 0 0
1002 1 75.15728788099106 9.524959773897848 1.4544579194522873 -1 0 0
1000 3 73.32432630014934 10.583445692747201 -0.00066401379553296 -1 0 0
1001 1 76.99039584925006 6.349923637113849 1.454457919452285 -1 0 0
1007 3 78.82365020492634 7.408409555963203 -0.0006640137955302396 -1 0 0
1005 1 80.65661178576806 6.349923637113849 1.454457919452285 -1 0 0
1006 1 78.82350381750906 9.524959773897848 1.4544579194522873 -1 0 0
1004 3 76.99054223666734 10.583445692747201 -0.0006640137955329602 -1 0 0
1008 3 80.65675817318534 10.583445692747201 -0.0006640137955329599 -1 0 0
1011 3 82.48986614144434 7.408409555963203 -0.0006640137955302393 -1 0 0
1009 1 84.32282772228606 6.349923637113849 1.454457919452285 -1 0 0
1015 3 86.15608207796234 7.408409555963203 -0.0006640137955302396 -1 0 0
1010 1 82.48971975402706 9.524959773897848 1.4544579194522873 -1 0 0
1014 1 86.15593569054506 9.524959773897848 1.4544579194522873 -1 0 0
1012 3 84.32297410970334 10.583445692747201 -0.00066401379553296 -1 0 0
1013 1 87.98904365880406 6.349923637113849 1.454457919452285 -1 0 0
1019 3 89.82229801448034 7.408409555963203 -0.0006640137955302393 -1 0 0
1017 1 91.65525959532206 6.349923637113849 1.454457919452285 -1 0 0
1018 1 89.82215162706306 9.524959773897848 1.4544579194522873 -1 0 0
1016 3 87.98919004622134 10.583445692747201 -0.00066401379553296 -1 0 0
1020 3 91.65540598273934 10.583445692747201 -0.00066401379553296 -1 0 0
1025 1 98.98769146835807 6.349923637113847 1.4544579194522866 -1 0 0
1023 3 93.48851395099834 7.408409555963203 -0.0006640137955302397 -1 0 0
1021 1 95.32147553184006 6.349923637113849 1.454457919452285 -1 0 0
1027 3 97.15472988751634 7.408409555963203 -0.0006640137955301134 -1 0 0
1022 1 93.48836756358106 9.524959773897848 1.4544579194522873 -1 0 0
1026 1 97.15458350009906 9.524959773897848 1.454457919452287 -1 0 0
1024 3 95.32162191925734 10.583445692747201 -0.0006640137955329602 -1 0 0
1137 1 3.666077118890055 12.699995910681848 1.4544579194522824 0 0 0
1139 3 1.833115538048323 13.7584818295312 -0.0006640137955317003 0 0 0
1143 3 5.49933147456632 13.758481829531199 -0.0006640137955300506 0 0 0
1136 3 7.569789324822887e-06 16.9335179663152 -0.0006640137955319353 0 0 0
1138 1 1.8329691506310573 15.875032047465846 1.454457919452291 0 0 0
1140 3 3.6662235063073205 16.9335179663152 -0.000664013795530361 0 0 0
1142 1 5.499185087149055 15.875032047465847 1.4544579194522895 0 0 0
1141 1 7.332293055408055 12.699995910681848 1.4544579194522826 0 0 0
1145 1 10.998508991926055 12.699995910681848 1.4544579194522829 0 0 0
1147 3 9.16554741108432 13.758481829531199 -0.0006640137955300511 0 0 0
1144 3 7.33243944282532 16.9335179663152 -0.0006640137955304879 0 0 0
1146 1 9.165401023667055 15.875032047465847 1.4544579194522895 0 0 0
1148 3 10.99865537934332 16.9335179663152 -0.0006640137955306108 0 0 0
1149 1 14.66472492844406 12.699995910681848 1.454457919452281 0 0 0
1151 3 12.831763347602324 13.758481829531199 -0.0006640137955285754 0 0 0
1155 3 16.49797928412033 13.7584818295312 -0.0006640137955301731 0 0 0
1150 1 12.831616960185059 15.875032047465847 1.454457919452288 0 0 0
1152 3 14.664871315861326 16.933517966315197 -0.0006640137955288267 0 0 0
1154 1 16.497832896703063 15.875032047465847 1.4544579194522897 0 0 0
1153 1 18.330940864962063 12.699995910681848 1.4544579194522826 0 0 0
1157 1 21.997156801480063 12.699995910681848 1.4544579194522826 0 0 0
1159 3 20.16419522063833 13.758481829531199 -0.0006640137955300504 0 0 0
1156 3 18.33108725237933 16.9335179663152 -0.0006640137955304875 0 0 0
1158 1 20.164048833221063 15.875032047465847 1.4544579194522895 0 0 0
1160 3 21.99730318889733 16.9335179663152 -0.000664013795530487 0 0 0
1161 1 25.663372737998063 12.699995910681848 1.4544579194522826 0 0 0
1163 3 23.83041115715633 13.758481829531199 -0.0006640137955300497 0 0 0
1167 3 27.49662709367433 13.758481829531199 -0.0006640137955300485 0 0 0
1162 1 23.830264769739063 15.875032047465847 1.4544579194522895 0 0 0
1164 3 25.66351912541533 16.9335179663152 -0.0006640137955304855 0 0 0
1166 1 27.496480706257064 15.875032047465847 1.4544579194522895 0 0 0
1165 1 29.329588674516064 12.699995910681848 1.4544579194522826 0 0 0
1169 1 32.99580461103407 12.699995910681848 1.4544579194522826 0 0 0
1171 3 31.16284303019233 13.758481829531199 -0.0006640137955300509 0 0 0
1175 3 34.82905896671033 13.758481829531199 -0.0006640137955300516 0 0 0
1168 3 29.32973506193333 16.9335179663152 -0.0006640137955304872 0 0 0
1170 1 31.162696642775064 15.875032047465847 1.4544579194522895 0 0 0
1172 3 32.99595099845133 16.9335179663152 -0.0006640137955304879 0 0 0
1174 1 34.82891257929307 15.875032047465847 1.4544579194522895 0 0 0
1173 1 36.66202054755207 12.699995910681848 1.4544579194522826 0 0 0
1177 1 40.32823648407007 12.699995910681848 1.4544579194522826 0 0 0
1179 3 38.49527490322833 13.758481829531199 -0.0006640137955300532 0 0 0
1176 3 36.66216693496933 16.9335179663152 -0.0006640137955304886 0 0 0
1178 1 38.49512851581107 15.875032047465847 1.4544579194522895 0 0 0
1180 3 40.32838287148733 16.9335179663152 -0.0006640137955304886 0 0 0
1181 1 43.99445242058807 12.699995910681848 1.4544579194522826 0 0 0
1183 3 42.16149083974633 13.758481829531199 -0.000664013795530052 0 0 0
1187 3 45.82770677626433 13.758481829531199 -0.0006640137955300512 0 0 0
1182 1 42.16134445232907 15.875032047465847 1.4544579194522895 0 0 0
1184 3 43.99459880800533 16.9335179663152 -0.0006640137955304878 0 0 0
1186 1 45.82756038884707 15.875032047465847 1.4544579194522895 0 0 0
1185 1 47.66066835710607 12.699995910681848 1.4544579194522826 0 0 0
1081 1 51.32688429362407 12.699995910681848 1.4544579194522826 -1 0 0
1083 3 49.49392271278233 13.758481829531199 -0.0006640137955300514 -1 0 0
1188 3 47.66081474452333 16.9335179663152 -0.0006640137955304878 0 0 0
1082 1 49.49377632536507 15.875032047465847 1.4544579194522895 -1 0 0
1084 3 51.32703068104133 16.9335179663152 -0.0006640137955304879 -1 0 0
1085 1 54.99310023014207 12.699995910681848 1.4544579194522826 -1 0 0
1087 3 53.16013864930033 13.758481829531199 -0.0006640137955300516 -1 0 0
1091 3 56.82635458581833 13.758481829531199 -0.0006640137955300507 -1 0 0
1086 1 53.15999226188307 15.875032047465847 1.4544579194522895 -1 0 0
1088 3 54.99324661755933 16.9335179663152 -0.0006640137955304878 -1 0 0
1090 1 56.82620819840107 15.875032047465847 1.4544579194522895 -1 0 0
1089 1 58.65931616666007 12.699995910681848 1.4544579194522826 -1 0 0
1093 1 62.32553210317807 12.699995910681848 1.4544579194522826 -1 0 0
1095 3 60.49257052233633 13.758481829531199 -0.0006640137955300512 -1 0 0
1092 3 58.65946255407733 16.9335179663152 -0.0006640137955304876 -1 0 0
1094 1 60.49242413491907 15.875032047465847 1.4544579194522895 -1 0 0
1096 3 62.32567849059533 16.9335179663152 -0.0006640137955304875 -1 0 0
1097 1 65.99174803969606 12.699995910681848 1.4544579194522826 -1 0 0
1101 1 69.65796397621406 12.699995910681848 1.4544579194522826 -1 0 0
1099 3 64.15878645885434 13.758481829531199 -0.0006640137955300516 -1 0 0
1103 3 67.82500239537234 13.758481829531199 -0.0006640137955300512 -1 0 0
1098 1 64.15864007143706 15.875032047465847 1.4544579194522895 -1 0 0
1100 3 65.99189442711334 16.9335179663152 -0.0006640137955304884 -1 0 0
1102 1 67.82485600795506 15.875032047465847 1.4544579194522895 -1 0 0
1104 3 69.65811036363134 16.9335179663152 -0.0006640137955304875 -1 0 0
1105 1 73.32417991273206 12.699995910681848 1.4544579194522826 -1 0 0
1107 3 71.49121833189034 13.758481829531199 -0.000664013795530051 -1 0 0
1111 3 75.15743426840834 13.758481829531199 -0.0006640137955300502 -1 0 0
1106 1 71.49107194447306 15.875032047465847 1.4544579194522895 -1 0 0
1108 3 73.32432630014934 16.9335179663152 -0.0006640137955304874 -1 0 0
1110 1 75.15728788099106 15.875032047465847 1.4544579194522895 -1 0 0
1109 1 76.99039584925006 12.699995910681848 1.4544579194522826 -1 0 0
1113 1 80.65661178576806 12.699995910681848 1.4544579194522826 -1 0 0
1115 3 78.82365020492634 13.758481829531199 -0.0006640137955300507 -1 0 0
1112 3 76.99054223666734 16.9335179663152 -0.0006640137955304872 -1 0 0
1114 1 78.82350381750906 15.875032047465847 1.4544579194522895 -1 0 0
1116 3 80.65675817318534 16.9335179663152 -0.0006640137955304874 -1 0 0
1117 1 84.32282772228606 12.699995910681848 1.4544579194522826 -1 0 0
1119 3 82.48986614144434 13.758481829531199 -0.0006640137955300506 -1 0 0
1123 3 86.15608207796234 13.758481829531199 -0.0006640137955300501 -1 0 0
1118 1 82.48971975402706 15.875032047465847 1.4544579194522895 -1 0 0
1120 3 84.32297410970334 16.9335179663152 -0.0006640137955304875 -1 0 0
1122 1 86.15593569054506 15.875032047465847 1.4544579194522895 -1 0 0
1121 1 87.98904365880406 12.699995910681848 1.4544579194522826 -1 0 0
1125 1 91.65525959532206 12.699995910681848 1.4544579194522826 -1 0 0
1127 3 89.82229801448034 13.758481829531199 -0.0006640137955300504 -1 0 0
1124 3 87.98919004622134 16.9335179663152 -0.0006640137955304872 -1 0 0
1126 1 89.82215162706306 15.875032047465847 1.4544579194522895 -1 0 0
1128 3 91.65540598273934 16.9335179663152 -0.0006640137955304874 -1 0 0
1133 1 98.98769146835807 12.699995910681846 1.4544579194522842 -1 0 0
1129 1 95.32147553184006 12.699995910681848 1.4544579194522826 -1 0 0
1131 3 93.48851395099834 13.758481829531199 -0.0006640137955300509 -1 0 0
1135 3 97.15472988751634 13.758481829531199 -0.0006640137955299246 -1 0 0
1130 1 93.48836756358106 15.875032047465847 1.4544579194522895 -1 0 0
1132 3 95.32162191925734 16.9335179663152 -0.0006640137955304872 -1 0 0
1134 1 97.15458350009906 15.875032047465847 1.4544579194522895 -1 0 0
1245 1 3.666077118890055 19.05006818424984 1.4544579194522853 0 0 0
1247 3 1.8331155380483228 20.108554103099202 -0.0006640137955322217 0 0 0
1251 3 5.49933147456632 20.108554103099202 -0.0006640137955307736 0 0 0
1246 1 1.8329691506310573 22.225104321033843 1.4544579194522869 0 0 0
1250 1 5.499185087149055 22.225104321033843 1.4544579194522853 0 0 0
1244 3 7.569789324822887e-06 23.283590239883203 -0.0006640137955322223 0 0 0
1248 3 3.6662235063073205 23.283590239883203 -0.0006640137955306487 0 0 0
1249 1 7.332293055408055 19.05006818424984 1.4544579194522853 0 0 0
1253 1 10.998508991926055 19.05006818424984 1.4544579194522855 0 0 0
1255 3 9.16554741108432 20.108554103099202 -0.0006640137955307743 0 0 0
1254 1 9.165401023667055 22.225104321033843 1.4544579194522853 0 0 0
1252 3 7.33243944282532 23.283590239883203 -0.0006640137955307757 0 0 0
1256 3 10.99865537934332 23.283590239883203 -0.000664013795530898 0 0 0
1257 1 14.66472492844406 19.05006818424984 1.4544579194522838 0 0 0
1259 3 12.831763347602324 20.1085541030992 -0.0006640137955291128 0 0 0
1263 3 16.49797928412033 20.108554103099202 -0.0006640137955308963 0 0 0
1258 1 12.831616960185059 22.225104321033843 1.4544579194522838 0 0 0
1262 1 16.497832896703063 22.225104321033843 1.4544579194522855 0 0 0
1260 3 14.664871315861326 23.2835902398832 -0.0006640137955291136 0 0 0
1261 1 18.330940864962063 19.05006818424984 1.4544579194522853 0 0 0
1265 1 21.997156801480063 19.05006818424984 1.4544579194522853 0 0 0
1267 3 20.16419522063833 20.108554103099202 -0.0006640137955307739 0 0 0
1266 1 20.164048833221063 22.225104321033843 1.4544579194522853 0 0 0
1264 3 18.33108725237933 23.283590239883203 -0.0006640137955307751 0 0 0
1268 3 21.99730318889733 23.283590239883203 -0.0006640137955307748 0 0 0
1269 1 25.663372737998063 19.05006818424984 1.4544579194522853 0 0 0
1271 3 23.83041115715633 20.108554103099202 -0.0006640137955307725 0 0 0
1275 3 27.49662709367433 20.108554103099202 -0.0006640137955307725 0 0 0
1270 1 23.830264769739063 22.225104321033843 1.4544579194522853 0 0 0
1274 1 27.496480706257064 22.225104321033843 1.4544579194522853 0 0 0
1272 3 25.66351912541533 23.283590239883203 -0.0006640137955307731 0 0 0
1273 1 29.329588674516064 19.05006818424984 1.4544579194522853 0 0 0
1277 1 32.99580461103407 19.05006818424984 1.4544579194522853 0 0 0
1279 3 31.16284303019233 20.108554103099202 -0.0006640137955307745 0 0 0
1283 3 34.82905896671033 20.108554103099202 -0.0006640137955307752 0 0 0
1278 1 31.162696642775064 22.225104321033843 1.4544579194522853 0 0 0
1282 1 34.82891257929307 22.225104321033843 1.4544579194522853 0 0 0
1276 3 29.32973506193333 23.283590239883203 -0.0006640137955307747 0 0 0
1280 3 32.99595099845133 23.283590239883203 -0.0006640137955307757 0 0 0
1281 1 36.66202054755207 19.05006818424984 1.4544579194522853 0 0 0
1285 1 40.32823648407007 19.05006818424984 1.4544579194522853 0 0 0
1287 3 38.49527490322833 20.108554103099202 -0.0006640137955307765 0 0 0
1286 1 38.49512851581107 22.225104321033843 1.4544579194522853 0 0 0
1284 3 36.66216693496933 23.283590239883203 -0.0006640137955307766 0 0 0
1288 3 40.32838287148733 23.283590239883203 -0.0006640137955307766 0 0 0
1289 1 43.99445242058807 19.05006818424984 1.4544579194522853 0 0 0
1291 3 42.16149083974633 20.108554103099202 -0.0006640137955307757 0 0 0
1295 3 45.82770677626433 20.108554103099202 -0.0006640137955307747 0 0 0
1290 1 42.16134445232907 22.225104321033843 1.4544579194522853 0 0 0
1294 1 45.82756038884707 22.225104321033843 1.4544579194522853 0 0 0
1292 3 43.99459880800533 23.283590239883203 -0.0006640137955307758 0 0 0
1293 1 47.66066835710607 19.05006818424984 1.4544579194522853 0 0 0
1189 1 51.32688429362407 19.05006818424984 1.4544579194522853 -1 0 0
1191 3 49.49392271278233 20.108554103099202 -0.0006640137955307751 -1 0 0
1190 1 49.49377632536507 22.225104321033843 1.4544579194522853 -1 0 0
1296 3 47.66081474452333 23.283590239883203 -0.0006640137955307756 0 0 0
1192 3 51.32703068104133 23.283590239883203 -0.0006640137955307757 -1 0 0
1193 1 54.99310023014207 19.05006818424984 1.4544579194522853 -1 0 0
1195 3 53.16013864930033 20.108554103099202 -0.0006640137955307756 -1 0 0
1199 3 56.82635458581833 20.108554103099202 -0.0006640137955307743 -1 0 0
1194 1 53.15999226188307 22.225104321033843 1.4544579194522853 -1 0 0
1198 1 56.82620819840107 22.225104321033843 1.4544579194522853 -1 0 0
1196 3 54.99324661755933 23.283590239883203 -0.0006640137955307756 -1 0 0
1197 1 58.65931616666007 19.05006818424984 1.4544579194522853 -1 0 0
1201 1 62.32553210317807 19.05006818424984 1.4544579194522853 -1 0 0
1203 3 60.49257052233633 20.108554103099202 -0.0006640137955307747 -1 0 0
1202 1 60.49242413491907 22.225104321033843 1.4544579194522853 -1 0 0
1200 3 58.65946255407733 23.283590239883203 -0.0006640137955307757 -1 0 0
1204 3 62.32567849059533 23.283590239883203 -0.0006640137955307752 -1 0 0
1205 1 65.99174803969606 19.05006818424984 1.4544579194522853 -1 0 0
1209 1 69.65796397621406 19.05006818424984 1.4544579194522853 -1 0 0
1207 3 64.15878645885434 20.108554103099202 -0.0006640137955307756 -1 0 0
1211 3 67.82500239537234 20.108554103099202 -0.0006640137955307747 -1 0 0
1206 1 64.15864007143706 22.225104321033843 1.4544579194522853 -1 0 0
1210 1 67.82485600795506 22.225104321033843 1.4544579194522853 -1 0 0
1208 3 65.99189442711334 23.283590239883203 -0.000664013795530776 -1 0 0
1212 3 69.65811036363134 23.283590239883203 -0.0006640137955307755 -1 0 0
1213 1 73.32417991273206 19.05006818424984 1.4544579194522853 -1 0 0
1215 3 71.49121833189034 20.108554103099202 -0.0006640137955307739 -1 0 0
1219 3 75.15743426840834 20.108554103099202 -0.0006640137955307733 -1 0 0
1214 1 71.49107194447306 22.225104321033843 1.4544579194522853 -1 0 0
1218 1 75.15728788099106 22.225104321033843 1.4544579194522853 -1 0 0
1216 3 73.32432630014934 23.283590239883203 -0.0006640137955307751 -1 0 0
1217 1 76.99039584925006 19.05006818424984 1.4544579194522853 -1 0 0
1221 1 80.65661178576806 19.05006818424984 1.4544579194522853 -1 0 0
1223 3 78.82365020492634 20.108554103099202 -0.0006640137955307739 -1 0 0
1222 1 78.82350381750906 22.225104321033843 1.4544579194522853 -1 0 0
1220 3 76.99054223666734 23.283590239883203 -0.0006640137955307755 -1 0 0
1224 3 80.65675817318534 23.283590239883203 -0.0006640137955307751 -1 0 0
1225 1 84.32282772228606 19.05006818424984 1.4544579194522853 -1 0 0
1227 3 82.48986614144434 20.108554103099202 -0.0006640137955307736 -1 0 0
1231 3 86.15608207796234 20.108554103099202 -0.0006640137955307732 -1 0 0
1226 1 82.48971975402706 22.225104321033843 1.4544579194522853 -1 0 0
1230 1 86.15593569054506 22.225104321033843 1.4544579194522853 -1 0 0
1228 3 84.32297410970334 23.283590239883203 -0.0006640137955307755 -1 0 0
1229 1 87.98904365880406 19.05006818424984 1.4544579194522853 -1 0 0
1233 1 91.65525959532206 19.05006818424984 1.4544579194522853 -1 0 0
1235 3 89.82229801448034 20.108554103099202 -0.0006640137955307736 -1 0 0
1234 1 89.82215162706306 22.225104321033843 1.4544579194522853 -1 0 0
1232 3 87.98919004622134 23.283590239883203 -0.0006640137955307755 -1 0 0
1236 3 91.65540598273934 23.283590239883203 -0.0006640137955307751 -1 0 0
1241 1 98.98769146835807 19.05006818424984 1.4544579194522869 -1 0 0
1237 1 95.32147553184006 19.05006818424984 1.4544579194522853 -1 0 0
1239 3 93.48851395099834 20.108554103099202 -0.0006640137955307739 -1 0 0
1243 3 97.15472988751634 20.108554103099202 -0.000664013795530648 -1 0 0
1238 1 93.48836756358106 22.225104321033843 1.4544579194522853 -1 0 0
1242 1 97.15458350009906 22.225104321033843 1.4544579194522853 -1 0 0
1240 3 95.32162191925734 23.283590239883203 -0.0006640137955307755 -1 0 0
1355 3 1.8331155380483228 26.458626376667205 -0.0006640137955322219 0 0 0
1353 1 3.666077118890055 25.400140457817844 1.4544579194522853 0 0 0
1359 3 5.49933147456632 26.458626376667205 -0.0006640137955307739 0 0 0
1354 1 1.8329691506310573 28.575176594601846 1.4544579194522869 0 0 0
1358 1 5.499185087149055 28.575176594601846 1.4544579194522853 0 0 0
1352 3 7.569789324822887e-06 29.633662513451206 -0.0006640137955322223 0 0 0
1356 3 3.6662235063073205 29.633662513451206 -0.0006640137955306487 0 0 0
1357 1 7.332293055408055 25.400140457817844 1.4544579194522853 0 0 0
1363 3 9.16554741108432 26.458626376667205 -0.0006640137955307746 0 0 0
1361 1 10.998508991926055 25.400140457817844 1.4544579194522855 0 0 0
1362 1 9.165401023667055 28.575176594601846 1.4544579194522853 0 0 0
1360 3 7.33243944282532 29.633662513451206 -0.0006640137955307757 0 0 0
1364 3 10.99865537934332 29.633662513451206 -0.000664013795530898 0 0 0
1367 3 12.831763347602324 26.4586263766672 -0.0006640137955291132 0 0 0
1365 1 14.66472492844406 25.400140457817844 1.4544579194522838 0 0 0