LAMMPS data file via write_data, version 29 Aug 2024, timestep = 3, units = metal

2016 atoms
4 atom types

0 97.933020286227 xlo xhi
0 96.928552499664 ylo yhi
-50 50 zlo zhi

Masses

1 114.818
2 114.818
3 121.76
4 121.76

Atoms # atomic

549 1 2.335126792640529 1.340334025457281 0.07397385380017055 0 0 0
552 3 2.3357094680268986 4.032242821731516 0.6655025262904151 0 0 0
550 1 4.666865370883748 5.379023712943279 0.07397385380017249 0 0 0
546 1 0.0033882143967461868 5.379023712943278 0.07397385380017227 0 0 0
553 1 6.998603949127529 1.340334025457279 0.07397385380017202 0 0 0
556 3 6.9991866245139 4.032242821731516 0.6655025262904163 0 0 0
554 1 9.33034252737075 5.379023712943279 0.07397385380017055 0 0 0
557 1 11.662081105614527 1.34033402545728 0.07397385380017037 0 0 0
561 1 16.325558262101527 1.340334025457279 0.07397385380017113 0 0 0
560 3 11.6626637810009 4.032242821731516 0.6655025262904167 0 0 0
564 3 16.3261409374879 4.032242821731516 0.6655025262904155 0 0 0
558 1 13.99381968385775 5.379023712943279 0.07397385380017088 0 0 0
565 1 20.989035418588525 1.3403340254572786 0.07397385380017157 0 0 0
568 3 20.989618093974897 4.032242821731515 0.665502526290418 0 0 0
562 1 18.65729684034475 5.379023712943279 0.07397385380017191 0 0 0
569 1 25.652512575075527 1.3403340254572802 0.07397385380016956 0 0 0
572 3 25.6530952504619 4.032242821731517 0.6655025262904152 0 0 0
566 1 23.320773996831747 5.37902371294328 0.07397385380016934 0 0 0
570 1 27.984251153318745 5.379023712943279 0.07397385380017255 0 0 0
573 1 30.315989731562528 1.3403340254572789 0.07397385380017285 0 0 0
576 3 30.316572406948897 4.032242821731515 0.6655025262904153 0 0 0
574 1 32.64772830980574 5.37902371294328 0.07397385380017163 0 0 0
577 1 34.97946688804953 1.3403340254572784 0.07397385380017193 0 0 0
581 1 39.64294404453653 1.3403340254572809 0.07397385380016903 0 0 0
580 3 34.9800495634359 4.032242821731516 0.6655025262904173 0 0 0
584 3 39.643526719922896 4.032242821731515 0.6655025262904162 0 0 0
578 1 37.31120546629275 5.379023712943279 0.07397385380016971 0 0 0
585 1 44.306421201023525 1.3403340254572793 0.07397385380017263 0 0 0
588 3 44.307003876409894 4.032242821731516 0.6655025262904146 0 0 0
582 1 41.974682622779746 5.37902371294328 0.07397385380017228 0 0 0
505 1 48.96989835751053 1.3403340254572798 0.07397385380017185 -1 0 0
508 3 48.9704810328969 4.032242821731517 0.6655025262904157 -1 0 0
586 1 46.63815977926674 5.379023712943278 0.07397385380017257 0 0 0
506 1 51.301636935753756 5.379023712943279 0.07397385380017103 -1 0 0
509 1 53.63337551399753 1.3403340254572795 0.07397385380017102 -1 0 0
512 3 53.633958189383904 4.032242821731515 0.6655025262904165 -1 0 0
510 1 55.96511409224075 5.379023712943279 0.07397385380017218 -1 0 0
513 1 58.29685267048453 1.3403340254572795 0.07397385380017188 -1 0 0
517 1 62.96032982697153 1.3403340254572806 0.07397385380016895 -1 0 0
516 3 58.2974353458709 4.032242821731516 0.665502526290416 -1 0 0
520 3 62.9609125023579 4.032242821731517 0.6655025262904173 -1 0 0
514 1 60.62859124872775 5.37902371294328 0.07397385380017031 -1 0 0
521 1 67.62380698345854 1.3403340254572795 0.07397385380017231 -1 0 0
524 3 67.6243896588449 4.032242821731517 0.6655025262904153 -1 0 0
518 1 65.29206840521475 5.37902371294328 0.07397385380017042 -1 0 0
525 1 72.28728413994554 1.3403340254572789 0.07397385380017271 -1 0 0
528 3 72.28786681533191 4.032242821731516 0.665502526290415 -1 0 0
522 1 69.95554556170175 5.379023712943279 0.07397385380017268 -1 0 0
526 1 74.61902271818876 5.379023712943278 0.07397385380017274 -1 0 0
529 1 76.95076129643253 1.340334025457279 0.07397385380017157 -1 0 0
532 3 76.95134397181891 4.032242821731513 0.665502526290419 -1 0 0
530 1 79.28249987467575 5.37902371294328 0.07397385380016841 -1 0 0
533 1 81.61423845291952 1.34033402545728 0.07397385380016848 -1 0 0
537 1 86.27771560940653 1.3403340254572802 0.0739738538001696 -1 0 0
536 3 81.6148211283059 4.032242821731515 0.665502526290419 -1 0 0
540 3 86.2782982847929 4.032242821731518 0.6655025262904145 -1 0 0
534 1 83.94597703116274 5.3790237129432805 0.07397385380016844 -1 0 0
541 1 90.94119276589353 1.3403340254572793 0.07397385380017264 -1 0 0
544 3 90.9417754412799 4.032242821731516 0.6655025262904145 -1 0 0
538 1 88.60945418764975 5.379023712943279 0.07397385380017293 -1 0 0
545 1 95.60466992238054 1.3403340254572786 0.07397385380017299 -1 0 0
548 3 95.6052525977669 4.032242821731515 0.665502526290415 -1 0 0
542 1 93.27293134413675 5.379023712943279 0.07397385380017271 -1 0 0
631 3 0.003970889783687426 8.070932509217513 0.6655025262904138 0 0 0
635 3 4.667448046270678 8.070932509217515 0.6655025262904112 0 0 0
633 1 2.335126792640529 9.417713400429282 0.07397385380017045 0 0 0
639 3 9.33092520275768 8.070932509217517 0.6655025262904131 0 0 0
637 1 6.998603949127529 9.41771340042928 0.07397385380017206 0 0 0
643 3 13.99440235924468 8.070932509217517 0.6655025262904133 0 0 0
641 1 11.662081105614527 9.41771340042928 0.07397385380017024 0 0 0
645 1 16.325558262101527 9.41771340042928 0.07397385380017094 0 0 0
647 3 18.65787951573168 8.070932509217515 0.6655025262904118 0 0 0
649 1 20.989035418588525 9.41771340042928 0.07397385380017124 0 0 0
651 3 23.321356672218677 8.070932509217517 0.6655025262904148 0 0 0
655 3 27.98483382870568 8.070932509217515 0.6655025262904117 0 0 0
653 1 25.652512575075527 9.41771340042928 0.07397385380016931 0 0 0
659 3 32.64831098519268 8.070932509217515 0.6655025262904112 0 0 0
657 1 30.315989731562528 9.417713400429278 0.07397385380017256 0 0 0
663 3 37.31178814167968 8.070932509217515 0.665502526290415 0 0 0
661 1 34.97946688804953 9.417713400429278 0.07397385380017157 0 0 0
665 1 39.64294404453653 9.41771340042928 0.07397385380016876 0 0 0
667 3 41.975265298166676 8.070932509217515 0.665502526290412 0 0 0
669 1 44.306421201023525 9.417713400429278 0.07397385380017255 0 0 0
671 3 46.63874245465368 8.070932509217517 0.6655025262904113 0 0 0
591 3 51.30221961114068 8.070932509217515 0.6655025262904137 -1 0 0
589 1 48.96989835751053 9.41771340042928 0.07397385380017174 -1 0 0
595 3 55.96569676762768 8.070932509217517 0.6655025262904114 -1 0 0
593 1 53.63337551399753 9.41771340042928 0.07397385380017081 -1 0 0
599 3 60.62917392411468 8.070932509217517 0.6655025262904136 -1 0 0
597 1 58.29685267048453 9.41771340042928 0.07397385380017187 -1 0 0
601 1 62.96032982697153 9.417713400429282 0.07397385380016887 -1 0 0
603 3 65.29265108060169 8.070932509217517 0.6655025262904125 -1 0 0
605 1 67.62380698345854 9.417713400429278 0.07397385380017217 -1 0 0
607 3 69.95612823708869 8.070932509217517 0.6655025262904115 -1 0 0
611 3 74.6196053935757 8.070932509217513 0.6655025262904126 -1 0 0
609 1 72.28728413994554 9.417713400429278 0.07397385380017248 -1 0 0
615 3 79.28308255006269 8.070932509217515 0.6655025262904164 -1 0 0
613 1 76.95076129643253 9.41771340042928 0.07397385380017121 -1 0 0
619 3 83.94655970654968 8.070932509217517 0.6655025262904142 -1 0 0
617 1 81.61423845291952 9.41771340042928 0.07397385380016831 -1 0 0
621 1 86.27771560940653 9.41771340042928 0.07397385380016945 -1 0 0
623 3 88.61003686303668 8.070932509217517 0.6655025262904104 -1 0 0
625 1 90.94119276589353 9.41771340042928 0.07397385380017249 -1 0 0
627 3 93.27351401952369 8.070932509217515 0.6655025262904111 -1 0 0
629 1 95.60466992238054 9.417713400429278 0.07397385380017293 -1 0 0
636 3 2.335709468026898 12.109622196703516 0.6655025262904134 0 0 0
634 1 4.666865370883748 13.456403087915279 0.0739738538001743 0 0 0
715 3 0.003970889783687426 16.148311884189514 0.6655025262904133 0 0 0
719 3 4.667448046270679 16.148311884189518 0.6655025262904106 0 0 0
630 1 0.003388214396746063 13.456403087915279 0.07397385380017459 0 0 0
640 3 6.9991866245139 12.109622196703516 0.6655025262904147 0 0 0
638 1 9.33034252737075 13.45640308791528 0.07397385380017284 0 0 0
723 3 9.33092520275768 16.148311884189518 0.6655025262904126 0 0 0
644 3 11.6626637810009 12.109622196703516 0.6655025262904154 0 0 0
648 3 16.3261409374879 12.109622196703516 0.6655025262904141 0 0 0
642 1 13.99381968385775 13.45640308791528 0.0739738538001733 0 0 0
727 3 13.99440235924468 16.148311884189518 0.6655025262904133 0 0 0
652 3 20.9896180939749 12.109622196703514 0.665502526290416 0 0 0
646 1 18.65729684034475 13.456403087915279 0.07397385380017396 0 0 0
731 3 18.65787951573168 16.148311884189518 0.6655025262904113 0 0 0
656 3 25.6530952504619 12.109622196703517 0.6655025262904136 0 0 0
650 1 23.320773996831747 13.45640308791528 0.07397385380017138 0 0 0
654 1 27.98425115331875 13.45640308791528 0.07397385380017413 0 0 0
735 3 23.321356672218677 16.148311884189518 0.6655025262904144 0 0 0
739 3 27.98483382870568 16.148311884189518 0.6655025262904113 0 0 0
660 3 30.316572406948897 12.109622196703516 0.6655025262904137 0 0 0
658 1 32.64772830980574 13.45640308791528 0.07397385380017352 0 0 0
743 3 32.64831098519268 16.148311884189518 0.665502526290411 0 0 0
664 3 34.9800495634359 12.109622196703516 0.6655025262904154 0 0 0
668 3 39.643526719922896 12.109622196703516 0.6655025262904144 0 0 0
662 1 37.31120546629275 13.45640308791528 0.0739738538001718 0 0 0
747 3 37.31178814167968 16.148311884189518 0.6655025262904148 0 0 0
672 3 44.307003876409894 12.109622196703516 0.6655025262904131 0 0 0
666 1 41.974682622779746 13.456403087915282 0.0739738538001748 0 0 0
751 3 41.975265298166676 16.148311884189518 0.6655025262904114 0 0 0
592 3 48.9704810328969 12.109622196703517 0.665502526290414 -1 0 0
670 1 46.63815977926674 13.456403087915279 0.07397385380017445 0 0 0
590 1 51.301636935753756 13.45640308791528 0.07397385380017343 -1 0 0
755 3 46.63874245465368 16.148311884189518 0.6655025262904106 0 0 0
675 3 51.30221961114068 16.148311884189518 0.6655025262904134 -1 0 0
596 3 53.633958189383904 12.109622196703516 0.665502526290415 -1 0 0
594 1 55.96511409224075 13.45640308791528 0.07397385380017456 -1 0 0
679 3 55.96569676762768 16.148311884189518 0.6655025262904112 -1 0 0
600 3 58.2974353458709 12.109622196703516 0.6655025262904145 -1 0 0
604 3 62.9609125023579 12.109622196703517 0.6655025262904158 -1 0 0
598 1 60.62859124872775 13.456403087915282 0.07397385380017268 -1 0 0
683 3 60.62917392411468 16.148311884189518 0.6655025262904132 -1 0 0
608 3 67.6243896588449 12.109622196703516 0.6655025262904137 -1 0 0
602 1 65.29206840521475 13.456403087915282 0.07397385380017278 -1 0 0
687 3 65.29265108060169 16.148311884189518 0.6655025262904122 -1 0 0
612 3 72.28786681533191 12.109622196703516 0.6655025262904135 -1 0 0
606 1 69.95554556170175 13.45640308791528 0.07397385380017497 -1 0 0
610 1 74.61902271818876 13.456403087915279 0.0739738538001746 -1 0 0
691 3 69.95612823708869 16.148311884189518 0.6655025262904107 -1 0 0
695 3 74.6196053935757 16.148311884189514 0.665502526290412 -1 0 0
616 3 76.95134397181891 12.109622196703514 0.6655025262904172 -1 0 0
614 1 79.28249987467575 13.456403087915282 0.07397385380017053 -1 0 0
699 3 79.28308255006269 16.148311884189518 0.6655025262904162 -1 0 0
620 3 81.6148211283059 12.109622196703516 0.6655025262904172 -1 0 0
624 3 86.2782982847929 12.109622196703517 0.6655025262904128 -1 0 0
618 1 83.94597703116274 13.456403087915282 0.07397385380017057 -1 0 0
703 3 83.94655970654968 16.148311884189518 0.665502526290414 -1 0 0
628 3 90.9417754412799 12.109622196703516 0.6655025262904131 -1 0 0
622 1 88.60945418764975 13.45640308791528 0.07397385380017492 -1 0 0
707 3 88.61003686303668 16.148311884189518 0.6655025262904098 -1 0 0
632 3 95.6052525977669 12.109622196703514 0.6655025262904133 -1 0 0
626 1 93.27293134413675 13.45640308791528 0.07397385380017503 -1 0 0
711 3 93.27351401952369 16.148311884189518 0.6655025262904104 -1 0 0
717 1 2.33512679264053 17.495092775401282 0.07397385380017037 0 0 0
720 3 2.335709468026898 20.18700157167552 0.6655025262904148 0 0 0
718 1 4.666865370883748 21.53378246288728 0.0739738538001723 0 0 0
714 1 0.003388214396746276 21.53378246288728 0.07397385380017249 0 0 0
721 1 6.998603949127528 17.495092775401282 0.07397385380017163 0 0 0
724 3 6.999186624513899 20.187001571675516 0.6655025262904166 0 0 0
722 1 9.330342527370748 21.53378246288728 0.07397385380017078 0 0 0
725 1 11.662081105614527 17.495092775401282 0.07397385380016967 0 0 0
729 1 16.32555826210153 17.495092775401282 0.0739738538001707 0 0 0
728 3 11.6626637810009 20.187001571675516 0.6655025262904167 0 0 0
726 1 13.993819683857748 21.53378246288728 0.07397385380017102 0 0 0
732 3 16.3261409374879 20.18700157167552 0.6655025262904153 0 0 0
733 1 20.989035418588525 17.495092775401282 0.07397385380017109 0 0 0
730 1 18.65729684034475 21.53378246288728 0.07397385380017178 0 0 0
736 3 20.989618093974897 20.187001571675516 0.6655025262904182 0 0 0
737 1 25.652512575075527 17.495092775401282 0.07397385380016934 0 0 0
734 1 23.320773996831747 21.53378246288728 0.07397385380016966 0 0 0
740 3 25.6530952504619 20.18700157167552 0.6655025262904151 0 0 0
738 1 27.98425115331875 21.53378246288728 0.07397385380017227 0 0 0
741 1 30.315989731562528 17.495092775401282 0.07397385380017271 0 0 0
744 3 30.316572406948897 20.18700157167552 0.6655025262904153 0 0 0
742 1 32.64772830980574 21.53378246288728 0.07397385380017149 0 0 0
745 1 34.97946688804953 17.49509277540128 0.07397385380017148 0 0 0
749 1 39.64294404453653 17.495092775401282 0.0739738538001687 0 0 0
748 3 34.9800495634359 20.187001571675516 0.6655025262904172 0 0 0
746 1 37.31120546629275 21.53378246288728 0.07397385380016977 0 0 0
752 3 39.643526719922896 20.187001571675516 0.6655025262904161 0 0 0
753 1 44.306421201023525 17.495092775401282 0.07397385380017245 0 0 0
750 1 41.974682622779746 21.53378246288728 0.0739738538001723 0 0 0
756 3 44.307003876409894 20.18700157167552 0.6655025262904147 0 0 0
673 1 48.96989835751053 17.495092775401282 0.07397385380017163 -1 0 0
754 1 46.63815977926674 21.53378246288728 0.0739738538001723 0 0 0
676 3 48.9704810328969 20.18700157167552 0.6655025262904163 -1 0 0
674 1 51.30163693575375 21.53378246288728 0.073973853800171 -1 0 0
677 1 53.63337551399753 17.495092775401282 0.07397385380017055 -1 0 0
680 3 53.633958189383904 20.18700157167552 0.6655025262904157 -1 0 0
678 1 55.96511409224075 21.53378246288728 0.07397385380017242 -1 0 0
681 1 58.29685267048453 17.495092775401282 0.07397385380017153 -1 0 0
685 1 62.96032982697153 17.495092775401282 0.07397385380016834 -1 0 0
684 3 58.2974353458709 20.18700157167552 0.6655025262904163 -1 0 0
682 1 60.62859124872775 21.53378246288728 0.07397385380017034 -1 0 0
688 3 62.9609125023579 20.18700157167552 0.6655025262904172 -1 0 0
689 1 67.62380698345854 17.495092775401282 0.0739738538001719 -1 0 0
686 1 65.29206840521475 21.53378246288728 0.07397385380017046 -1 0 0
692 3 67.6243896588449 20.18700157167552 0.6655025262904154 -1 0 0
693 1 72.28728413994554 17.495092775401282 0.07397385380017253 -1 0 0
690 1 69.95554556170175 21.53378246288728 0.07397385380017248 -1 0 0
696 3 72.28786681533191 20.18700157167552 0.6655025262904151 -1 0 0
694 1 74.61902271818876 21.53378246288728 0.07397385380017255 -1 0 0
697 1 76.95076129643253 17.495092775401282 0.07397385380017109 -1 0 0
700 3 76.95134397181891 20.187001571675516 0.6655025262904188 -1 0 0
698 1 79.28249987467575 21.53378246288728 0.07397385380016837 -1 0 0
701 1 81.61423845291952 17.495092775401282 0.07397385380016787 -1 0 0
705 1 86.27771560940653 17.495092775401282 0.0739738538001693 -1 0 0
704 3 81.6148211283059 20.187001571675516 0.6655025262904188 -1 0 0
702 1 83.94597703116274 21.53378246288728 0.07397385380016867 -1 0 0
708 3 86.2782982847929 20.18700157167552 0.6655025262904144 -1 0 0
709 1 90.94119276589353 17.495092775401282 0.07397385380017242 -1 0 0
706 1 88.60945418764975 21.53378246288728 0.07397385380017257 -1 0 0
712 3 90.9417754412799 20.18700157167552 0.6655025262904146 -1 0 0
713 1 95.60466992238054 17.495092775401282 0.07397385380017277 -1 0 0
710 1 93.27293134413675 21.53378246288728 0.07397385380017253 -1 0 0
716 3 95.6052525977669 20.18700157167552 0.665502526290415 -1 0 0
799 3 0.003970889783687426 24.225691259161515 0.6655025262904141 0 0 0
801 1 2.33512679264053 25.57247215037328 0.07397385380017005 0 0 0
803 3 4.667448046270679 24.22569125916152 0.6655025262904114 0 0 0
804 3 2.3357094680268986 28.264380946647517 0.665502526290415 0 0 0
805 1 6.998603949127528 25.57247215037328 0.07397385380017145 0 0 0
807 3 9.33092520275768 24.22569125916152 0.6655025262904131 0 0 0
808 3 6.999186624513899 28.264380946647513 0.6655025262904167 0 0 0
809 1 11.662081105614527 25.57247215037328 0.07397385380016956 0 0 0
811 3 13.99440235924468 24.22569125916152 0.6655025262904138 0 0 0
813 1 16.325558262101527 25.57247215037328 0.0739738538001707 0 0 0
812 3 11.662663781000902 28.264380946647513 0.6655025262904168 0 0 0
816 3 16.3261409374879 28.264380946647517 0.6655025262904153 0 0 0
815 3 18.65787951573168 24.22569125916152 0.6655025262904122 0 0 0
817 1 20.989035418588525 25.57247215037328 0.07397385380017078 0 0 0
820 3 20.989618093974897 28.264380946647513 0.6655025262904182 0 0 0
819 3 23.321356672218677 24.22569125916152 0.6655025262904147 0 0 0
821 1 25.652512575075527 25.57247215037328 0.07397385380016896 0 0 0
823 3 27.98483382870568 24.22569125916152 0.6655025262904121 0 0 0
824 3 25.6530952504619 28.264380946647517 0.6655025262904151 0 0 0
825 1 30.315989731562528 25.57247215037328 0.07397385380017235 0 0 0
827 3 32.64831098519268 24.22569125916152 0.6655025262904115 0 0 0
828 3 30.316572406948897 28.264380946647517 0.6655025262904153 0 0 0
829 1 34.97946688804953 25.57247215037328 0.07397385380017114 0 0 0
831 3 37.31178814167968 24.22569125916152 0.6655025262904151 0 0 0
833 1 39.64294404453653 25.57247215037328 0.07397385380016855 0 0 0
832 3 34.9800495634359 28.264380946647513 0.6655025262904171 0 0 0
836 3 39.643526719922896 28.264380946647513 0.6655025262904161 0 0 0
835 3 41.975265298166676 24.22569125916152 0.6655025262904122 0 0 0
837 1 44.306421201023525 25.57247215037328 0.0739738538001723 0 0 0
840 3 44.307003876409894 28.264380946647517 0.6655025262904147 0 0 0
839 3 46.63874245465368 24.22569125916152 0.6655025262904115 0 0 0
757 1 48.96989835751053 25.57247215037328 0.07397385380017149 -1 0 0
759 3 51.30221961114068 24.22569125916152 0.6655025262904141 -1 0 0
760 3 48.9704810328969 28.264380946647517 0.6655025262904163 -1 0 0
761 1 53.63337551399753 25.57247215037328 0.07397385380017037 -1 0 0
763 3 55.96569676762768 24.22569125916152 0.6655025262904116 -1 0 0
764 3 53.633958189383904 28.264380946647517 0.6655025262904157 -1 0 0
765 1 58.29685267048453 25.57247215037328 0.07397385380017142 -1 0 0
767 3 60.62917392411468 24.22569125916152 0.6655025262904138 -1 0 0
769 1 62.96032982697153 25.57247215037328 0.07397385380016842 -1 0 0
768 3 58.2974353458709 28.264380946647517 0.6655025262904164 -1 0 0
772 3 62.9609125023579 28.264380946647513 0.6655025262904173 -1 0 0
771 3 65.29265108060169 24.22569125916152 0.6655025262904128 -1 0 0
773 1 67.62380698345854 25.57247215037328 0.07397385380017188 -1 0 0
776 3 67.6243896588449 28.264380946647517 0.6655025262904154 -1 0 0
775 3 69.95612823708869 24.22569125916152 0.6655025262904116 -1 0 0
777 1 72.28728413994554 25.57247215037328 0.07397385380017235 -1 0 0
779 3 74.6196053935757 24.225691259161515 0.6655025262904128 -1 0 0
780 3 72.28786681533191 28.264380946647517 0.6655025262904151 -1 0 0
781 1 76.95076129643253 25.57247215037328 0.0739738538001709 -1 0 0
783 3 79.28308255006269 24.225691259161515 0.6655025262904165 -1 0 0
784 3 76.95134397181891 28.264380946647513 0.6655025262904188 -1 0 0
785 1 81.61423845291952 25.57247215037328 0.0739738538001677 -1 0 0
787 3 83.94655970654968 24.22569125916152 0.6655025262904143 -1 0 0
789 1 86.27771560940653 25.57247215037328 0.07397385380016919 -1 0 0
788 3 81.6148211283059 28.264380946647513 0.6655025262904188 -1 0 0
792 3 86.2782982847929 28.264380946647517 0.6655025262904144 -1 0 0
791 3 88.61003686303668 24.22569125916152 0.6655025262904106 -1 0 0
793 1 90.94119276589353 25.57247215037328 0.07397385380017242 -1 0 0
796 3 90.9417754412799 28.264380946647517 0.6655025262904146 -1 0 0
795 3 93.27351401952369 24.22569125916152 0.6655025262904112 -1 0 0
797 1 95.60466992238054 25.57247215037328 0.07397385380017263 -1 0 0
800 3 95.6052525977669 28.264380946647517 0.6655025262904152 -1 0 0
802 1 4.666865370883748 29.611161837859278 0.07397385380017278 0 0 0
883 3 0.003970889783687426 32.30307063413351 0.665502526290414 0 0 0
887 3 4.667448046270679 32.30307063413352 0.6655025262904114 0 0 0
885 1 2.335126792640528 33.64985152534528 0.07397385380016949 0 0 0
798 1 0.003388214396746248 29.611161837859274 0.07397385380017199 0 0 0
806 1 9.330342527370748 29.611161837859274 0.07397385380017035 0 0 0
891 3 9.33092520275768 32.30307063413351 0.6655025262904128 0 0 0
889 1 6.99860394912753 33.64985152534528 0.07397385380017141 0 0 0
810 1 13.993819683857748 29.611161837859278 0.07397385380017048 0 0 0
895 3 13.99440235924468 32.30307063413351 0.6655025262904138 0 0 0
893 1 11.662081105614527 33.64985152534528 0.07397385380017013 0 0 0
897 1 16.325558262101527 33.64985152534528 0.07397385380017016 0 0 0
814 1 18.65729684034475 29.611161837859278 0.07397385380017225 0 0 0
899 3 18.65787951573168 32.30307063413352 0.6655025262904121 0 0 0
901 1 20.98903541858853 33.64985152534528 0.07397385380017088 0 0 0
818 1 23.320773996831747 29.611161837859274 0.07397385380016934 0 0 0
822 1 27.98425115331875 29.61116183785928 0.07397385380017256 0 0 0
903 3 23.321356672218677 32.30307063413351 0.6655025262904146 0 0 0
907 3 27.98483382870568 32.30307063413352 0.665502526290412 0 0 0
905 1 25.652512575075523 33.64985152534528 0.07397385380016841 0 0 0
826 1 32.64772830980574 29.611161837859278 0.073973853800172 0 0 0
911 3 32.64831098519268 32.30307063413352 0.6655025262904113 0 0 0
909 1 30.315989731562528 33.64985152534528 0.07397385380017144 0 0 0
830 1 37.31120546629275 29.611161837859274 0.07397385380016941 0 0 0
915 3 37.31178814167968 32.30307063413351 0.665502526290415 0 0 0
913 1 34.97946688804953 33.64985152534528 0.07397385380017123 0 0 0
917 1 39.64294404453653 33.64985152534528 0.073973853800168 0 0 0
834 1 41.974682622779746 29.61116183785928 0.07397385380017259 0 0 0
919 3 41.975265298166676 32.30307063413352 0.665502526290412 0 0 0
921 1 44.306421201023525 33.64985152534528 0.0739738538001714 0 0 0
838 1 46.63815977926674 29.611161837859278 0.07397385380017286 0 0 0
758 1 51.30163693575375 29.611161837859278 0.07397385380017052 -1 0 0
923 3 46.63874245465368 32.30307063413352 0.6655025262904114 0 0 0
843 3 51.30221961114068 32.30307063413351 0.6655025262904141 -1 0 0
841 1 48.96989835751053 33.64985152534528 0.07397385380017123 -1 0 0
762 1 55.96511409224075 29.611161837859278 0.0739738538001724 -1 0 0
847 3 55.96569676762768 32.30307063413352 0.6655025262904116 -1 0 0
845 1 53.63337551399753 33.64985152534528 0.07397385380017006 -1 0 0
766 1 60.62859124872775 29.611161837859274 0.0739738538001698 -1 0 0
851 3 60.62917392411468 32.30307063413351 0.6655025262904134 -1 0 0
849 1 58.29685267048453 33.64985152534528 0.07397385380017135 -1 0 0
853 1 62.96032982697153 33.64985152534528 0.07397385380016855 -1 0 0
770 1 65.29206840521475 29.611161837859278 0.07397385380016992 -1 0 0
855 3 65.29265108060169 32.30307063413351 0.6655025262904127 -1 0 0
857 1 67.62380698345854 33.64985152534528 0.07397385380017141 -1 0 0
774 1 69.95554556170175 29.611161837859278 0.07397385380017299 -1 0 0
778 1 74.61902271818876 29.611161837859278 0.07397385380017306 -1 0 0
859 3 69.95612823708869 32.30307063413352 0.6655025262904115 -1 0 0
863 3 74.6196053935757 32.30307063413351 0.6655025262904126 -1 0 0
861 1 72.28728413994554 33.64985152534528 0.07397385380017131 -1 0 0
782 1 79.28249987467575 29.611161837859278 0.07397385380016835 -1 0 0
867 3 79.28308255006269 32.30307063413351 0.6655025262904162 -1 0 0
865 1 76.95076129643253 33.64985152534528 0.07397385380017084 -1 0 0
786 1 83.94597703116274 29.611161837859278 0.07397385380016833 -1 0 0
871 3 83.94655970654968 32.30307063413351 0.6655025262904141 -1 0 0
869 1 81.61423845291952 33.64985152534528 0.07397385380016804 -1 0 0
873 1 86.27771560940653 33.64985152534528 0.07397385380016856 -1 0 0
790 1 88.60945418764975 29.611161837859278 0.07397385380017307 -1 0 0
875 3 88.61003686303668 32.30307063413352 0.6655025262904105 -1 0 0
877 1 90.94119276589353 33.64985152534528 0.0739738538001714 -1 0 0
794 1 93.27293134413675 29.611161837859278 0.07397385380017303 -1 0 0
879 3 93.27351401952369 32.30307063413352 0.6655025262904111 -1 0 0
881 1 95.60466992238054 33.64985152534528 0.07397385380017209 -1 0 0
888 3 2.335709468026898 36.34176032161951 0.6655025262904146 0 0 0
886 1 4.666865370883748 37.688541212831275 0.07397385380017396 0 0 0
882 1 0.0033882143967461833 37.688541212831275 0.0739738538001733 0 0 0
892 3 6.9991866245139 36.34176032161951 0.6655025262904166 0 0 0
890 1 9.330342527370748 37.688541212831275 0.07397385380017094 0 0 0
896 3 11.6626637810009 36.34176032161951 0.6655025262904168 0 0 0
900 3 16.3261409374879 36.34176032161951 0.6655025262904154 0 0 0
894 1 13.993819683857748 37.688541212831275 0.07397385380017167 0 0 0
904 3 20.9896180939749 36.34176032161951 0.6655025262904177 0 0 0
898 1 18.65729684034475 37.688541212831275 0.07397385380017354 0 0 0
908 3 25.653095250461895 36.34176032161951 0.6655025262904148 0 0 0
902 1 23.320773996831747 37.68854121283128 0.0739738538001704 0 0 0
906 1 27.984251153318745 37.688541212831275 0.0739738538001742 0 0 0
912 3 30.316572406948897 36.34176032161951 0.6655025262904153 0 0 0
910 1 32.64772830980574 37.688541212831275 0.07397385380017302 0 0 0
916 3 34.9800495634359 36.34176032161951 0.6655025262904171 0 0 0
920 3 39.643526719922896 36.34176032161951 0.665502526290416 0 0 0
914 1 37.31120546629275 37.68854121283128 0.07397385380017094 0 0 0
924 3 44.307003876409894 36.34176032161951 0.6655025262904147 0 0 0
918 1 41.974682622779746 37.688541212831275 0.0739738538001739 0 0 0
844 3 48.9704810328969 36.34176032161951 0.6655025262904157 -1 0 0
922 1 46.63815977926674 37.688541212831275 0.07397385380017406 0 0 0
842 1 51.301636935753756 37.688541212831275 0.07397385380017167 -1 0 0
848 3 53.633958189383904 36.34176032161951 0.6655025262904164 -1 0 0
846 1 55.96511409224075 37.688541212831275 0.07397385380017366 -1 0 0
852 3 58.2974353458709 36.34176032161951 0.6655025262904163 -1 0 0
856 3 62.9609125023579 36.34176032161951 0.6655025262904175 -1 0 0
850 1 60.62859124872775 37.688541212831275 0.07397385380017096 -1 0 0
860 3 67.6243896588449 36.34176032161951 0.6655025262904155 -1 0 0
854 1 65.29206840521475 37.688541212831275 0.07397385380017113 -1 0 0
864 3 72.28786681533191 36.34176032161951 0.6655025262904162 -1 0 0
858 1 69.95554556170175 37.688541212831275 0.07397385380017439 -1 0 0
862 1 74.61902271818876 37.688541212831275 0.07397385380017404 -1 0 0
868 3 76.9513439718189 36.34176032161951 0.6655025262904177 -1 0 0
866 1 79.28249987467575 37.68854121283128 0.07397385380016969 -1 0 0
872 3 81.6148211283059 36.34176032161951 0.6655025262904182 -1 0 0
876 3 86.2782982847929 36.34176032161951 0.6655025262904142 -1 0 0
870 1 83.94597703116274 37.68854121283128 0.07397385380016999 -1 0 0
880 3 90.9417754412799 36.34176032161951 0.6655025262904146 -1 0 0
874 1 88.60945418764975 37.688541212831275 0.07397385380017439 -1 0 0
884 3 95.6052525977669 36.34176032161951 0.665502526290415 -1 0 0
878 1 93.27293134413675 37.688541212831275 0.07397385380017432 -1 0 0
967 3 0.003970889783687426 40.380450009105516 0.6655025262904105 0 0 0
969 1 2.335126792640528 41.72723090031728 0.07397385380017354 0 0 0
971 3 4.667448046270679 40.380450009105516 0.6655025262904077 0 0 0
972 3 2.335709468026898 44.419139696591515 0.6655025262904146 0 0 0
973 1 6.99860394912753 41.72723090031728 0.07397385380017531 0 0 0
975 3 9.33092520275768 40.380450009105516 0.6655025262904094 0 0 0
976 3 6.9991866245139 44.419139696591515 0.6655025262904165 0 0 0
977 1 11.662081105614527 41.72723090031728 0.07397385380017416 0 0 0
979 3 13.99440235924468 40.380450009105516 0.66550252629041 0 0 0
981 1 16.325558262101527 41.72723090031728 0.07397385380017418 0 0 0
980 3 11.6626637810009 44.419139696591515 0.665502526290417 0 0 0
984 3 16.3261409374879 44.419139696591515 0.6655025262904154 0 0 0
983 3 18.65787951573168 40.380450009105516 0.6655025262904085 0 0 0
985 1 20.989035418588525 41.72723090031728 0.07397385380017445 0 0 0
988 3 20.989618093974897 44.419139696591515 0.6655025262904181 0 0 0
987 3 23.321356672218677 40.38045000910552 0.665502526290412 0 0 0
989 1 25.652512575075527 41.72723090031728 0.07397385380017199 0 0 0
991 3 27.98483382870568 40.380450009105516 0.6655025262904083 0 0 0
992 3 25.6530952504619 44.419139696591515 0.6655025262904153 0 0 0
993 1 30.315989731562528 41.72723090031728 0.07397385380017531 0 0 0
995 3 32.64831098519268 40.380450009105516 0.6655025262904076 0 0 0
996 3 30.316572406948897 44.419139696591515 0.6655025262904152 0 0 0
997 1 34.97946688804953 41.72723090031728 0.07397385380017488 0 0 0
999 3 37.31178814167968 40.380450009105516 0.6655025262904122 0 0 0
1001 1 39.64294404453653 41.72723090031728 0.0739738538001716 0 0 0
1000 3 34.9800495634359 44.419139696591515 0.6655025262904174 0 0 0
1004 3 39.643526719922896 44.419139696591515 0.6655025262904165 0 0 0
1003 3 41.975265298166676 40.380450009105516 0.6655025262904084 0 0 0
1005 1 44.306421201023525 41.72723090031728 0.07397385380017525 0 0 0
1008 3 44.307003876409894 44.419139696591515 0.6655025262904146 0 0 0
1007 3 46.63874245465368 40.380450009105516 0.6655025262904077 0 0 0
925 1 48.96989835751053 41.72723090031728 0.0739738538001757 -1 0 0
927 3 51.30221961114068 40.380450009105516 0.6655025262904101 -1 0 0
928 3 48.9704810328969 44.41913969659152 0.6655025262904157 -1 0 0
929 1 53.63337551399753 41.72723090031728 0.0739738538001742 -1 0 0
931 3 55.96569676762768 40.380450009105516 0.6655025262904081 -1 0 0