LAMMPS data file via write_data, version 29 Aug 2024, timestep = 3, units = metal

3024 atoms
6 atom types

0 97.933020286227 xlo xhi
0 96.928552499664 ylo yhi
-50 50 zlo zhi

Masses

1 114.818
2 114.818
3 114.818
4 121.76
5 121.76
6 121.76

Atoms # atomic

549 1 2.334816884251046 1.3407858385436426 0.07264011069701566 0 0 0
552 4 2.3356783386092763 4.032395422277186 0.6692616194871438 0 0 0
550 1 4.666555462494258 5.379475526029641 0.0726401106970173 0 0 0
546 1 0.0030783060072563434 5.3794755260296405 0.0726401106970169 0 0 0
553 1 6.998294040738047 1.3407858385436415 0.07264011069701681 0 0 0
556 4 6.999155495096278 4.032395422277185 0.6692616194871451 0 0 0
554 1 9.330032618981257 5.379475526029641 0.07264011069701552 0 0 0
557 1 11.661771197225047 1.340785838543642 0.07264011069701537 0 0 0
561 1 16.325248353712045 1.3407858385436426 0.07264011069701562 0 0 0
560 4 11.662632651583277 4.032395422277186 0.6692616194871457 0 0 0
564 4 16.326109808070274 4.032395422277186 0.6692616194871442 0 0 0
558 1 13.993509775468256 5.379475526029641 0.07264011069701543 0 0 0
565 1 20.988725510199046 1.340785838543641 0.0726401106970167 0 0 0
568 4 20.989586964557276 4.032395422277185 0.6692616194871467 0 0 0
562 1 18.656986931955256 5.379475526029641 0.07264011069701712 0 0 0
569 1 25.652202666686044 1.3407858385436429 0.07264011069701434 0 0 0
572 4 25.653064121044274 4.032395422277187 0.669261619487144 0 0 0
566 1 23.320464088442254 5.379475526029641 0.07264011069701407 0 0 0
570 1 27.983941244929255 5.379475526029641 0.07264011069701722 0 0 0
573 1 30.315679823173046 1.3407858385436418 0.07264011069701742 0 0 0
576 4 30.316541277531275 4.032395422277186 0.6692616194871439 0 0 0
574 1 32.64741840141625 5.379475526029641 0.07264011069701687 0 0 0
577 1 34.97915697966005 1.3407858385436418 0.07264011069701634 0 0 0
581 1 39.642634136147045 1.340785838543643 0.07264011069701445 0 0 0
580 4 34.98001843401828 4.032395422277186 0.6692616194871461 0 0 0
584 4 39.64349559050528 4.032395422277187 0.6692616194871444 0 0 0
578 1 37.31089555790326 5.379475526029641 0.07264011069701438 0 0 0
585 1 44.30611129263404 1.3407858385436413 0.07264011069701738 0 0 0
588 4 44.30697274699228 4.032395422277185 0.6692616194871445 0 0 0
582 1 41.974372714390256 5.379475526029641 0.07264011069701701 0 0 0
505 1 48.96958844912105 1.3407858385436422 0.07264011069701631 -1 0 0
508 4 48.970449903479285 4.032395422277186 0.6692616194871449 -1 0 0
586 1 46.63784987087726 5.3794755260296405 0.07264011069701741 0 0 0
506 1 51.30132702736426 5.379475526029642 0.07264011069701552 -1 0 0
509 1 53.63306560560805 1.3407858385436418 0.07264011069701624 -1 0 0
512 4 53.63392705996628 4.032395422277186 0.6692616194871448 -1 0 0
510 1 55.964804183851264 5.3794755260296405 0.07264011069701751 -1 0 0
513 1 58.29654276209505 1.3407858385436422 0.07264011069701638 -1 0 0
517 1 62.960019918582056 1.3407858385436409 0.07264011069701518 -1 0 0
516 4 58.29740421645329 4.032395422277186 0.6692616194871449 -1 0 0
520 4 62.960881372940285 4.032395422277187 0.6692616194871456 -1 0 0
514 1 60.62828134033826 5.379475526029642 0.07264011069701534 -1 0 0
521 1 67.62349707506905 1.3407858385436429 0.07264011069701609 -1 0 0
524 4 67.62435852942728 4.032395422277185 0.6692616194871451 -1 0 0
518 1 65.29175849682527 5.379475526029642 0.07264011069701515 -1 0 0
525 1 72.28697423155606 1.3407858385436418 0.07264011069701738 -1 0 0
528 4 72.28783568591429 4.032395422277187 0.6692616194871438 -1 0 0
522 1 69.95523565331226 5.3794755260296405 0.07264011069701758 -1 0 0
526 1 74.61871280979926 5.379475526029642 0.07264011069701641 -1 0 0
529 1 76.95045138804305 1.340785838543642 0.07264011069701613 -1 0 0
532 4 76.95131284240128 4.032395422277184 0.6692616194871475 -1 0 0
530 1 79.28218996628625 5.379475526029642 0.07264011069701343 -1 0 0
533 1 81.61392854453004 1.3407858385436429 0.07264011069701345 -1 0 0
537 1 86.27740570101705 1.3407858385436424 0.07264011069701465 -1 0 0
536 4 81.61478999888827 4.032395422277185 0.6692616194871475 -1 0 0
540 4 86.27826715537527 4.032395422277188 0.6692616194871437 -1 0 0
534 1 83.94566712277324 5.379475526029641 0.0726401106970145 -1 0 0
541 1 90.94088285750405 1.3407858385436415 0.0726401106970175 -1 0 0
544 4 90.94174431186228 4.032395422277186 0.6692616194871435 -1 0 0
538 1 88.60914427926025 5.3794755260296405 0.07264011069701745 -1 0 0
545 1 95.60436001399106 1.3407858385436413 0.07264011069701763 -1 0 0
548 4 95.60522146834928 4.032395422277186 0.6692616194871435 -1 0 0
542 1 93.27262143574725 5.3794755260296405 0.0726401106970174 -1 0 0
631 4 0.003939760366066025 8.071085109763185 0.6692616194871412 0 0 0
635 4 4.667416916853066 8.071085109763187 0.6692616194871401 0 0 0
633 1 2.334816884251046 9.418165213515643 0.07264011069701579 0 0 0
639 4 9.330894073340067 8.071085109763187 0.6692616194871418 0 0 0
637 1 6.998294040738046 9.418165213515643 0.0726401106970166 0 0 0
643 4 13.994371229827067 8.071085109763185 0.6692616194871425 0 0 0
641 1 11.661771197225047 9.418165213515643 0.07264011069701523 0 0 0
645 1 16.325248353712045 9.418165213515643 0.07264011069701538 0 0 0
647 4 18.657848386314065 8.071085109763187 0.6692616194871406 0 0 0
649 1 20.988725510199046 9.418165213515643 0.07264011069701665 0 0 0
651 4 23.321325542801063 8.071085109763185 0.6692616194871439 0 0 0
655 4 27.984802699288064 8.071085109763185 0.6692616194871404 0 0 0
653 1 25.652202666686044 9.418165213515643 0.07264011069701416 0 0 0
659 4 32.648279855775066 8.071085109763185 0.6692616194871404 0 0 0
657 1 30.315679823173046 9.41816521351564 0.07264011069701748 0 0 0
663 4 37.31175701226206 8.071085109763185 0.6692616194871437 0 0 0
661 1 34.97915697966005 9.418165213515643 0.07264011069701581 0 0 0
665 1 39.642634136147045 9.41816521351564 0.07264011069701468 0 0 0
667 4 41.97523416874906 8.071085109763185 0.6692616194871409 0 0 0
669 1 44.30611129263404 9.41816521351564 0.07264011069701748 0 0 0
671 4 46.638711325236066 8.071085109763187 0.6692616194871402 0 0 0
591 4 51.302188481723064 8.071085109763187 0.669261619487142 -1 0 0
589 1 48.96958844912105 9.418165213515643 0.07264011069701616 -1 0 0
595 4 55.96566563821007 8.071085109763187 0.669261619487141 -1 0 0
593 1 53.63306560560805 9.418165213515643 0.07264011069701613 -1 0 0
599 4 60.629142794697074 8.071085109763187 0.6692616194871416 -1 0 0
597 1 58.29654276209505 9.418165213515643 0.07264011069701631 -1 0 0
601 1 62.960019918582056 9.418165213515643 0.07264011069701501 -1 0 0
603 4 65.29261995118408 8.071085109763185 0.6692616194871434 -1 0 0
605 1 67.62349707506905 9.418165213515644 0.07264011069701602 -1 0 0
607 4 69.95609710767107 8.071085109763187 0.6692616194871404 -1 0 0
611 4 74.61957426415808 8.071085109763187 0.6692616194871404 -1 0 0
609 1 72.28697423155606 9.41816521351564 0.07264011069701731 -1 0 0
615 4 79.28305142064507 8.071085109763185 0.6692616194871441 -1 0 0
613 1 76.95045138804305 9.418165213515643 0.07264011069701613 -1 0 0
619 4 83.94652857713206 8.071085109763185 0.6692616194871439 -1 0 0
617 1 81.61392854453004 9.418165213515644 0.07264011069701314 -1 0 0
621 1 86.27740570101705 9.418165213515643 0.07264011069701443 -1 0 0
623 4 88.61000573361906 8.071085109763185 0.6692616194871401 -1 0 0
625 1 90.94088285750405 9.41816521351564 0.07264011069701752 -1 0 0
627 4 93.27348289010607 8.071085109763185 0.6692616194871401 -1 0 0
629 1 95.60436001399106 9.41816521351564 0.07264011069701772 -1 0 0
636 4 2.3356783386092763 12.109774797249187 0.6692616194871419 0 0 0
634 1 4.666555462494258 13.456854901001643 0.0726401106970196 0 0 0
715 4 0.003939760366066025 16.14846448473519 0.6692616194871409 0 0 0
719 4 4.667416916853067 16.14846448473519 0.6692616194871399 0 0 0
630 1 0.003078306007256044 13.456854901001643 0.0726401106970189 0 0 0
640 4 6.999155495096278 12.109774797249186 0.6692616194871435 0 0 0
638 1 9.330032618981257 13.456854901001643 0.07264011069701745 0 0 0
723 4 9.330894073340067 16.14846448473519 0.6692616194871418 0 0 0
644 4 11.662632651583277 12.109774797249186 0.669261619487144 0 0 0
648 4 16.326109808070274 12.109774797249186 0.6692616194871425 0 0 0
642 1 13.993509775468256 13.456854901001643 0.07264011069701753 0 0 0
727 4 13.994371229827067 16.14846448473519 0.6692616194871421 0 0 0
652 4 20.989586964557276 12.109774797249186 0.669261619487145 0 0 0
646 1 18.656986931955256 13.456854901001645 0.07264011069701946 0 0 0
731 4 18.657848386314065 16.14846448473519 0.6692616194871405 0 0 0
656 4 25.653064121044274 12.109774797249187 0.6692616194871422 0 0 0
650 1 23.320464088442254 13.456854901001643 0.07264011069701604 0 0 0
654 1 27.983941244929255 13.456854901001645 0.07264011069701969 0 0 0
735 4 23.321325542801066 16.14846448473519 0.6692616194871435 0 0 0
739 4 27.984802699288064 16.14846448473519 0.6692616194871399 0 0 0
660 4 30.316541277531275 12.109774797249186 0.669261619487142 0 0 0
658 1 32.64741840141625 13.456854901001645 0.07264011069701932 0 0 0
743 4 32.648279855775066 16.14846448473519 0.6692616194871404 0 0 0
664 4 34.98001843401828 12.109774797249186 0.6692616194871445 0 0 0
668 4 39.643495590505275 12.109774797249186 0.6692616194871432 0 0 0
662 1 37.31089555790326 13.456854901001643 0.07264011069701647 0 0 0
747 4 37.31175701226206 16.14846448473519 0.6692616194871434 0 0 0
672 4 44.30697274699227 12.109774797249187 0.6692616194871418 0 0 0
666 1 41.974372714390256 13.456854901001643 0.07264011069701916 0 0 0
751 4 41.97523416874906 16.14846448473519 0.6692616194871406 0 0 0
592 4 48.970449903479285 12.109774797249187 0.6692616194871434 -1 0 0
670 1 46.63784987087726 13.456854901001643 0.07264011069701959 0 0 0
590 1 51.30132702736426 13.456854901001643 0.0726401106970174 -1 0 0
755 4 46.638711325236066 16.14846448473519 0.66926161948714 0 0 0
675 4 51.302188481723064 16.14846448473519 0.6692616194871418 -1 0 0
596 4 53.63392705996628 12.109774797249186 0.6692616194871431 -1 0 0
594 1 55.964804183851264 13.456854901001643 0.0726401106970197 -1 0 0
679 4 55.96566563821007 16.14846448473519 0.6692616194871409 -1 0 0
600 4 58.29740421645328 12.109774797249187 0.6692616194871432 -1 0 0
604 4 62.960881372940285 12.109774797249187 0.6692616194871438 -1 0 0
598 1 60.62828134033826 13.456854901001643 0.07264011069701724 -1 0 0
683 4 60.62914279469707 16.14846448473519 0.6692616194871415 -1 0 0
608 4 67.62435852942728 12.109774797249186 0.6692616194871434 -1 0 0
602 1 65.29175849682527 13.456854901001645 0.07264011069701717 -1 0 0
687 4 65.29261995118408 16.148464484735186 0.6692616194871434 -1 0 0
612 4 72.28783568591429 12.109774797249187 0.6692616194871419 -1 0 0
606 1 69.95523565331226 13.456854901001643 0.07264011069701981 -1 0 0
610 1 74.61871280979926 13.456854901001645 0.07264011069701864 -1 0 0
691 4 69.95609710767107 16.14846448473519 0.6692616194871402 -1 0 0
695 4 74.61957426415808 16.14846448473519 0.6692616194871401 -1 0 0
616 4 76.95131284240128 12.109774797249186 0.6692616194871459 -1 0 0
614 1 79.28218996628625 13.456854901001643 0.07264011069701544 -1 0 0
699 4 79.28305142064507 16.148464484735186 0.6692616194871439 -1 0 0
620 4 81.61478999888827 12.109774797249186 0.6692616194871459 -1 0 0
624 4 86.27826715537527 12.109774797249187 0.6692616194871419 -1 0 0
618 1 83.94566712277324 13.456854901001643 0.07264011069701662 -1 0 0
703 4 83.94652857713206 16.148464484735186 0.6692616194871437 -1 0 0
628 4 90.94174431186228 12.109774797249187 0.6692616194871416 -1 0 0
622 1 88.60914427926025 13.456854901001643 0.07264011069701967 -1 0 0
707 4 88.61000573361906 16.14846448473519 0.6692616194871397 -1 0 0
632 4 95.60522146834928 12.109774797249186 0.6692616194871417 -1 0 0
626 1 93.27262143574725 13.456854901001643 0.07264011069701982 -1 0 0
711 4 93.27348289010607 16.14846448473519 0.6692616194871398 -1 0 0
717 1 2.3348168842510457 17.495544588487647 0.07264011069701527 0 0 0
720 4 2.3356783386092763 20.187154172221188 0.6692616194871437 0 0 0
718 1 4.666555462494258 21.534234275973642 0.07264011069701738 0 0 0
714 1 0.003078306007255896 21.534234275973642 0.07264011069701716 0 0 0
721 1 6.998294040738047 17.495544588487643 0.0726401106970163 0 0 0
724 4 6.999155495096278 20.187154172221188 0.6692616194871452 0 0 0
722 1 9.330032618981258 21.534234275973642 0.07264011069701562 0 0 0
725 1 11.661771197225047 17.495544588487643 0.07264011069701488 0 0 0
729 1 16.325248353712045 17.495544588487647 0.0726401106970152 0 0 0
728 4 11.662632651583277 20.187154172221188 0.6692616194871457 0 0 0
726 1 13.993509775468256 21.534234275973642 0.07264011069701562 0 0 0
732 4 16.326109808070274 20.187154172221188 0.6692616194871441 0 0 0
733 1 20.988725510199046 17.495544588487643 0.07264011069701634 0 0 0
730 1 18.656986931955256 21.534234275973642 0.07264011069701709 0 0 0
736 4 20.989586964557276 20.187154172221188 0.6692616194871468 0 0 0
737 1 25.652202666686044 17.495544588487647 0.07264011069701395 0 0 0
734 1 23.320464088442254 21.534234275973642 0.07264011069701382 0 0 0
740 4 25.653064121044274 20.187154172221188 0.6692616194871442 0 0 0
738 1 27.983941244929255 21.534234275973642 0.07264011069701748 0 0 0
741 1 30.315679823173046 17.495544588487643 0.07264011069701674 0 0 0
744 4 30.316541277531275 20.187154172221188 0.6692616194871439 0 0 0
742 1 32.64741840141625 21.534234275973642 0.07264011069701722 0 0 0
745 1 34.97915697966005 17.495544588487643 0.0726401106970159 0 0 0
749 1 39.642634136147045 17.495544588487647 0.07264011069701423 0 0 0
748 4 34.98001843401828 20.187154172221188 0.669261619487146 0 0 0
746 1 37.31089555790326 21.534234275973642 0.07264011069701413 0 0 0
752 4 39.64349559050528 20.187154172221188 0.6692616194871446 0 0 0
753 1 44.30611129263404 17.495544588487643 0.07264011069701684 0 0 0
750 1 41.974372714390256 21.534234275973642 0.07264011069701728 0 0 0
756 4 44.30697274699228 20.187154172221188 0.6692616194871445 0 0 0
673 1 48.96958844912105 17.495544588487643 0.07264011069701572 -1 0 0
754 1 46.63784987087726 21.534234275973642 0.07264011069701762 0 0 0
676 4 48.970449903479285 20.187154172221188 0.6692616194871449 -1 0 0
674 1 51.30132702736426 21.534234275973642 0.07264011069701568 -1 0 0
677 1 53.633065605608046 17.495544588487643 0.07264011069701558 -1 0 0
680 4 53.63392705996628 20.187154172221188 0.6692616194871449 -1 0 0
678 1 55.964804183851264 21.534234275973642 0.07264011069701776 -1 0 0
681 1 58.29654276209505 17.495544588487643 0.07264011069701584 -1 0 0
685 1 62.960019918582056 17.495544588487643 0.07264011069701468 -1 0 0
684 4 58.29740421645329 20.187154172221188 0.669261619487145 -1 0 0
682 1 60.62828134033826 21.534234275973642 0.07264011069701548 -1 0 0
688 4 62.960881372940285 20.187154172221188 0.6692616194871456 -1 0 0
689 1 67.62349707506905 17.495544588487647 0.0726401106970155 -1 0 0
686 1 65.29175849682527 21.534234275973642 0.07264011069701512 -1 0 0
692 4 67.62435852942728 20.187154172221184 0.6692616194871452 -1 0 0
693 1 72.28697423155606 17.495544588487643 0.07264011069701669 -1 0 0
690 1 69.95523565331226 21.534234275973642 0.07264011069701783 -1 0 0
696 4 72.28783568591429 20.187154172221188 0.6692616194871437 -1 0 0
694 1 74.61871280979926 21.534234275973645 0.07264011069701652 -1 0 0
697 1 76.95045138804305 17.495544588487647 0.07264011069701581 -1 0 0
700 4 76.95131284240128 20.187154172221184 0.6692616194871476 -1 0 0
698 1 79.28218996628625 21.534234275973642 0.07264011069701326 -1 0 0
701 1 81.61392854453004 17.495544588487643 0.07264011069701287 -1 0 0
705 1 86.27740570101705 17.495544588487647 0.07264011069701432 -1 0 0
704 4 81.61478999888827 20.187154172221184 0.6692616194871474 -1 0 0
702 1 83.94566712277324 21.534234275973642 0.0726401106970144 -1 0 0
708 4 86.27826715537527 20.18715417222119 0.6692616194871439 -1 0 0
709 1 90.94088285750405 17.495544588487643 0.07264011069701695 -1 0 0
706 1 88.60914427926025 21.534234275973642 0.07264011069701776 -1 0 0
712 4 90.94174431186228 20.187154172221188 0.6692616194871435 -1 0 0
713 1 95.60436001399106 17.495544588487643 0.07264011069701713 -1 0 0
710 1 93.27262143574725 21.534234275973642 0.07264011069701784 -1 0 0
716 4 95.60522146834928 20.187154172221188 0.6692616194871435 -1 0 0
799 4 0.003939760366066025 24.225843859707187 0.6692616194871415 0 0 0
801 1 2.334816884251046 25.572923963459644 0.07264011069701516 0 0 0
803 4 4.667416916853067 24.225843859707187 0.6692616194871402 0 0 0
804 4 2.3356783386092768 28.264533547193185 0.6692616194871439 0 0 0
805 1 6.998294040738046 25.57292396345964 0.07264011069701616 0 0 0
807 4 9.330894073340067 24.225843859707187 0.669261619487142 0 0 0
808 4 6.999155495096278 28.264533547193185 0.6692616194871452 0 0 0
809 1 11.661771197225047 25.57292396345964 0.07264011069701462 0 0 0
811 4 13.994371229827067 24.225843859707187 0.6692616194871426 0 0 0
813 1 16.325248353712045 25.572923963459644 0.07264011069701506 0 0 0
812 4 11.662632651583277 28.264533547193185 0.6692616194871457 0 0 0
816 4 16.326109808070274 28.264533547193185 0.6692616194871441 0 0 0
815 4 18.657848386314065 24.225843859707187 0.6692616194871408 0 0 0
817 1 20.988725510199046 25.57292396345964 0.07264011069701634 0 0 0
820 4 20.989586964557276 28.264533547193185 0.6692616194871467 0 0 0
819 4 23.321325542801066 24.225843859707187 0.6692616194871438 0 0 0
821 1 25.652202666686044 25.572923963459644 0.07264011069701395 0 0 0
823 4 27.984802699288064 24.225843859707187 0.6692616194871402 0 0 0
824 4 25.653064121044274 28.264533547193185 0.6692616194871442 0 0 0
825 1 30.315679823173046 25.57292396345964 0.07264011069701677 0 0 0
827 4 32.648279855775066 24.225843859707187 0.6692616194871406 0 0 0
828 4 30.316541277531275 28.264533547193185 0.6692616194871439 0 0 0
829 1 34.97915697966005 25.57292396345964 0.07264011069701591 0 0 0
831 4 37.31175701226206 24.225843859707187 0.6692616194871438 0 0 0
833 1 39.642634136147045 25.572923963459644 0.07264011069701405 0 0 0
832 4 34.98001843401828 28.264533547193185 0.6692616194871461 0 0 0
836 4 39.64349559050528 28.264533547193185 0.6692616194871446 0 0 0
835 4 41.97523416874906 24.225843859707187 0.6692616194871408 0 0 0
837 1 44.30611129263404 25.57292396345964 0.07264011069701679 0 0 0
840 4 44.30697274699228 28.264533547193185 0.6692616194871445 0 0 0
839 4 46.638711325236066 24.225843859707187 0.6692616194871404 0 0 0
757 1 48.96958844912105 25.57292396345964 0.07264011069701558 -1 0 0
759 4 51.302188481723064 24.225843859707187 0.6692616194871422 -1 0 0
760 4 48.97044990347928 28.264533547193185 0.6692616194871449 -1 0 0
761 1 53.63306560560805 25.57292396345964 0.07264011069701544 -1 0 0
763 4 55.96566563821007 24.225843859707187 0.6692616194871412 -1 0 0
764 4 53.63392705996628 28.264533547193185 0.6692616194871448 -1 0 0
765 1 58.29654276209505 25.57292396345964 0.07264011069701568 -1 0 0
767 4 60.62914279469707 24.225843859707187 0.6692616194871418 -1 0 0
769 1 62.960019918582056 25.57292396345964 0.07264011069701454 -1 0 0
768 4 58.29740421645328 28.264533547193185 0.669261619487145 -1 0 0
772 4 62.960881372940285 28.264533547193185 0.6692616194871456 -1 0 0
771 4 65.29261995118408 24.225843859707187 0.6692616194871436 -1 0 0
773 1 67.62349707506905 25.572923963459644 0.07264011069701551 -1 0 0
776 4 67.62435852942728 28.26453354719318 0.6692616194871451 -1 0 0
775 4 69.95609710767107 24.225843859707187 0.6692616194871405 -1 0 0
777 1 72.28697423155606 25.57292396345964 0.07264011069701669 -1 0 0
779 4 74.61957426415808 24.225843859707187 0.6692616194871404 -1 0 0
780 4 72.28783568591429 28.264533547193185 0.6692616194871437 -1 0 0
781 1 76.95045138804305 25.572923963459644 0.07264011069701581 -1 0 0
783 4 79.28305142064507 24.225843859707187 0.6692616194871445 -1 0 0
784 4 76.95131284240128 28.26453354719318 0.6692616194871476 -1 0 0
785 1 81.61392854453004 25.57292396345964 0.07264011069701291 -1 0 0
787 4 83.94652857713206 24.225843859707187 0.669261619487144 -1 0 0
789 1 86.27740570101705 25.572923963459644 0.07264011069701419 -1 0 0
788 4 81.61478999888827 28.26453354719318 0.6692616194871474 -1 0 0
792 4 86.27826715537527 28.26453354719319 0.6692616194871439 -1 0 0
791 4 88.61000573361906 24.22584385970719 0.66926161948714 -1 0 0
793 1 90.94088285750405 25.57292396345964 0.07264011069701681 -1 0 0
796 4 90.94174431186228 28.264533547193185 0.6692616194871435 -1 0 0
795 4 93.27348289010607 24.225843859707187 0.66926161948714 -1 0 0
797 1 95.60436001399106 25.57292396345964 0.07264011069701698 -1 0 0
800 4 95.60522146834928 28.264533547193185 0.6692616194871437 -1 0 0
802 1 4.666555462494258 29.611613650945642 0.0726401106970176 0 0 0
883 4 0.003939760366066025 32.30322323467918 0.669261619487141 0 0 0
887 4 4.667416916853065 32.30322323467919 0.6692616194871401 0 0 0
885 1 2.3348168842510453 33.65030333843164 0.07264011069701476 0 0 0
798 1 0.0030783060072559964 29.61161365094564 0.07264011069701665 0 0 0
806 1 9.330032618981258 29.61161365094564 0.07264011069701512 0 0 0
891 4 9.330894073340067 32.30322323467918 0.6692616194871419 0 0 0
889 1 6.998294040738047 33.650303338431634 0.07264011069701629 0 0 0
810 1 13.993509775468256 29.61161365094564 0.07264011069701509 0 0 0
895 4 13.994371229827065 32.30322323467918 0.6692616194871425 0 0 0
893 1 11.661771197225047 33.65030333843164 0.07264011069701487 0 0 0
897 1 16.32524835371205 33.650303338431634 0.07264011069701537 0 0 0
814 1 18.656986931955256 29.61161365094564 0.07264011069701684 0 0 0
899 4 18.65784838631407 32.30322323467918 0.6692616194871412 0 0 0
901 1 20.988725510199046 33.650303338431634 0.07264011069701616 0 0 0
818 1 23.320464088442254 29.61161365094564 0.07264011069701383 0 0 0
822 1 27.983941244929255 29.61161365094564 0.07264011069701719 0 0 0
903 4 23.321325542801066 32.30322323467918 0.669261619487144 0 0 0
907 4 27.984802699288064 32.30322323467918 0.6692616194871405 0 0 0
905 1 25.652202666686044 33.65030333843164 0.0726401106970135 0 0 0
826 1 32.64741840141625 29.61161365094564 0.07264011069701694 0 0 0
911 4 32.648279855775066 32.30322323467918 0.6692616194871409 0 0 0
909 1 30.315679823173046 33.650303338431634 0.07264011069701679 0 0 0
830 1 37.31089555790326 29.61161365094564 0.07264011069701416 0 0 0
915 4 37.31175701226206 32.30322323467918 0.6692616194871439 0 0 0
913 1 34.97915697966005 33.650303338431634 0.07264011069701601 0 0 0
917 1 39.642634136147045 33.65030333843164 0.07264011069701361 0 0 0
834 1 41.974372714390256 29.61161365094564 0.07264011069701698 0 0 0
919 4 41.97523416874906 32.30322323467918 0.6692616194871409 0 0 0
921 1 44.30611129263404 33.650303338431634 0.07264011069701681 0 0 0
838 1 46.63784987087726 29.61161365094564 0.07264011069701734 0 0 0
758 1 51.30132702736426 29.61161365094564 0.07264011069701519 -1 0 0
923 4 46.638711325236066 32.30322323467918 0.6692616194871406 0 0 0
843 4 51.302188481723064 32.30322323467918 0.6692616194871426 -1 0 0
841 1 48.96958844912105 33.650303338431634 0.07264011069701592 -1 0 0
762 1 55.964804183851264 29.61161365094564 0.07264011069701755 -1 0 0
847 4 55.96566563821007 32.30322323467918 0.6692616194871415 -1 0 0
845 1 53.63306560560805 33.650303338431634 0.07264011069701558 -1 0 0
766 1 60.62828134033826 29.61161365094564 0.07264011069701497 -1 0 0
851 4 60.629142794697074 32.30322323467918 0.6692616194871418 -1 0 0
849 1 58.29654276209505 33.650303338431634 0.07264011069701605 -1 0 0
853 1 62.960019918582056 33.65030333843164 0.0726401106970148 -1 0 0
770 1 65.29175849682527 29.61161365094564 0.07264011069701494 -1 0 0
855 4 65.29261995118408 32.30322323467918 0.6692616194871432 -1 0 0
857 1 67.62349707506905 33.65030333843164 0.07264011069701583 -1 0 0
774 1 69.95523565331226 29.61161365094564 0.0726401106970175 -1 0 0
778 1 74.61871280979926 29.61161365094564 0.07264011069701629 -1 0 0
859 4 69.95609710767107 32.30322323467919 0.6692616194871401 -1 0 0
863 4 74.61957426415808 32.30322323467918 0.6692616194871404 -1 0 0
861 1 72.28697423155606 33.65030333843164 0.07264011069701715 -1 0 0
782 1 79.28218996628625 29.61161365094564 0.07264011069701326 -1 0 0
867 4 79.28305142064507 32.30322323467918 0.6692616194871445 -1 0 0
865 1 76.95045138804305 33.650303338431634 0.07264011069701594 -1 0 0
786 1 83.94566712277324 29.61161365094564 0.0726401106970144 -1 0 0
871 4 83.94652857713206 32.30322323467918 0.6692616194871439 -1 0 0
869 1 81.61392854453004 33.65030333843164 0.07264011069701307 -1 0 0
873 1 86.27740570101705 33.65030333843164 0.07264011069701383 -1 0 0
790 1 88.60914427926025 29.61161365094564 0.07264011069701747 -1 0 0
875 4 88.61000573361906 32.30322323467919 0.6692616194871402 -1 0 0
877 1 90.94088285750405 33.650303338431634 0.07264011069701684 -1 0 0
794 1 93.27262143574725 29.61161365094564 0.07264011069701755 -1 0 0
879 4 93.27348289010607 32.30322323467918 0.6692616194871404 -1 0 0
881 1 95.60436001399106 33.650303338431634 0.07264011069701708 -1 0 0
888 4 2.335678338609276 36.341912922165186 0.6692616194871438 0 0 0
886 1 4.666555462494257 37.68899302591764 0.07264011069701873 0 0 0
882 1 0.003078306007256534 37.68899302591764 0.07264011069701776 0 0 0
892 4 6.999155495096278 36.34191292216518 0.6692616194871447 0 0 0
890 1 9.330032618981258 37.68899302591764 0.07264011069701588 0 0 0
896 4 11.662632651583277 36.341912922165186 0.6692616194871458 0 0 0
900 4 16.326109808070278 36.34191292216518 0.6692616194871434 0 0 0
894 1 13.993509775468256 37.68899302591764 0.0726401106970161 0 0 0
904 4 20.989586964557276 36.34191292216518 0.6692616194871462 0 0 0
898 1 18.656986931955256 37.68899302591764 0.07264011069701846 0 0 0
908 4 25.653064121044274 36.341912922165186 0.669261619487144 0 0 0
902 1 23.320464088442254 37.68899302591764 0.0726401106970148 0 0 0
906 1 27.983941244929255 37.68899302591764 0.07264011069701896 0 0 0
912 4 30.316541277531275 36.34191292216518 0.6692616194871434 0 0 0
910 1 32.64741840141625 37.68899302591764 0.07264011069701845 0 0 0
916 4 34.98001843401828 36.34191292216518 0.6692616194871456 0 0 0
920 4 39.64349559050528 36.341912922165186 0.6692616194871444 0 0 0
914 1 37.31089555790326 37.68899302591764 0.07264011069701513 0 0 0
924 4 44.30697274699228 36.34191292216518 0.6692616194871439 0 0 0
918 1 41.974372714390256 37.68899302591764 0.07264011069701876 0 0 0
844 4 48.970449903479285 36.34191292216518 0.6692616194871442 -1 0 0
922 1 46.63784987087726 37.68899302591764 0.07264011069701885 0 0 0
842 1 51.30132702736426 37.68899302591764 0.07264011069701602 -1 0 0
848 4 53.63392705996628 36.34191292216518 0.669261619487144 -1 0 0
846 1 55.964804183851264 37.68899302591764 0.07264011069701892 -1 0 0
852 4 58.29740421645329 36.34191292216518 0.6692616194871444 -1 0 0
856 4 62.960881372940285 36.341912922165186 0.6692616194871454 -1 0 0
850 1 60.62828134033826 37.68899302591764 0.07264011069701577 -1 0 0
860 4 67.62435852942728 36.341912922165186 0.6692616194871454 -1 0 0
854 1 65.29175849682527 37.68899302591764 0.07264011069701562 -1 0 0
864 4 72.28783568591429 36.341912922165186 0.6692616194871438 -1 0 0
858 1 69.95523565331226 37.68899302591764 0.07264011069701874 -1 0 0
862 1 74.61871280979926 37.68899302591764 0.07264011069701755 -1 0 0
868 4 76.95131284240128 36.34191292216518 0.6692616194871471 -1 0 0
866 1 79.28218996628625 37.68899302591764 0.07264011069701398 -1 0 0
872 4 81.61478999888827 36.34191292216518 0.6692616194871475 -1 0 0
876 4 86.27826715537527 36.341912922165186 0.6692616194871437 -1 0 0
870 1 83.94566712277324 37.68899302591764 0.07264011069701524 -1 0 0
880 4 90.94174431186228 36.34191292216518 0.6692616194871429 -1 0 0
874 1 88.60914427926025 37.68899302591764 0.0726401106970192 -1 0 0
884 4 95.60522146834928 36.34191292216518 0.669261619487143 -1 0 0
878 1 93.27262143574725 37.68899302591764 0.07264011069701913 -1 0 0
967 4 0.003939760366066025 40.380602609651184 0.669261619487138 0 0 0
969 1 2.334816884251045 41.727682713403645 0.07264011069701859 0 0 0
971 4 4.667416916853065 40.38060260965119 0.6692616194871369 0 0 0
972 4 2.3356783386092763 44.41929229713718 0.6692616194871444 0 0 0
973 1 6.998294040738047 41.727682713403645 0.07264011069702024 0 0 0
975 4 9.330894073340067 40.380602609651184 0.6692616194871388 0 0 0
976 4 6.999155495096278 44.41929229713718 0.6692616194871451 0 0 0
977 1 11.661771197225047 41.727682713403645 0.0726401106970191 0 0 0
979 4 13.994371229827067 40.380602609651184 0.6692616194871388 0 0 0
981 1 16.325248353712045 41.727682713403645 0.07264011069701863 0 0 0
980 4 11.662632651583277 44.41929229713718 0.6692616194871466 0 0 0
984 4 16.326109808070274 44.41929229713718 0.669261619487145 0 0 0
983 4 18.657848386314065 40.38060260965119 0.6692616194871376 0 0 0
985 1 20.988725510199046 41.727682713403645 0.07264011069701998 0 0 0
988 4 20.989586964557276 44.41929229713718 0.6692616194871465 0 0 0
987 4 23.321325542801066 40.380602609651184 0.6692616194871406 0 0 0
989 1 25.652202666686044 41.727682713403645 0.07264011069701698 0 0 0
991 4 27.984802699288064 40.38060260965119 0.6692616194871378 0 0 0
992 4 25.653064121044274 44.41929229713719 0.6692616194871442 0 0 0
993 1 30.315679823173046 41.727682713403645 0.07264011069701998 0 0 0
995 4 32.648279855775066 40.38060260965119 0.6692616194871374 0 0 0
996 4 30.316541277531275 44.41929229713718 0.6692616194871438 0 0 0
997 1 34.97915697966005 41.727682713403645 0.07264011069701956 0 0 0
999 4 37.31175701226206 40.380602609651184 0.669261619487141 0 0 0
1001 1 39.642634136147045 41.727682713403645 0.07264011069701755 0 0 0
1000 4 34.98001843401828 44.41929229713718 0.6692616194871458 0 0 0
1004 4 39.643495590505275 44.41929229713718 0.6692616194871455 0 0 0
1003 4 41.97523416874907 40.38060260965119 0.6692616194871369 0 0 0
1005 1 44.30611129263405 41.727682713403645 0.07264011069702006 0 0 0
1008 4 44.30697274699228 44.41929229713718 0.6692616194871436 0 0 0
1007 4 46.63871132523607 40.38060260965119 0.6692616194871374 0 0 0
925 1 48.969588449121055 41.727682713403645 0.07264011069701912 -1 0 0
927 4 51.30218848172307 40.380602609651184 0.6692616194871398 -1 0 0