LAMMPS data file via write_data, version 29 Aug 2024, timestep = 1, units = metal

4200 atoms
3 atom types

0 101.2601135 xlo xhi
0 98.217090362832 ylo yhi
-50 50 zlo zhi

Masses

1 72.63
2 72.63
3 72.63

Atoms # atomic

755 1 4.050253922415245 1.1692590922818777 -0.0021461793633722756 0 0 0
750 1 0.000870847264121464 3.506674310417217 0.6949207251261835 0 0 0
754 1 4.051275387264131 3.5066743104172167 0.6949207251261832 0 0 0
756 1 2.0250516524152453 4.677012319525888 -0.0021461793633721885 0 0 0
759 1 8.10065846241524 1.1692590922818746 -0.0021461793633699277 0 0 0
758 1 8.101679927264135 3.506674310417217 0.6949207251261833 0 0 0
760 1 6.075456192415239 4.677012319525885 -0.0021461793633697455 0 0 0
764 1 10.125860732415243 4.677012319525885 -0.0021461793633696033 0 0 0
763 1 12.151063002415244 1.169259092281878 -0.0021461793633721976 0 0 0
767 1 16.20146754241523 1.1692590922818744 -0.002146179363369771 0 0 0
762 1 12.152084467264128 3.5066743104172136 0.6949207251261856 0 0 0
766 1 16.202489007264127 3.5066743104172167 0.6949207251261835 0 0 0
768 1 14.17626527241525 4.677012319525885 -0.002146179363369937 0 0 0
771 1 20.25187208241525 1.1692590922818742 -0.002146179363369675 0 0 0
770 1 20.252893547264126 3.506674310417217 0.6949207251261833 0 0 0
772 1 18.226669812415253 4.677012319525886 -0.002146179363369781 0 0 0
776 1 22.277074352415244 4.6770123195258915 -0.0021461793633744323 0 0 0
775 1 24.30227662241525 1.1692590922818744 -0.0021461793633698097 0 0 0
779 1 28.35268116241525 1.1692590922818749 -0.0021461793633696723 0 0 0
774 1 24.303298087264142 3.506674310417217 0.6949207251261832 0 0 0
778 1 28.35370262726413 3.5066743104172104 0.694920725126188 0 0 0
780 1 26.327478892415233 4.677012319525884 -0.0021461793633696107 0 0 0
783 1 32.40308570241524 1.1692590922818809 -0.0021461793633745195 0 0 0
782 1 32.40410716726412 3.5066743104172162 0.6949207251261833 0 0 0
784 1 30.37788343241525 4.677012319525885 -0.002146179363369787 0 0 0
788 1 34.42828797241525 4.677012319525885 -0.002146179363369922 0 0 0
787 1 36.45349024241523 1.1692590922818744 -0.002146179363369831 0 0 0
791 1 40.50389478241523 1.1692590922818742 -0.0021461793633696896 0 0 0
786 1 36.454511707264125 3.5066743104172167 0.6949207251261835 0 0 0
790 1 40.50491624726413 3.5066743104172167 0.6949207251261835 0 0 0
792 1 38.47869251241525 4.677012319525885 -0.0021461793633699264 0 0 0
795 1 44.55429932241525 1.1692590922818742 -0.0021461793633696744 0 0 0
794 1 44.55532078726412 3.506674310417217 0.6949207251261833 0 0 0
796 1 42.52909705241525 4.677012319525886 -0.002146179363369779 0 0 0
800 1 46.57950159241524 4.6770123195258915 -0.0021461793633744254 0 0 0
799 1 48.60470386241525 1.1692590922818744 -0.002146179363369805 0 0 0
703 1 52.65510840241525 1.1692590922818746 -0.0021461793633697386 -1 0 0
798 1 48.60572532726414 3.506674310417217 0.6949207251261832 0 0 0
702 1 52.65612986726413 3.5066743104172136 0.6949207251261857 -1 0 0
704 1 50.629906132415236 4.677012319525882 -0.002146179363367424 -1 0 0
707 1 56.70551294241525 1.1692590922818777 -0.002146179363372272 -1 0 0
706 1 56.70653440726413 3.5066743104172167 0.6949207251261834 -1 0 0
708 1 54.68031067241525 4.677012319525885 -0.002146179363369863 -1 0 0
712 1 58.73071521241525 4.677012319525888 -0.00214617936337218 -1 0 0
711 1 60.75591748241524 1.1692590922818746 -0.002146179363369927 -1 0 0
715 1 64.80632202241526 1.1692590922818742 -0.0021461793633697395 -1 0 0
710 1 60.75693894726414 3.506674310417217 0.6949207251261833 -1 0 0
714 1 64.80734348726413 3.5066743104172167 0.6949207251261834 -1 0 0
716 1 62.78111975241525 4.677012319525883 -0.0021461793633674297 -1 0 0
719 1 68.85672656241526 1.1692590922818749 -0.0021461793633696727 -1 0 0
718 1 68.85774802726414 3.506674310417211 0.6949207251261879 -1 0 0
720 1 66.83152429241525 4.6770123195258915 -0.002146179363374291 -1 0 0
724 1 70.88192883241526 4.677012319525885 -0.002146179363369781 -1 0 0
723 1 72.90713110241526 1.1692590922818744 -0.002146179363369821 -1 0 0
727 1 76.95753564241525 1.1692590922818806 -0.0021461793633743885 -1 0 0
722 1 72.90815256726412 3.5066743104172167 0.6949207251261834 -1 0 0
726 1 76.95855710726413 3.5066743104172162 0.6949207251261833 -1 0 0
728 1 74.93233337241526 4.677012319525885 -0.0021461793633699242 -1 0 0
731 1 81.00794018241525 1.1692590922818744 -0.002146179363369813 -1 0 0
730 1 81.00896164726413 3.5066743104172167 0.6949207251261835 -1 0 0
732 1 78.98273791241526 4.677012319525886 -0.002146179363369783 -1 0 0
736 1 83.03314245241526 4.677012319525884 -0.0021461793633700712 -1 0 0
735 1 85.05834472241524 1.1692590922818744 -0.0021461793633698327 -1 0 0
739 1 89.10874926241526 1.1692590922818746 -0.0021461793633695374 -1 0 0
734 1 85.05936618726413 3.506674310417217 0.6949207251261834 -1 0 0
738 1 89.10977072726413 3.506674310417211 0.6949207251261879 -1 0 0
740 1 87.08354699241525 4.6770123195258915 -0.0021461793633741474 -1 0 0
743 1 93.15915380241526 1.169259092281874 -0.002146179363369955 -1 0 0
742 1 93.16017526726414 3.506674310417223 0.6949207251261788 -1 0 0
744 1 91.13395153241525 4.677012319525885 -0.002146179363369922 -1 0 0
748 1 95.18435607241524 4.677012319525885 -0.0021461793633697616 -1 0 0
751 1 101.25996288241525 1.1692590922818746 -0.002146179363369611 -1 0 0
747 1 97.20955834241525 1.169259092281881 -0.0021461793633742437 -1 0 0
746 1 97.21057980726414 3.50667431041721 0.6949207251261879 -1 0 0
752 1 99.23476061241526 4.677012319525885 -0.002146179363369755 -1 0 0
853 1 2.0260731172641226 7.01442753766121 0.6949207251261805 0 0 0
855 1 4.050253922415245 8.184765546769881 -0.0021461793633750247 0 0 0
850 1 0.0008708472641213961 10.52218076490522 0.6949207251261805 0 0 0
854 1 4.051275387264131 10.52218076490522 0.6949207251261805 0 0 0
857 1 6.076477657264133 7.01442753766121 0.6949207251261804 0 0 0
861 1 10.126882197264129 7.0144275376612075 0.6949207251261827 0 0 0
859 1 8.100658462415241 8.184765546769878 -0.0021461793633725163 0 0 0
858 1 8.101679927264135 10.52218076490522 0.6949207251261807 0 0 0
865 1 14.177286737264136 7.014427537661214 0.6949207251261782 0 0 0
863 1 12.151063002415244 8.184765546769881 -0.0021461793633749523 0 0 0
867 1 16.201467542415234 8.184765546769878 -0.002146179363372524 0 0 0
862 1 12.152084467264128 10.522180764905217 0.694920725126183 0 0 0
866 1 16.202489007264127 10.52218076490522 0.6949207251261806 0 0 0
869 1 18.22769127726413 7.014427537661204 0.6949207251261852 0 0 0
873 1 22.27809581726412 7.014427537661209 0.6949207251261805 0 0 0
871 1 20.25187208241525 8.184765546769878 -0.0021461793633726182 0 0 0
870 1 20.252893547264126 10.52218076490522 0.6949207251261804 0 0 0
877 1 26.328500357264126 7.01442753766121 0.6949207251261806 0 0 0
875 1 24.30227662241525 8.184765546769878 -0.002146179363372766 0 0 0
879 1 28.35268116241525 8.18476554676988 -0.0021461793633726282 0 0 0
874 1 24.303298087264142 10.52218076490522 0.6949207251261804 0 0 0
878 1 28.35370262726413 10.522180764905215 0.6949207251261852 0 0 0
881 1 30.378904897264125 7.01442753766121 0.6949207251261805 0 0 0
885 1 34.42930943726414 7.01442753766121 0.6949207251261803 0 0 0
883 1 32.40308570241524 8.184765546769885 -0.0021461793633772643 0 0 0
882 1 32.40410716726412 10.52218076490522 0.6949207251261804 0 0 0
889 1 38.47971397726414 7.01442753766121 0.6949207251261805 0 0 0
887 1 36.45349024241523 8.184765546769878 -0.0021461793633725857 0 0 0
891 1 40.50389478241523 8.184765546769878 -0.0021461793633724417 0 0 0
886 1 36.454511707264125 10.52218076490522 0.6949207251261805 0 0 0
890 1 40.50491624726413 10.52218076490522 0.6949207251261805 0 0 0
893 1 42.530118517264135 7.014427537661204 0.6949207251261851 0 0 0
897 1 46.580523057264124 7.014427537661209 0.6949207251261805 0 0 0
895 1 44.55429932241525 8.184765546769878 -0.002146179363372619 0 0 0
894 1 44.55532078726412 10.52218076490522 0.6949207251261804 0 0 0
801 1 50.630927597264126 7.01442753766121 0.6949207251261807 -1 0 0
899 1 48.60470386241525 8.184765546769878 -0.002146179363372764 0 0 0
803 1 52.65510840241525 8.18476554676988 -0.0021461793633726946 -1 0 0
898 1 48.605725327264146 10.52218076490522 0.6949207251261804 0 0 0
802 1 52.656129867264134 10.522180764905217 0.694920725126183 -1 0 0
805 1 54.68133213726413 7.01442753766121 0.6949207251261806 -1 0 0
809 1 58.73173667726414 7.01442753766121 0.6949207251261803 -1 0 0
807 1 56.70551294241525 8.184765546769881 -0.002146179363375016 -1 0 0
806 1 56.70653440726413 10.52218076490522 0.6949207251261804 -1 0 0
813 1 62.78214121726413 7.0144275376612075 0.694920725126183 -1 0 0
811 1 60.75591748241524 8.184765546769878 -0.002146179363372515 -1 0 0
815 1 64.80632202241526 8.184765546769878 -0.0021461793633726915 -1 0 0
810 1 60.75693894726414 10.52218076490522 0.6949207251261807 -1 0 0
814 1 64.80734348726413 10.52218076490522 0.6949207251261805 -1 0 0
817 1 66.83254575726413 7.014427537661209 0.6949207251261804 -1 0 0
821 1 70.88295029726413 7.01442753766121 0.6949207251261806 -1 0 0
819 1 68.85672656241526 8.18476554676988 -0.002146179363372631 -1 0 0
818 1 68.85774802726414 10.522180764905215 0.6949207251261851 -1 0 0
825 1 74.93335483726413 7.01442753766121 0.6949207251261805 -1 0 0
823 1 72.90713110241526 8.184765546769878 -0.0021461793633727726 -1 0 0
827 1 76.95753564241525 8.184765546769885 -0.0021461793633771303 -1 0 0
822 1 72.90815256726412 10.52218076490522 0.6949207251261805 -1 0 0
826 1 76.95855710726413 10.52218076490522 0.6949207251261803 -1 0 0
829 1 78.98375937726414 7.014427537661204 0.694920725126185 -1 0 0
833 1 83.03416391726414 7.014427537661216 0.694920725126176 -1 0 0
831 1 81.00794018241525 8.184765546769878 -0.00214617936337276 -1 0 0
830 1 81.00896164726413 10.52218076490522 0.6949207251261805 -1 0 0
837 1 87.08456845726414 7.014427537661204 0.694920725126185 -1 0 0
835 1 85.05834472241524 8.184765546769878 -0.002146179363372593 -1 0 0
839 1 89.10874926241526 8.18476554676988 -0.002146179363372487 -1 0 0
834 1 85.05936618726413 10.52218076490522 0.6949207251261804 -1 0 0
838 1 89.10977072726413 10.522180764905215 0.6949207251261851 -1 0 0
841 1 91.13497299726413 7.01442753766121 0.6949207251261806 -1 0 0
845 1 95.18537753726413 7.01442753766121 0.6949207251261805 -1 0 0
843 1 93.15915380241526 8.184765546769878 -0.0021461793633729075 -1 0 0
842 1 93.16017526726414 10.522180764905228 0.6949207251261759 -1 0 0
851 1 101.25996288241525 8.18476554676988 -0.0021461793633725454 -1 0 0
849 1 99.23578207726413 7.014427537661204 0.6949207251261849 -1 0 0
847 1 97.20955834241525 8.184765546769885 -0.002146179363376992 -1 0 0
846 1 97.21057980726414 10.522180764905213 0.6949207251261851 -1 0 0
856 1 2.025051652415245 11.692518774013879 -0.0021461793633724482 0 0 0
953 1 2.0260731172641226 14.029933992149223 0.6949207251261806 0 0 0
955 1 4.050253922415245 15.200272001257872 -0.0021461793633748487 0 0 0
860 1 6.075456192415239 11.692518774013875 -0.0021461793633701905 0 0 0
864 1 10.125860732415243 11.692518774013875 -0.0021461793633700435 0 0 0
957 1 6.076477657264133 14.029933992149223 0.6949207251261809 0 0 0
961 1 10.126882197264129 14.02993399214922 0.6949207251261831 0 0 0
959 1 8.100658462415241 15.200272001257868 -0.0021461793633725072 0 0 0
868 1 14.17626527241525 11.692518774013875 -0.002146179363370002 0 0 0
965 1 14.177286737264136 14.029933992149227 0.6949207251261784 0 0 0
963 1 12.151063002415244 15.200272001257872 -0.002146179363374758 0 0 0
967 1 16.20146754241523 15.200272001257868 -0.00214617936337234 0 0 0
872 1 18.226669812415253 11.692518774013875 -0.0021461793633698522 0 0 0
876 1 22.27707435241524 11.69251877401388 -0.0021461793633747012 0 0 0
969 1 18.22769127726413 14.029933992149218 0.6949207251261854 0 0 0
973 1 22.27809581726412 14.029933992149223 0.6949207251261805 0 0 0
971 1 20.25187208241525 15.200272001257868 -0.002146179363372238 0 0 0
880 1 26.327478892415233 11.692518774013875 -0.002146179363369872 0 0 0
977 1 26.328500357264126 14.029933992149223 0.6949207251261807 0 0 0
975 1 24.30227662241525 15.200272001257868 -0.0021461793633723884 0 0 0
979 1 28.35268116241525 15.200272001257868 -0.002146179363372248 0 0 0
884 1 30.37788343241525 11.692518774013875 -0.0021461793633698535 0 0 0
888 1 34.42828797241525 11.692518774013875 -0.0021461793633699867 0 0 0
981 1 30.378904897264125 14.029933992149223 0.6949207251261806 0 0 0
985 1 34.429309437264145 14.029933992149223 0.6949207251261805 0 0 0
983 1 32.40308570241524 15.200272001257876 -0.0021461793633770895 0 0 0
892 1 38.47869251241525 11.692518774013875 -0.002146179363369992 0 0 0
989 1 38.47971397726415 14.029933992149223 0.6949207251261807 0 0 0
987 1 36.45349024241523 15.200272001257868 -0.0021461793633724023 0 0 0
991 1 40.50389478241523 15.200272001257868 -0.00214617936337226 0 0 0
896 1 42.52909705241525 11.692518774013875 -0.002146179363369852 0 0 0
900 1 46.57950159241524 11.69251877401388 -0.002146179363374692 0 0 0
993 1 42.530118517264135 14.029933992149216 0.6949207251261854 0 0 0
997 1 46.580523057264124 14.029933992149223 0.6949207251261806 0 0 0
995 1 44.55429932241525 15.200272001257868 -0.002146179363372239 0 0 0
804 1 50.629906132415236 11.692518774013871 -0.0021461793633676834 -1 0 0
901 1 50.630927597264126 14.029933992149223 0.6949207251261807 -1 0 0
999 1 48.60470386241525 15.200272001257868 -0.002146179363372384 0 0 0
903 1 52.65510840241525 15.200272001257868 -0.0021461793633723073 -1 0 0
808 1 54.68031067241525 11.692518774013875 -0.002146179363369925 -1 0 0
812 1 58.73071521241525 11.692518774013879 -0.002146179363372455 -1 0 0
905 1 54.68133213726413 14.029933992149223 0.6949207251261806 -1 0 0
909 1 58.73173667726414 14.029933992149223 0.6949207251261807 -1 0 0
907 1 56.70551294241525 15.200272001257872 -0.0021461793633748283 -1 0 0
816 1 62.78111975241525 11.692518774013871 -0.0021461793633676634 -1 0 0
913 1 62.78214121726413 14.02993399214922 0.6949207251261832 -1 0 0
911 1 60.75591748241524 15.200272001257868 -0.0021461793633725064 -1 0 0
915 1 64.80632202241526 15.200272001257868 -0.002146179363372304 -1 0 0
820 1 66.83152429241525 11.69251877401388 -0.0021461793633745603 -1 0 0
824 1 70.88192883241526 11.692518774013875 -0.0021461793633698488 -1 0 0
917 1 66.83254575726413 14.029933992149223 0.6949207251261805 -1 0 0
921 1 70.88295029726413 14.029933992149223 0.6949207251261807 -1 0 0
919 1 68.85672656241526 15.200272001257868 -0.0021461793633722496 -1 0 0
828 1 74.93233337241526 11.692518774013875 -0.0021461793633699836 -1 0 0
925 1 74.93335483726413 14.029933992149223 0.6949207251261806 -1 0 0
923 1 72.90713110241526 15.200272001257868 -0.0021461793633723884 -1 0 0
927 1 76.95753564241525 15.200272001257876 -0.002146179363376957 -1 0 0
832 1 78.98273791241526 11.692518774013875 -0.002146179363369854 -1 0 0
836 1 83.03314245241526 11.692518774013875 -0.002146179363370133 -1 0 0
929 1 78.98375937726414 14.029933992149218 0.6949207251261853 -1 0 0
933 1 83.03416391726414 14.02993399214923 0.694920725126176 -1 0 0
931 1 81.00794018241525 15.200272001257868 -0.0021461793633723784 -1 0 0
840 1 87.08354699241525 11.692518774013882 -0.002146179363374423 -1 0 0
937 1 87.08456845726414 14.029933992149216 0.6949207251261852 -1 0 0
935 1 85.05834472241524 15.200272001257868 -0.0021461793633724053 -1 0 0
939 1 89.10874926241526 15.200272001257868 -0.002146179363372114 -1 0 0
844 1 91.13395153241525 11.692518774013875 -0.0021461793633699897 -1 0 0
848 1 95.18435607241524 11.692518774013875 -0.002146179363370018 -1 0 0
941 1 91.13497299726413 14.029933992149223 0.6949207251261807 -1 0 0
945 1 95.18537753726413 14.029933992149223 0.6949207251261806 -1 0 0
943 1 93.15915380241526 15.200272001257868 -0.0021461793633725233 -1 0 0
951 1 101.25996288241525 15.200272001257868 -0.0021461793633721807 -1 0 0
852 1 99.23476061241526 11.692518774013875 -0.0021461793633698336 -1 0 0
949 1 99.23578207726413 14.029933992149216 0.6949207251261852 -1 0 0
947 1 97.20955834241525 15.200272001257876 -0.002146179363376821 -1 0 0
950 1 0.0008708472641213694 17.537687219393227 0.6949207251261832 0 0 0
954 1 4.051275387264131 17.537687219393227 0.6949207251261832 0 0 0
956 1 2.025051652415245 18.708025228501885 -0.0021461793633694064 0 0 0
1053 1 2.0260731172641226 21.045440446637205 0.6949207251261832 0 0 0
1055 1 4.050253922415245 22.21577845574589 -0.0021461793633750273 0 0 0
958 1 8.101679927264135 17.537687219393227 0.6949207251261833 0 0 0
960 1 6.075456192415239 18.70802522850188 -0.0021461793633671435 0 0 0
964 1 10.125860732415243 18.70802522850188 -0.0021461793633669934 0 0 0
1057 1 6.076477657264133 21.045440446637205 0.6949207251261834 0 0 0
1061 1 10.126882197264129 21.045440446637205 0.6949207251261856 0 0 0
1059 1 8.100658462415241 22.215778455745887 -0.0021461793633726967 0 0 0
962 1 12.152084467264128 17.537687219393224 0.6949207251261855 0 0 0
966 1 16.202489007264127 17.537687219393227 0.6949207251261832 0 0 0
968 1 14.17626527241525 18.70802522850188 -0.0021461793633669617 0 0 0
1065 1 14.177286737264136 21.04544044663721 0.6949207251261811 0 0 0
1063 1 12.151063002415244 22.21577845574589 -0.0021461793633749506 0 0 0
1067 1 16.201467542415234 22.215778455745887 -0.0021461793633726976 0 0 0
970 1 20.252893547264126 17.537687219393227 0.694920725126183 0 0 0
972 1 18.226669812415253 18.70802522850188 -0.0021461793633668017 0 0 0
976 1 22.27707435241524 18.70802522850189 -0.0021461793633716533 0 0 0
1069 1 18.22769127726413 21.0454404466372 0.694920725126188 0 0 0
1073 1 22.27809581726412 21.045440446637205 0.6949207251261831 0 0 0
1071 1 20.25187208241525 22.215778455745887 -0.0021461793633724352 0 0 0
974 1 24.303298087264142 17.537687219393227 0.6949207251261831 0 0 0
978 1 28.35370262726413 17.53768721939322 0.6949207251261879 0 0 0
980 1 26.327478892415233 18.70802522850188 -0.0021461793633668243 0 0 0
1077 1 26.328500357264126 21.04544044663721 0.6949207251261833 0 0 0
1075 1 24.30227662241525 22.215778455745887 -0.0021461793633725744 0 0 0
1079 1 28.35268116241525 22.21577845574589 -0.002146179363372435 0 0 0
982 1 32.40410716726412 17.537687219393227 0.694920725126183 0 0 0
984 1 30.37788343241525 18.70802522850188 -0.0021461793633668126 0 0 0
988 1 34.42828797241525 18.70802522850188 -0.002146179363366948 0 0 0
1081 1 30.378904897264125 21.04544044663721 0.6949207251261831 0 0 0
1085 1 34.42930943726414 21.04544044663721 0.6949207251261832 0 0 0
1083 1 32.40308570241524 22.215778455745895 -0.0021461793633772673 0 0 0
986 1 36.454511707264125 17.537687219393227 0.6949207251261832 0 0 0
990 1 40.50491624726413 17.537687219393227 0.6949207251261832 0 0 0
992 1 38.47869251241525 18.70802522850188 -0.0021461793633669513 0 0 0
1089 1 38.47971397726414 21.045440446637205 0.6949207251261834 0 0 0
1087 1 36.45349024241523 22.215778455745887 -0.0021461793633727622 0 0 0
1091 1 40.50389478241523 22.215778455745887 -0.002146179363372619 0 0 0
994 1 44.55532078726412 17.537687219393227 0.694920725126183 0 0 0
996 1 42.52909705241525 18.70802522850188 -0.002146179363366802 0 0 0
1000 1 46.57950159241524 18.70802522850189 -0.002146179363371645 0 0 0
1093 1 42.530118517264135 21.0454404466372 0.6949207251261879 0 0 0
1097 1 46.580523057264124 21.045440446637205 0.6949207251261831 0 0 0
1095 1 44.55429932241525 22.215778455745887 -0.002146179363372438 0 0 0
998 1 48.605725327264146 17.537687219393227 0.6949207251261831 0 0 0
902 1 52.656129867264134 17.537687219393224 0.6949207251261856 -1 0 0
904 1 50.629906132415236 18.708025228501878 -0.0021461793633646316 -1 0 0
1001 1 50.630927597264126 21.04544044663721 0.6949207251261833 -1 0 0
1099 1 48.60470386241525 22.215778455745887 -0.0021461793633725727 0 0 0
1003 1 52.65510840241525 22.215778455745887 -0.0021461793633725038 -1 0 0
906 1 56.70653440726413 17.537687219393227 0.6949207251261831 -1 0 0
908 1 54.68031067241525 18.70802522850188 -0.0021461793633668807 -1 0 0
912 1 58.73071521241525 18.708025228501885 -0.0021461793633694064 -1 0 0
1005 1 54.68133213726413 21.04544044663721 0.6949207251261832 -1 0 0
1009 1 58.73173667726414 21.045440446637205 0.6949207251261833 -1 0 0
1007 1 56.70551294241525 22.21577845574589 -0.002146179363375017 -1 0 0
910 1 60.75693894726414 17.537687219393227 0.6949207251261833 -1 0 0
914 1 64.80734348726413 17.537687219393227 0.6949207251261831 -1 0 0
916 1 62.78111975241525 18.708025228501878 -0.002146179363364615 -1 0 0
1013 1 62.78214121726413 21.045440446637205 0.6949207251261857 -1 0 0
1011 1 60.75591748241524 22.215778455745887 -0.0021461793633726963 -1 0 0
1015 1 64.80632202241526 22.215778455745887 -0.002146179363372504 -1 0 0
918 1 68.85774802726414 17.53768721939322 0.6949207251261877 -1 0 0
920 1 66.83152429241525 18.70802522850189 -0.0021461793633715145 -1 0 0
924 1 70.88192883241526 18.70802522850188 -0.002146179363366806 -1 0 0
1017 1 66.83254575726413 21.045440446637205 0.6949207251261831 -1 0 0
1021 1 70.88295029726413 21.04544044663721 0.6949207251261833 -1 0 0
1019 1 68.85672656241526 22.21577845574589 -0.0021461793633724352 -1 0 0
922 1 72.90815256726412 17.537687219393227 0.6949207251261831 -1 0 0
926 1 76.95855710726413 17.537687219393227 0.694920725126183 -1 0 0
928 1 74.93233337241526 18.70802522850188 -0.0021461793633669414 -1 0 0
1025 1 74.93335483726413 21.04544044663721 0.6949207251261832 -1 0 0
1023 1 72.90713110241526 22.215778455745887 -0.00214617936337258 -1 0 0
1027 1 76.95753564241525 22.215778455745895 -0.002146179363377133 -1 0 0
930 1 81.00896164726413 17.537687219393227 0.6949207251261832 -1 0 0
932 1 78.98273791241526 18.70802522850188 -0.0021461793633668043 -1 0 0
936 1 83.03314245241526 18.70802522850188 -0.0021461793633670914 -1 0 0
1029 1 78.98375937726414 21.0454404466372 0.6949207251261877 -1 0 0
1033 1 83.03416391726414 21.045440446637212 0.6949207251261788 -1 0 0
1031 1 81.00794018241525 22.215778455745887 -0.0021461793633725775 -1 0 0
934 1 85.05936618726413 17.537687219393227 0.6949207251261831 -1 0 0
938 1 89.10977072726413 17.53768721939322 0.6949207251261877 -1 0 0
940 1 87.08354699241525 18.70802522850189 -0.0021461793633713784 -1 0 0
1037 1 87.08456845726414 21.0454404466372 0.6949207251261877 -1 0 0
1035 1 85.05834472241524 22.215778455745887 -0.0021461793633727657 -1 0 0
1039 1 89.10874926241526 22.215778455745887 -0.0021461793633722986 -1 0 0
942 1 93.16017526726414 17.537687219393234 0.6949207251261784 -1 0 0
944 1 91.13395153241525 18.70802522850188 -0.0021461793633669457 -1 0 0
948 1 95.18435607241524 18.70802522850188 -0.002146179363366971 -1 0 0
1041 1 91.13497299726413 21.04544044663721 0.6949207251261833 -1 0 0
1045 1 95.18537753726413 21.04544044663721 0.6949207251261832 -1 0 0
1043 1 93.15915380241526 22.215778455745887 -0.0021461793633727154 -1 0 0
1051 1 101.25996288241525 22.21577845574589 -0.0021461793633723645 -1 0 0
946 1 97.21057980726414 17.53768721939322 0.6949207251261877 -1 0 0
952 1 99.23476061241526 18.70802522850188 -0.0021461793633667835 -1 0 0
1049 1 99.23578207726413 21.0454404466372 0.6949207251261877 -1 0 0
1047 1 97.20955834241525 22.215778455745895 -0.0021461793633769937 -1 0 0
1050 1 0.0008708472641213779 24.553193673881214 0.6949207251261778 0 0 0
1054 1 4.051275387264131 24.553193673881214 0.6949207251261778 0 0 0
1056 1 2.025051652415245 25.723531682989872 -0.0021461793633748643 0 0 0
1153 1 2.0260731172641226 28.060946901125227 0.6949207251261831 0 0 0
1058 1 8.101679927264135 24.553193673881214 0.6949207251261779 0 0 0
1060 1 6.075456192415239 25.72353168298987 -0.0021461793633726148 0 0 0
1064 1 10.125860732415243 25.72353168298987 -0.0021461793633724665 0 0 0
1157 1 6.076477657264133 28.060946901125227 0.6949207251261833 0 0 0
1161 1 10.126882197264129 28.060946901125224 0.6949207251261855 0 0 0
1062 1 12.152084467264128 24.55319367388121 0.6949207251261801 0 0 0
1066 1 16.202489007264127 24.553193673881214 0.6949207251261778 0 0 0
1068 1 14.17626527241525 25.72353168298987 -0.002146179363372429 0 0 0
1165 1 14.177286737264136 28.06094690112523 0.6949207251261809 0 0 0
1070 1 20.252893547264126 24.553193673881214 0.6949207251261775 0 0 0
1072 1 18.226669812415253 25.72353168298987 -0.0021461793633722804 0 0 0
1076 1 22.27707435241524 25.723531682989876 -0.00214617936337713 0 0 0
1169 1 18.22769127726413 28.06094690112522 0.6949207251261879 0 0 0
1173 1 22.27809581726412 28.060946901125227 0.694920725126183 0 0 0
1074 1 24.303298087264142 24.553193673881214 0.6949207251261776 0 0 0
1078 1 28.35370262726413 24.553193673881207 0.6949207251261824 0 0 0
1080 1 26.327478892415233 25.72353168298987 -0.0021461793633722973 0 0 0
1177 1 26.328500357264126 28.060946901125227 0.6949207251261832 0 0 0
1082 1 32.40410716726412 24.553193673881214 0.6949207251261775 0 0 0
1084 1 30.37788343241525 25.72353168298987 -0.00214617936337227 0 0 0
1088 1 34.42828797241525 25.72353168298987 -0.0021461793633724144 0 0 0
1181 1 30.378904897264125 28.060946901125227 0.6949207251261831 0 0 0
1185 1 34.429309437264145 28.060946901125227 0.694920725126183 0 0 0
1086 1 36.454511707264125 24.553193673881214 0.6949207251261778 0 0 0
1090 1 40.50491624726413 24.553193673881214 0.6949207251261778 0 0 0
1092 1 38.47869251241525 25.72353168298987 -0.0021461793633724188 0 0 0
1189 1 38.47971397726415 28.060946901125227 0.6949207251261832 0 0 0
1094 1 44.55532078726412 24.553193673881214 0.6949207251261775 0 0 0
1096 1 42.52909705241525 25.72353168298987 -0.0021461793633722782 0 0 0
1100 1 46.57950159241524 25.723531682989876 -0.0021461793633771207 0 0 0
1193 1 42.530118517264135 28.06094690112522 0.6949207251261879 0 0 0
1197 1 46.580523057264124 28.060946901125227 0.6949207251261831 0 0 0
1098 1 48.605725327264146 24.553193673881214 0.6949207251261776 0 0 0
1002 1 52.656129867264134 24.55319367388121 0.6949207251261802 -1 0 0
1004 1 50.629906132415236 25.723531682989865 -0.002146179363370107 -1 0 0
1101 1 50.630927597264126 28.060946901125227 0.6949207251261832 -1 0 0
1006 1 56.70653440726413 24.553193673881214 0.6949207251261776 -1 0 0
1008 1 54.68031067241525 25.72353168298987 -0.0021461793633723433 -1 0 0
1012 1 58.73071521241525 25.723531682989872 -0.0021461793633748773 -1 0 0
1105 1 54.68133213726413 28.060946901125227 0.6949207251261831 -1 0 0
1109 1 58.73173667726414 28.060946901125227 0.6949207251261832 -1 0 0
1010 1 60.75693894726414 24.553193673881214 0.6949207251261779 -1 0 0
1014 1 64.80734348726413 24.553193673881214 0.6949207251261776 -1 0 0
1016 1 62.78111975241525 25.723531682989865 -0.0021461793633700895 -1 0 0
1113 1 62.78214121726413 28.060946901125224 0.6949207251261856 -1 0 0
1018 1 68.85774802726414 24.553193673881207 0.6949207251261823 -1 0 0
1020 1 66.83152429241525 25.723531682989876 -0.002146179363376989 -1 0 0
1024 1 70.88192883241526 25.72353168298987 -0.002146179363372265 -1 0 0
1117 1 66.83254575726413 28.060946901125227 0.694920725126183 -1 0 0
1121 1 70.88295029726413 28.060946901125227 0.6949207251261832 -1 0 0
1022 1 72.90815256726412 24.553193673881214 0.6949207251261776 -1 0 0
1026 1 76.95855710726413 24.553193673881214 0.6949207251261775 -1 0 0
1028 1 74.93233337241526 25.72353168298987 -0.0021461793633724005 -1 0 0
1125 1 74.93335483726413 28.060946901125227 0.6949207251261831 -1 0 0
1030 1 81.00896164726413 24.553193673881214 0.6949207251261778 -1 0 0
1032 1 78.98273791241526 25.72353168298987 -0.002146179363372279 -1 0 0
1036 1 83.03314245241526 25.72353168298987 -0.0021461793633725584 -1 0 0
1129 1 78.98375937726414 28.06094690112522 0.6949207251261877 -1 0 0
1133 1 83.03416391726414 28.060946901125234 0.6949207251261784 -1 0 0
1034 1 85.05936618726413 24.553193673881214 0.6949207251261776 -1 0 0
1038 1 89.10977072726413 24.553193673881207 0.6949207251261823 -1 0 0
1040 1 87.08354699241525 25.723531682989876 -0.0021461793633768484 -1 0 0
1137 1 87.08456845726414 28.06094690112522 0.6949207251261876 -1 0 0
1042 1 93.16017526726414 24.55319367388122 0.694920725126173 -1 0 0
1044 1 91.13395153241525 25.72353168298987 -0.0021461793633724066 -1 0 0
1048 1 95.18435607241524 25.72353168298987 -0.0021461793633724443 -1 0 0
1141 1 91.13497299726413 28.060946901125227 0.6949207251261832 -1 0 0
1145 1 95.18537753726413 28.060946901125227 0.6949207251261831 -1 0 0
1046 1 97.21057980726414 24.553193673881207 0.6949207251261823 -1 0 0
1052 1 99.23476061241526 25.72353168298987 -0.0021461793633722587 -1 0 0
1149 1 99.23578207726413 28.06094690112522 0.6949207251261876 -1 0 0
1155 1 4.050253922415245 29.231284910233885 -0.0021461793633694103 0 0 0
1150 1 0.0008708472641214493 31.56870012836921 0.6949207251261833 0 0 0
1154 1 4.051275387264131 31.568700128369205 0.6949207251261833 0 0 0
1156 1 2.025051652415245 32.73903813747789 -0.002146179363375023 0 0 0
1159 1 8.10065846241524 29.23128491023388 -0.002146179363367066 0 0 0
1158 1 8.101679927264135 31.568700128369205 0.6949207251261834 0 0 0
1160 1 6.075456192415239 32.73903813747789 -0.0021461793633727735 0 0 0
1164 1 10.125860732415243 32.73903813747789 -0.002146179363372624 0 0 0
1163 1 12.151063002415244 29.231284910233885 -0.002146179363369335 0 0 0
1167 1 16.20146754241523 29.23128491023388 -0.002146179363366899 0 0 0
1162 1 12.152084467264128 31.568700128369205 0.6949207251261856 0 0 0
1166 1 16.202489007264127 31.56870012836921 0.6949207251261833 0 0 0
1168 1 14.17626527241525 32.73903813747789 -0.002146179363372589 0 0 0
1171 1 20.25187208241525 29.23128491023388 -0.0021461793633668082 0 0 0
1170 1 20.252893547264126 31.56870012836921 0.6949207251261831 0 0 0
1172 1 18.226669812415253 32.73903813747789 -0.0021461793633724326 0 0 0
1176 1 22.27707435241524 32.7390381374779 -0.0021461793633772725 0 0 0
1175 1 24.30227662241525 29.23128491023388 -0.00214617936336695 0 0 0
1179 1 28.35268116241525 29.23128491023388 -0.0021461793633668048 0 0 0
1174 1 24.303298087264142 31.56870012836921 0.6949207251261833 0 0 0
1178 1 28.35370262726413 31.5687001283692 0.694920725126188 0 0 0
1180 1 26.327478892415233 32.73903813747789 -0.0021461793633726248 0 0 0
1183 1 32.40308570241524 29.23128491023389 -0.0021461793633716464 0 0 0