LAMMPS data file via write_data, version 29 Aug 2024, timestep = 0, units = metal

1400 atoms
1 atom types

0 101.2601135 xlo xhi
0 98.217090362832 ylo yhi
0 10.993359 zlo zhi

Masses

1 72.63

Atoms # atomic

751 1 2.025199563604474e-08 1.169251064055004 0 0 0 0
753 1 2.025202270000001 0 0.6882282468359993 0 0 0
755 1 4.050404560251998 1.169251064055004 0 0 0 0
757 1 6.0756068099999965 0 0.6882282468359993 0 0 0
759 1 8.100809100252 1.169251064055004 0 0 0 0
761 1 10.126011349999999 0 0.6882282468359993 0 0 0
763 1 12.151213640251996 1.169251064055004 0 0 0 0
765 1 14.176415889999994 0 0.6882282468359993 0 0 0
767 1 16.201618180252005 1.169251064055004 0 0 0 0
769 1 18.226820429999997 0 0.6882282468359993 0 0 0
771 1 20.252022720251993 1.169251064055004 0 0 0 0
773 1 22.27722497 0 0.6882282468359993 0 0 0
775 1 24.302427260251996 1.169251064055004 0 0 0 0
777 1 26.32762951 0 0.6882282468359993 0 0 0
779 1 28.352831800251998 1.169251064055004 0 0 0 0
781 1 30.378034050000004 0 0.6882282468359993 0 0 0
783 1 32.403236340252 1.169251064055004 0 0 0 0
785 1 34.42843858999999 0 0.6882282468359993 0 0 0
787 1 36.453640880252 1.169251064055004 0 0 0 0
789 1 38.478843129999994 0 0.6882282468359993 0 0 0
791 1 40.504045420252005 1.169251064055004 0 0 0 0
793 1 42.52924767 0 0.6882282468359993 0 0 0
795 1 44.55444996025199 1.169251064055004 0 0 0 0
797 1 46.57965221 0 0.6882282468359993 0 0 0
799 1 48.604854500251996 1.169251064055004 0 0 0 0
701 1 50.63005675 0 0.6882282468359993 -1 0 0
703 1 52.655259040252 1.169251064055004 0 -1 0 0
705 1 54.680461290000004 0 0.6882282468359993 -1 0 0
707 1 56.705663580252 1.169251064055004 0 -1 0 0
709 1 58.73086583 0 0.6882282468359993 -1 0 0
711 1 60.756068120252 1.169251064055004 0 -1 0 0
713 1 62.78127037 0 0.6882282468359993 -1 0 0
715 1 64.806472660252 1.169251064055004 0 -1 0 0
717 1 66.83167491 0 0.6882282468359993 -1 0 0
719 1 68.856877200252 1.169251064055004 0 -1 0 0
721 1 70.88207945 0 0.6882282468359993 -1 0 0
723 1 72.907281740252 1.169251064055004 0 -1 0 0
725 1 74.93248399000001 0 0.6882282468359993 -1 0 0
727 1 76.957686280252 1.169251064055004 0 -1 0 0
729 1 78.98288853 0 0.6882282468359993 -1 0 0
731 1 81.008090820252 1.169251064055004 0 -1 0 0
733 1 83.03329307 0 0.6882282468359993 -1 0 0
735 1 85.05849536025201 1.169251064055004 0 -1 0 0
737 1 87.08369761 0 0.6882282468359993 -1 0 0
739 1 89.108899900252 1.169251064055004 0 -1 0 0
741 1 91.13410215 0 0.6882282468359993 -1 0 0
743 1 93.159304440252 1.169251064055004 0 -1 0 0
745 1 95.18450669 0 0.6882282468359993 -1 0 0
747 1 97.209708980252 1.169251064055004 0 -1 0 0
749 1 99.23491123 0 0.6882282468359993 -1 0 0
750 1 0 3.5077532272440024 0.6882282468359993 0 0 0
754 1 4.050404539999995 3.5077532272440024 0.6882282468359993 0 0 0
758 1 8.100809079999998 3.5077532272440024 0.6882282468359993 0 0 0
762 1 12.15121362 3.5077532272440024 0.6882282468359993 0 0 0
766 1 16.201618160000002 3.5077532272440024 0.6882282468359993 0 0 0
770 1 20.252022700000005 3.5077532272440024 0.6882282468359993 0 0 0
774 1 24.302427239999993 3.5077532272440024 0.6882282468359993 0 0 0
778 1 28.352831779999995 3.5077532272440024 0.6882282468359993 0 0 0
782 1 32.40323632 3.5077532272440024 0.6882282468359993 0 0 0
786 1 36.45364086 3.5077532272440024 0.6882282468359993 0 0 0
790 1 40.5040454 3.5077532272440024 0.6882282468359993 0 0 0
794 1 44.554449940000005 3.5077532272440024 0.6882282468359993 0 0 0
798 1 48.60485447999999 3.5077532272440024 0.6882282468359993 0 0 0
702 1 52.65525902 3.5077532272440024 0.6882282468359993 -1 0 0
706 1 56.705663560000005 3.5077532272440024 0.6882282468359993 -1 0 0
710 1 60.7560681 3.5077532272440024 0.6882282468359993 -1 0 0
714 1 64.80647264000001 3.5077532272440024 0.6882282468359993 -1 0 0
718 1 68.85687718 3.5077532272440024 0.6882282468359993 -1 0 0
722 1 72.90728172 3.5077532272440024 0.6882282468359993 -1 0 0
726 1 76.95768626 3.5077532272440024 0.6882282468359993 -1 0 0
730 1 81.0080908 3.5077532272440024 0.6882282468359993 -1 0 0
734 1 85.05849534000001 3.5077532272440024 0.6882282468359993 -1 0 0
738 1 89.10889988 3.5077532272440024 0.6882282468359993 -1 0 0
742 1 93.15930442 3.5077532272440024 0.6882282468359993 -1 0 0
746 1 97.20970896 3.5077532272440024 0.6882282468359993 -1 0 0
756 1 2.025202290251997 4.677004291298999 0 0 0 0
760 1 6.075606830251999 4.677004291298999 0 0 0 0
764 1 10.126011370252002 4.677004291298999 0 0 0 0
768 1 14.176415910251997 4.677004291298999 0 0 0 0
772 1 18.226820450252 4.677004291298999 0 0 0 0
776 1 22.277224990252 4.677004291298999 0 0 0 0
780 1 26.327629530252004 4.677004291298999 0 0 0 0
784 1 30.378034070251992 4.677004291298999 0 0 0 0
788 1 34.428438610251995 4.677004291298999 0 0 0 0
792 1 38.478843150252 4.677004291298999 0 0 0 0
796 1 42.529247690252 4.677004291298999 0 0 0 0
800 1 46.579652230252 4.677004291298999 0 0 0 0
704 1 50.630056770252004 4.677004291298999 0 -1 0 0
708 1 54.680461310252 4.677004291298999 0 -1 0 0
712 1 58.730865850252 4.677004291298999 0 -1 0 0
716 1 62.781270390252004 4.677004291298999 0 -1 0 0
720 1 66.831674930252 4.677004291298999 0 -1 0 0
724 1 70.882079470252 4.677004291298999 0 -1 0 0
728 1 74.932484010252 4.677004291298999 0 -1 0 0
732 1 78.982888550252 4.677004291298999 0 -1 0 0
736 1 83.033293090252 4.677004291298999 0 -1 0 0
740 1 87.083697630252 4.677004291298999 0 -1 0 0
744 1 91.13410217025199 4.677004291298999 0 -1 0 0
748 1 95.18450671025201 4.677004291298999 0 -1 0 0
752 1 99.234911250252 4.677004291298999 0 -1 0 0
853 1 2.025202270000001 7.015506454488005 0.6882282468359993 0 0 0
857 1 6.0756068099999965 7.015506454488005 0.6882282468359993 0 0 0
861 1 10.126011349999999 7.015506454488005 0.6882282468359993 0 0 0
865 1 14.176415889999994 7.015506454488005 0.6882282468359993 0 0 0
869 1 18.226820429999997 7.015506454488005 0.6882282468359993 0 0 0
873 1 22.27722497 7.015506454488005 0.6882282468359993 0 0 0
877 1 26.32762951 7.015506454488005 0.6882282468359993 0 0 0
881 1 30.378034050000004 7.015506454488005 0.6882282468359993 0 0 0
885 1 34.42843858999999 7.015506454488005 0.6882282468359993 0 0 0
889 1 38.478843129999994 7.015506454488005 0.6882282468359993 0 0 0
893 1 42.52924767 7.015506454488005 0.6882282468359993 0 0 0
897 1 46.57965221 7.015506454488005 0.6882282468359993 0 0 0
801 1 50.63005675 7.015506454488005 0.6882282468359993 -1 0 0
805 1 54.680461290000004 7.015506454488005 0.6882282468359993 -1 0 0
809 1 58.73086583 7.015506454488005 0.6882282468359993 -1 0 0
813 1 62.78127037 7.015506454488005 0.6882282468359993 -1 0 0
817 1 66.83167491 7.015506454488005 0.6882282468359993 -1 0 0
821 1 70.88207945 7.015506454488005 0.6882282468359993 -1 0 0
825 1 74.93248399000001 7.015506454488005 0.6882282468359993 -1 0 0
829 1 78.98288853 7.015506454488005 0.6882282468359993 -1 0 0
833 1 83.03329307 7.015506454488005 0.6882282468359993 -1 0 0
837 1 87.08369761 7.015506454488005 0.6882282468359993 -1 0 0
841 1 91.13410215 7.015506454488005 0.6882282468359993 -1 0 0
845 1 95.18450669 7.015506454488005 0.6882282468359993 -1 0 0
849 1 99.23491123 7.015506454488005 0.6882282468359993 -1 0 0
851 1 2.025199563604474e-08 8.184757518543002 0 0 0 0
855 1 4.050404560251998 8.184757518543002 0 0 0 0
859 1 8.100809100252 8.184757518543002 0 0 0 0
863 1 12.151213640251996 8.184757518543002 0 0 0 0
867 1 16.201618180252005 8.184757518543002 0 0 0 0
871 1 20.252022720251993 8.184757518543002 0 0 0 0
875 1 24.302427260251996 8.184757518543002 0 0 0 0
879 1 28.352831800251998 8.184757518543002 0 0 0 0
883 1 32.403236340252 8.184757518543002 0 0 0 0
887 1 36.453640880252 8.184757518543002 0 0 0 0
891 1 40.504045420252005 8.184757518543002 0 0 0 0
895 1 44.55444996025199 8.184757518543002 0 0 0 0
899 1 48.604854500251996 8.184757518543002 0 0 0 0
803 1 52.655259040252 8.184757518543002 0 -1 0 0
807 1 56.705663580252 8.184757518543002 0 -1 0 0
811 1 60.756068120252 8.184757518543002 0 -1 0 0
815 1 64.806472660252 8.184757518543002 0 -1 0 0
819 1 68.856877200252 8.184757518543002 0 -1 0 0
823 1 72.907281740252 8.184757518543002 0 -1 0 0
827 1 76.957686280252 8.184757518543002 0 -1 0 0
831 1 81.008090820252 8.184757518543002 0 -1 0 0
835 1 85.05849536025201 8.184757518543002 0 -1 0 0
839 1 89.108899900252 8.184757518543002 0 -1 0 0
843 1 93.159304440252 8.184757518543002 0 -1 0 0
847 1 97.209708980252 8.184757518543002 0 -1 0 0
850 1 0 10.523259681732 0.6882282468359993 0 0 0
854 1 4.050404539999995 10.523259681732 0.6882282468359993 0 0 0
858 1 8.100809079999998 10.523259681732 0.6882282468359993 0 0 0
862 1 12.15121362 10.523259681732 0.6882282468359993 0 0 0
866 1 16.201618160000002 10.523259681732 0.6882282468359993 0 0 0
870 1 20.252022700000005 10.523259681732 0.6882282468359993 0 0 0
874 1 24.302427239999993 10.523259681732 0.6882282468359993 0 0 0
878 1 28.352831779999995 10.523259681732 0.6882282468359993 0 0 0
882 1 32.40323632 10.523259681732 0.6882282468359993 0 0 0
886 1 36.45364086 10.523259681732 0.6882282468359993 0 0 0
890 1 40.5040454 10.523259681732 0.6882282468359993 0 0 0
894 1 44.554449940000005 10.523259681732 0.6882282468359993 0 0 0
898 1 48.60485447999999 10.523259681732 0.6882282468359993 0 0 0
802 1 52.65525902 10.523259681732 0.6882282468359993 -1 0 0
806 1 56.705663560000005 10.523259681732 0.6882282468359993 -1 0 0
810 1 60.7560681 10.523259681732 0.6882282468359993 -1 0 0
814 1 64.80647264000001 10.523259681732 0.6882282468359993 -1 0 0
818 1 68.85687718 10.523259681732 0.6882282468359993 -1 0 0
822 1 72.90728172 10.523259681732 0.6882282468359993 -1 0 0
826 1 76.95768626 10.523259681732 0.6882282468359993 -1 0 0
830 1 81.0080908 10.523259681732 0.6882282468359993 -1 0 0
834 1 85.05849534000001 10.523259681732 0.6882282468359993 -1 0 0
838 1 89.10889988 10.523259681732 0.6882282468359993 -1 0 0
842 1 93.15930442 10.523259681732 0.6882282468359993 -1 0 0
846 1 97.20970896 10.523259681732 0.6882282468359993 -1 0 0
856 1 2.025202290251997 11.692510745787004 0 0 0 0
860 1 6.075606830251999 11.692510745787004 0 0 0 0
864 1 10.126011370252002 11.692510745787004 0 0 0 0
868 1 14.176415910251997 11.692510745787004 0 0 0 0
872 1 18.226820450252 11.692510745787004 0 0 0 0
876 1 22.277224990252 11.692510745787004 0 0 0 0
880 1 26.327629530252004 11.692510745787004 0 0 0 0
884 1 30.378034070251992 11.692510745787004 0 0 0 0
888 1 34.428438610251995 11.692510745787004 0 0 0 0
892 1 38.478843150252 11.692510745787004 0 0 0 0
896 1 42.529247690252 11.692510745787004 0 0 0 0
900 1 46.579652230252 11.692510745787004 0 0 0 0
804 1 50.630056770252004 11.692510745787004 0 -1 0 0
808 1 54.680461310252 11.692510745787004 0 -1 0 0
812 1 58.730865850252 11.692510745787004 0 -1 0 0
816 1 62.781270390252004 11.692510745787004 0 -1 0 0
820 1 66.831674930252 11.692510745787004 0 -1 0 0
824 1 70.882079470252 11.692510745787004 0 -1 0 0
828 1 74.932484010252 11.692510745787004 0 -1 0 0
832 1 78.982888550252 11.692510745787004 0 -1 0 0
836 1 83.033293090252 11.692510745787004 0 -1 0 0
840 1 87.083697630252 11.692510745787004 0 -1 0 0
844 1 91.13410217025199 11.692510745787004 0 -1 0 0
848 1 95.18450671025201 11.692510745787004 0 -1 0 0
852 1 99.234911250252 11.692510745787004 0 -1 0 0
953 1 2.025202270000001 14.031012908976003 0.6882282468359993 0 0 0
957 1 6.0756068099999965 14.031012908976003 0.6882282468359993 0 0 0
961 1 10.126011349999999 14.031012908976003 0.6882282468359993 0 0 0
965 1 14.176415889999994 14.031012908976003 0.6882282468359993 0 0 0
969 1 18.226820429999997 14.031012908976003 0.6882282468359993 0 0 0
973 1 22.27722497 14.031012908976003 0.6882282468359993 0 0 0
977 1 26.32762951 14.031012908976003 0.6882282468359993 0 0 0
981 1 30.378034050000004 14.031012908976003 0.6882282468359993 0 0 0
985 1 34.42843858999999 14.031012908976003 0.6882282468359993 0 0 0
989 1 38.478843129999994 14.031012908976003 0.6882282468359993 0 0 0
993 1 42.52924767 14.031012908976003 0.6882282468359993 0 0 0
997 1 46.57965221 14.031012908976003 0.6882282468359993 0 0 0
901 1 50.63005675 14.031012908976003 0.6882282468359993 -1 0 0
905 1 54.680461290000004 14.031012908976003 0.6882282468359993 -1 0 0
909 1 58.73086583 14.031012908976003 0.6882282468359993 -1 0 0
913 1 62.78127037 14.031012908976003 0.6882282468359993 -1 0 0
917 1 66.83167491 14.031012908976003 0.6882282468359993 -1 0 0
921 1 70.88207945 14.031012908976003 0.6882282468359993 -1 0 0
925 1 74.93248399000001 14.031012908976003 0.6882282468359993 -1 0 0
929 1 78.98288853 14.031012908976003 0.6882282468359993 -1 0 0
933 1 83.03329307 14.031012908976003 0.6882282468359993 -1 0 0
937 1 87.08369761 14.031012908976003 0.6882282468359993 -1 0 0
941 1 91.13410215 14.031012908976003 0.6882282468359993 -1 0 0
945 1 95.18450669 14.031012908976003 0.6882282468359993 -1 0 0
949 1 99.23491123 14.031012908976003 0.6882282468359993 -1 0 0
951 1 2.025199563604474e-08 15.200263973031007 0 0 0 0
955 1 4.050404560251998 15.200263973031007 0 0 0 0
959 1 8.100809100252 15.200263973031007 0 0 0 0
963 1 12.151213640251996 15.200263973031007 0 0 0 0
967 1 16.201618180252005 15.200263973031007 0 0 0 0
971 1 20.252022720251993 15.200263973031007 0 0 0 0
975 1 24.302427260251996 15.200263973031007 0 0 0 0
979 1 28.352831800251998 15.200263973031007 0 0 0 0
983 1 32.403236340252 15.200263973031007 0 0 0 0
987 1 36.453640880252 15.200263973031007 0 0 0 0
991 1 40.504045420252005 15.200263973031007 0 0 0 0
995 1 44.55444996025199 15.200263973031007 0 0 0 0
999 1 48.604854500251996 15.200263973031007 0 0 0 0
903 1 52.655259040252 15.200263973031007 0 -1 0 0
907 1 56.705663580252 15.200263973031007 0 -1 0 0
911 1 60.756068120252 15.200263973031007 0 -1 0 0
915 1 64.806472660252 15.200263973031007 0 -1 0 0
919 1 68.856877200252 15.200263973031007 0 -1 0 0
923 1 72.907281740252 15.200263973031007 0 -1 0 0
927 1 76.957686280252 15.200263973031007 0 -1 0 0
931 1 81.008090820252 15.200263973031007 0 -1 0 0
935 1 85.05849536025201 15.200263973031007 0 -1 0 0
939 1 89.108899900252 15.200263973031007 0 -1 0 0
943 1 93.159304440252 15.200263973031007 0 -1 0 0
947 1 97.209708980252 15.200263973031007 0 -1 0 0
950 1 0 17.538766136219998 0.6882282468359993 0 0 0
954 1 4.050404539999995 17.538766136219998 0.6882282468359993 0 0 0
958 1 8.100809079999998 17.538766136219998 0.6882282468359993 0 0 0
962 1 12.15121362 17.538766136219998 0.6882282468359993 0 0 0
966 1 16.201618160000002 17.538766136219998 0.6882282468359993 0 0 0
970 1 20.252022700000005 17.538766136219998 0.6882282468359993 0 0 0
974 1 24.302427239999993 17.538766136219998 0.6882282468359993 0 0 0
978 1 28.352831779999995 17.538766136219998 0.6882282468359993 0 0 0
982 1 32.40323632 17.538766136219998 0.6882282468359993 0 0 0
986 1 36.45364086 17.538766136219998 0.6882282468359993 0 0 0
990 1 40.5040454 17.538766136219998 0.6882282468359993 0 0 0
994 1 44.554449940000005 17.538766136219998 0.6882282468359993 0 0 0
998 1 48.60485447999999 17.538766136219998 0.6882282468359993 0 0 0
902 1 52.65525902 17.538766136219998 0.6882282468359993 -1 0 0
906 1 56.705663560000005 17.538766136219998 0.6882282468359993 -1 0 0
910 1 60.7560681 17.538766136219998 0.6882282468359993 -1 0 0
914 1 64.80647264000001 17.538766136219998 0.6882282468359993 -1 0 0
918 1 68.85687718 17.538766136219998 0.6882282468359993 -1 0 0
922 1 72.90728172 17.538766136219998 0.6882282468359993 -1 0 0
926 1 76.95768626 17.538766136219998 0.6882282468359993 -1 0 0
930 1 81.0080908 17.538766136219998 0.6882282468359993 -1 0 0
934 1 85.05849534000001 17.538766136219998 0.6882282468359993 -1 0 0
938 1 89.10889988 17.538766136219998 0.6882282468359993 -1 0 0
942 1 93.15930442 17.538766136219998 0.6882282468359993 -1 0 0
946 1 97.20970896 17.538766136219998 0.6882282468359993 -1 0 0
956 1 2.025202290251997 18.708017200275002 0 0 0 0
960 1 6.075606830251999 18.708017200275002 0 0 0 0
964 1 10.126011370252002 18.708017200275002 0 0 0 0
968 1 14.176415910251997 18.708017200275002 0 0 0 0
972 1 18.226820450252 18.708017200275002 0 0 0 0
976 1 22.277224990252 18.708017200275002 0 0 0 0
980 1 26.327629530252004 18.708017200275002 0 0 0 0
984 1 30.378034070251992 18.708017200275002 0 0 0 0
988 1 34.428438610251995 18.708017200275002 0 0 0 0
992 1 38.478843150252 18.708017200275002 0 0 0 0
996 1 42.529247690252 18.708017200275002 0 0 0 0
1000 1 46.579652230252 18.708017200275002 0 0 0 0
904 1 50.630056770252004 18.708017200275002 0 -1 0 0
908 1 54.680461310252 18.708017200275002 0 -1 0 0
912 1 58.730865850252 18.708017200275002 0 -1 0 0
916 1 62.781270390252004 18.708017200275002 0 -1 0 0
920 1 66.831674930252 18.708017200275002 0 -1 0 0
924 1 70.882079470252 18.708017200275002 0 -1 0 0
928 1 74.932484010252 18.708017200275002 0 -1 0 0
932 1 78.982888550252 18.708017200275002 0 -1 0 0
936 1 83.033293090252 18.708017200275002 0 -1 0 0
940 1 87.083697630252 18.708017200275002 0 -1 0 0
944 1 91.13410217025199 18.708017200275002 0 -1 0 0
948 1 95.18450671025201 18.708017200275002 0 -1 0 0
952 1 99.234911250252 18.708017200275002 0 -1 0 0
1053 1 2.025202270000001 21.046519363464007 0.6882282468359993 0 0 0
1057 1 6.0756068099999965 21.046519363464007 0.6882282468359993 0 0 0
1061 1 10.126011349999999 21.046519363464007 0.6882282468359993 0 0 0
1065 1 14.176415889999994 21.046519363464007 0.6882282468359993 0 0 0
1069 1 18.226820429999997 21.046519363464007 0.6882282468359993 0 0 0
1073 1 22.27722497 21.046519363464007 0.6882282468359993 0 0 0
1077 1 26.32762951 21.046519363464007 0.6882282468359993 0 0 0
1081 1 30.378034050000004 21.046519363464007 0.6882282468359993 0 0 0
1085 1 34.42843858999999 21.046519363464007 0.6882282468359993 0 0 0
1089 1 38.478843129999994 21.046519363464007 0.6882282468359993 0 0 0
1093 1 42.52924767 21.046519363464007 0.6882282468359993 0 0 0
1097 1 46.57965221 21.046519363464007 0.6882282468359993 0 0 0
1001 1 50.63005675 21.046519363464007 0.6882282468359993 -1 0 0
1005 1 54.680461290000004 21.046519363464007 0.6882282468359993 -1 0 0
1009 1 58.73086583 21.046519363464007 0.6882282468359993 -1 0 0
1013 1 62.78127037 21.046519363464007 0.6882282468359993 -1 0 0
1017 1 66.83167491 21.046519363464007 0.6882282468359993 -1 0 0
1021 1 70.88207945 21.046519363464007 0.6882282468359993 -1 0 0
1025 1 74.93248399000001 21.046519363464007 0.6882282468359993 -1 0 0
1029 1 78.98288853 21.046519363464007 0.6882282468359993 -1 0 0
1033 1 83.03329307 21.046519363464007 0.6882282468359993 -1 0 0
1037 1 87.08369761 21.046519363464007 0.6882282468359993 -1 0 0
1041 1 91.13410215 21.046519363464007 0.6882282468359993 -1 0 0
1045 1 95.18450669 21.046519363464007 0.6882282468359993 -1 0 0
1049 1 99.23491123 21.046519363464007 0.6882282468359993 -1 0 0
1051 1 2.025199563604474e-08 22.215770427518997 0 0 0 0
1055 1 4.050404560251998 22.215770427518997 0 0 0 0
1059 1 8.100809100252 22.215770427518997 0 0 0 0
1063 1 12.151213640251996 22.215770427518997 0 0 0 0
1067 1 16.201618180252005 22.215770427518997 0 0 0 0
1071 1 20.252022720251993 22.215770427518997 0 0 0 0
1075 1 24.302427260251996 22.215770427518997 0 0 0 0
1079 1 28.352831800251998 22.215770427518997 0 0 0 0
1083 1 32.403236340252 22.215770427518997 0 0 0 0
1087 1 36.453640880252 22.215770427518997 0 0 0 0
1091 1 40.504045420252005 22.215770427518997 0 0 0 0
1095 1 44.55444996025199 22.215770427518997 0 0 0 0
1099 1 48.604854500251996 22.215770427518997 0 0 0 0
1003 1 52.655259040252 22.215770427518997 0 -1 0 0
1007 1 56.705663580252 22.215770427518997 0 -1 0 0
1011 1 60.756068120252 22.215770427518997 0 -1 0 0
1015 1 64.806472660252 22.215770427518997 0 -1 0 0
1019 1 68.856877200252 22.215770427518997 0 -1 0 0
1023 1 72.907281740252 22.215770427518997 0 -1 0 0
1027 1 76.957686280252 22.215770427518997 0 -1 0 0
1031 1 81.008090820252 22.215770427518997 0 -1 0 0
1035 1 85.05849536025201 22.215770427518997 0 -1 0 0
1039 1 89.108899900252 22.215770427518997 0 -1 0 0
1043 1 93.159304440252 22.215770427518997 0 -1 0 0
1047 1 97.209708980252 22.215770427518997 0 -1 0 0
1050 1 0 24.554272590708003 0.6882282468359993 0 0 0
1054 1 4.050404539999995 24.554272590708003 0.6882282468359993 0 0 0
1058 1 8.100809079999998 24.554272590708003 0.6882282468359993 0 0 0
1062 1 12.15121362 24.554272590708003 0.6882282468359993 0 0 0
1066 1 16.201618160000002 24.554272590708003 0.6882282468359993 0 0 0
1070 1 20.252022700000005 24.554272590708003 0.6882282468359993 0 0 0
1074 1 24.302427239999993 24.554272590708003 0.6882282468359993 0 0 0
1078 1 28.352831779999995 24.554272590708003 0.6882282468359993 0 0 0
1082 1 32.40323632 24.554272590708003 0.6882282468359993 0 0 0
1086 1 36.45364086 24.554272590708003 0.6882282468359993 0 0 0
1090 1 40.5040454 24.554272590708003 0.6882282468359993 0 0 0
1094 1 44.554449940000005 24.554272590708003 0.6882282468359993 0 0 0
1098 1 48.60485447999999 24.554272590708003 0.6882282468359993 0 0 0
1002 1 52.65525902 24.554272590708003 0.6882282468359993 -1 0 0
1006 1 56.705663560000005 24.554272590708003 0.6882282468359993 -1 0 0
1010 1 60.7560681 24.554272590708003 0.6882282468359993 -1 0 0
1014 1 64.80647264000001 24.554272590708003 0.6882282468359993 -1 0 0
1018 1 68.85687718 24.554272590708003 0.6882282468359993 -1 0 0
1022 1 72.90728172 24.554272590708003 0.6882282468359993 -1 0 0
1026 1 76.95768626 24.554272590708003 0.6882282468359993 -1 0 0
1030 1 81.0080908 24.554272590708003 0.6882282468359993 -1 0 0
1034 1 85.05849534000001 24.554272590708003 0.6882282468359993 -1 0 0
1038 1 89.10889988 24.554272590708003 0.6882282468359993 -1 0 0
1042 1 93.15930442 24.554272590708003 0.6882282468359993 -1 0 0
1046 1 97.20970896 24.554272590708003 0.6882282468359993 -1 0 0
1056 1 2.025202290251997 25.723523654763007 0 0 0 0
1060 1 6.075606830251999 25.723523654763007 0 0 0 0
1064 1 10.126011370252002 25.723523654763007 0 0 0 0
1068 1 14.176415910251997 25.723523654763007 0 0 0 0
1072 1 18.226820450252 25.723523654763007 0 0 0 0
1076 1 22.277224990252 25.723523654763007 0 0 0 0
1080 1 26.327629530252004 25.723523654763007 0 0 0 0
1084 1 30.378034070251992 25.723523654763007 0 0 0 0
1088 1 34.428438610251995 25.723523654763007 0 0 0 0
1092 1 38.478843150252 25.723523654763007 0 0 0 0
1096 1 42.529247690252 25.723523654763007 0 0 0 0
1100 1 46.579652230252 25.723523654763007 0 0 0 0
1004 1 50.630056770252004 25.723523654763007 0 -1 0 0
1008 1 54.680461310252 25.723523654763007 0 -1 0 0
1012 1 58.730865850252 25.723523654763007 0 -1 0 0
1016 1 62.781270390252004 25.723523654763007 0 -1 0 0
1020 1 66.831674930252 25.723523654763007 0 -1 0 0
1024 1 70.882079470252 25.723523654763007 0 -1 0 0
1028 1 74.932484010252 25.723523654763007 0 -1 0 0
1032 1 78.982888550252 25.723523654763007 0 -1 0 0
1036 1 83.033293090252 25.723523654763007 0 -1 0 0
1040 1 87.083697630252 25.723523654763007 0 -1 0 0
1044 1 91.13410217025199 25.723523654763007 0 -1 0 0
1048 1 95.18450671025201 25.723523654763007 0 -1 0 0
1052 1 99.234911250252 25.723523654763007 0 -1 0 0
1153 1 2.025202270000001 28.062025817951998 0.6882282468359993 0 0 0
1157 1 6.0756068099999965 28.062025817951998 0.6882282468359993 0 0 0
1161 1 10.126011349999999 28.062025817951998 0.6882282468359993 0 0 0
1165 1 14.176415889999994 28.062025817951998 0.6882282468359993 0 0 0
1169 1 18.226820429999997 28.062025817951998 0.6882282468359993 0 0 0
1173 1 22.27722497 28.062025817951998 0.6882282468359993 0 0 0
1177 1 26.32762951 28.062025817951998 0.6882282468359993 0 0 0
1181 1 30.378034050000004 28.062025817951998 0.6882282468359993 0 0 0
1185 1 34.42843858999999 28.062025817951998 0.6882282468359993 0 0 0
1189 1 38.478843129999994 28.062025817951998 0.6882282468359993 0 0 0
1193 1 42.52924767 28.062025817951998 0.6882282468359993 0 0 0
1197 1 46.57965221 28.062025817951998 0.6882282468359993 0 0 0
1101 1 50.63005675 28.062025817951998 0.6882282468359993 -1 0 0
1105 1 54.680461290000004 28.062025817951998 0.6882282468359993 -1 0 0
1109 1 58.73086583 28.062025817951998 0.6882282468359993 -1 0 0
1113 1 62.78127037 28.062025817951998 0.6882282468359993 -1 0 0
1117 1 66.83167491 28.062025817951998 0.6882282468359993 -1 0 0
1121 1 70.88207945 28.062025817951998 0.6882282468359993 -1 0 0
1125 1 74.93248399000001 28.062025817951998 0.6882282468359993 -1 0 0
1129 1 78.98288853 28.062025817951998 0.6882282468359993 -1 0 0
1133 1 83.03329307 28.062025817951998 0.6882282468359993 -1 0 0
1137 1 87.08369761 28.062025817951998 0.6882282468359993 -1 0 0
1141 1 91.13410215 28.062025817951998 0.6882282468359993 -1 0 0
1145 1 95.18450669 28.062025817951998 0.6882282468359993 -1 0 0
1149 1 99.23491123 28.062025817951998 0.6882282468359993 -1 0 0
1151 1 2.025199563604474e-08 29.231276882007002 0 0 0 0
1155 1 4.050404560251998 29.231276882007002 0 0 0 0
1159 1 8.100809100252 29.231276882007002 0 0 0 0
1163 1 12.151213640251996 29.231276882007002 0 0 0 0
1167 1 16.201618180252005 29.231276882007002 0 0 0 0
1171 1 20.252022720251993 29.231276882007002 0 0 0 0
1175 1 24.302427260251996 29.231276882007002 0 0 0 0
1179 1 28.352831800251998 29.231276882007002 0 0 0 0
1183 1 32.403236340252 29.231276882007002 0 0 0 0
1187 1 36.453640880252 29.231276882007002 0 0 0 0
1191 1 40.504045420252005 29.231276882007002 0 0 0 0
1195 1 44.55444996025199 29.231276882007002 0 0 0 0
1199 1 48.604854500251996 29.231276882007002 0 0 0 0
1103 1 52.655259040252 29.231276882007002 0 -1 0 0
1107 1 56.705663580252 29.231276882007002 0 -1 0 0
1111 1 60.756068120252 29.231276882007002 0 -1 0 0
1115 1 64.806472660252 29.231276882007002 0 -1 0 0
1119 1 68.856877200252 29.231276882007002 0 -1 0 0
1123 1 72.907281740252 29.231276882007002 0 -1 0 0
1127 1 76.957686280252 29.231276882007002 0 -1 0 0
1131 1 81.008090820252 29.231276882007002 0 -1 0 0
1135 1 85.05849536025201 29.231276882007002 0 -1 0 0
1139 1 89.108899900252 29.231276882007002 0 -1 0 0
1143 1 93.159304440252 29.231276882007002 0 -1 0 0
1147 1 97.209708980252 29.231276882007002 0 -1 0 0
1150 1 0 31.569779045196007 0.6882282468359993 0 0 0
1154 1 4.050404539999995 31.569779045196007 0.6882282468359993 0 0 0
1158 1 8.100809079999998 31.569779045196007 0.6882282468359993 0 0 0
1162 1 12.15121362 31.569779045196007 0.6882282468359993 0 0 0
1166 1 16.201618160000002 31.569779045196007 0.6882282468359993 0 0 0
1170 1 20.252022700000005 31.569779045196007 0.6882282468359993 0 0 0
1174 1 24.302427239999993 31.569779045196007 0.6882282468359993 0 0 0
1178 1 28.352831779999995 31.569779045196007 0.6882282468359993 0 0 0
1182 1 32.40323632 31.569779045196007 0.6882282468359993 0 0 0
1186 1 36.45364086 31.569779045196007 0.6882282468359993 0 0 0
1190 1 40.5040454 31.569779045196007 0.6882282468359993 0 0 0
1194 1 44.554449940000005 31.569779045196007 0.6882282468359993 0 0 0
1198 1 48.60485447999999 31.569779045196007 0.6882282468359993 0 0 0
1102 1 52.65525902 31.569779045196007 0.6882282468359993 -1 0 0
1106 1 56.705663560000005 31.569779045196007 0.6882282468359993 -1 0 0
1110 1 60.7560681 31.569779045196007 0.6882282468359993 -1 0 0
1114 1 64.80647264000001 31.569779045196007 0.6882282468359993 -1 0 0
1118 1 68.85687718 31.569779045196007 0.6882282468359993 -1 0 0
1122 1 72.90728172 31.569779045196007 0.6882282468359993 -1 0 0
1126 1 76.95768626 31.569779045196007 0.6882282468359993 -1 0 0
1130 1 81.0080908 31.569779045196007 0.6882282468359993 -1 0 0
1134 1 85.05849534000001 31.569779045196007 0.6882282468359993 -1 0 0
1138 1 89.10889988 31.569779045196007 0.6882282468359993 -1 0 0
1142 1 93.15930442 31.569779045196007 0.6882282468359993 -1 0 0
1146 1 97.20970896 31.569779045196007 0.6882282468359993 -1 0 0
1156 1 2.025202290251997 32.739030109251 0 0 0 0
1160 1 6.075606830251999 32.739030109251 0 0 0 0
1164 1 10.126011370252002 32.739030109251 0 0 0 0
1168 1 14.176415910251997 32.739030109251 0 0 0 0
1172 1 18.226820450252 32.739030109251 0 0 0 0
1176 1 22.277224990252 32.739030109251 0 0 0 0
1180 1 26.327629530252004 32.739030109251 0 0 0 0
1184 1 30.378034070251992 32.739030109251 0 0 0 0
1188 1 34.428438610251995 32.739030109251 0 0 0 0
1192 1 38.478843150252 32.739030109251 0 0 0 0
1196 1 42.529247690252 32.739030109251 0 0 0 0
1200 1 46.579652230252 32.739030109251 0 0 0 0
1104 1 50.630056770252004 32.739030109251 0 -1 0 0
1108 1 54.680461310252 32.739030109251 0 -1 0 0
1112 1 58.730865850252 32.739030109251 0 -1 0 0
1116 1 62.781270390252004 32.739030109251 0 -1 0 0
1120 1 66.831674930252 32.739030109251 0 -1 0 0
1124 1 70.882079470252 32.739030109251 0 -1 0 0
1128 1 74.932484010252 32.739030109251 0 -1 0 0
1132 1 78.982888550252 32.739030109251 0 -1 0 0
1136 1 83.033293090252 32.739030109251 0 -1 0 0
1140 1 87.083697630252 32.739030109251 0 -1 0 0
1144 1 91.13410217025199 32.739030109251 0 -1 0 0
1148 1 95.18450671025201 32.739030109251 0 -1 0 0
1152 1 99.234911250252 32.739030109251 0 -1 0 0
1253 1 2.025202270000001 35.07753227244 0.6882282468359993 0 0 0
1257 1 6.0756068099999965 35.07753227244 0.6882282468359993 0 0 0
1261 1 10.126011349999999 35.07753227244 0.6882282468359993 0 0 0
1265 1 14.176415889999994 35.07753227244 0.6882282468359993 0 0 0
1269 1 18.226820429999997 35.07753227244 0.6882282468359993 0 0 0
1273 1 22.27722497 35.07753227244 0.6882282468359993 0 0 0
1277 1 26.32762951 35.07753227244 0.6882282468359993 0 0 0
1281 1 30.378034050000004 35.07753227244 0.6882282468359993 0 0 0
1285 1 34.42843858999999 35.07753227244 0.6882282468359993 0 0 0
1289 1 38.478843129999994 35.07753227244 0.6882282468359993 0 0 0
1293 1 42.52924767 35.07753227244 0.6882282468359993 0 0 0
1297 1 46.57965221 35.07753227244 0.6882282468359993 0 0 0
1201 1 50.63005675 35.07753227244 0.6882282468359993 -1 0 0
1205 1 54.680461290000004 35.07753227244 0.6882282468359993 -1 0 0
1209 1 58.73086583 35.07753227244 0.6882282468359993 -1 0 0
1213 1 62.78127037 35.07753227244 0.6882282468359993 -1 0 0
1217 1 66.83167491 35.07753227244 0.6882282468359993 -1 0 0
1221 1 70.88207945 35.07753227244 0.6882282468359993 -1 0 0
1225 1 74.93248399000001 35.07753227244 0.6882282468359993 -1 0 0
1229 1 78.98288853 35.07753227244 0.6882282468359993 -1 0 0
1233 1 83.03329307 35.07753227244 0.6882282468359993 -1 0 0