LAMMPS data file via write_data, version 29 Aug 2024, timestep = 2, units = metal

2800 atoms
2 atom types

0 101.2601135 xlo xhi
0 98.217090362832 ylo yhi
-50 50 zlo zhi

Masses

1 72.63
2 72.63

Atoms # atomic

751 1 0.0008881432302013454 1.1680260659624353 -0.001738351259442769 0 0 0
755 1 4.051292683230207 1.1680260659624346 -0.0017383512594440374 0 0 0
750 1 0.0004321920932637233 3.507017211872794 0.6972797528766407 0 0 0
754 1 4.050836732093256 3.507017211872795 0.6972797528766405 0 0 0
756 1 2.026090413230205 4.675779293206432 -0.0017383512594457103 0 0 0
759 1 8.101697223230211 1.1680260659624364 -0.0017383512594437971 0 0 0
758 1 8.101241272093255 3.5070172118727942 0.6972797528766392 0 0 0
760 1 6.0764949532302115 4.675779293206435 -0.0017383512594444524 0 0 0
764 1 10.12689949323021 4.675779293206434 -0.0017383512594459343 0 0 0
763 1 12.15210176323021 1.1680260659624326 -0.001738351259445033 0 0 0
767 1 16.202506303230216 1.1680260659624364 -0.0017383512594438986 0 0 0
762 1 12.151645812093259 3.507017211872798 0.697279752876641 0 0 0
766 1 16.202050352093263 3.507017211872795 0.6972797528766389 0 0 0
768 1 14.177304033230207 4.675779293206436 -0.0017383512594446203 0 0 0
771 1 20.252910843230207 1.168026065962438 -0.001738351259444266 0 0 0
770 1 20.25245489209326 3.5070172118727925 0.6972797528766403 0 0 0
772 1 18.227708573230206 4.675779293206431 -0.0017383512594461939 0 0 0
776 1 22.278113113230212 4.675779293206431 -0.001738351259446686 0 0 0
775 1 24.303315383230206 1.1680260659624364 -0.0017383512594428266 0 0 0
779 1 28.353719923230205 1.1680260659624333 -0.0017383512594445114 0 0 0
774 1 24.302859432093253 3.5070172118727934 0.6972797528766402 0 0 0
778 1 28.353263972093256 3.5070172118727974 0.6972797528766416 0 0 0
780 1 26.328517653230215 4.6757792932064355 -0.00173835125944573 0 0 0
783 1 32.40412446323021 1.1680260659624329 -0.0017383512594451658 0 0 0
782 1 32.40366851209326 3.507017211872797 0.6972797528766406 0 0 0
784 1 30.378922193230206 4.675779293206436 -0.001738351259445832 0 0 0
788 1 34.429326733230205 4.675779293206435 -0.0017383512594445745 0 0 0
787 1 36.45452900323022 1.1680260659624357 -0.0017383512594432234 0 0 0
791 1 40.504933543230216 1.1680260659624369 -0.0017383512594446784 0 0 0
786 1 36.45407305209326 3.5070172118727947 0.6972797528766391 0 0 0
790 1 40.50447759209326 3.5070172118727947 0.6972797528766391 0 0 0
792 1 38.47973127323021 4.675779293206435 -0.0017383512594445491 0 0 0
795 1 44.555338083230204 1.1680260659624377 -0.0017383512594442408 0 0 0
794 1 44.55488213209326 3.5070172118727925 0.6972797528766403 0 0 0
796 1 42.5301358132302 4.675779293206432 -0.001738351259446808 0 0 0
800 1 46.58054035323021 4.67577929320643 -0.0017383512594460974 0 0 0
799 1 48.605742623230206 1.168026065962436 -0.001738351259443131 0 0 0
703 1 52.65614716323021 1.1680260659624337 -0.0017383512594437707 -1 0 0
798 1 48.60528667209325 3.5070172118727942 0.6972797528766397 0 0 0
702 1 52.65569121209326 3.5070172118727982 0.6972797528766389 -1 0 0
704 1 50.630944893230215 4.675779293206436 -0.001738351259444229 -1 0 0
707 1 56.70655170323021 1.1680260659624349 -0.0017383512594444394 -1 0 0
706 1 56.70609575209327 3.507017211872794 0.6972797528766415 -1 0 0
708 1 54.68134943323021 4.6757792932064355 -0.0017383512594451413 -1 0 0
712 1 58.73175397323021 4.675779293206434 -0.001738351259445999 -1 0 0
711 1 60.75695624323021 1.1680260659624366 -0.0017383512594440023 -1 0 0
715 1 64.80736078323021 1.168026065962438 -0.0017383512594449624 -1 0 0
710 1 60.75650029209326 3.5070172118727947 0.6972797528766391 -1 0 0
714 1 64.80690483209327 3.5070172118727956 0.6972797528766386 -1 0 0
716 1 62.78215851323021 4.6757792932064355 -0.001738351259444904 -1 0 0
719 1 68.8577653232302 1.1680260659624329 -0.0017383512594439411 -1 0 0
718 1 68.85730937209327 3.5070172118727956 0.6972797528766428 -1 0 0
720 1 66.8325630532302 4.675779293206433 -0.0017383512594485013 -1 0 0
724 1 70.8829675932302 4.6757792932064355 -0.0017383512594458003 -1 0 0
723 1 72.9081698632302 1.1680260659624357 -0.0017383512594431982 -1 0 0
727 1 76.9585744032302 1.1680260659624346 -0.0017383512594469764 -1 0 0
722 1 72.90771391209327 3.5070172118727947 0.697279752876639 -1 0 0
726 1 76.95811845209327 3.5070172118727974 0.69727975287664 -1 0 0
728 1 74.9333721332302 4.675779293206435 -0.0017383512594445402 -1 0 0
731 1 81.0089789432302 1.1680260659624357 -0.0017383512594431332 -1 0 0
730 1 81.00852299209328 3.5070172118727947 0.6972797528766392 -1 0 0
732 1 78.9837766732302 4.675779293206431 -0.0017383512594453042 -1 0 0
736 1 83.0341812132302 4.675779293206436 -0.001738351259443913 -1 0 0
735 1 85.0593834832302 1.168026065962436 -0.0017383512594431802 -1 0 0
739 1 89.10978802323021 1.1680260659624344 -0.001738351259445161 -1 0 0
734 1 85.05892753209326 3.507017211872794 0.6972797528766403 -1 0 0
738 1 89.10933207209327 3.507017211872795 0.6972797528766427 -1 0 0
740 1 87.0845857532302 4.675779293206429 -0.001738351259449047 -1 0 0
743 1 93.1601925632302 1.1680260659624393 -0.0017383512594422725 -1 0 0
742 1 93.15973661209327 3.507017211872792 0.6972797528766366 -1 0 0
744 1 91.1349902932302 4.675779293206435 -0.0017383512594445912 -1 0 0
748 1 95.1853948332302 4.675779293206435 -0.0017383512594444823 -1 0 0
747 1 97.2105971032302 1.1680260659624313 -0.0017383512594477172 -1 0 0
746 1 97.21014115209326 3.5070172118728 0.6972797528766425 -1 0 0
752 1 99.23579937323021 4.675779293206431 -0.0017383512594460857 -1 0 0
853 1 2.025634462093262 7.014770439116799 0.6972797528766405 0 0 0
851 1 0.0008881432302012852 8.183532520450436 -0.0017383512594439244 0 0 0
855 1 4.051292683230207 8.183532520450436 -0.0017383512594452513 0 0 0
850 1 0.00043219209326335784 10.522523666360792 0.6972797528766407 0 0 0
854 1 4.050836732093256 10.522523666360794 0.6972797528766408 0 0 0
857 1 6.076039002093256 7.0147704391167975 0.69727975287664 0 0 0
861 1 10.126443542093257 7.014770439116798 0.6972797528766408 0 0 0
859 1 8.101697223230211 8.183532520450438 -0.0017383512594449776 0 0 0
858 1 8.101241272093255 10.522523666360794 0.6972797528766393 0 0 0
865 1 14.176848082093255 7.014770439116796 0.6972797528766388 0 0 0
863 1 12.152101763230208 8.183532520450434 -0.0017383512594460935 0 0 0
867 1 16.202506303230212 8.183532520450438 -0.0017383512594446398 0 0 0
862 1 12.151645812093259 10.522523666360796 0.697279752876641 0 0 0
866 1 16.202050352093263 10.522523666360792 0.6972797528766385 0 0 0
869 1 18.227252622093257 7.0147704391168 0.6972797528766419 0 0 0
873 1 22.277657162093263 7.014770439116802 0.69727975287664 0 0 0
871 1 20.252910843230207 8.18353252045044 -0.0017383512594455926 0 0 0
870 1 20.252454892093265 10.522523666360792 0.6972797528766405 0 0 0
877 1 26.32806170209326 7.0147704391167975 0.6972797528766391 0 0 0
875 1 24.303315383230206 8.183532520450438 -0.0017383512594444728 0 0 0
879 1 28.353719923230205 8.183532520450434 -0.0017383512594457374 0 0 0
874 1 24.30285943209325 10.522523666360792 0.6972797528766411 0 0 0
878 1 28.353263972093252 10.522523666360796 0.6972797528766409 0 0 0
881 1 30.37846624209326 7.014770439116795 0.6972797528766411 0 0 0
885 1 34.42887078209325 7.014770439116797 0.6972797528766405 0 0 0
883 1 32.40412446323021 8.183532520450434 -0.001738351259446322 0 0 0
882 1 32.40366851209326 10.522523666360796 0.6972797528766401 0 0 0
889 1 38.479275322093244 7.0147704391167975 0.6972797528766391 0 0 0
887 1 36.45452900323022 8.183532520450438 -0.0017383512594443464 0 0 0
891 1 40.504933543230216 8.18353252045044 -0.0017383512594455737 0 0 0
886 1 36.45407305209326 10.522523666360794 0.6972797528766393 0 0 0
890 1 40.50447759209326 10.522523666360792 0.6972797528766388 0 0 0
893 1 42.52967986209325 7.014770439116802 0.6972797528766406 0 0 0
897 1 46.58008440209326 7.0147704391168 0.6972797528766411 0 0 0
895 1 44.555338083230204 8.18353252045044 -0.00173835125944556 0 0 0
894 1 44.55488213209326 10.522523666360792 0.6972797528766405 0 0 0
801 1 50.63048894209326 7.014770439116797 0.6972797528766389 -1 0 0
899 1 48.605742623230206 8.183532520450438 -0.0017383512594443614 0 0 0
803 1 52.65614716323021 8.183532520450436 -0.0017383512594448774 -1 0 0
898 1 48.60528667209325 10.522523666360792 0.6972797528766399 0 0 0
802 1 52.65569121209326 10.522523666360797 0.6972797528766388 -1 0 0
805 1 54.68089348209327 7.014770439116798 0.6972797528766386 -1 0 0
809 1 58.73129802209326 7.0147704391167975 0.6972797528766412 -1 0 0
807 1 56.70655170323021 8.183532520450436 -0.001738351259445659 -1 0 0
806 1 56.70609575209327 10.522523666360794 0.6972797528766415 -1 0 0
813 1 62.781702562093265 7.014770439116799 0.6972797528766387 -1 0 0
811 1 60.75695624323021 8.183532520450438 -0.001738351259444768 -1 0 0
815 1 64.80736078323021 8.18353252045044 -0.0017383512594462084 -1 0 0
810 1 60.75650029209326 10.522523666360794 0.6972797528766395 -1 0 0
814 1 64.80690483209327 10.522523666360794 0.6972797528766383 -1 0 0
817 1 66.83210710209327 7.014770439116801 0.6972797528766398 -1 0 0
821 1 70.88251164209328 7.0147704391167975 0.6972797528766391 -1 0 0
819 1 68.8577653232302 8.183532520450434 -0.0017383512594451869 -1 0 0
818 1 68.85730937209327 10.522523666360794 0.6972797528766427 -1 0 0
825 1 74.93291618209327 7.014770439116797 0.6972797528766405 -1 0 0
823 1 72.9081698632302 8.183532520450438 -0.0017383512594444667 -1 0 0
827 1 76.9585744032302 8.183532520450436 -0.0017383512594481496 -1 0 0
822 1 72.90771391209327 10.522523666360794 0.6972797528766391 -1 0 0
826 1 76.95811845209327 10.522523666360796 0.6972797528766397 -1 0 0
829 1 78.98332072209327 7.014770439116799 0.6972797528766429 -1 0 0
833 1 83.03372526209327 7.014770439116796 0.6972797528766367 -1 0 0
831 1 81.0089789432302 8.183532520450438 -0.0017383512594443152 -1 0 0
830 1 81.00852299209328 10.522523666360794 0.6972797528766392 -1 0 0
837 1 87.08412980209326 7.014770439116804 0.6972797528766423 -1 0 0
835 1 85.0593834832302 8.183532520450438 -0.0017383512594442724 -1 0 0
839 1 89.10978802323021 8.183532520450436 -0.0017383512594464014 -1 0 0
834 1 85.05892753209326 10.522523666360792 0.6972797528766403 -1 0 0
838 1 89.10933207209327 10.522523666360794 0.6972797528766428 -1 0 0
841 1 91.13453434209327 7.0147704391167975 0.6972797528766391 -1 0 0
845 1 95.18493888209326 7.014770439116797 0.6972797528766403 -1 0 0
843 1 93.1601925632302 8.183532520450441 -0.0017383512594433322 -1 0 0
842 1 93.15973661209327 10.52252366636079 0.6972797528766362 -1 0 0
849 1 99.23534342209327 7.014770439116798 0.6972797528766425 -1 0 0
847 1 97.2105971032302 8.183532520450433 -0.0017383512594487424 -1 0 0
846 1 97.21014115209326 10.522523666360799 0.6972797528766426 -1 0 0
856 1 2.026090413230205 11.691285747694442 -0.0017383512594444925 0 0 0
953 1 2.025634462093261 14.030276893604789 0.6972797528766407 0 0 0
951 1 0.0008881432302013791 15.199038974938446 -0.0017383512594447313 0 0 0
955 1 4.051292683230207 15.199038974938444 -0.001738351259446904 0 0 0
860 1 6.0764949532302115 11.691285747694444 -0.0017383512594433383 0 0 0
864 1 10.12689949323021 11.691285747694444 -0.0017383512594450015 0 0 0
957 1 6.076039002093255 14.030276893604787 0.6972797528766401 0 0 0
961 1 10.126443542093257 14.030276893604789 0.6972797528766409 0 0 0
959 1 8.101697223230211 15.199038974938446 -0.0017383512594465042 0 0 0
868 1 14.177304033230207 11.691285747694446 -0.0017383512594433047 0 0 0
965 1 14.176848082093253 14.030276893604785 0.6972797528766393 0 0 0
963 1 12.15210176323021 15.199038974938443 -0.001738351259447691 0 0 0
967 1 16.202506303230216 15.199038974938446 -0.001738351259446567 0 0 0
872 1 18.227708573230206 11.69128574769444 -0.0017383512594446957 0 0 0
876 1 22.278113113230212 11.69128574769444 -0.001738351259445642 0 0 0
969 1 18.227252622093253 14.03027689360479 0.6972797528766411 0 0 0
973 1 22.277657162093263 14.030276893604793 0.6972797528766401 0 0 0
971 1 20.252910843230207 15.199038974938448 -0.0017383512594462717 0 0 0
880 1 26.328517653230215 11.691285747694444 -0.001738351259444518 0 0 0
977 1 26.32806170209326 14.030276893604789 0.6972797528766392 0 0 0
975 1 24.303315383230206 15.199038974938446 -0.0017383512594456917 0 0 0
979 1 28.353719923230205 15.199038974938444 -0.0017383512594465623 0 0 0
884 1 30.378922193230206 11.691285747694446 -0.001738351259444321 0 0 0
888 1 34.429326733230205 11.691285747694444 -0.0017383512594431293 0 0 0
981 1 30.37846624209326 14.030276893604785 0.697279752876641 0 0 0
985 1 34.42887078209325 14.030276893604787 0.6972797528766407 0 0 0
983 1 32.40412446323021 15.199038974938443 -0.0017383512594477237 0 0 0
892 1 38.47973127323021 11.691285747694444 -0.0017383512594433825 0 0 0
989 1 38.479275322093244 14.030276893604789 0.6972797528766393 0 0 0
987 1 36.45452900323022 15.199038974938444 -0.0017383512594459154 0 0 0
991 1 40.504933543230216 15.199038974938446 -0.0017383512594472542 0 0 0
896 1 42.5301358132302 11.691285747694442 -0.0017383512594453538 0 0 0
900 1 46.58054035323021 11.691285747694439 -0.0017383512594450696 0 0 0
993 1 42.52967986209325 14.030276893604793 0.6972797528766406 0 0 0
997 1 46.58008440209326 14.03027689360479 0.6972797528766412 0 0 0
995 1 44.555338083230204 15.199038974938448 -0.0017383512594462787 0 0 0
804 1 50.630944893230215 11.691285747694446 -0.00173835125944285 -1 0 0
901 1 50.630488942093265 14.030276893604787 0.6972797528766377 -1 0 0
999 1 48.605742623230206 15.199038974938444 -0.0017383512594457543 0 0 0
903 1 52.65614716323021 15.199038974938443 -0.001738351259446443 -1 0 0
808 1 54.68134943323021 11.691285747694444 -0.0017383512594439988 -1 0 0
812 1 58.73175397323021 11.691285747694442 -0.001738351259445028 -1 0 0
905 1 54.68089348209327 14.030276893604785 0.6972797528766411 -1 0 0
909 1 58.731298022093256 14.030276893604789 0.6972797528766406 -1 0 0
907 1 56.70655170323021 15.199038974938444 -0.0017383512594471163 -1 0 0
816 1 62.78215851323021 11.691285747694444 -0.001738351259443732 -1 0 0
913 1 62.781702562093265 14.030276893604789 0.697279752876639 -1 0 0
911 1 60.75695624323021 15.199038974938446 -0.0017383512594466022 -1 0 0
915 1 64.80736078323021 15.199038974938448 -0.0017383512594475194 -1 0 0
820 1 66.8325630532302 11.691285747694442 -0.0017383512594474518 -1 0 0
824 1 70.8829675932302 11.691285747694444 -0.0017383512594444338 -1 0 0
917 1 66.83210710209327 14.030276893604793 0.6972797528766401 -1 0 0
921 1 70.88251164209328 14.030276893604787 0.6972797528766395 -1 0 0
919 1 68.8577653232302 15.199038974938444 -0.0017383512594459812 -1 0 0
828 1 74.9333721332302 11.691285747694444 -0.0017383512594432054 -1 0 0
925 1 74.93291618209327 14.030276893604787 0.6972797528766407 -1 0 0
923 1 72.9081698632302 15.199038974938444 -0.0017383512594459083 -1 0 0
927 1 76.9585744032302 15.199038974938444 -0.001738351259449569 -1 0 0
832 1 78.9837766732302 11.69128574769444 -0.0017383512594440378 -1 0 0
836 1 83.0341812132302 11.691285747694447 -0.0017383512594423842 -1 0 0
929 1 78.98332072209327 14.030276893604789 0.6972797528766431 -1 0 0
933 1 83.03372526209327 14.030276893604785 0.6972797528766367 -1 0 0
931 1 81.0089789432302 15.199038974938444 -0.0017383512594457934 -1 0 0
840 1 87.0845857532302 11.691285747694439 -0.001738351259447834 -1 0 0
937 1 87.08412980209326 14.030276893604794 0.6972797528766428 -1 0 0
935 1 85.0593834832302 15.199038974938448 -0.0017383512594452905 -1 0 0
939 1 89.10978802323021 15.199038974938446 -0.0017383512594474017 -1 0 0
844 1 91.1349902932302 11.691285747694444 -0.0017383512594432425 -1 0 0
848 1 95.1853948332302 11.691285747694444 -0.0017383512594434476 -1 0 0
941 1 91.13453434209327 14.030276893604789 0.6972797528766395 -1 0 0
945 1 95.18493888209326 14.030276893604787 0.6972797528766406 -1 0 0
943 1 93.1601925632302 15.199038974938448 -0.001738351259444948 -1 0 0
852 1 99.23579937323021 11.69128574769444 -0.0017383512594447057 -1 0 0
949 1 99.23534342209327 14.030276893604789 0.6972797528766428 -1 0 0
947 1 97.2105971032302 15.199038974938441 -0.0017383512594505153 -1 0 0
950 1 0.0004321920932633229 17.538030120848788 0.6972797528766399 0 0 0
954 1 4.050836732093256 17.53803012084879 0.6972797528766401 0 0 0
956 1 2.026090413230206 18.706792202182434 -0.001738351259445995 0 0 0
1053 1 2.0256344620932616 21.0457833480928 0.6972797528766409 0 0 0
1051 1 0.0008881432302010518 22.21454542942643 -0.0017383512594438706 0 0 0
1055 1 4.051292683230207 22.21454542942643 -0.0017383512594452062 0 0 0
958 1 8.101241272093255 17.53803012084879 0.6972797528766387 0 0 0
960 1 6.0764949532302115 18.706792202182434 -0.0017383512594445812 0 0 0
964 1 10.12689949323021 18.706792202182434 -0.0017383512594461481 0 0 0
1057 1 6.076039002093255 21.0457833480928 0.6972797528766405 0 0 0
1061 1 10.126443542093257 21.0457833480928 0.6972797528766413 0 0 0
1059 1 8.101697223230211 22.214545429426433 -0.0017383512594449097 0 0 0
962 1 12.151645812093259 17.538030120848795 0.6972797528766402 0 0 0
966 1 16.202050352093263 17.53803012084879 0.6972797528766382 0 0 0
968 1 14.177304033230207 18.706792202182438 -0.001738351259444414 0 0 0
1065 1 14.176848082093255 21.045783348092797 0.6972797528766391 0 0 0
1063 1 12.15210176323021 22.21454542942643 -0.0017383512594464118 0 0 0
1067 1 16.202506303230212 22.214545429426433 -0.0017383512594449113 0 0 0
970 1 20.252454892093265 17.538030120848788 0.6972797528766398 0 0 0
972 1 18.227708573230206 18.70679220218243 -0.0017383512594463372 0 0 0
976 1 22.278113113230212 18.70679220218243 -0.0017383512594467958 0 0 0
1069 1 18.227252622093257 21.0457833480928 0.6972797528766421 0 0 0
1073 1 22.277657162093263 21.045783348092804 0.6972797528766405 0 0 0
1071 1 20.252910843230207 22.214545429426433 -0.0017383512594455067 0 0 0
974 1 24.30285943209325 17.538030120848788 0.6972797528766403 0 0 0
978 1 28.353263972093252 17.538030120848795 0.6972797528766403 0 0 0
980 1 26.328517653230215 18.706792202182438 -0.0017383512594460527 0 0 0
1077 1 26.328061702093265 21.0457833480928 0.6972797528766392 0 0 0
1075 1 24.303315383230206 22.214545429426433 -0.0017383512594442577 0 0 0
1079 1 28.353719923230205 22.21454542942643 -0.0017383512594457934 0 0 0
982 1 32.40366851209326 17.538030120848795 0.6972797528766399 0 0 0
984 1 30.378922193230206 18.706792202182438 -0.0017383512594460271 0 0 0
988 1 34.429326733230205 18.706792202182434 -0.0017383512594445474 0 0 0
1081 1 30.37846624209326 21.045783348092797 0.697279752876641 0 0 0
1085 1 34.42887078209325 21.045783348092797 0.697279752876641 0 0 0
1083 1 32.40412446323021 22.21454542942643 -0.0017383512594461264 0 0 0
986 1 36.45407305209326 17.53803012084879 0.6972797528766386 0 0 0
990 1 40.50447759209326 17.53803012084879 0.6972797528766385 0 0 0
992 1 38.47973127323021 18.706792202182434 -0.001738351259444633 0 0 0
1089 1 38.479275322093244 21.0457833480928 0.6972797528766398 0 0 0
1087 1 36.45452900323022 22.21454542942643 -0.001738351259444525 0 0 0
1091 1 40.504933543230216 22.214545429426433 -0.0017383512594458706 0 0 0
994 1 44.55488213209326 17.538030120848788 0.6972797528766397 0 0 0
996 1 42.5301358132302 18.706792202182434 -0.0017383512594469643 0 0 0
1000 1 46.58054035323021 18.70679220218243 -0.0017383512594463173 0 0 0
1093 1 42.52967986209325 21.045783348092804 0.6972797528766408 0 0 0
1097 1 46.58008440209326 21.0457833480928 0.6972797528766417 0 0 0
1095 1 44.555338083230204 22.214545429426433 -0.0017383512594455928 0 0 0
998 1 48.60528667209325 17.53803012084879 0.6972797528766391 0 0 0
902 1 52.65569121209326 17.538030120848795 0.6972797528766381 -1 0 0
904 1 50.630944893230215 18.706792202182438 -0.0017383512594440543 -1 0 0
1001 1 50.63048894209326 21.045783348092797 0.6972797528766391 -1 0 0
1099 1 48.605742623230206 22.214545429426433 -0.0017383512594442917 0 0 0
1003 1 52.65614716323021 22.21454542942643 -0.0017383512594446734 -1 0 0
906 1 56.70609575209327 17.53803012084879 0.6972797528766408 -1 0 0
908 1 54.68134943323021 18.706792202182434 -0.0017383512594450297 -1 0 0
912 1 58.73175397323021 18.706792202182434 -0.0017383512594459857 -1 0 0
1005 1 54.68089348209326 21.0457833480928 0.6972797528766402 -1 0 0
1009 1 58.731298022093256 21.0457833480928 0.6972797528766408 -1 0 0
1007 1 56.70655170323021 22.21454542942643 -0.0017383512594456583 -1 0 0
910 1 60.75650029209326 17.53803012084879 0.6972797528766386 -1 0 0
914 1 64.80690483209327 17.53803012084879 0.697279752876638 -1 0 0
916 1 62.78215851323021 18.706792202182434 -0.0017383512594448935 -1 0 0
1013 1 62.781702562093265 21.0457833480928 0.6972797528766392 -1 0 0
1011 1 60.75695624323021 22.214545429426433 -0.0017383512594452198 -1 0 0
1015 1 64.80736078323021 22.214545429426433 -0.0017383512594462483 -1 0 0
918 1 68.85730937209327 17.53803012084879 0.6972797528766423 -1 0 0
920 1 66.8325630532302 18.706792202182434 -0.001738351259448539 -1 0 0
924 1 70.8829675932302 18.706792202182438 -0.001738351259445977 -1 0 0
1017 1 66.83210710209327 21.0457833480928 0.6972797528766392 -1 0 0
1021 1 70.88251164209328 21.0457833480928 0.6972797528766392 -1 0 0
1019 1 68.8577653232302 22.21454542942643 -0.0017383512594452196 -1 0 0
922 1 72.90771391209327 17.53803012084879 0.6972797528766383 -1 0 0
926 1 76.95811845209327 17.538030120848795 0.697279752876639 -1 0 0
928 1 74.9333721332302 18.706792202182434 -0.0017383512594444435 -1 0 0
1025 1 74.93291618209327 21.0457833480928 0.6972797528766407 -1 0 0
1023 1 72.9081698632302 22.21454542942643 -0.0017383512594442824 -1 0 0
1027 1 76.9585744032302 22.21454542942643 -0.001738351259448225 -1 0 0
930 1 81.00852299209328 17.53803012084879 0.6972797528766389 -1 0 0
932 1 78.9837766732302 18.706792202182434 -0.0017383512594446918 -1 0 0
936 1 83.0341812132302 18.706792202182438 -0.0017383512594438932 -1 0 0
1029 1 78.98332072209327 21.0457833480928 0.6972797528766432 -1 0 0
1033 1 83.03372526209327 21.045783348092797 0.6972797528766365 -1 0 0
1031 1 81.0089789432302 22.214545429426433 -0.00173835125944458 -1 0 0
934 1 85.05892753209326 17.538030120848788 0.69727975287664 -1 0 0
938 1 89.10933207209327 17.53803012084879 0.6972797528766421 -1 0 0
940 1 87.0845857532302 18.70679220218243 -0.0017383512594498032 -1 0 0
1037 1 87.08412980209326 21.045783348092804 0.6972797528766428 -1 0 0
1035 1 85.0593834832302 22.214545429426433 -0.0017383512594444737 -1 0 0
1039 1 89.10978802323021 22.21454542942643 -0.0017383512594463353 -1 0 0
942 1 93.15973661209327 17.538030120848788 0.6972797528766356 -1 0 0
944 1 91.1349902932302 18.706792202182434 -0.0017383512594446532 -1 0 0
948 1 95.1853948332302 18.706792202182434 -0.0017383512594445212 -1 0 0
1041 1 91.13453434209327 21.0457833480928 0.6972797528766396 -1 0 0
1045 1 95.18493888209326 21.0457833480928 0.6972797528766407 -1 0 0
1043 1 93.1601925632302 22.214545429426437 -0.0017383512594433886 -1 0 0
946 1 97.21014115209326 17.538030120848795 0.697279752876642 -1 0 0
952 1 99.23579937323021 18.70679220218243 -0.0017383512594463086 -1 0 0
1049 1 99.23534342209327 21.0457833480928 0.697279752876643 -1 0 0
1047 1 97.2105971032302 22.214545429426426 -0.0017383512594488196 -1 0 0
1050 1 0.00043219209326332705 24.553536575336793 0.6972797528766407 0 0 0
1054 1 4.050836732093256 24.553536575336796 0.6972797528766407 0 0 0
1056 1 2.026090413230205 25.72229865667044 -0.0017383512594455267 0 0 0
1153 1 2.025634462093261 28.06128980258079 0.6972797528766398 0 0 0
1058 1 8.101241272093255 24.553536575336796 0.6972797528766395 0 0 0
1060 1 6.0764949532302115 25.722298656670443 -0.0017383512594443986 0 0 0
1064 1 10.12689949323021 25.72229865667044 -0.0017383512594460514 0 0 0
1157 1 6.076039002093255 28.061289802580788 0.6972797528766392 0 0 0
1161 1 10.126443542093257 28.06128980258079 0.69727975287664 0 0 0
1062 1 12.151645812093259 24.553536575336796 0.6972797528766411 0 0 0
1066 1 16.202050352093263 24.553536575336796 0.697279752876639 0 0 0
1068 1 14.177304033230207 25.722298656670443 -0.001738351259444355 0 0 0
1165 1 14.176848082093253 28.061289802580788 0.6972797528766383 0 0 0
1070 1 20.252454892093265 24.553536575336793 0.6972797528766405 0 0 0
1072 1 18.227708573230206 25.72229865667044 -0.0017383512594451494 0 0 0
1076 1 22.278113113230212 25.72229865667044 -0.0017383512594464439 0 0 0
1169 1 18.227252622093253 28.06128980258079 0.6972797528766402 0 0 0
1173 1 22.277657162093263 28.061289802580795 0.6972797528766392 0 0 0
1074 1 24.30285943209325 24.553536575336793 0.6972797528766411 0 0 0
1078 1 28.353263972093252 24.5535365753368 0.6972797528766418 0 0 0
1080 1 26.328517653230215 25.722298656670443 -0.0017383512594455852 0 0 0
1177 1 26.32806170209326 28.061289802580788 0.6972797528766383 0 0 0
1082 1 32.40366851209326 24.553536575336796 0.6972797528766406 0 0 0
1084 1 30.378922193230206 25.722298656670446 -0.0017383512594449104 0 0 0
1088 1 34.429326733230205 25.722298656670443 -0.0017383512594444615 0 0 0
1181 1 30.37846624209326 28.061289802580788 0.6972797528766401 0 0 0
1185 1 34.42887078209325 28.061289802580788 0.6972797528766399 0 0 0
1086 1 36.45407305209326 24.553536575336796 0.6972797528766392 0 0 0
1090 1 40.50447759209326 24.553536575336793 0.6972797528766391 0 0 0
1092 1 38.47973127323021 25.722298656670443 -0.0017383512594445441 0 0 0
1189 1 38.479275322093244 28.06128980258079 0.6972797528766385 0 0 0
1094 1 44.55488213209326 24.553536575336793 0.6972797528766405 0 0 0
1096 1 42.5301358132302 25.72229865667044 -0.001738351259446429 0 0 0
1100 1 46.58054035323021 25.72229865667044 -0.0017383512594457817 0 0 0
1193 1 42.52967986209325 28.061289802580795 0.6972797528766396 0 0 0
1197 1 46.58008440209326 28.06128980258079 0.6972797528766405 0 0 0
1098 1 48.60528667209325 24.553536575336793 0.6972797528766398 0 0 0
1002 1 52.65569121209326 24.553536575336796 0.6972797528766388 -1 0 0
1004 1 50.630944893230215 25.722298656670446 -0.0017383512594431024 -1 0 0
1101 1 50.630488942093265 28.061289802580788 0.6972797528766367 -1 0 0
1006 1 56.70609575209327 24.553536575336793 0.6972797528766415 -1 0 0
1008 1 54.68134943323021 25.722298656670443 -0.0017383512594451082 -1 0 0
1012 1 58.73175397323021 25.72229865667044 -0.001738351259445776 -1 0 0
1105 1 54.68089348209327 28.061289802580788 0.6972797528766403 -1 0 0
1109 1 58.731298022093256 28.06128980258079 0.6972797528766396 -1 0 0
1010 1 60.75650029209326 24.553536575336796 0.697279752876639 -1 0 0
1014 1 64.80690483209327 24.553536575336796 0.6972797528766381 -1 0 0
1016 1 62.78215851323021 25.722298656670443 -0.0017383512594448002 -1 0 0
1113 1 62.781702562093265 28.06128980258079 0.6972797528766386 -1 0 0
1018 1 68.85730937209327 24.5535365753368 0.6972797528766436 -1 0 0
1020 1 66.8325630532302 25.72229865667044 -0.0017383512594481496 -1 0 0
1024 1 70.8829675932302 25.722298656670443 -0.0017383512594454816 -1 0 0
1117 1 66.83210710209327 28.061289802580795 0.6972797528766391 -1 0 0
1121 1 70.88251164209328 28.061289802580788 0.6972797528766385 -1 0 0
1022 1 72.90771391209327 24.553536575336796 0.697279752876639 -1 0 0
1026 1 76.95811845209327 24.553536575336796 0.6972797528766401 -1 0 0
1028 1 74.9333721332302 25.722298656670443 -0.0017383512594436909 -1 0 0
1125 1 74.93291618209327 28.061289802580788 0.6972797528766397 -1 0 0
1030 1 81.00852299209328 24.553536575336796 0.6972797528766393 -1 0 0
1032 1 78.9837766732302 25.72229865667044 -0.0017383512594445455 -1 0 0
1036 1 83.0341812132302 25.722298656670446 -0.00173835125944345 -1 0 0
1129 1 78.98332072209327 28.06128980258079 0.6972797528766422 -1 0 0
1133 1 83.03372526209327 28.061289802580788 0.6972797528766356 -1 0 0
1034 1 85.05892753209326 24.553536575336793 0.6972797528766403 -1 0 0
1038 1 89.10933207209327 24.553536575336796 0.6972797528766429 -1 0 0
1040 1 87.0845857532302 25.722298656670436 -0.0017383512594489861 -1 0 0
1137 1 87.08412980209326 28.061289802580795 0.6972797528766417 -1 0 0
1042 1 93.15973661209327 24.553536575336793 0.6972797528766367 -1 0 0
1044 1 91.1349902932302 25.722298656670443 -0.0017383512594442573 -1 0 0
1048 1 95.1853948332302 25.722298656670443 -0.0017383512594437798 -1 0 0
1141 1 91.13453434209327 28.061289802580788 0.6972797528766386 -1 0 0
1145 1 95.18493888209326 28.061289802580788 0.6972797528766398 -1 0 0
1046 1 97.21014115209326 24.5535365753368 0.6972797528766426 -1 0 0
1052 1 99.23579937323021 25.72229865667044 -0.001738351259445779 -1 0 0
1149 1 99.23534342209327 28.06128980258079 0.6972797528766419 -1 0 0
1151 1 0.0008881432302013608 29.230051883914435 -0.001738351259444053 0 0 0
1155 1 4.051292683230207 29.230051883914435 -0.0017383512594456065 0 0 0
1150 1 0.00043219209326260844 31.5690430298248 0.6972797528766405 0 0 0
1154 1 4.050836732093257 31.5690430298248 0.6972797528766408 0 0 0
1156 1 2.026090413230205 32.73780511115843 -0.0017383512594451459 0 0 0
1159 1 8.101697223230211 29.230051883914435 -0.0017383512594454746 0 0 0
1158 1 8.101241272093255 31.5690430298248 0.697279752876639 0 0 0
1160 1 6.0764949532302115 32.73780511115843 -0.001738351259444259 0 0 0
1164 1 10.12689949323021 32.73780511115843 -0.0017383512594451608 0 0 0
1163 1 12.15210176323021 29.23005188391443 -0.0017383512594461858 0 0 0
1167 1 16.202506303230216 29.230051883914435 -0.0017383512594454516 0 0 0
1162 1 12.151645812093259 31.569043029824805 0.6972797528766407 0 0 0
1166 1 16.202050352093263 31.5690430298248 0.6972797528766387 0 0 0
1168 1 14.177304033230207 32.73780511115844 -0.001738351259443526 0 0 0
1171 1 20.252910843230207 29.230051883914438 -0.00173835125944611 0 0 0
1170 1 20.252454892093265 31.5690430298248 0.6972797528766401 0 0 0
1172 1 18.227708573230206 32.73780511115843 -0.0017383512594457752 0 0 0
1176 1 22.278113113230212 32.73780511115843 -0.0017383512594462405 0 0 0
1175 1 24.303315383230206 29.230051883914435 -0.0017383512594444858 0 0 0
1179 1 28.353719923230205 29.23005188391443 -0.0017383512594463676 0 0 0
1174 1 24.302859432093253 31.5690430298248 0.6972797528766403 0 0 0
1178 1 28.353263972093256 31.569043029824805 0.6972797528766413 0 0 0