LAMMPS data file via write_data, version 29 Aug 2024, timestep = 3, units = metal

3000 atoms
4 atom types

0 98.137824852475 xlo xhi
0 101.98781927328 ylo yhi
-50 50 zlo zhi

Masses

1 69.723
2 69.723
3 30.973761998
4 30.973761998

Atoms # atomic

752 1 0.0009505180908060242 1.1329439205680376 0.20627172972067 0 0 0
754 3 1.9622133283173187 0.000188530300690104 0.3262753398804653 0 0 0
756 1 3.92646351218854 1.132943920566808 0.2062717297207041 0 0 0
853 3 3.924969825367566 3.3997825060752596 0.3262753398804957 0 0 0
855 1 1.9637070151368012 4.532537896342071 0.2062717297207043 0 0 0
758 3 5.887726322415081 0.0001885302988711146 0.3262753398804705 0 0 0
760 1 7.851976506288854 1.132943920567803 0.20627172972068827 0 0 0
762 3 9.813239316514556 0.00018853029973797675 0.32627533988044616 0 0 0
857 3 7.850482819464642 3.3997825060746507 0.3262753398804535 0 0 0
859 1 5.889220009238722 4.532537896343182 0.20627172972070867 0 0 0
863 1 9.81473300333844 4.532537896343537 0.2062717297206702 0 0 0
764 1 11.777489500386968 1.1329439205668614 0.20627172972068256 0 0 0
766 3 13.738752310613085 0.00018853029889953632 0.3262753398804637 0 0 0
768 1 15.703002494486782 1.132943920567872 0.20627172972069804 0 0 0
861 3 11.775995813564307 3.3997825060755815 0.32627533988045937 0 0 0
865 3 15.701508807661723 3.399782506074421 0.32627533988047003 0 0 0
867 1 13.740245997437082 4.532537896343198 0.20627172972070762 0 0 0
770 3 17.664265304712895 0.00018853030087484512 0.3262753398804638 0 0 0
772 1 19.628515488584842 1.1329439205658522 0.20627172972068183 0 0 0
774 3 21.589778298810877 0.00018853029874321692 0.3262753398804402 0 0 0
869 3 19.62702180175889 3.399782506076614 0.32627533988045926 0 0 0
871 1 17.665758991539146 4.53253789634186 0.20627172972068572 0 0 0
875 1 21.59127198563691 4.532537896343985 0.20627172972067548 0 0 0
776 1 23.55402848268436 1.132943920567917 0.20627172972067237 0 0 0
778 3 25.515291292912107 0.00018853030010745897 0.32627533988042606 0 0 0
780 1 27.479541476781243 1.1329439205659788 0.20627172972067484 0 0 0
873 3 23.552534795860343 3.3997825060749594 0.3262753398804108 0 0 0
877 3 27.4780477899619 3.399782506076564 0.32627533988046153 0 0 0
879 1 25.51678497973362 4.532537896343257 0.20627172972064575 0 0 0
782 3 29.44080428700987 0.00018853029872900606 0.32627533988049223 0 0 0
784 1 31.40505447088312 1.1329439205676284 0.20627172972070795 0 0 0
786 3 33.36631728110717 0.00018853029878584948 0.3262753398804473 0 0 0
881 3 31.403560784058925 3.399782506074583 0.32627533988048124 0 0 0
883 1 29.442297973831515 4.532537896342624 0.20627172972070956 0 0 0
887 1 33.36781096793301 4.532537896343719 0.20627172972069072 0 0 0
788 1 35.330567464981705 1.1329439205680318 0.2062717297206581 0 0 0
790 3 37.291830275209 0.00018853030012166982 0.3262753398804237 0 0 0
792 1 39.2560804590784 1.1329439205659357 0.20627172972067914 0 0 0
885 3 35.32907377815754 3.399782506074858 0.32627533988042173 0 0 0
889 3 39.25458677225917 3.399782506076525 0.32627533988046215 0 0 0
891 1 37.29332396203042 4.532537896343348 0.20627172972064428 0 0 0
794 3 41.21734326930676 0.0001885302988142712 0.3262753398804781 0 0 0
796 1 43.181593453179254 1.132943920567959 0.20627172972068591 0 0 0
798 3 45.14285626340712 0.0001885303001643024 0.32627533988041557 0 0 0
893 3 43.1800997663565 3.39978250607467 0.32627533988044255 0 0 0
895 1 41.21883695612839 4.532537896342584 0.2062717297207128 0 0 0
899 1 45.14434995022826 4.532537896343251 0.20627172972065633 0 0 0
800 1 47.107106447275804 1.1329439205660419 0.2062717297206686 0 0 0
702 3 49.06836925750636 0.00018853029979482017 0.32627533988047114 -1 0 0
704 1 51.03261944137592 1.13294392056688 0.2062717297207036 -1 0 0
897 3 47.10561276045744 3.399782506076585 0.3262753398804453 0 0 0
801 3 51.03112575455547 3.399782506075402 0.32627533988046653 -1 0 0
803 1 49.069862944325656 4.53253789634228 0.20627172972069766 -1 0 0
706 3 52.993882251604454 0.0001885302997521876 0.3262753398804662 -1 0 0
708 1 54.95813243547571 1.1329439205668286 0.20627172972069463 -1 0 0
710 3 56.91939524570212 0.0001885302988711146 0.32627533988046925 -1 0 0
805 3 54.95663874865354 3.399782506075485 0.3262753398804693 -1 0 0
807 1 52.99537593842624 4.5325378963428955 0.20627172972069346 -1 0 0
811 1 56.92088893252603 4.532537896343256 0.20627172972069666 -1 0 0
712 1 58.88364542957569 1.1329439205678298 0.20627172972068022 -1 0 0
714 3 60.844908239802116 0.0001885302997521876 0.32627533988042534 -1 0 0
716 1 62.80915842367253 1.1329439205678449 0.20627172972069768 -1 0 0
809 3 58.88215174275162 3.39978250607472 0.3262753398804538 -1 0 0
813 3 62.80766473685004 3.3997825060744837 0.3262753398804611 -1 0 0
815 1 60.846401926625624 4.532537896343393 0.20627172972068286 -1 0 0
718 3 64.77042123390251 0.00018853030042009777 0.3262753398804836 -1 0 0
720 1 66.73467141777245 1.1329439205655691 0.20627172972069552 -1 0 0
722 3 68.69593422799888 0.00018853029882848205 0.32627533988044716 -1 0 0
817 3 66.73317773094696 3.3997825060766775 0.32627533988047547 -1 0 0
819 1 64.77191492072676 4.5325378963421 0.20627172972069713 -1 0 0
823 1 68.69742791482496 4.532537896343934 0.2062717297206684 -1 0 0
724 1 70.66018441187222 1.132943920567936 0.20627172972066757 -1 0 0
726 3 72.62144722210023 0.00018853030005061555 0.326275339880429 -1 0 0
728 1 74.5856974059693 1.132943920565897 0.20627172972067462 -1 0 0
821 3 70.65869072504839 3.3997825060749616 0.3262753398804107 -1 0 0
825 3 74.58420371915004 3.3997825060766425 0.3262753398804603 -1 0 0
827 1 72.62294090892158 4.532537896343284 0.2062717297206456 -1 0 0
730 3 76.54696021619807 0.00018853029891374717 0.32627533988047314 -1 0 0
732 1 78.51121040006961 1.1329439205681044 0.20627172972067545 -1 0 0
734 3 80.47247321029933 0.00018853030029220008 0.32627533988040663 -1 0 0
829 3 78.5097167132477 3.3997825060744744 0.32627533988045065 -1 0 0
831 1 76.5484539030192 4.532537896342662 0.20627172972070681 -1 0 0
835 1 80.47396689711977 4.532537896343047 0.20627172972067373 -1 0 0
736 1 82.43672339416433 1.1329439205680705 0.20627172972068344 -1 0 0
738 3 84.39798620439969 0.00018853029861531923 0.3262753398805016 -1 0 0
740 1 86.36223638826685 1.1329439205655245 0.2062717297207061 -1 0 0
833 3 82.43522970734597 3.3997825060744504 0.32627533988045965 -1 0 0
837 3 86.36074270144222 3.399782506076641 0.32627533988048874 -1 0 0
839 1 84.39947989122108 4.532537896342458 0.20627172972072008 -1 0 0
742 3 88.32349919849378 0.0001885302986863735 0.32627533988047264 -1 0 0
744 1 90.28774938236852 1.1329439205675782 0.20627172972070135 -1 0 0
746 3 92.24901219259158 0.00018853029854426495 0.32627533988045987 -1 0 0
841 3 90.286255695543 3.3997825060749447 0.3262753398804293 -1 0 0
843 1 88.32499288532 4.532537896343949 0.20627172972067062 -1 0 0
847 1 92.25050587941728 4.532537896344108 0.20627172972066943 -1 0 0
748 1 94.21326237646932 1.1329439205658718 0.20627172972066796 -1 0 0
750 3 96.17452518668989 0.00018853030012166982 0.32627533988041874 -1 0 0
845 3 94.21176868964491 3.3997825060768188 0.3262753398804313 -1 0 0
849 3 98.13728168374662 3.3997825060747133 0.3262753398804391 -1 0 0
851 1 96.17601887351216 4.532537896343252 0.20627172972064511 -1 0 0
854 3 1.962213328317342 6.799376481852054 0.3262753398804624 0 0 0
852 1 0.0009505180907462497 7.932131872120235 0.2062717297206609 0 0 0
856 1 3.9264635121886173 7.932131872118915 0.20627172972069868 0 0 0
953 3 3.9249698253675755 10.198970457627249 0.32627533988049423 0 0 0
955 1 1.9637070151367946 11.331725847894036 0.20627172972070335 0 0 0
858 3 5.887726322415097 6.799376481850943 0.32627533988047003 0 0 0
862 3 9.813239316514576 6.799376481851245 0.3262753398804452 0 0 0
860 1 7.851976506288749 7.932131872119902 0.20627172972068436 0 0 0
957 3 7.850482819464634 10.198970457626617 0.3262753398804522 0 0 0
959 1 5.889220009238722 11.33172584789514 0.20627172972070776 0 0 0
963 1 9.814733003338423 11.331725847895559 0.20627172972066932 0 0 0
866 3 13.738752310613085 6.799376481850982 0.3262753398804623 0 0 0
864 1 11.777489500387047 7.932131872118965 0.20627172972067845 0 0 0
868 1 15.703002494486725 7.932131872119879 0.20627172972069577 0 0 0
961 3 11.775995813564332 10.198970457627546 0.32627533988045865 0 0 0
965 3 15.70150880766172 10.198970457626466 0.3262753398804688 0 0 0
967 1 13.740245997437093 11.331725847895138 0.20627172972070704 0 0 0
870 3 17.664265304712877 6.799376481852573 0.32627533988046226 0 0 0
874 3 21.589778298810895 6.799376481850663 0.32627533988043955 0 0 0
872 1 19.628515488584874 7.932131872117932 0.20627172972067684 0 0 0
969 3 19.627021801758875 10.198970457628619 0.32627533988045787 0 0 0
971 1 17.665758991539146 11.331725847893766 0.20627172972068508 0 0 0
975 1 21.59127198563691 11.331725847896005 0.20627172972067578 0 0 0
878 3 25.51529129291209 6.799376481851926 0.3262753398804256 0 0 0
876 1 23.55402848268433 7.932131872119925 0.2062717297206692 0 0 0
880 1 27.479541476781346 7.9321318721179495 0.20627172972067775 0 0 0
973 3 23.552534795860357 10.198970457626986 0.32627533988041074 0 0 0
977 3 27.47804778996194 10.198970457628558 0.3262753398804616 0 0 0
979 1 25.516784979733593 11.331725847895287 0.20627172972064642 0 0 0
882 3 29.440804287009858 6.799376481851183 0.32627533988049495 0 0 0
886 3 33.366317281107186 6.799376481850764 0.32627533988044727 0 0 0
884 1 31.405054470883055 7.932131872119593 0.20627172972071278 0 0 0
981 3 31.403560784058907 10.198970457626556 0.32627533988048096 0 0 0
983 1 29.442297973831497 11.331725847894587 0.20627172972070965 0 0 0
987 1 33.367810967933025 11.331725847895694 0.20627172972069044 0 0 0
890 3 37.29183027520898 6.799376481851935 0.3262753398804226 0 0 0
888 1 35.330567464981684 7.932131872120038 0.206271729720656 0 0 0
892 1 39.25608045907848 7.932131872117914 0.20627172972068092 0 0 0
985 3 35.329073778157536 10.19897045762689 0.32627533988042073 0 0 0
989 3 39.25458677225921 10.198970457628535 0.32627533988046237 0 0 0
991 1 37.2933239620304 11.331725847895367 0.20627172972064464 0 0 0
894 3 41.217343269306774 6.799376481851247 0.3262753398804806 0 0 0
898 3 45.142856263407104 6.799376481851994 0.3262753398804161 0 0 0
896 1 43.181593453179175 7.932131872119911 0.2062717297206883 0 0 0
993 3 43.18009976635646 10.198970457626666 0.32627533988044355 0 0 0
995 1 41.21883695612837 11.331725847894532 0.20627172972071306 0 0 0
999 1 45.14434995022827 11.331725847895303 0.20627172972065558 0 0 0
802 3 49.06836925750637 6.799376481851864 0.32627533988047186 -1 0 0
900 1 47.10710644727584 7.93213187211807 0.20627172972066715 0 0 0
804 1 51.032619441375886 7.932131872118916 0.20627172972070237 -1 0 0
997 3 47.10561276045746 10.198970457628576 0.3262753398804452 0 0 0
901 3 51.03112575455548 10.198970457627368 0.3262753398804673 -1 0 0
903 1 49.06986294432562 11.331725847894324 0.206271729720698 -1 0 0
806 3 52.99388225160446 6.799376481851513 0.32627533988046215 -1 0 0
810 3 56.919395245702106 6.799376481850956 0.3262753398804679 -1 0 0
808 1 54.95813243547575 7.93213187211885 0.20627172972069518 -1 0 0
905 3 54.95663874865356 10.198970457627464 0.32627533988046886 -1 0 0
907 1 52.99537593842624 11.331725847894957 0.20627172972069477 -1 0 0
911 1 56.92088893252605 11.331725847895209 0.20627172972069616 -1 0 0
814 3 60.84490823980214 6.799376481851399 0.3262753398804285 -1 0 0
812 1 58.883645429575616 7.9321318721199265 0.20627172972067756 -1 0 0
816 1 62.80915842367251 7.932131872120004 0.20627172972068733 -1 0 0
909 3 58.88215174275157 10.198970457626656 0.326275339880453 -1 0 0
913 3 62.80766473685005 10.198970457626434 0.3262753398804606 -1 0 0
915 1 60.846401926625646 11.331725847895504 0.20627172972068278 -1 0 0
818 3 64.77042123390251 6.799376481851938 0.32627533988048285 -1 0 0
822 3 68.69593422799886 6.799376481850784 0.326275339880447 -1 0 0
820 1 66.73467141777252 7.932131872117647 0.20627172972069066 -1 0 0
917 3 66.73317773094698 10.19897045762866 0.3262753398804757 -1 0 0
919 1 64.77191492072676 11.331725847894168 0.20627172972069793 -1 0 0
923 1 68.69742791482496 11.33172584789596 0.2062717297206695 -1 0 0
826 3 72.62144722210019 6.799376481851869 0.3262753398804274 -1 0 0
824 1 70.66018441187222 7.9321318721199425 0.20627172972066504 -1 0 0
828 1 74.58569740596938 7.932131872117883 0.20627172972067553 -1 0 0
921 3 70.65869072504839 10.19897045762699 0.32627533988040963 -1 0 0
925 3 74.58420371915012 10.198970457628645 0.3262753398804606 -1 0 0
927 1 72.62294090892152 11.331725847895319 0.20627172972064578 -1 0 0
830 3 76.5469602161981 6.799376481851327 0.3262753398804747 -1 0 0
834 3 80.47247321029933 6.799376481852165 0.3262753398804078 -1 0 0
832 1 78.51121040006952 7.932131872120042 0.20627172972067698 -1 0 0
929 3 78.5097167132477 10.1989704576265 0.3262753398804523 -1 0 0
931 1 76.54845390301915 11.331725847894607 0.20627172972070731 -1 0 0
935 1 80.47396689711977 11.331725847895042 0.20627172972067315 -1 0 0
838 3 84.39798620439966 6.799376481851107 0.32627533988050494 -1 0 0
836 1 82.43672339416443 7.932131872119997 0.20627172972068616 -1 0 0
840 1 86.3622363882668 7.9321318721174565 0.20627172972071037 -1 0 0
933 3 82.43522970734597 10.198970457626467 0.3262753398804609 -1 0 0
937 3 86.3607427014422 10.198970457628642 0.3262753398804895 -1 0 0
939 1 84.39947989122106 11.33172584789445 0.20627172972071975 -1 0 0
842 3 88.32349919849375 6.79937648185062 0.32627533988047186 -1 0 0
846 3 92.24901219259156 6.7993764818504925 0.3262753398804571 -1 0 0
844 1 90.28774938236853 7.932131872119555 0.20627172972069857 -1 0 0
941 3 90.28625569554303 10.198970457626997 0.32627533988042945 -1 0 0
943 1 88.32499288531999 11.331725847895965 0.20627172972067062 -1 0 0
947 1 92.25050587941722 11.331725847896099 0.20627172972066937 -1 0 0
850 3 96.1745251866899 6.799376481851932 0.32627533988042107 -1 0 0
848 1 94.21326237646927 7.932131872117918 0.20627172972066538 -1 0 0
945 3 94.21176868964494 10.198970457628798 0.32627533988043156 -1 0 0
949 3 98.13728168374668 10.198970457626626 0.3262753398804392 -1 0 0
951 1 96.17601887351212 11.331725847895335 0.20627172972064403 -1 0 0
952 1 0.0009505180907692857 14.731319823672074 0.20627172972066093 0 0 0
954 3 1.9622133283173115 13.598564433404137 0.32627533988046054 0 0 0
956 1 3.9264635121886267 14.731319823670882 0.20627172972070015 0 0 0
958 3 5.887726322415094 13.598564433403018 0.32627533988046864 0 0 0
960 1 7.851976506288749 14.731319823671814 0.20627172972068547 0 0 0
962 3 9.813239316514567 13.598564433403258 0.3262753398804432 0 0 0
964 1 11.777489500387047 14.731319823670956 0.20627172972067978 0 0 0
966 3 13.738752310613107 13.598564433403059 0.32627533988046153 0 0 0
968 1 15.703002494486725 14.731319823671777 0.20627172972069807 0 0 0
970 3 17.66426530471287 13.598564433404679 0.32627533988046165 0 0 0
972 1 19.628515488584846 14.731319823669933 0.20627172972067806 0 0 0
974 3 21.589778298810902 13.598564433402633 0.32627533988043983 0 0 0
976 1 23.554028482684334 14.731319823671944 0.20627172972066865 0 0 0
978 3 25.51529129291209 13.59856443340389 0.3262753398804255 0 0 0
980 1 27.479541476781353 14.731319823669944 0.20627172972067742 0 0 0
982 3 29.440804287009872 13.598564433403237 0.3262753398804935 0 0 0
984 1 31.40505447088304 14.73131982367149 0.2062717297207127 0 0 0
986 3 33.36631728110719 13.598564433402812 0.3262753398804464 0 0 0
988 1 35.33056746498166 14.731319823672022 0.20627172972065594 0 0 0
990 3 37.29183027520897 13.598564433403908 0.3262753398804228 0 0 0
992 1 39.25608045907849 14.731319823669908 0.2062717297206806 0 0 0
994 3 41.217343269306795 13.598564433403304 0.3262753398804796 0 0 0
996 1 43.18159345317915 14.731319823671836 0.2062717297206876 0 0 0
998 3 45.14285626340711 13.598564433403958 0.32627533988041535 0 0 0
1000 1 47.10710644727584 14.73131982367008 0.20627172972066649 0 0 0
902 3 49.06836925750636 13.598564433403814 0.3262753398804722 -1 0 0
904 1 51.0326194413759 14.73131982367096 0.20627172972070276 -1 0 0
906 3 52.993882251604454 13.598564433403451 0.3262753398804608 -1 0 0
908 1 54.95813243547576 14.731319823670875 0.2062717297206962 -1 0 0
910 3 56.919395245702134 13.598564433403029 0.3262753398804671 -1 0 0
912 1 58.88364542957557 14.731319823671841 0.2062717297206773 -1 0 0
914 3 60.84490823980214 13.598564433403336 0.32627533988042556 -1 0 0
916 1 62.80915842367252 14.73131982367195 0.206271729720686 -1 0 0
918 3 64.7704212339025 13.598564433403887 0.32627533988048096 -1 0 0
920 1 66.7346714177725 14.731319823669702 0.20627172972068986 -1 0 0
922 3 68.69593422799889 13.598564433402737 0.32627533988044694 -1 0 0
924 1 70.6601844118722 14.731319823671967 0.20627172972066418 -1 0 0
926 3 72.62144722210022 13.598564433403826 0.3262753398804271 -1 0 0
928 1 74.58569740596937 14.731319823669876 0.20627172972067653 -1 0 0
930 3 76.54696021619812 13.598564433403377 0.32627533988047425 -1 0 0
932 1 78.51121040006952 14.731319823671974 0.20627172972067803 -1 0 0
934 3 80.47247321029931 13.598564433404176 0.32627533988040647 -1 0 0
936 1 82.43672339416445 14.731319823671935 0.20627172972068558 -1 0 0
938 3 84.39798620439969 13.598564433403146 0.326275339880502 -1 0 0
940 1 86.36223638826675 14.731319823669416 0.2062717297207109 -1 0 0
942 3 88.32349919849376 13.598564433402595 0.32627533988047225 -1 0 0
944 1 90.28774938236853 14.731319823671576 0.20627172972069902 -1 0 0
946 3 92.24901219259156 13.598564433402478 0.3262753398804584 -1 0 0
948 1 94.2132623764693 14.731319823669898 0.2062717297206647 -1 0 0
950 3 96.1745251866899 13.598564433403917 0.3262753398804168 -1 0 0
1055 1 1.9637070151367588 18.13091379944606 0.20627172972070398 0 0 0
1053 3 3.9249698253675707 16.998158409179233 0.32627533988049634 0 0 0
1052 1 0.0009505180907014093 21.530507775224073 0.20627172972066118 0 0 0
1054 3 1.962213328317342 20.39775238495609 0.3262753398804617 0 0 0
1056 1 3.926463512188649 21.53050777522282 0.2062717297206993 0 0 0
1059 1 5.889220009238743 18.13091379944717 0.20627172972070767 0 0 0
1057 3 7.850482819464647 16.998158409178682 0.3262753398804526 0 0 0
1063 1 9.814733003338405 18.130913799447526 0.20627172972066932 0 0 0
1058 3 5.887726322415061 20.397752384954998 0.32627533988046825 0 0 0
1060 1 7.851976506288758 21.530507775223818 0.20627172972068453 0 0 0
1062 3 9.813239316514586 20.397752384955297 0.32627533988044355 0 0 0
1061 3 11.775995813564322 16.998158409179535 0.3262753398804591 0 0 0
1067 1 13.740245997437109 18.130913799447168 0.20627172972070634 0 0 0
1065 3 15.701508807661723 16.998158409178508 0.3262753398804703 0 0 0
1064 1 11.777489500387057 21.53050777522285 0.20627172972067853 0 0 0
1066 3 13.738752310613064 20.39775238495505 0.32627533988046165 0 0 0
1068 1 15.703002494486732 21.530507775223793 0.20627172972069607 0 0 0
1071 1 17.665758991539114 18.130913799445835 0.20627172972068555 0 0 0
1069 3 19.627021801758918 16.9981584091806 0.3262753398804575 0 0 0
1075 1 21.591271985636908 18.130913799447917 0.2062717297206755 0 0 0
1070 3 17.664265304712867 20.397752384956615 0.3262753398804616 0 0 0
1072 1 19.62851548858488 21.530507775221903 0.20627172972067767 0 0 0
1074 3 21.589778298810895 20.397752384954742 0.32627533988043994 0 0 0
1073 3 23.552534795860353 16.998158409179005 0.32627533988040847 0 0 0
1079 1 25.516784979733593 18.130913799447196 0.2062717297206458 0 0 0
1077 3 27.478047789961927 16.99815840918058 0.32627533988046087 0 0 0
1076 1 23.554028482684334 21.53050777522387 0.2062717297206692 0 0 0
1078 3 25.515291292912092 20.397752384956 0.32627533988042573 0 0 0
1080 1 27.479541476781325 21.53050777522191 0.20627172972067803 0 0 0
1083 1 29.442297973831526 18.130913799446542 0.20627172972071006 0 0 0
1081 3 31.403560784058918 16.99815840917867 0.32627533988048063 0 0 0
1087 1 33.36781096793298 18.13091379944765 0.20627172972069063 0 0 0
1082 3 29.440804287009875 20.397752384955254 0.32627533988049456 0 0 0
1084 1 31.40505447088304 21.530507775223487 0.2062717297207128 0 0 0
1086 3 33.366317281107186 20.39775238495483 0.3262753398804474 0 0 0
1085 3 35.32907377815756 16.99815840917891 0.32627533988042073 0 0 0
1091 1 37.29332396203041 18.130913799447278 0.20627172972064423 0 0 0
1089 3 39.25458677225919 16.998158409180554 0.32627533988046165 0 0 0
1088 1 35.33056746498169 21.530507775223985 0.2062717297206564 0 0 0
1090 3 37.29183027520897 20.39775238495601 0.3262753398804228 0 0 0
1092 1 39.25608045907846 21.530507775221874 0.206271729720681 0 0 0
1095 1 41.2188369561284 18.130913799446493 0.20627172972071345 0 0 0
1093 3 43.180099766356484 16.998158409178785 0.326275339880442 0 0 0
1099 1 45.14434995022823 18.13091379944718 0.20627172972065524 0 0 0
1094 3 41.217343269306795 20.397752384955325 0.32627533988048063 0 0 0
1096 1 43.181593453179175 21.530507775223796 0.20627172972068789 0 0 0
1098 3 45.14285626340711 20.397752384956075 0.3262753398804163 0 0 0
1097 3 47.10561276045747 16.998158409180586 0.3262753398804448 0 0 0
1003 1 49.069862944325614 18.13091379944634 0.20627172972069857 -1 0 0
1001 3 51.03112575455547 16.998158409179325 0.32627533988046703 -1 0 0
1100 1 47.10710644727581 21.530507775222052 0.20627172972066646 0 0 0
1002 3 49.068369257506355 20.397752384955783 0.32627533988047264 -1 0 0
1004 1 51.03261944137585 21.530507775223075 0.20627172972070104 -1 0 0
1007 1 52.995375938426214 18.130913799447065 0.2062717297206948 -1 0 0
1005 3 54.95663874865359 16.998158409179403 0.32627533988047 -1 0 0
1011 1 56.92088893252604 18.13091379944724 0.20627172972069527 -1 0 0
1006 3 52.993882251604525 20.397752384955353 0.3262753398804614 -1 0 0
1008 1 54.95813243547577 21.530507775222798 0.20627172972069477 -1 0 0
1010 3 56.9193952457021 20.39775238495502 0.3262753398804672 -1 0 0
1009 3 58.88215174275161 16.998158409178735 0.32627533988045404 -1 0 0
1015 1 60.84640192662563 18.130913799447438 0.2062717297206843 -1 0 0
1013 3 62.807664736850036 16.998158409178515 0.32627533988046187 -1 0 0
1012 1 58.88364542957558 21.530507775223843 0.20627172972067645 -1 0 0
1014 3 60.84490823980214 20.397752384955353 0.3262753398804268 -1 0 0
1016 1 62.80915842367249 21.530507775223985 0.20627172972068583 -1 0 0
1019 1 64.77191492072674 18.130913799446212 0.20627172972069846 -1 0 0
1017 3 66.73317773094699 16.998158409180636 0.3262753398804743 -1 0 0
1023 1 68.69742791482496 18.130913799447875 0.2062717297206686 -1 0 0
1018 3 64.77042123390248 20.39775238495581 0.3262753398804826 -1 0 0
1020 1 66.73467141777256 21.530507775221693 0.20627172972068922 -1 0 0
1022 3 68.69593422799888 20.397752384954845 0.3262753398804469 -1 0 0
1021 3 70.6586907250484 16.99815840917901 0.32627533988040713 -1 0 0
1027 1 72.62294090892152 18.130913799447224 0.20627172972064511 -1 0 0
1025 3 74.5842037191501 16.998158409180657 0.3262753398804602 -1 0 0
1024 1 70.6601844118722 21.53050777522389 0.20627172972066476 -1 0 0
1026 3 72.62144722210022 20.39775238495594 0.32627533988042784 -1 0 0
1028 1 74.58569740596936 21.530507775221835 0.20627172972067717 -1 0 0
1031 1 76.54845390301918 18.130913799446574 0.20627172972070726 -1 0 0
1029 3 78.50971671324768 16.998158409178583 0.3262753398804509 -1 0 0
1035 1 80.47396689711974 18.130913799446983 0.20627172972067306 -1 0 0
1030 3 76.5469602161981 20.397752384955403 0.32627533988047414 -1 0 0
1032 1 78.51121040006952 21.53050777522395 0.20627172972067745 -1 0 0
1034 3 80.47247321029933 20.397752384956227 0.32627533988040797 -1 0 0
1033 3 82.43522970734601 16.998158409178554 0.3262753398804597 -1 0 0
1039 1 84.39947989122102 18.13091379944641 0.20627172972072172 -1 0 0
1037 3 86.36074270144223 16.99815840918069 0.32627533988048907 -1 0 0
1036 1 82.43672339416443 21.53050777522391 0.2062717297206857 -1 0 0
1038 3 84.39798620439964 20.397752384955126 0.3262753398805047 -1 0 0
1040 1 86.36223638826681 21.530507775221484 0.2062717297207113 -1 0 0
1043 1 88.32499288531999 18.130913799447885 0.20627172972067165 -1 0 0
1041 3 90.28625569554303 16.998158409179013 0.3262753398804269 -1 0 0
1047 1 92.25050587941722 18.130913799448017 0.20627172972067032 -1 0 0
1042 3 88.32349919849378 20.39775238495467 0.32627533988047147 -1 0 0
1044 1 90.28774938236852 21.530507775223526 0.2062717297206993 -1 0 0
1046 3 92.24901219259156 20.39775238495454 0.3262753398804598 -1 0 0
1045 3 94.21176868964493 16.998158409180853 0.32627533988043 -1 0 0
1051 1 96.17601887351215 18.130913799447224 0.20627172972064572 -1 0 0
1049 3 98.13728168374665 16.998158409178792 0.326275339880439 -1 0 0
1048 1 94.21326237646927 21.53050777522194 0.2062717297206652 -1 0 0
1050 3 96.17452518668995 20.39775238495598 0.3262753398804185 -1 0 0
1153 3 3.9249698253675693 23.797346360731304 0.32627533988049606 0 0 0
1155 1 1.9637070151367684 24.930101750998045 0.20627172972070507 0 0 0
1154 3 1.9622133283173429 27.19694033650809 0.32627533988046176 0 0 0
1152 1 0.0009505180907012543 28.329695726776073 0.20627172972066118 0 0 0
1156 1 3.9264635121886435 28.329695726774823 0.20627172972069924 0 0 0
1157 3 7.850482819464648 23.797346360730685 0.32627533988045243 0 0 0
1159 1 5.8892200092387315 24.930101750999153 0.20627172972070826 0 0 0
1163 1 9.814733003338416 24.930101750999516 0.2062717297206702 0 0 0
1158 3 5.887726322415076 27.19694033650701 0.3262753398804686 0 0 0
1162 3 9.813239316514592 27.196940336507296 0.32627533988044405 0 0 0
1160 1 7.851976506288744 28.329695726775807 0.20627172972068428 0 0 0
1161 3 11.775995813564318 23.797346360731623 0.3262753398804603 0 0 0
1165 3 15.701508807661721 23.79734636073051 0.32627533988047025 0 0 0
1167 1 13.740245997437102 24.930101750999153 0.20627172972070718 0 0 0
1166 3 13.738752310613062 27.19694033650705 0.32627533988046176 0 0 0
1164 1 11.777489500387055 28.329695726774855 0.20627172972067873 0 0 0
1168 1 15.703002494486734 28.329695726775793 0.20627172972069624 0 0 0
1169 3 19.627021801758918 23.797346360732615 0.3262753398804584 0 0 0
1171 1 17.665758991539114 24.930101750997835 0.20627172972068553 0 0 0
1175 1 21.591271985636908 24.930101750999917 0.20627172972067542 0 0 0
1170 3 17.664265304712867 27.196940336508614 0.3262753398804616 0 0 0
1174 3 21.589778298810895 27.196940336506742 0.32627533988043994 0 0 0
1172 1 19.62851548858488 28.329695726773906 0.20627172972067778 0 0 0
1173 3 23.552534795860353 23.797346360731034 0.32627533988041013 0 0 0
1177 3 27.478047789961927 23.79734636073259 0.3262753398804616 0 0 0
1179 1 25.516784979733593 24.930101750999196 0.20627172972064572 0 0 0
1178 3 25.515291292912092 27.196940336508 0.32627533988042573 0 0 0
1176 1 23.554028482684338 28.32969572677587 0.20627172972066934 0 0 0
1180 1 27.479541476781325 28.32969572677391 0.2062717297206782 0 0 0
1181 3 31.403560784058918 23.797346360730668 0.32627533988048046 0 0 0
1183 1 29.442297973831526 24.930101750998542 0.2062717297207101 0 0 0
1187 1 33.36781096793298 24.93010175099965 0.20627172972069066 0 0 0
1182 3 29.440804287009875 27.196940336507254 0.32627533988049456 0 0 0
1186 3 33.366317281107186 27.19694033650683 0.3262753398804474 0 0 0
1184 1 31.40505447088304 28.329695726775487 0.20627172972071314 0 0 0
1185 3 35.32907377815756 23.797346360730923 0.3262753398804216 0 0 0
1189 3 39.254586772259195 23.797346360732565 0.3262753398804623 0 0 0
1191 1 37.29332396203041 24.930101750999277 0.20627172972064417 0 0 0
1190 3 37.29183027520897 27.19694033650801 0.3262753398804228 0 0 0
1188 1 35.3305674649817 28.329695726775984 0.20627172972065655 0 0 0
1192 1 39.25608045907846 28.329695726773874 0.20627172972068117 0 0 0
1193 3 43.180099766356484 23.797346360730796 0.32627533988044277 0 0 0
1195 1 41.2188369561284 24.930101750998492 0.2062717297207135 0 0 0
1199 1 45.14434995022823 24.930101750999178 0.20627172972065516 0 0 0
1194 3 41.217343269306795 27.196940336507325 0.3262753398804807 0 0 0
1198 3 45.14285626340711 27.196940336508074 0.3262753398804163 0 0 0
1196 1 43.181593453179175 28.329695726775796 0.20627172972068808 0 0 0
1197 3 47.10561276045747 23.797346360732597 0.3262753398804455 0 0 0
1101 3 51.031125754555475 23.79734636073124 0.3262753398804664 -1 0 0
1103 1 49.06986294432561 24.93010175099835 0.20627172972069763 -1 0 0
1102 3 49.068369257506355 27.196940336507783 0.3262753398804725 -1 0 0
1200 1 47.10710644727581 28.32969572677405 0.20627172972066649 0 0 0
1104 1 51.03261944137585 28.329695726775075 0.20627172972070104 -1 0 0
1105 3 54.95663874865359 23.797346360731485 0.3262753398804705 -1 0 0
1107 1 52.995375938426236 24.930101750999068 0.2062717297206947 -1 0 0
1111 1 56.92088893252603 24.930101750999228 0.20627172972069602 -1 0 0
1106 3 52.993882251604525 27.196940336507353 0.32627533988046137 -1 0 0
1110 3 56.9193952457021 27.19694033650702 0.32627533988046725 -1 0 0
1108 1 54.95813243547577 28.329695726774798 0.2062717297206949 -1 0 0
1109 3 58.88215174275161 23.797346360730742 0.326275339880454 -1 0 0
1113 3 62.807664736850036 23.797346360730504 0.32627533988046087 -1 0 0
1115 1 60.84640192662563 24.93010175099943 0.20627172972068425 -1 0 0
1114 3 60.84490823980214 27.196940336507357 0.32627533988042706 -1 0 0
1112 1 58.88364542957558 28.329695726775842 0.2062717297206766 -1 0 0
1116 1 62.80915842367249 28.329695726775984 0.20627172972068586 -1 0 0
1117 3 66.73317773094699 23.79734636073264 0.32627533988047475 -1 0 0
1119 1 64.77191492072674 24.93010175099821 0.2062717297206986 -1 0 0
1123 1 68.69742791482496 24.930101750999874 0.20627172972066848 -1 0 0
1118 3 64.77042123390248 27.196940336507808 0.3262753398804826 -1 0 0
1122 3 68.69593422799888 27.19694033650685 0.3262753398804468 -1 0 0
1120 1 66.73467141777256 28.329695726773693 0.20627172972068944 -1 0 0
1121 3 70.6586907250484 23.79734636073104 0.32627533988040913 -1 0 0
1125 3 74.5842037191501 23.79734636073267 0.32627533988046103 -1 0 0
1127 1 72.62294090892154 24.930101750999224 0.206271729720645 -1 0 0
1126 3 72.62144722210019 27.19694033650794 0.32627533988042845 -1 0 0
1124 1 70.66018441187221 28.329695726775878 0.2062717297206654 -1 0 0
1128 1 74.58569740596937 28.329695726773842 0.20627172972067623 -1 0 0