LAMMPS data file via write_data, version 29 Aug 2024, timestep = 3, units = metal

4500 atoms
6 atom types

0 98.137824852475 xlo xhi
0 101.98781927328 ylo yhi
-50 50 zlo zhi

Masses

1 69.723
2 69.723
3 69.723
4 30.973761998
5 30.973761998
6 30.973761998

Atoms # atomic

752 1 0.0010645699773899327 1.1329180870465856 0.16256976647953378 0 0 0
754 4 1.9619995695600707 0.0002455875617641823 0.34342843121633504 0 0 0
756 1 3.926577564074834 1.1329180870450597 0.16256976647964835 0 0 0
853 4 3.9247560666101955 3.399839563336055 0.34342843121637584 0 0 0
855 1 1.9638210670222611 4.532512062820099 0.16256976647969137 0 0 0
758 4 5.88751256365752 0.00024558755951886724 0.34342843121632977 0 0 0
760 1 7.852090558175437 1.1329180870462676 0.16256976647960333 0 0 0
762 4 9.813025557757166 0.0002455875606273139 0.34342843121626804 0 0 0
857 4 7.850269060706826 3.39983956333529 0.34342843121629657 0 0 0
859 1 5.889334061124876 4.53251206282148 0.16256976647966914 0 0 0
863 1 9.814847055224776 4.532512062821936 0.16256976647956292 0 0 0
764 1 11.777603552273293 1.1329180870451 0.16256976647961172 0 0 0
766 4 13.738538551855521 0.00024558755954728895 0.3434284312163193 0 0 0
768 1 15.703116546373344 1.1329180870463451 0.16256976647961133 0 0 0
861 4 11.775782054806713 3.3998395633364384 0.3434284312162884 0 0 0
865 4 15.70129504890372 3.399839563335006 0.34342843121635064 0 0 0
867 1 13.740360049323268 4.532512062821503 0.1625697664796662 0 0 0
770 4 17.664051545955633 0.0002455875620483994 0.3434284312162998 0 0 0
772 1 19.628629540471085 1.1329180870438418 0.1625697664796172 0 0 0
774 4 21.58956454005328 0.0002455875594051804 0.34342843121628747 0 0 0
869 4 19.626808043000413 3.3998395633377165 0.34342843121627953 0 0 0
871 1 17.665873043426167 4.532512062819859 0.1625697664796278 0 0 0
875 1 21.591386037523556 4.532512062822479 0.16256976647956567 0 0 0
776 1 23.554142534570847 1.132918087046392 0.16256976647955917 0 0 0
778 4 25.51507753415509 0.0002455875611389047 0.3434284312162048 0 0 0
780 1 27.479655528667156 1.1329180870439797 0.16256976647960822 0 0 0
873 4 23.55232103710248 3.3998395633356506 0.3434284312162071 0 0 0
877 4 27.47783403120469 3.399839563337652 0.3434284312162844 0 0 0
879 1 25.516899031619783 4.532512062821599 0.16256976647949958 0 0 0
782 4 29.440590528252496 0.00024558755939096955 0.34342843121638145 0 0 0
784 1 31.40516852276977 1.1329180870460205 0.16256976647965982 0 0 0
786 4 33.36610352234943 0.0002455875595046564 0.3434284312162782 0 0 0
881 4 31.403347025301183 3.399839563335211 0.3434284312163515 0 0 0
883 1 29.442412025717353 4.532512062820775 0.16256976647969185 0 0 0
887 1 33.367925019819474 4.532512062822147 0.16256976647962285 0 0 0
788 1 35.33068151686824 1.1329180870465214 0.1625697664795354 0 0 0
790 4 37.29161651645196 0.00024558756111048297 0.3434284312161959 0 0 0
792 1 39.25619451096435 1.132918087043939 0.162569766479619 0 0 0
885 4 35.32886001939967 3.3998395633355374 0.343428431216226 0 0 0
889 4 39.25437301350204 3.3998395633375957 0.3434284312162932 0 0 0
891 1 37.29343801391652 4.532512062821721 0.1625697664794849 0 0 0
794 4 41.2171295105493 0.00024558755949044553 0.3434284312163657 0 0 0
796 1 43.18170750506578 1.1329180870464426 0.1625697664795839 0 0 0
798 4 45.14264250465007 0.0002455875611673264 0.34342843121618094 0 0 0
893 4 43.1798860075988 3.3998395633353065 0.3434284312162833 0 0 0
895 1 41.218951008014216 4.532512062820721 0.1625697664797012 0 0 0
899 1 45.14446400211435 4.532512062821611 0.16256976647950572 0 0 0
800 1 47.10722049916163 1.1329180870440838 0.16256976647958238 0 0 0
702 4 49.06815549874932 0.00024558756066994647 0.34342843121634165 -1 0 0
704 1 51.03273349326206 1.132918087045158 0.16256976647963536 -1 0 0
897 4 47.105399001700356 3.399839563337668 0.3434284312162619 0 0 0
801 4 51.03091199579807 3.399839563336213 0.34342843121632527 -1 0 0
803 1 49.0699769962113 4.532512062820367 0.1625697664796547 -1 0 0
706 4 52.993668492847256 0.0002455875605988922 0.34342843121632183 -1 0 0
708 1 54.958246487362004 1.1329180870450726 0.16256976647963506 -1 0 0
710 4 56.91918148694458 0.0002455875595330781 0.34342843121632466 -1 0 0
805 4 54.95642498989597 3.3998395633363163 0.3434284312163182 -1 0 0
807 1 52.99548999031231 4.53251206282114 0.1625697664796207 -1 0 0
811 1 56.92100298441228 4.532512062821564 0.16256976647964708 -1 0 0
712 1 58.883759481462214 1.1329180870462978 0.16256976647958765 -1 0 0
714 4 60.84469448104484 0.00024558756064152476 0.34342843121622807 -1 0 0
716 1 62.809272475558465 1.1329180870463358 0.1625697664796017 -1 0 0
809 4 58.88193798399379 3.3998395633353784 0.34342843121628813 -1 0 0
813 4 62.807450978092106 3.399839563335082 0.34342843121632527 -1 0 0
815 1 60.846515978511995 4.532512062821761 0.16256976647959065 -1 0 0
718 4 64.77020747514564 0.00024558756142312177 0.3434284312163784 -1 0 0
720 1 66.73478546965869 1.1329180870435112 0.162569766479662 -1 0 0
722 4 68.69572046924125 0.0002455875595330781 0.3434284312162818 -1 0 0
817 4 66.73296397218841 3.3998395633378005 0.34342843121629973 -1 0 0
819 1 64.77202897261374 4.5325120628201265 0.1625697664796706 -1 0 0
823 1 68.69754196671163 4.532512062822425 0.1625697664795522 -1 0 0
724 1 70.66029846375865 1.1329180870464184 0.16256976647955107 -1 0 0
726 4 72.6212334633432 0.000245587561011007 0.3434284312162169 -1 0 0
728 1 74.5858114578553 1.132918087043901 0.1625697664796105 -1 0 0
821 4 70.65847696629052 3.3998395633356546 0.34342843121620653 -1 0 0
825 4 74.5839899603929 3.3998395633377503 0.343428431216277 -1 0 0
827 1 72.6230549608077 4.532512062821641 0.1625697664794971 -1 0 0
730 4 76.54674645744066 0.00024558755960413237 0.3434284312163435 -1 0 0
732 1 78.511324451956 1.132918087046615 0.16256976647956434 -1 0 0
734 4 80.47225945154253 0.00024558756130943493 0.34342843121614336 -1 0 0
829 4 78.5095029544901 3.3998395633350698 0.3434284312163091 -1 0 0
831 1 76.54856795490491 4.532512062820818 0.16256976647968197 -1 0 0
835 1 80.47408094900594 4.532512062821362 0.16256976647955598 -1 0 0
736 1 82.43683744604948 1.1329180870465971 0.16256976647957472 -1 0 0
738 4 84.39777244564338 0.0002455875592204393 0.34342843121641625 -1 0 0
740 1 86.36235044015292 1.132918087043435 0.16256976647969898 -1 0 0
833 4 82.43501594858826 3.3998395633350307 0.34342843121632755 -1 0 0
837 4 86.36052894268377 3.3998395633377605 0.34342843121632266 -1 0 0
839 1 84.3995939431079 4.532512062820568 0.16256976647972468 -1 0 0
742 4 88.32328543973615 0.00024558755936254784 0.34342843121632854 -1 0 0
744 1 90.2878634342552 1.1329180870459883 0.16256976647964055 -1 0 0
746 4 92.24879843383374 0.00024558755920622843 0.3434284312163232 -1 0 0
841 4 90.28604193678507 3.399839563335628 0.34342843121624145 -1 0 0
843 1 88.32510693720664 4.532512062822428 0.1625697664795598 -1 0 0
847 1 92.25061993130358 4.532512062822617 0.16256976647955249 -1 0 0
748 1 94.21337642835647 1.1329180870438662 0.16256976647959967 -1 0 0
750 4 96.17431142793176 0.00024558756108206126 0.3434284312161988 -1 0 0
845 4 94.21155493088769 3.399839563337952 0.34342843121621625 -1 0 0
849 4 98.13706792499012 3.3998395633353664 0.34342843121626726 -1 0 0
851 1 96.1761329253974 4.532512062821602 0.16256976647949617 -1 0 0
854 4 1.9619995695601076 6.799433539112996 0.3434284312163049 0 0 0
852 1 0.0010645699773223166 7.932106038598791 0.16256976647952243 0 0 0
856 1 3.926577564074899 7.93210603859716 0.16256976647964175 0 0 0
953 4 3.9247560666102053 10.199027514888044 0.34342843121637284 0 0 0
955 1 1.9638210670222593 11.331700014372055 0.16256976647968757 0 0 0
858 4 5.887512563657546 6.799433539111641 0.34342843121633493 0 0 0
862 4 9.813025557757186 6.799433539112042 0.3434284312162502 0 0 0
860 1 7.852090558175319 7.932106038598366 0.1625697664795987 0 0 0
957 4 7.850269060706826 10.19902751488725 0.34342843121629313 0 0 0
959 1 5.889334061124873 11.33170001437343 0.1625697664796654 0 0 0
963 1 9.814847055224751 11.331700014373961 0.16256976647956162 0 0 0
866 4 13.73853855185553 6.79943353911168 0.3434284312163225 0 0 0
864 1 11.777603552273376 7.932106038597212 0.16256976647960666 0 0 0
868 1 15.703116546373264 7.9321060385983575 0.1625697664796071 0 0 0
961 4 11.775782054806747 10.199027514888398 0.34342843121628663 0 0 0
965 4 15.701295048903718 10.199027514887058 0.3434284312163466 0 0 0
967 1 13.74036004932328 11.33170001437342 0.16256976647966373 0 0 0
870 4 17.664051545955623 6.799433539113659 0.3434284312162873 0 0 0
874 4 21.58956454005331 6.799433539111286 0.34342843121628464 0 0 0
872 1 19.62862954047111 7.932106038595953 0.16256976647960786 0 0 0
969 4 19.62680804300038 10.199027514889714 0.3434284312162758 0 0 0
971 1 17.665873043426167 11.331700014371737 0.1625697664796258 0 0 0
975 1 21.59138603752357 11.331700014374501 0.1625697664795665 0 0 0
878 4 25.51507753415505 6.799433539112883 0.34342843121619765 0 0 0
876 1 23.554142534570826 7.932106038598402 0.16256976647955285 0 0 0
880 1 27.479655528667273 7.932106038595966 0.16256976647960958 0 0 0
973 4 23.552321037102484 10.199027514887685 0.34342843121620803 0 0 0
977 4 27.477834031204736 10.199027514889647 0.34342843121628536 0 0 0
979 1 25.51689903161975 11.331700014373647 0.16256976647950117 0 0 0
882 4 29.440590528252482 6.799433539111921 0.3434284312164037 0 0 0
886 4 33.36610352234943 6.79943353911143 0.3434284312162755 0 0 0
884 1 31.405168522769706 7.932106038598009 0.162569766479667 0 0 0
981 4 31.403347025301176 10.19902751488718 0.34342843121634914 0 0 0
983 1 29.442412025717335 11.331700014372725 0.16256976647968996 0 0 0
987 1 33.36792501981947 11.331700014374112 0.16256976647961918 0 0 0
890 4 37.291616516451924 6.799433539112895 0.3434284312161879 0 0 0
888 1 35.33068151686824 7.932106038598527 0.16256976647953017 0 0 0
892 1 39.25619451096443 7.932106038595926 0.16256976647961846 0 0 0
985 4 35.3288600193997 10.199027514887574 0.34342843121622657 0 0 0
989 4 39.25437301350208 10.199027514889613 0.3434284312162912 0 0 0
991 1 37.2934380139165 11.331700014373741 0.16256976647948906 0 0 0
894 4 41.217129510549334 6.799433539111992 0.3434284312163856 0 0 0
898 4 45.14264250465006 6.799433539112971 0.34342843121617433 0 0 0
896 1 43.18170750506569 7.932106038598389 0.1625697664795886 0 0 0
993 4 43.17988600759877 10.199027514887305 0.3434284312162861 0 0 0
995 1 41.218951008014194 11.33170001437266 0.1625697664797017 0 0 0
999 1 45.14446400211437 11.331700014373672 0.1625697664795053 0 0 0
802 4 49.06815549874934 6.799433539112758 0.34342843121634453 -1 0 0
900 1 47.107220499161656 7.932106038596113 0.16256976647957988 0 0 0
804 1 51.03273349326203 7.932106038597166 0.16256976647963636 -1 0 0
997 4 47.105399001700384 10.199027514889657 0.34342843121626143 0 0 0
901 4 51.03091199579809 10.199027514888176 0.34342843121632877 -1 0 0
903 1 49.06997699621127 11.331700014372423 0.16256976647965607 -1 0 0
806 4 52.99366849284724 6.799433539112349 0.3434284312163061 -1 0 0
810 4 56.91918148694453 6.799433539111662 0.3434284312163287 -1 0 0
808 1 54.95824648736206 7.932106038597082 0.16256976647963917 -1 0 0
905 4 54.95642498989599 10.19902751488829 0.34342843121631755 -1 0 0
907 1 52.99548999031231 11.331700014373212 0.1625697664796226 -1 0 0
911 1 56.92100298441227 11.331700014373519 0.16256976647964214 -1 0 0
814 4 60.84469448104485 6.799433539112223 0.34342843121621786 -1 0 0
812 1 58.88375948146216 7.932106038598407 0.16256976647958454 -1 0 0
816 1 62.80927247555846 7.932106038598498 0.16256976647958687 -1 0 0
909 4 58.88193798399376 10.199027514887293 0.3434284312162872 -1 0 0
913 4 62.80745097809211 10.199027514887023 0.3434284312163277 -1 0 0
915 1 60.846515978511995 11.331700014373888 0.16256976647959087 -1 0 0
818 4 64.77020747514564 6.799433539112854 0.3434284312163604 -1 0 0
822 4 68.69572046924127 6.799433539111454 0.34342843121627925 -1 0 0
820 1 66.73478546965875 7.932106038595614 0.16256976647965174 -1 0 0
917 4 66.7329639721885 10.199027514889776 0.34342843121630096 -1 0 0
919 1 64.77202897261371 11.331700014372226 0.16256976647966728 -1 0 0
923 1 68.6975419667116 11.33170001437444 0.162569766479558 -1 0 0
826 4 72.6212334633432 6.799433539112802 0.3434284312162081 -1 0 0
824 1 70.66029846375864 7.932106038598424 0.1625697664795457 -1 0 0
828 1 74.58581145785537 7.932106038595874 0.16256976647961452 -1 0 0
921 4 70.65847696629052 10.19902751488768 0.3434284312162081 -1 0 0
925 4 74.58398996039293 10.199027514889751 0.34342843121627614 -1 0 0
927 1 72.6230549608077 11.33170001437368 0.1625697664795001 -1 0 0
830 4 76.54674645744066 6.799433539112091 0.34342843121636357 -1 0 0
834 4 80.47225945154253 6.7994335391131875 0.3434284312161377 -1 0 0
832 1 78.51132445195594 7.932106038598553 0.16256976647956728 -1 0 0
929 4 78.50950295449009 10.199027514887105 0.343428431216309 -1 0 0
931 1 76.54856795490491 11.331700014372759 0.1625697664796807 -1 0 0
935 1 80.47408094900595 11.331700014373357 0.16256976647955712 -1 0 0
838 4 84.3977724456433 6.799433539111825 0.34342843121643707 -1 0 0
836 1 82.43683744604961 7.932106038598492 0.16256976647958443 -1 0 0
840 1 86.36235044015288 7.932106038595378 0.16256976647970284 -1 0 0
933 4 82.43501594858826 10.199027514887053 0.3434284312163288 -1 0 0
937 4 86.36052894268376 10.199027514889764 0.3434284312163242 -1 0 0
939 1 84.39959394310789 11.33170001437256 0.16256976647972407 -1 0 0
842 4 88.32328543973614 6.799433539111265 0.34342843121632405 -1 0 0
846 4 92.24879843383373 6.7994335391110985 0.34342843121631844 -1 0 0
844 1 90.2878634342552 7.932106038597968 0.16256976647963406 -1 0 0
941 4 90.28604193678517 10.199027514887701 0.34342843121623956 -1 0 0
943 1 88.32510693720661 11.331700014374455 0.16256976647955834 -1 0 0
947 1 92.25061993130346 11.331700014374603 0.16256976647955684 -1 0 0
850 4 96.17431142793174 6.799433539112881 0.343428431216194 -1 0 0
848 1 94.21337642835645 7.932106038595916 0.16256976647959595 -1 0 0
945 4 94.21155493088771 10.19902751488991 0.3434284312162216 -1 0 0
949 4 98.13706792499015 10.19902751488727 0.34342843121626493 -1 0 0
951 1 96.17613292539738 11.331700014373705 0.16256976647949492 -1 0 0
952 1 0.0010645699773525587 14.731293990150595 0.162569766479519 0 0 0
954 4 1.96199956956007 13.598621490665101 0.3434284312163013 0 0 0
956 1 3.9265775640749094 14.731293990149119 0.16256976647964566 0 0 0
958 4 5.887512563657539 13.598621490663726 0.3434284312163342 0 0 0
960 1 7.85209055817532 14.731293990150276 0.16256976647959806 0 0 0
962 4 9.813025557757179 13.598621490664053 0.34342843121624667 0 0 0
964 1 11.777603552273375 14.731293990149199 0.16256976647960883 0 0 0
966 4 13.738538551855557 13.598621490663783 0.3434284312163227 0 0 0
968 1 15.703116546373261 14.731293990150222 0.16256976647960908 0 0 0
970 4 17.66405154595561 13.59862149066579 0.34342843121628874 0 0 0
972 1 19.62862954047109 14.731293990147945 0.16256976647961024 0 0 0
974 4 21.58956454005331 13.598621490663257 0.34342843121628414 0 0 0
976 1 23.554142534570822 14.731293990150428 0.16256976647955115 0 0 0
978 4 25.515077534155058 13.59862149066483 0.34342843121619665 0 0 0
980 1 27.479655528667287 14.731293990147961 0.16256976647960936 0 0 0
982 4 29.440590528252493 13.598621490663989 0.3434284312164034 0 0 0
984 1 31.405168522769706 14.731293990149885 0.16256976647966548 0 0 0
986 4 33.36610352234942 13.598621490663497 0.3434284312162744 0 0 0
988 1 35.330681516868225 14.731293990150508 0.16256976647953011 0 0 0
990 4 37.291616516451924 13.59862149066486 0.3434284312161862 0 0 0
992 1 39.256194510964434 14.731293990147927 0.16256976647961832 0 0 0
994 4 41.21712951054937 13.598621490664057 0.3434284312163846 0 0 0
996 1 43.181707505065646 14.731293990150299 0.16256976647958474 0 0 0
998 4 45.14264250465007 13.59862149066492 0.34342843121617334 0 0 0
1000 1 47.10722049916165 14.731293990148139 0.16256976647957774 0 0 0
902 4 49.06815549874934 13.598621490664693 0.3434284312163442 -1 0 0
904 1 51.03273349326203 14.731293990149213 0.1625697664796354 -1 0 0
906 4 52.99366849284725 13.598621490664277 0.343428431216304 -1 0 0
908 1 54.95824648736206 14.731293990149117 0.16256976647964078 -1 0 0
910 4 56.91918148694458 13.598621490663746 0.3434284312163291 -1 0 0
912 1 58.883759481462114 14.731293990150297 0.16256976647958363 -1 0 0
914 4 60.84469448104482 13.598621490664147 0.3434284312162122 -1 0 0
916 1 62.809272475558494 14.731293990150423 0.16256976647958019 -1 0 0
918 4 64.7702074751456 13.598621490664797 0.34342843121635613 -1 0 0
920 1 66.73478546965875 14.731293990147666 0.16256976647965024 -1 0 0
922 4 68.69572046924127 13.598621490663401 0.3434284312162798 -1 0 0
924 1 70.66029846375864 14.731293990150453 0.1625697664795435 -1 0 0
926 4 72.6212334633432 13.598621490664748 0.3434284312162069 -1 0 0
928 1 74.58581145785537 14.731293990147869 0.16256976647961366 -1 0 0
930 4 76.54674645744068 13.598621490664152 0.3434284312163643 -1 0 0
932 1 78.51132445195593 14.731293990150466 0.1625697664795649 -1 0 0
934 4 80.47225945154253 13.598621490665202 0.34342843121613503 -1 0 0
936 1 82.43683744604957 14.731293990150425 0.1625697664795782 -1 0 0
938 4 84.39777244564337 13.598621490663852 0.34342843121643546 -1 0 0
940 1 86.36235044015284 14.731293990147318 0.16256976647970459 -1 0 0
942 4 88.32328543973613 13.59862149066324 0.3434284312163235 -1 0 0
944 1 90.2878634342552 14.731293990149993 0.1625697664796329 -1 0 0
946 4 92.24879843383374 13.598621490663083 0.34342843121631883 -1 0 0
948 1 94.21337642835645 14.731293990147888 0.1625697664795931 -1 0 0
950 4 96.17431142793176 13.598621490664843 0.3434284312161868 -1 0 0
1055 1 1.9638210670222211 18.130887965924092 0.16256976647969315 0 0 0
1053 4 3.9247560666102004 16.998215466440026 0.3434284312163764 0 0 0
1052 1 0.0010645699772680285 21.53048194170259 0.16256976647951946 0 0 0
1054 4 1.9619995695601082 20.397809442217028 0.3434284312163013 0 0 0
1056 1 3.9265775640749387 21.530481941701037 0.1625697664796427 0 0 0
1059 1 5.889334061124896 18.130887965925467 0.16256976647966642 0 0 0
1057 4 7.850269060706835 16.998215466439323 0.3434284312162955 0 0 0
1063 1 9.81484705522474 18.130887965925915 0.16256976647956095 0 0 0
1058 4 5.887512563657499 20.39780944221571 0.3434284312163304 0 0 0
1060 1 7.8520905581753295 21.53048194170227 0.16256976647959678 0 0 0
1062 4 9.813025557757204 20.39780944221611 0.3434284312162464 0 0 0
1061 4 11.775782054806726 16.998215466440385 0.343428431216288 0 0 0
1067 1 13.7403600493233 18.13088796592547 0.16256976647966367 0 0 0
1065 4 15.701295048903724 16.998215466439117 0.34342843121635347 0 0 0
1064 1 11.77760355227339 21.530481941701066 0.16256976647960836 0 0 0
1066 4 13.738538551855504 20.397809442215767 0.3434284312163176 0 0 0
1068 1 15.703116546373268 21.530481941702238 0.16256976647960653 0 0 0
1071 1 17.665873043426128 18.13088796592383 0.1625697664796276 0 0 0
1069 4 19.626808043000434 16.998215466441692 0.34342843121627736 0 0 0
1075 1 21.591386037523563 18.1308879659264 0.16256976647956276 0 0 0
1070 4 17.66405154595561 20.397809442217707 0.3434284312162852 0 0 0
1072 1 19.628629540471135 21.53048194169991 0.1625697664796114 0 0 0
1074 4 21.5895645400533 20.397809442215394 0.34342843121628397 0 0 0
1073 4 23.552321037102484 16.998215466439706 0.3434284312162041 0 0 0
1079 1 25.51689903161975 18.130887965925535 0.16256976647949728 0 0 0
1077 4 27.477834031204722 16.99821546644167 0.3434284312162833 0 0 0
1076 1 23.554142534570826 21.530481941702337 0.1625697664795553 0 0 0
1078 4 25.51507753415506 20.397809442216975 0.3434284312161967 0 0 0
1080 1 27.479655528667248 21.530481941699914 0.16256976647961097 0 0 0
1083 1 29.442412025717367 18.13088796592468 0.1625697664796928 0 0 0
1081 4 31.403347025301183 16.99821546643932 0.34342843121634814 0 0 0
1087 1 33.36792501981942 18.130887965926064 0.16256976647962146 0 0 0
1082 4 29.440590528252493 20.397809442216 0.34342843121640554 0 0 0
1084 1 31.40516852276971 21.530481941701893 0.16256976647966517 0 0 0
1086 4 33.36610352234941 20.39780944221551 0.3434284312162774 0 0 0
1085 4 35.32886001939972 16.9982154664396 0.34342843121622635 0 0 0
1091 1 37.2934380139165 18.13088796592562 0.1625697664794849 0 0 0
1089 4 39.254373013502054 16.99821546644163 0.3434284312162899 0 0 0
1088 1 35.33068151686828 21.530481941702465 0.16256976647953256 0 0 0
1090 4 37.2916165164519 20.397809442217003 0.3434284312161869 0 0 0
1092 1 39.25619451096441 21.530481941699886 0.16256976647962065 0 0 0
1095 1 41.218951008014244 18.130887965924607 0.16256976647970364 0 0 0
1093 4 43.17988600759879 16.998215466439454 0.3434284312162818 0 0 0
1099 1 45.14446400211431 18.13088796592552 0.16256976647950347 0 0 0
1094 4 41.21712951054934 20.39780944221608 0.34342843121638683 0 0 0
1096 1 43.181707505065695 21.530481941702256 0.16256976647958635 0 0 0
1098 4 45.142642504650055 20.397809442217067 0.34342843121617544 0 0 0
1097 4 47.105399001700384 16.998215466441664 0.34342843121626043 0 0 0
1003 1 49.06997699621127 18.13088796592444 0.16256976647965654 -1 0 0
1001 4 51.03091199579807 16.998215466440126 0.3434284312163297 -1 0 0
1100 1 47.10722049916165 21.530481941700096 0.16256976647958105 0 0 0
1002 4 49.068155498749285 20.39780944221666 0.3434284312163454 -1 0 0
1004 1 51.032733493262015 21.530481941701378 0.16256976647963423 -1 0 0
1007 1 52.99548999031228 18.130887965925346 0.16256976647962199 -1 0 0
1005 4 54.956424989896036 16.998215466440215 0.3434284312163203 -1 0 0
1011 1 56.921002984412276 18.130887965925552 0.1625697664796448 -1 0 0
1006 4 52.99366849284732 20.39780944221617 0.34342843121630023 -1 0 0
1008 1 54.95824648736207 21.530481941701005 0.1625697664796386 -1 0 0
1010 4 56.91918148694453 20.397809442215728 0.3434284312163261 -1 0 0
1009 4 58.88193798399377 16.998215466439394 0.34342843121628996 -1 0 0
1015 1 60.846515978512 18.13088796592581 0.16256976647959492 -1 0 0
1013 4 62.80745097809209 16.998215466439138 0.3434284312163296 -1 0 0
1012 1 58.883759481462135 21.53048194170231 0.16256976647958113 -1 0 0
1014 4 60.84469448104483 20.397809442216168 0.34342843121621436 -1 0 0
1016 1 62.809272475558444 21.53048194170247 0.16256976647957808 -1 0 0
1019 1 64.7720289726137 18.130887965924284 0.16256976647967364 -1 0 0
1017 4 66.73296397218851 16.998215466441756 0.34342843121629824 -1 0 0
1023 1 68.6975419667116 18.130887965926345 0.1625697664795541 -1 0 0
1018 4 64.77020747514563 20.397809442216683 0.3434284312163567 -1 0 0
1020 1 66.73478546965877 21.530481941699666 0.16256976647964996 -1 0 0
1022 4 68.69572046924128 20.397809442215518 0.3434284312162813 -1 0 0
1021 4 70.65847696629052 16.9982154664397 0.34342843121620464 -1 0 0
1027 1 72.6230549608077 18.130887965925567 0.16256976647949634 -1 0 0
1025 4 74.58398996039291 16.99821546644178 0.34342843121627353 -1 0 0
1024 1 70.66029846375864 21.530481941702362 0.1625697664795475 -1 0 0
1026 4 72.62123346334323 20.397809442216904 0.3434284312162038 -1 0 0
1028 1 74.58581145785529 21.53048194169982 0.16256976647961613 -1 0 0
1031 1 76.54856795490493 18.13088796592471 0.16256976647968222 -1 0 0
1029 4 78.50950295449009 16.998215466439206 0.34342843121631017 -1 0 0
1035 1 80.47408094900595 18.13088796592529 0.1625697664795587 -1 0 0
1030 4 76.5467464574407 20.39780944221617 0.3434284312163681 -1 0 0
1032 1 78.51132445195594 21.530481941702437 0.16256976647956575 -1 0 0
1034 4 80.47225945154253 20.39780944221725 0.34342843121613614 -1 0 0
1033 4 82.4350159485883 16.998215466439166 0.3434284312163265 -1 0 0
1039 1 84.39959394310782 18.13088796592453 0.16256976647972754 -1 0 0
1037 4 86.3605289426838 16.99821546644181 0.34342843121632693 -1 0 0
1036 1 82.4368374460496 21.530481941702394 0.16256976647958157 -1 0 0
1038 4 84.3977724456433 20.397809442215834 0.3434284312164375 -1 0 0
1040 1 86.3623504401529 21.530481941699414 0.16256976647970556 -1 0 0
1043 1 88.3251069372066 18.13088796592636 0.16256976647955615 -1 0 0
1041 4 90.28604193678517 16.998215466439717 0.3434284312162357 -1 0 0
1047 1 92.25061993130346 18.1308879659265 0.16256976647955546 -1 0 0
1042 4 88.32328543973615 20.397809442215333 0.3434284312163261 -1 0 0
1044 1 90.2878634342552 21.530481941701925 0.16256976647963595 -1 0 0
1046 4 92.24879843383373 20.39780944221518 0.3434284312163209 -1 0 0
1045 4 94.21155493088771 16.998215466441987 0.3434284312162182 -1 0 0
1051 1 96.1761329253974 18.13088796592557 0.16256976647949664 -1 0 0
1049 4 98.13706792499013 16.998215466439465 0.34342843121626904 -1 0 0
1048 1 94.21337642835645 21.530481941699925 0.16256976647959875 -1 0 0
1050 4 96.1743114279318 20.397809442216943 0.34342843121618827 -1 0 0
1153 4 3.9247560666101986 23.79740341799212 0.3434284312163788 0 0 0
1155 1 1.9638210670222336 24.930075917476078 0.16256976647969484 0 0 0
1154 4 1.9619995695601091 27.196997393769028 0.3434284312163014 0 0 0
1152 1 0.0010645699772677414 28.32966989325459 0.1625697664795195 0 0 0
1156 1 3.9265775640749303 28.32966989325304 0.16256976647964236 0 0 0
1157 4 7.850269060706837 23.797403417991333 0.3434284312162959 0 0 0
1159 1 5.889334061124883 24.930075917477453 0.16256976647966792 0 0 0
1163 1 9.814847055224751 24.9300759174779 0.1625697664795626 0 0 0
1158 4 5.887512563657515 27.196997393767713 0.3434284312163304 0 0 0
1162 4 9.813025557757209 27.19699739376811 0.343428431216247 0 0 0
1160 1 7.852090558175316 28.329669893254266 0.1625697664795975 0 0 0
1161 4 11.775782054806726 23.797403417992495 0.3434284312162916 0 0 0
1165 4 15.701295048903718 23.797403417991124 0.34342843121635264 0 0 0
1167 1 13.740360049323288 24.93007591747744 0.1625697664796652 0 0 0
1166 4 13.738538551855504 27.19699739376778 0.34342843121631883 0 0 0
1164 1 11.777603552273389 28.329669893253065 0.16256976647960872 0 0 0
1168 1 15.70311654637327 28.329669893254238 0.16256976647960686 0 0 0
1169 4 19.62680804300043 23.797403417993706 0.343428431216279 0 0 0
1171 1 17.665873043426128 24.93007591747583 0.16256976647962768 0 0 0
1175 1 21.591386037523563 24.930075917478398 0.16256976647956264 0 0 0
1170 4 17.66405154595561 27.196997393769706 0.3434284312162852 0 0 0
1174 4 21.5895645400533 27.196997393767393 0.34342843121628397 0 0 0
1172 1 19.62862954047113 28.32966989325191 0.1625697664796117 0 0 0
1173 4 23.552321037102484 23.797403417991735 0.3434284312162072 0 0 0
1177 4 27.477834031204722 23.79740341799369 0.3434284312162852 0 0 0
1179 1 25.51689903161975 24.93007591747753 0.16256976647949717 0 0 0
1178 4 25.51507753415506 27.196997393768974 0.3434284312161967 0 0 0
1176 1 23.55414253457083 28.329669893254337 0.1625697664795556 0 0 0
1180 1 27.479655528667248 28.329669893251914 0.16256976647961127 0 0 0
1181 4 31.403347025301183 23.797403417991312 0.3434284312163476 0 0 0
1183 1 29.442412025717367 24.930075917476678 0.16256976647969282 0 0 0
1187 1 33.36792501981942 24.930075917478064 0.16256976647962157 0 0 0
1182 4 29.440590528252493 27.196997393768 0.3434284312164056 0 0 0
1186 4 33.36610352234941 27.19699739376751 0.3434284312162774 0 0 0
1184 1 31.40516852276971 28.329669893253893 0.16256976647966578 0 0 0
1185 4 35.32886001939971 23.797403417991614 0.3434284312162276 0 0 0
1189 4 39.254373013502054 23.79740341799364 0.3434284312162912 0 0 0
1191 1 37.2934380139165 24.93007591747762 0.16256976647948476 0 0 0
1190 4 37.2916165164519 27.196997393769003 0.3434284312161869 0 0 0
1188 1 35.33068151686828 28.32966989325447 0.16256976647953283 0 0 0
1192 1 39.25619451096441 28.329669893251886 0.16256976647962096 0 0 0
1193 4 43.17988600759878 23.797403417991468 0.3434284312162831 0 0 0
1195 1 41.218951008014244 24.930075917476607 0.16256976647970375 0 0 0
1199 1 45.14446400211432 24.93007591747752 0.1625697664795033 0 0 0
1194 4 41.21712951054934 27.19699739376808 0.34342843121638683 0 0 0
1198 4 45.142642504650055 27.196997393769067 0.3434284312161755 0 0 0
1196 1 43.1817075050657 28.329669893254255 0.16256976647958665 0 0 0
1197 4 47.10539900170038 23.797403417993674 0.34342843121626176 0 0 0
1101 4 51.03091199579807 23.797403417992 0.34342843121632516 -1 0 0
1103 1 49.06997699621125 24.930075917476458 0.16256976647965435 -1 0 0
1102 4 49.068155498749285 27.196997393768658 0.3434284312163452 -1 0 0
1200 1 47.10722049916165 28.329669893252095 0.16256976647958105 0 0 0
1104 1 51.032733493262015 28.329669893253378 0.1625697664796342 -1 0 0
1105 4 54.956424989896036 23.79740341799232 0.34342843121632455 -1 0 0
1107 1 52.99548999031231 24.93007591747735 0.1625697664796214 -1 0 0
1111 1 56.92100298441226 24.930075917477538 0.16256976647964624 -1 0 0
1106 4 52.99366849284732 27.19699739376817 0.34342843121630023 -1 0 0
1110 4 56.91918148694453 27.19699739376773 0.34342843121632627 -1 0 0
1108 1 54.95824648736207 28.329669893253005 0.1625697664796389 -1 0 0
1109 4 58.88193798399377 23.797403417991397 0.3434284312162898 -1 0 0
1113 4 62.80745097809209 23.797403417991124 0.343428431216328 -1 0 0
1115 1 60.846515978512 24.93007591747781 0.1625697664795948 -1 0 0
1114 4 60.84469448104483 27.196997393768168 0.34342843121621436 -1 0 0
1112 1 58.883759481462135 28.329669893254312 0.16256976647958143 -1 0 0
1116 1 62.809272475558444 28.32966989325447 0.16256976647957808 -1 0 0
1117 4 66.73296397218851 23.797403417993756 0.3434284312162983 -1 0 0
1119 1 64.7720289726137 24.930075917476287 0.16256976647967378 -1 0 0
1123 1 68.6975419667116 24.930075917478344 0.16256976647955404 -1 0 0
1118 4 64.77020747514563 27.196997393768683 0.3434284312163567 -1 0 0
1122 4 68.69572046924128 27.196997393767518 0.3434284312162813 -1 0 0
1120 1 66.73478546965877 28.329669893251666 0.16256976647965024 -1 0 0
1121 4 70.65847696629052 23.79740341799173 0.34342843121620775 -1 0 0
1125 4 74.58398996039293 23.7974034179938 0.34342843121627536 -1 0 0
1127 1 72.6230549608077 24.930075917477566 0.16256976647949606 -1 0 0
1126 4 72.62123346334323 27.196997393768903 0.34342843121620414 -1 0 0
1124 1 70.66029846375864 28.329669893254362 0.1625697664795475 -1 0 0
1128 1 74.58581145785529 28.32966989325182 0.16256976647961638 -1 0 0
1129 4 78.50950295449009 23.797403417991216 0.3434284312163113 -1 0 0