LAMMPS data file via write_data, version 29 Aug 2024, timestep = 0, units = metal

2100 atoms
3 atom types

0 100.46556250265 xlo xhi
0 97.446416852708 ylo yhi
0 17.742976725309 zlo zhi

Masses

1 106.42
2 127.6
3 127.6

Atoms # atomic

1129 1 2.0093112500530026 0 1.3785384118410002 0 0 0
1135 1 6.027933750159001 0 1.3785384118410002 0 0 0
1141 1 10.046556250264999 0 1.3785384118410002 0 0 0
1147 1 14.065178750370997 0 1.3785384118410002 0 0 0
1153 1 18.083801250477002 0 1.3785384118410002 0 0 0
1159 1 22.102423750582993 0 1.3785384118410002 0 0 0
1165 1 26.121046250688998 0 1.3785384118410002 0 0 0
1171 1 30.139668750795003 0 1.3785384118410002 0 0 0
1177 1 34.158291250900994 0 1.3785384118410002 0 0 0
1183 1 38.176913751007 0 1.3785384118410002 0 0 0
1189 1 42.195536251113005 0 1.3785384118410002 0 0 0
1195 1 46.214158751218996 0 1.3785384118410002 0 0 0
1051 1 50.232781251325 0 1.3785384118410002 -1 0 0
1057 1 54.251403751431 0 1.3785384118410002 -1 0 0
1063 1 58.270026251537004 0 1.3785384118410002 -1 0 0
1069 1 62.288648751643 0 1.3785384118410002 -1 0 0
1075 1 66.307271251749 0 1.3785384118410002 -1 0 0
1081 1 70.325893751855 0 1.3785384118410002 -1 0 0
1087 1 74.344516251961 0 1.3785384118410002 -1 0 0
1093 1 78.363138752067 0 1.3785384118410002 -1 0 0
1099 1 82.38176125217299 0 1.3785384118410002 -1 0 0
1105 1 86.400383752279 0 1.3785384118410002 -1 0 0
1111 1 90.419006252385 0 1.3785384118410002 -1 0 0
1117 1 94.43762875249101 0 1.3785384118410002 -1 0 0
1123 1 98.456251252597 0 1.3785384118410002 -1 0 0
1124 1 0 3.4802291733110025 1.3785384118410002 0 0 0
1131 3 2.0093112500530026 2.320152782207998 0 0 0 0
1130 1 4.018622500105998 3.4802291733110025 1.3785384118410002 0 0 0
1137 3 6.027933750159001 2.320152782207998 0 0 0 0
1136 1 8.037245000211996 3.4802291733110025 1.3785384118410002 0 0 0
1143 3 10.046556250264999 2.320152782207998 0 0 0 0
1149 3 14.065178750370997 2.320152782207998 0 0 0 0
1142 1 12.055867500318001 3.4802291733110025 1.3785384118410002 0 0 0
1148 1 16.074490000424 3.4802291733110025 1.3785384118410002 0 0 0
1155 3 18.083801250477002 2.320152782207998 0 0 0 0
1161 3 22.102423750582993 2.320152782207998 0 0 0 0
1154 1 20.093112500530005 3.4802291733110025 1.3785384118410002 0 0 0
1160 1 24.111735000635996 3.4802291733110025 1.3785384118410002 0 0 0
1167 3 26.121046250688998 2.320152782207998 0 0 0 0
1166 1 28.130357500742 3.4802291733110025 1.3785384118410002 0 0 0
1173 3 30.139668750795003 2.320152782207998 0 0 0 0
1179 3 34.158291250900994 2.320152782207998 0 0 0 0
1172 1 32.148980000848006 3.4802291733110025 1.3785384118410002 0 0 0
1178 1 36.167602500954 3.4802291733110025 1.3785384118410002 0 0 0
1185 3 38.176913751007 2.320152782207998 0 0 0 0
1184 1 40.18622500106 3.4802291733110025 1.3785384118410002 0 0 0
1191 3 42.195536251113005 2.320152782207998 0 0 0 0
1190 1 44.20484750116599 3.4802291733110025 1.3785384118410002 0 0 0
1197 3 46.214158751218996 2.320152782207998 0 0 0 0
1196 1 48.223470001272 3.4802291733110025 1.3785384118410002 0 0 0
1053 3 50.232781251325 2.320152782207998 0 -1 0 0
1052 1 52.242092501378 3.4802291733110025 1.3785384118410002 -1 0 0
1059 3 54.251403751431 2.320152782207998 0 -1 0 0
1058 1 56.260715001484 3.4802291733110025 1.3785384118410002 -1 0 0
1065 3 58.270026251537004 2.320152782207998 0 -1 0 0
1064 1 60.27933750159 3.4802291733110025 1.3785384118410002 -1 0 0
1071 3 62.288648751643 2.320152782207998 0 -1 0 0
1070 1 64.297960001696 3.4802291733110025 1.3785384118410002 -1 0 0
1077 3 66.307271251749 2.320152782207998 0 -1 0 0
1076 1 68.316582501802 3.4802291733110025 1.3785384118410002 -1 0 0
1083 3 70.325893751855 2.320152782207998 0 -1 0 0
1082 1 72.33520500190801 3.4802291733110025 1.3785384118410002 -1 0 0
1089 3 74.344516251961 2.320152782207998 0 -1 0 0
1088 1 76.353827502014 3.4802291733110025 1.3785384118410002 -1 0 0
1095 3 78.363138752067 2.320152782207998 0 -1 0 0
1094 1 80.37245000212 3.4802291733110025 1.3785384118410002 -1 0 0
1101 3 82.38176125217299 2.320152782207998 0 -1 0 0
1100 1 84.391072502226 3.4802291733110025 1.3785384118410002 -1 0 0
1107 3 86.400383752279 2.320152782207998 0 -1 0 0
1106 1 88.409695002332 3.4802291733110025 1.3785384118410002 -1 0 0
1113 3 90.419006252385 2.320152782207998 0 -1 0 0
1112 1 92.428317502438 3.4802291733110025 1.3785384118410002 -1 0 0
1119 3 94.43762875249101 2.320152782207998 0 -1 0 0
1118 1 96.44694000254401 3.4802291733110025 1.3785384118410002 -1 0 0
1125 3 98.456251252597 2.320152782207998 0 -1 0 0
1126 3 0 5.800381955519001 0 0 0 0
1132 3 4.018622500105998 5.800381955519001 0 0 0 0
1138 3 8.037245000211996 5.800381955519001 0 0 0 0
1144 3 12.055867500318001 5.800381955519001 0 0 0 0
1150 3 16.074490000424 5.800381955519001 0 0 0 0
1156 3 20.093112500530005 5.800381955519001 0 0 0 0
1162 3 24.111735000635996 5.800381955519001 0 0 0 0
1168 3 28.130357500742 5.800381955519001 0 0 0 0
1174 3 32.148980000848006 5.800381955519001 0 0 0 0
1180 3 36.167602500954 5.800381955519001 0 0 0 0
1186 3 40.18622500106 5.800381955519001 0 0 0 0
1192 3 44.20484750116599 5.800381955519001 0 0 0 0
1198 3 48.223470001272 5.800381955519001 0 0 0 0
1054 3 52.242092501378 5.800381955519001 0 -1 0 0
1060 3 56.260715001484 5.800381955519001 0 -1 0 0
1066 3 60.27933750159 5.800381955519001 0 -1 0 0
1072 3 64.297960001696 5.800381955519001 0 -1 0 0
1078 3 68.316582501802 5.800381955519001 0 -1 0 0
1084 3 72.33520500190801 5.800381955519001 0 -1 0 0
1090 3 76.353827502014 5.800381955519001 0 -1 0 0
1096 3 80.37245000212 5.800381955519001 0 -1 0 0
1102 3 84.391072502226 5.800381955519001 0 -1 0 0
1108 3 88.409695002332 5.800381955519001 0 -1 0 0
1114 3 92.428317502438 5.800381955519001 0 -1 0 0
1120 3 96.44694000254401 5.800381955519001 0 -1 0 0
1279 1 2.0093112500530026 6.960458346621998 1.3785384118410002 0 0 0
1285 1 6.027933750159001 6.960458346621998 1.3785384118410002 0 0 0
1291 1 10.046556250264999 6.960458346621998 1.3785384118410002 0 0 0
1297 1 14.065178750370997 6.960458346621998 1.3785384118410002 0 0 0
1303 1 18.083801250477002 6.960458346621998 1.3785384118410002 0 0 0
1309 1 22.102423750582993 6.960458346621998 1.3785384118410002 0 0 0
1315 1 26.121046250688998 6.960458346621998 1.3785384118410002 0 0 0
1321 1 30.139668750795003 6.960458346621998 1.3785384118410002 0 0 0
1327 1 34.158291250900994 6.960458346621998 1.3785384118410002 0 0 0
1333 1 38.176913751007 6.960458346621998 1.3785384118410002 0 0 0
1339 1 42.195536251113005 6.960458346621998 1.3785384118410002 0 0 0
1345 1 46.214158751218996 6.960458346621998 1.3785384118410002 0 0 0
1201 1 50.232781251325 6.960458346621998 1.3785384118410002 -1 0 0
1207 1 54.251403751431 6.960458346621998 1.3785384118410002 -1 0 0
1213 1 58.270026251537004 6.960458346621998 1.3785384118410002 -1 0 0
1219 1 62.288648751643 6.960458346621998 1.3785384118410002 -1 0 0
1225 1 66.307271251749 6.960458346621998 1.3785384118410002 -1 0 0
1231 1 70.325893751855 6.960458346621998 1.3785384118410002 -1 0 0
1237 1 74.344516251961 6.960458346621998 1.3785384118410002 -1 0 0
1243 1 78.363138752067 6.960458346621998 1.3785384118410002 -1 0 0
1249 1 82.38176125217299 6.960458346621998 1.3785384118410002 -1 0 0
1255 1 86.400383752279 6.960458346621998 1.3785384118410002 -1 0 0
1261 1 90.419006252385 6.960458346621998 1.3785384118410002 -1 0 0
1267 1 94.43762875249101 6.960458346621998 1.3785384118410002 -1 0 0
1273 1 98.456251252597 6.960458346621998 1.3785384118410002 -1 0 0
1281 3 2.0093112500530026 9.280611128830003 0 0 0 0
1287 3 6.027933750159001 9.280611128830003 0 0 0 0
1293 3 10.046556250264999 9.280611128830003 0 0 0 0
1299 3 14.065178750370997 9.280611128830003 0 0 0 0
1305 3 18.083801250477002 9.280611128830003 0 0 0 0
1311 3 22.102423750582993 9.280611128830003 0 0 0 0
1317 3 26.121046250688998 9.280611128830003 0 0 0 0
1323 3 30.139668750795003 9.280611128830003 0 0 0 0
1329 3 34.158291250900994 9.280611128830003 0 0 0 0
1335 3 38.176913751007 9.280611128830003 0 0 0 0
1341 3 42.195536251113005 9.280611128830003 0 0 0 0
1347 3 46.214158751218996 9.280611128830003 0 0 0 0
1203 3 50.232781251325 9.280611128830003 0 -1 0 0
1209 3 54.251403751431 9.280611128830003 0 -1 0 0
1215 3 58.270026251537004 9.280611128830003 0 -1 0 0
1221 3 62.288648751643 9.280611128830003 0 -1 0 0
1227 3 66.307271251749 9.280611128830003 0 -1 0 0
1233 3 70.325893751855 9.280611128830003 0 -1 0 0
1239 3 74.344516251961 9.280611128830003 0 -1 0 0
1245 3 78.363138752067 9.280611128830003 0 -1 0 0
1251 3 82.38176125217299 9.280611128830003 0 -1 0 0
1257 3 86.400383752279 9.280611128830003 0 -1 0 0
1263 3 90.419006252385 9.280611128830003 0 -1 0 0
1269 3 94.43762875249101 9.280611128830003 0 -1 0 0
1275 3 98.456251252597 9.280611128830003 0 -1 0 0
1274 1 0 10.440687519933 1.3785384118410002 0 0 0
1280 1 4.018622500105998 10.440687519933 1.3785384118410002 0 0 0
1286 1 8.037245000211996 10.440687519933 1.3785384118410002 0 0 0
1292 1 12.055867500318001 10.440687519933 1.3785384118410002 0 0 0
1298 1 16.074490000424 10.440687519933 1.3785384118410002 0 0 0
1304 1 20.093112500530005 10.440687519933 1.3785384118410002 0 0 0
1310 1 24.111735000635996 10.440687519933 1.3785384118410002 0 0 0
1316 1 28.130357500742 10.440687519933 1.3785384118410002 0 0 0
1322 1 32.148980000848006 10.440687519933 1.3785384118410002 0 0 0
1328 1 36.167602500954 10.440687519933 1.3785384118410002 0 0 0
1334 1 40.18622500106 10.440687519933 1.3785384118410002 0 0 0
1340 1 44.20484750116599 10.440687519933 1.3785384118410002 0 0 0
1346 1 48.223470001272 10.440687519933 1.3785384118410002 0 0 0
1202 1 52.242092501378 10.440687519933 1.3785384118410002 -1 0 0
1208 1 56.260715001484 10.440687519933 1.3785384118410002 -1 0 0
1214 1 60.27933750159 10.440687519933 1.3785384118410002 -1 0 0
1220 1 64.297960001696 10.440687519933 1.3785384118410002 -1 0 0
1226 1 68.316582501802 10.440687519933 1.3785384118410002 -1 0 0
1232 1 72.33520500190801 10.440687519933 1.3785384118410002 -1 0 0
1238 1 76.353827502014 10.440687519933 1.3785384118410002 -1 0 0
1244 1 80.37245000212 10.440687519933 1.3785384118410002 -1 0 0
1250 1 84.391072502226 10.440687519933 1.3785384118410002 -1 0 0
1256 1 88.409695002332 10.440687519933 1.3785384118410002 -1 0 0
1262 1 92.428317502438 10.440687519933 1.3785384118410002 -1 0 0
1268 1 96.44694000254401 10.440687519933 1.3785384118410002 -1 0 0
1276 3 0 12.760840302140998 0 0 0 0
1282 3 4.018622500105998 12.760840302140998 0 0 0 0
1429 1 2.0093112500530026 13.920916693244003 1.3785384118410002 0 0 0
1288 3 8.037245000211996 12.760840302140998 0 0 0 0
1435 1 6.027933750159001 13.920916693244003 1.3785384118410002 0 0 0
1441 1 10.046556250264999 13.920916693244003 1.3785384118410002 0 0 0
1294 3 12.055867500318001 12.760840302140998 0 0 0 0
1447 1 14.065178750370997 13.920916693244003 1.3785384118410002 0 0 0
1300 3 16.074490000424 12.760840302140998 0 0 0 0
1453 1 18.083801250477002 13.920916693244003 1.3785384118410002 0 0 0
1306 3 20.093112500530005 12.760840302140998 0 0 0 0
1459 1 22.102423750582993 13.920916693244003 1.3785384118410002 0 0 0
1312 3 24.111735000635996 12.760840302140998 0 0 0 0
1465 1 26.121046250688998 13.920916693244003 1.3785384118410002 0 0 0
1318 3 28.130357500742 12.760840302140998 0 0 0 0
1471 1 30.139668750795003 13.920916693244003 1.3785384118410002 0 0 0
1324 3 32.148980000848006 12.760840302140998 0 0 0 0
1477 1 34.158291250900994 13.920916693244003 1.3785384118410002 0 0 0
1330 3 36.167602500954 12.760840302140998 0 0 0 0
1483 1 38.176913751007 13.920916693244003 1.3785384118410002 0 0 0
1336 3 40.18622500106 12.760840302140998 0 0 0 0
1342 3 44.20484750116599 12.760840302140998 0 0 0 0
1489 1 42.195536251113005 13.920916693244003 1.3785384118410002 0 0 0
1495 1 46.214158751218996 13.920916693244003 1.3785384118410002 0 0 0
1348 3 48.223470001272 12.760840302140998 0 0 0 0
1351 1 50.232781251325 13.920916693244003 1.3785384118410002 -1 0 0
1204 3 52.242092501378 12.760840302140998 0 -1 0 0
1357 1 54.251403751431 13.920916693244003 1.3785384118410002 -1 0 0
1210 3 56.260715001484 12.760840302140998 0 -1 0 0
1363 1 58.270026251537004 13.920916693244003 1.3785384118410002 -1 0 0
1216 3 60.27933750159 12.760840302140998 0 -1 0 0
1369 1 62.288648751643 13.920916693244003 1.3785384118410002 -1 0 0
1222 3 64.297960001696 12.760840302140998 0 -1 0 0
1375 1 66.307271251749 13.920916693244003 1.3785384118410002 -1 0 0
1228 3 68.316582501802 12.760840302140998 0 -1 0 0
1381 1 70.325893751855 13.920916693244003 1.3785384118410002 -1 0 0
1234 3 72.33520500190801 12.760840302140998 0 -1 0 0
1387 1 74.344516251961 13.920916693244003 1.3785384118410002 -1 0 0
1240 3 76.353827502014 12.760840302140998 0 -1 0 0
1393 1 78.363138752067 13.920916693244003 1.3785384118410002 -1 0 0
1246 3 80.37245000212 12.760840302140998 0 -1 0 0
1399 1 82.38176125217299 13.920916693244003 1.3785384118410002 -1 0 0
1252 3 84.391072502226 12.760840302140998 0 -1 0 0
1405 1 86.400383752279 13.920916693244003 1.3785384118410002 -1 0 0
1258 3 88.409695002332 12.760840302140998 0 -1 0 0
1411 1 90.419006252385 13.920916693244003 1.3785384118410002 -1 0 0
1264 3 92.428317502438 12.760840302140998 0 -1 0 0
1417 1 94.43762875249101 13.920916693244003 1.3785384118410002 -1 0 0
1270 3 96.44694000254401 12.760840302140998 0 -1 0 0
1423 1 98.456251252597 13.920916693244003 1.3785384118410002 -1 0 0
1424 1 0 17.401145866555005 1.3785384118410002 0 0 0
1431 3 2.0093112500530026 16.241069475452 0 0 0 0
1430 1 4.018622500105998 17.401145866555005 1.3785384118410002 0 0 0
1437 3 6.027933750159001 16.241069475452 0 0 0 0
1436 1 8.037245000211996 17.401145866555005 1.3785384118410002 0 0 0
1443 3 10.046556250264999 16.241069475452 0 0 0 0
1449 3 14.065178750370997 16.241069475452 0 0 0 0
1442 1 12.055867500318001 17.401145866555005 1.3785384118410002 0 0 0
1448 1 16.074490000424 17.401145866555005 1.3785384118410002 0 0 0
1455 3 18.083801250477002 16.241069475452 0 0 0 0
1461 3 22.102423750582993 16.241069475452 0 0 0 0
1454 1 20.093112500530005 17.401145866555005 1.3785384118410002 0 0 0
1460 1 24.111735000635996 17.401145866555005 1.3785384118410002 0 0 0
1467 3 26.121046250688998 16.241069475452 0 0 0 0
1466 1 28.130357500742 17.401145866555005 1.3785384118410002 0 0 0
1473 3 30.139668750795003 16.241069475452 0 0 0 0
1479 3 34.158291250900994 16.241069475452 0 0 0 0
1472 1 32.148980000848006 17.401145866555005 1.3785384118410002 0 0 0
1478 1 36.167602500954 17.401145866555005 1.3785384118410002 0 0 0
1485 3 38.176913751007 16.241069475452 0 0 0 0
1484 1 40.18622500106 17.401145866555005 1.3785384118410002 0 0 0
1491 3 42.195536251113005 16.241069475452 0 0 0 0
1490 1 44.20484750116599 17.401145866555005 1.3785384118410002 0 0 0
1497 3 46.214158751218996 16.241069475452 0 0 0 0
1496 1 48.223470001272 17.401145866555005 1.3785384118410002 0 0 0
1353 3 50.232781251325 16.241069475452 0 -1 0 0
1352 1 52.242092501378 17.401145866555005 1.3785384118410002 -1 0 0
1359 3 54.251403751431 16.241069475452 0 -1 0 0
1358 1 56.260715001484 17.401145866555005 1.3785384118410002 -1 0 0
1365 3 58.270026251537004 16.241069475452 0 -1 0 0
1364 1 60.27933750159 17.401145866555005 1.3785384118410002 -1 0 0
1371 3 62.288648751643 16.241069475452 0 -1 0 0
1370 1 64.297960001696 17.401145866555005 1.3785384118410002 -1 0 0
1377 3 66.307271251749 16.241069475452 0 -1 0 0
1376 1 68.316582501802 17.401145866555005 1.3785384118410002 -1 0 0
1383 3 70.325893751855 16.241069475452 0 -1 0 0
1382 1 72.33520500190801 17.401145866555005 1.3785384118410002 -1 0 0
1389 3 74.344516251961 16.241069475452 0 -1 0 0
1388 1 76.353827502014 17.401145866555005 1.3785384118410002 -1 0 0
1395 3 78.363138752067 16.241069475452 0 -1 0 0
1394 1 80.37245000212 17.401145866555005 1.3785384118410002 -1 0 0
1401 3 82.38176125217299 16.241069475452 0 -1 0 0
1400 1 84.391072502226 17.401145866555005 1.3785384118410002 -1 0 0
1407 3 86.400383752279 16.241069475452 0 -1 0 0
1406 1 88.409695002332 17.401145866555005 1.3785384118410002 -1 0 0
1413 3 90.419006252385 16.241069475452 0 -1 0 0
1412 1 92.428317502438 17.401145866555005 1.3785384118410002 -1 0 0
1419 3 94.43762875249101 16.241069475452 0 -1 0 0
1418 1 96.44694000254401 17.401145866555005 1.3785384118410002 -1 0 0
1425 3 98.456251252597 16.241069475452 0 -1 0 0
1426 3 0 19.721298648763003 0 0 0 0
1432 3 4.018622500105998 19.721298648763003 0 0 0 0
1438 3 8.037245000211996 19.721298648763003 0 0 0 0
1444 3 12.055867500318001 19.721298648763003 0 0 0 0
1450 3 16.074490000424 19.721298648763003 0 0 0 0
1456 3 20.093112500530005 19.721298648763003 0 0 0 0
1462 3 24.111735000635996 19.721298648763003 0 0 0 0
1468 3 28.130357500742 19.721298648763003 0 0 0 0
1474 3 32.148980000848006 19.721298648763003 0 0 0 0
1480 3 36.167602500954 19.721298648763003 0 0 0 0
1486 3 40.18622500106 19.721298648763003 0 0 0 0
1492 3 44.20484750116599 19.721298648763003 0 0 0 0
1498 3 48.223470001272 19.721298648763003 0 0 0 0
1354 3 52.242092501378 19.721298648763003 0 -1 0 0
1360 3 56.260715001484 19.721298648763003 0 -1 0 0
1366 3 60.27933750159 19.721298648763003 0 -1 0 0
1372 3 64.297960001696 19.721298648763003 0 -1 0 0
1378 3 68.316582501802 19.721298648763003 0 -1 0 0
1384 3 72.33520500190801 19.721298648763003 0 -1 0 0
1390 3 76.353827502014 19.721298648763003 0 -1 0 0
1396 3 80.37245000212 19.721298648763003 0 -1 0 0
1402 3 84.391072502226 19.721298648763003 0 -1 0 0
1408 3 88.409695002332 19.721298648763003 0 -1 0 0
1414 3 92.428317502438 19.721298648763003 0 -1 0 0
1420 3 96.44694000254401 19.721298648763003 0 -1 0 0
1579 1 2.0093112500530026 20.881375039866008 1.3785384118410002 0 0 0
1585 1 6.027933750159001 20.881375039866008 1.3785384118410002 0 0 0
1591 1 10.046556250264999 20.881375039866008 1.3785384118410002 0 0 0
1597 1 14.065178750370997 20.881375039866008 1.3785384118410002 0 0 0
1603 1 18.083801250477002 20.881375039866008 1.3785384118410002 0 0 0
1609 1 22.102423750582993 20.881375039866008 1.3785384118410002 0 0 0
1615 1 26.121046250688998 20.881375039866008 1.3785384118410002 0 0 0
1621 1 30.139668750795003 20.881375039866008 1.3785384118410002 0 0 0
1627 1 34.158291250900994 20.881375039866008 1.3785384118410002 0 0 0
1633 1 38.176913751007 20.881375039866008 1.3785384118410002 0 0 0
1639 1 42.195536251113005 20.881375039866008 1.3785384118410002 0 0 0
1645 1 46.214158751218996 20.881375039866008 1.3785384118410002 0 0 0
1501 1 50.232781251325 20.881375039866008 1.3785384118410002 -1 0 0
1507 1 54.251403751431 20.881375039866008 1.3785384118410002 -1 0 0
1513 1 58.270026251537004 20.881375039866008 1.3785384118410002 -1 0 0
1519 1 62.288648751643 20.881375039866008 1.3785384118410002 -1 0 0
1525 1 66.307271251749 20.881375039866008 1.3785384118410002 -1 0 0
1531 1 70.325893751855 20.881375039866008 1.3785384118410002 -1 0 0
1537 1 74.344516251961 20.881375039866008 1.3785384118410002 -1 0 0
1543 1 78.363138752067 20.881375039866008 1.3785384118410002 -1 0 0
1549 1 82.38176125217299 20.881375039866008 1.3785384118410002 -1 0 0
1555 1 86.400383752279 20.881375039866008 1.3785384118410002 -1 0 0
1561 1 90.419006252385 20.881375039866008 1.3785384118410002 -1 0 0
1567 1 94.43762875249101 20.881375039866008 1.3785384118410002 -1 0 0
1573 1 98.456251252597 20.881375039866008 1.3785384118410002 -1 0 0
1574 1 0 24.361604213176996 1.3785384118410002 0 0 0
1581 3 2.0093112500530026 23.201527822074006 0 0 0 0
1580 1 4.018622500105998 24.361604213176996 1.3785384118410002 0 0 0
1587 3 6.027933750159001 23.201527822074006 0 0 0 0
1586 1 8.037245000211996 24.361604213176996 1.3785384118410002 0 0 0
1593 3 10.046556250264999 23.201527822074006 0 0 0 0
1599 3 14.065178750370997 23.201527822074006 0 0 0 0
1592 1 12.055867500318001 24.361604213176996 1.3785384118410002 0 0 0
1598 1 16.074490000424 24.361604213176996 1.3785384118410002 0 0 0
1605 3 18.083801250477002 23.201527822074006 0 0 0 0
1611 3 22.102423750582993 23.201527822074006 0 0 0 0
1604 1 20.093112500530005 24.361604213176996 1.3785384118410002 0 0 0
1610 1 24.111735000635996 24.361604213176996 1.3785384118410002 0 0 0
1617 3 26.121046250688998 23.201527822074006 0 0 0 0
1616 1 28.130357500742 24.361604213176996 1.3785384118410002 0 0 0
1623 3 30.139668750795003 23.201527822074006 0 0 0 0
1629 3 34.158291250900994 23.201527822074006 0 0 0 0
1622 1 32.148980000848006 24.361604213176996 1.3785384118410002 0 0 0
1628 1 36.167602500954 24.361604213176996 1.3785384118410002 0 0 0
1635 3 38.176913751007 23.201527822074006 0 0 0 0
1634 1 40.18622500106 24.361604213176996 1.3785384118410002 0 0 0
1641 3 42.195536251113005 23.201527822074006 0 0 0 0
1640 1 44.20484750116599 24.361604213176996 1.3785384118410002 0 0 0
1647 3 46.214158751218996 23.201527822074006 0 0 0 0
1646 1 48.223470001272 24.361604213176996 1.3785384118410002 0 0 0
1503 3 50.232781251325 23.201527822074006 0 -1 0 0
1502 1 52.242092501378 24.361604213176996 1.3785384118410002 -1 0 0
1509 3 54.251403751431 23.201527822074006 0 -1 0 0
1508 1 56.260715001484 24.361604213176996 1.3785384118410002 -1 0 0
1515 3 58.270026251537004 23.201527822074006 0 -1 0 0
1514 1 60.27933750159 24.361604213176996 1.3785384118410002 -1 0 0
1521 3 62.288648751643 23.201527822074006 0 -1 0 0
1520 1 64.297960001696 24.361604213176996 1.3785384118410002 -1 0 0
1527 3 66.307271251749 23.201527822074006 0 -1 0 0
1526 1 68.316582501802 24.361604213176996 1.3785384118410002 -1 0 0
1533 3 70.325893751855 23.201527822074006 0 -1 0 0
1532 1 72.33520500190801 24.361604213176996 1.3785384118410002 -1 0 0
1539 3 74.344516251961 23.201527822074006 0 -1 0 0
1538 1 76.353827502014 24.361604213176996 1.3785384118410002 -1 0 0
1545 3 78.363138752067 23.201527822074006 0 -1 0 0
1544 1 80.37245000212 24.361604213176996 1.3785384118410002 -1 0 0
1551 3 82.38176125217299 23.201527822074006 0 -1 0 0
1550 1 84.391072502226 24.361604213176996 1.3785384118410002 -1 0 0
1557 3 86.400383752279 23.201527822074006 0 -1 0 0
1556 1 88.409695002332 24.361604213176996 1.3785384118410002 -1 0 0
1563 3 90.419006252385 23.201527822074006 0 -1 0 0
1562 1 92.428317502438 24.361604213176996 1.3785384118410002 -1 0 0
1569 3 94.43762875249101 23.201527822074006 0 -1 0 0
1568 1 96.44694000254401 24.361604213176996 1.3785384118410002 -1 0 0
1575 3 98.456251252597 23.201527822074006 0 -1 0 0
1576 3 0 26.68175699538501 0 0 0 0
1582 3 4.018622500105998 26.68175699538501 0 0 0 0
1729 1 2.0093112500530026 27.841833386488 1.3785384118410002 0 0 0
1588 3 8.037245000211996 26.68175699538501 0 0 0 0
1735 1 6.027933750159001 27.841833386488 1.3785384118410002 0 0 0
1741 1 10.046556250264999 27.841833386488 1.3785384118410002 0 0 0
1594 3 12.055867500318001 26.68175699538501 0 0 0 0
1747 1 14.065178750370997 27.841833386488 1.3785384118410002 0 0 0
1600 3 16.074490000424 26.68175699538501 0 0 0 0
1753 1 18.083801250477002 27.841833386488 1.3785384118410002 0 0 0
1606 3 20.093112500530005 26.68175699538501 0 0 0 0
1759 1 22.102423750582993 27.841833386488 1.3785384118410002 0 0 0
1612 3 24.111735000635996 26.68175699538501 0 0 0 0
1765 1 26.121046250688998 27.841833386488 1.3785384118410002 0 0 0
1618 3 28.130357500742 26.68175699538501 0 0 0 0
1771 1 30.139668750795003 27.841833386488 1.3785384118410002 0 0 0
1624 3 32.148980000848006 26.68175699538501 0 0 0 0
1777 1 34.158291250900994 27.841833386488 1.3785384118410002 0 0 0
1630 3 36.167602500954 26.68175699538501 0 0 0 0
1783 1 38.176913751007 27.841833386488 1.3785384118410002 0 0 0
1636 3 40.18622500106 26.68175699538501 0 0 0 0
1642 3 44.20484750116599 26.68175699538501 0 0 0 0
1789 1 42.195536251113005 27.841833386488 1.3785384118410002 0 0 0
1795 1 46.214158751218996 27.841833386488 1.3785384118410002 0 0 0
1648 3 48.223470001272 26.68175699538501 0 0 0 0
1651 1 50.232781251325 27.841833386488 1.3785384118410002 -1 0 0
1504 3 52.242092501378 26.68175699538501 0 -1 0 0
1657 1 54.251403751431 27.841833386488 1.3785384118410002 -1 0 0
1510 3 56.260715001484 26.68175699538501 0 -1 0 0
1663 1 58.270026251537004 27.841833386488 1.3785384118410002 -1 0 0
1516 3 60.27933750159 26.68175699538501 0 -1 0 0
1669 1 62.288648751643 27.841833386488 1.3785384118410002 -1 0 0
1522 3 64.297960001696 26.68175699538501 0 -1 0 0
1675 1 66.307271251749 27.841833386488 1.3785384118410002 -1 0 0
1528 3 68.316582501802 26.68175699538501 0 -1 0 0
1681 1 70.325893751855 27.841833386488 1.3785384118410002 -1 0 0
1534 3 72.33520500190801 26.68175699538501 0 -1 0 0
1687 1 74.344516251961 27.841833386488 1.3785384118410002 -1 0 0
1540 3 76.353827502014 26.68175699538501 0 -1 0 0
1693 1 78.363138752067 27.841833386488 1.3785384118410002 -1 0 0
1546 3 80.37245000212 26.68175699538501 0 -1 0 0
1699 1 82.38176125217299 27.841833386488 1.3785384118410002 -1 0 0
1552 3 84.391072502226 26.68175699538501 0 -1 0 0
1705 1 86.400383752279 27.841833386488 1.3785384118410002 -1 0 0
1558 3 88.409695002332 26.68175699538501 0 -1 0 0
1711 1 90.419006252385 27.841833386488 1.3785384118410002 -1 0 0
1564 3 92.428317502438 26.68175699538501 0 -1 0 0
1717 1 94.43762875249101 27.841833386488 1.3785384118410002 -1 0 0
1570 3 96.44694000254401 26.68175699538501 0 -1 0 0
1723 1 98.456251252597 27.841833386488 1.3785384118410002 -1 0 0
1731 3 2.0093112500530026 30.161986168695996 0 0 0 0
1737 3 6.027933750159001 30.161986168695996 0 0 0 0
1743 3 10.046556250264999 30.161986168695996 0 0 0 0
1749 3 14.065178750370997 30.161986168695996 0 0 0 0
1755 3 18.083801250477002 30.161986168695996 0 0 0 0
1761 3 22.102423750582993 30.161986168695996 0 0 0 0
1767 3 26.121046250688998 30.161986168695996 0 0 0 0
1773 3 30.139668750795003 30.161986168695996 0 0 0 0
1779 3 34.158291250900994 30.161986168695996 0 0 0 0
1785 3 38.176913751007 30.161986168695996 0 0 0 0
1791 3 42.195536251113005 30.161986168695996 0 0 0 0
1797 3 46.214158751218996 30.161986168695996 0 0 0 0
1653 3 50.232781251325 30.161986168695996 0 -1 0 0
1659 3 54.251403751431 30.161986168695996 0 -1 0 0
1665 3 58.270026251537004 30.161986168695996 0 -1 0 0
1671 3 62.288648751643 30.161986168695996 0 -1 0 0
1677 3 66.307271251749 30.161986168695996 0 -1 0 0
1683 3 70.325893751855 30.161986168695996 0 -1 0 0
1689 3 74.344516251961 30.161986168695996 0 -1 0 0
1695 3 78.363138752067 30.161986168695996 0 -1 0 0
1701 3 82.38176125217299 30.161986168695996 0 -1 0 0
1707 3 86.400383752279 30.161986168695996 0 -1 0 0
1713 3 90.419006252385 30.161986168695996 0 -1 0 0
1719 3 94.43762875249101 30.161986168695996 0 -1 0 0
1725 3 98.456251252597 30.161986168695996 0 -1 0 0
1724 1 0 31.322062559799 1.3785384118410002 0 0 0
1730 1 4.018622500105998 31.322062559799 1.3785384118410002 0 0 0
1736 1 8.037245000211996 31.322062559799 1.3785384118410002 0 0 0
1742 1 12.055867500318001 31.322062559799 1.3785384118410002 0 0 0
1748 1 16.074490000424 31.322062559799 1.3785384118410002 0 0 0
1754 1 20.093112500530005 31.322062559799 1.3785384118410002 0 0 0
1760 1 24.111735000635996 31.322062559799 1.3785384118410002 0 0 0
1766 1 28.130357500742 31.322062559799 1.3785384118410002 0 0 0
1772 1 32.148980000848006 31.322062559799 1.3785384118410002 0 0 0
1778 1 36.167602500954 31.322062559799 1.3785384118410002 0 0 0
1784 1 40.18622500106 31.322062559799 1.3785384118410002 0 0 0
1790 1 44.20484750116599 31.322062559799 1.3785384118410002 0 0 0
1796 1 48.223470001272 31.322062559799 1.3785384118410002 0 0 0
1652 1 52.242092501378 31.322062559799 1.3785384118410002 -1 0 0
1658 1 56.260715001484 31.322062559799 1.3785384118410002 -1 0 0
1664 1 60.27933750159 31.322062559799 1.3785384118410002 -1 0 0
1670 1 64.297960001696 31.322062559799 1.3785384118410002 -1 0 0
1676 1 68.316582501802 31.322062559799 1.3785384118410002 -1 0 0
1682 1 72.33520500190801 31.322062559799 1.3785384118410002 -1 0 0
1688 1 76.353827502014 31.322062559799 1.3785384118410002 -1 0 0
1694 1 80.37245000212 31.322062559799 1.3785384118410002 -1 0 0
1700 1 84.391072502226 31.322062559799 1.3785384118410002 -1 0 0
1706 1 88.409695002332 31.322062559799 1.3785384118410002 -1 0 0
1712 1 92.428317502438 31.322062559799 1.3785384118410002 -1 0 0
1718 1 96.44694000254401 31.322062559799 1.3785384118410002 -1 0 0
1726 3 0 33.642215342007 0 0 0 0
1732 3 4.018622500105998 33.642215342007 0 0 0 0
1738 3 8.037245000211996 33.642215342007 0 0 0 0
1744 3 12.055867500318001 33.642215342007 0 0 0 0
1750 3 16.074490000424 33.642215342007 0 0 0 0
1756 3 20.093112500530005 33.642215342007 0 0 0 0
1762 3 24.111735000635996 33.642215342007 0 0 0 0
1768 3 28.130357500742 33.642215342007 0 0 0 0
1774 3 32.148980000848006 33.642215342007 0 0 0 0
1780 3 36.167602500954 33.642215342007 0 0 0 0
1786 3 40.18622500106 33.642215342007 0 0 0 0
1792 3 44.20484750116599 33.642215342007 0 0 0 0
1798 3 48.223470001272 33.642215342007 0 0 0 0
1654 3 52.242092501378 33.642215342007 0 -1 0 0
1660 3 56.260715001484 33.642215342007 0 -1 0 0
1666 3 60.27933750159 33.642215342007 0 -1 0 0
1672 3 64.297960001696 33.642215342007 0 -1 0 0
1678 3 68.316582501802 33.642215342007 0 -1 0 0
1684 3 72.33520500190801 33.642215342007 0 -1 0 0
1690 3 76.353827502014 33.642215342007 0 -1 0 0
1696 3 80.37245000212 33.642215342007 0 -1 0 0
1702 3 84.391072502226 33.642215342007 0 -1 0 0
1708 3 88.409695002332 33.642215342007 0 -1 0 0
1714 3 92.428317502438 33.642215342007 0 -1 0 0
1720 3 96.44694000254401 33.642215342007 0 -1 0 0
1879 1 2.0093112500530026 34.80229173311 1.3785384118410002 0 0 0
1885 1 6.027933750159001 34.80229173311 1.3785384118410002 0 0 0
1891 1 10.046556250264999 34.80229173311 1.3785384118410002 0 0 0
1897 1 14.065178750370997 34.80229173311 1.3785384118410002 0 0 0
1903 1 18.083801250477002 34.80229173311 1.3785384118410002 0 0 0
1909 1 22.102423750582993 34.80229173311 1.3785384118410002 0 0 0
1915 1 26.121046250688998 34.80229173311 1.3785384118410002 0 0 0
1921 1 30.139668750795003 34.80229173311 1.3785384118410002 0 0 0
1927 1 34.158291250900994 34.80229173311 1.3785384118410002 0 0 0
1933 1 38.176913751007 34.80229173311 1.3785384118410002 0 0 0
1939 1 42.195536251113005 34.80229173311 1.3785384118410002 0 0 0