LAMMPS data file via write_data, version 29 Aug 2024, timestep = 2, units = metal

6300 atoms
9 atom types

0 100.46556250265 xlo xhi
0 97.446416852708 ylo yhi
-50 50 zlo zhi

Masses

1 106.42
2 106.42
3 106.42
4 127.6
5 127.6
6 127.6
7 127.6
8 127.6
9 127.6

Atoms # atomic

1124 1 0.0015241334312234222 3.478648738784528 1.3737771944449395 0 0 0
1131 5 2.0093177726324445 2.320143774365385 0.08266063825934584 0 0 0
1130 1 4.020146633537223 3.4786487387845293 1.3737771944449413 0 0 0
1127 4 0.002842271866810141 1.1571246119520193 2.664086364201409 0 0 0
1133 4 4.021464771972808 1.1571246119520198 2.6640863642014097 0 0 0
1134 4 2.01215352191981 4.63735378526302 2.6640863642014097 0 0 0
1137 5 6.0279402727384435 2.3201437743653845 0.08266063825934533 0 0 0
1136 1 8.038769133643221 3.4786487387845293 1.373777194444941 0 0 0
1143 5 10.046562772844444 2.320143774365385 0.082660638259346 0 0 0
1139 4 8.040087272078807 1.157124611952019 2.6640863642014088 0 0 0
1140 4 6.03077602202581 4.63735378526302 2.66408636420141 0 0 0
1146 4 10.049398522131808 4.63735378526302 2.6640863642014097 0 0 0
1149 5 14.065185272950442 2.320143774365385 0.08266063825934576 0 0 0
1142 1 12.057391633749223 3.4786487387845293 1.3737771944449415 0 0 0
1148 1 16.07601413385522 3.4786487387845293 1.373777194444941 0 0 0
1145 4 12.058709772184809 1.157124611952019 2.6640863642014088 0 0 0
1151 4 16.07733227229081 1.1571246119520187 2.6640863642014083 0 0 0
1152 4 14.06802102223781 4.63735378526302 2.6640863642014097 0 0 0
1155 5 18.083807773056446 2.3201437743653854 0.08266063825934622 0 0 0
1161 5 22.102430273162444 2.320143774365384 0.08266063825934437 0 0 0
1154 1 20.094636633961223 3.4786487387845293 1.373777194444941 0 0 0
1157 4 20.09595477239681 1.1571246119520198 2.6640863642014097 0 0 0
1158 4 18.08664352234381 4.63735378526302 2.664086364201409 0 0 0
1164 4 22.105266022449808 4.637353785263021 2.6640863642014105 0 0 0
1160 1 24.11325913406722 3.4786487387845293 1.3737771944449413 0 0 0
1167 5 26.121052773268442 2.320143774365386 0.0826606382593472 0 0 0
1166 1 28.131881634173222 3.4786487387845293 1.3737771944449413 0 0 0
1163 4 24.114577272502807 1.1571246119520193 2.664086364201409 0 0 0
1169 4 28.13319977260881 1.157124611952018 2.6640863642014074 0 0 0
1170 4 26.123888522555806 4.637353785263018 2.6640863642014083 0 0 0
1173 5 30.139675273374444 2.320143774365385 0.08266063825934578 0 0 0
1179 5 34.15829777348044 2.320143774365384 0.08266063825934486 0 0 0
1172 1 32.150504134279224 3.4786487387845297 1.3737771944449415 0 0 0
1175 4 32.15182227271481 1.15712461195202 2.66408636420141 0 0 0
1176 4 30.14251102266181 4.63735378526302 2.6640863642014097 0 0 0
1182 4 34.161133522767805 4.63735378526302 2.6640863642014105 0 0 0
1178 1 36.16912663438522 3.4786487387845293 1.3737771944449413 0 0 0
1185 5 38.17692027358644 2.320143774365386 0.08266063825934726 0 0 0
1184 1 40.18774913449122 3.4786487387845293 1.3737771944449413 0 0 0
1181 4 36.17044477282081 1.1571246119520193 2.664086364201409 0 0 0
1187 4 40.189067272926806 1.1571246119520193 2.664086364201409 0 0 0
1188 4 38.17975602287381 4.637353785263018 2.664086364201408 0 0 0
1191 5 42.195542773692445 2.320143774365384 0.08266063825934478 0 0 0
1190 1 44.20637163459722 3.4786487387845297 1.3737771944449413 0 0 0
1197 5 46.21416527379844 2.320143774365385 0.0826606382593458 0 0 0
1193 4 44.207689773032804 1.1571246119520198 2.6640863642014097 0 0 0
1194 4 42.19837852297981 4.637353785263021 2.6640863642014105 0 0 0
1200 4 46.21700102308581 4.63735378526302 2.6640863642014097 0 0 0
1196 1 48.224994134703216 3.4786487387845297 1.3737771944449413 0 0 0
1053 5 50.23278777390444 2.3201437743653854 0.08266063825934637 -1 0 0
1052 1 52.24361663480922 3.4786487387845293 1.3737771944449413 -1 0 0
1199 4 48.22631227313881 1.157124611952018 2.6640863642014074 0 0 0
1055 4 52.244934773244815 1.157124611952019 2.664086364201409 -1 0 0
1056 4 50.23562352319181 4.637353785263019 2.664086364201409 -1 0 0
1059 5 54.251410274010446 2.320143774365385 0.082660638259346 -1 0 0
1058 1 56.26223913491523 3.4786487387845293 1.3737771944449413 -1 0 0
1065 5 58.270032774116444 2.3201437743653854 0.082660638259346 -1 0 0
1061 4 56.26355727335081 1.1571246119520193 2.664086364201409 -1 0 0
1062 4 54.25424602329781 4.63735378526302 2.6640863642014097 -1 0 0
1068 4 58.272868523403815 4.63735378526302 2.6640863642014097 -1 0 0
1064 1 60.280861635021225 3.4786487387845293 1.3737771944449415 -1 0 0
1071 5 62.28865527422244 2.3201437743653845 0.08266063825934526 -1 0 0
1070 1 64.29948413512723 3.478648738784529 1.3737771944449406 -1 0 0
1067 4 60.28217977345681 1.1571246119520198 2.6640863642014097 -1 0 0
1073 4 64.30080227356281 1.1571246119520184 2.664086364201408 -1 0 0
1074 4 62.29149102350981 4.63735378526302 2.6640863642014105 -1 0 0
1077 5 66.30727777432845 2.320143774365386 0.08266063825934716 -1 0 0
1076 1 68.31810663523324 3.4786487387845293 1.3737771944449415 -1 0 0
1083 5 70.32590027443445 2.320143774365385 0.08266063825934584 -1 0 0
1079 4 68.31942477366881 1.1571246119520193 2.664086364201409 -1 0 0
1080 4 66.31011352361581 4.637353785263018 2.6640863642014083 -1 0 0
1086 4 70.32873602372182 4.63735378526302 2.66408636420141 -1 0 0
1082 1 72.33672913533923 3.4786487387845306 1.3737771944449428 -1 0 0
1089 5 74.34452277454045 2.3201437743653845 0.08266063825934473 -1 0 0
1088 1 76.35535163544523 3.4786487387845284 1.3737771944449397 -1 0 0
1085 4 72.33804727377482 1.15712461195202 2.66408636420141 -1 0 0
1091 4 76.35666977388081 1.1571246119520193 2.664086364201409 -1 0 0
1092 4 74.34735852382782 4.637353785263021 2.6640863642014105 -1 0 0
1095 5 78.36314527464644 2.320143774365385 0.08266063825934589 -1 0 0
1094 1 80.37397413555122 3.4786487387845306 1.3737771944449426 -1 0 0
1101 5 82.38176777475245 2.3201437743653845 0.08266063825934473 -1 0 0
1097 4 80.37529227398682 1.15712461195202 2.66408636420141 -1 0 0
1098 4 78.36598102393381 4.63735378526302 2.6640863642014097 -1 0 0
1104 4 82.38460352403982 4.63735378526302 2.6640863642014105 -1 0 0
1100 1 84.39259663565723 3.4786487387845284 1.3737771944449395 -1 0 0
1107 5 86.40039027485845 2.320143774365386 0.08266063825934718 -1 0 0
1106 1 88.41121913576323 3.4786487387845293 1.3737771944449413 -1 0 0
1103 4 84.3939147740928 1.157124611952018 2.664086364201407 -1 0 0
1109 4 88.41253727419881 1.157124611952018 2.6640863642014074 -1 0 0
1110 4 86.40322602414581 4.637353785263018 2.6640863642014083 -1 0 0
1113 5 90.41901277496446 2.320143774365386 0.08266063825934715 -1 0 0
1112 1 92.42984163586924 3.4786487387845293 1.3737771944449413 -1 0 0
1119 5 94.43763527507045 2.320143774365385 0.08266063825934586 -1 0 0
1115 4 92.43115977430482 1.1571246119520193 2.664086364201409 -1 0 0
1116 4 90.42184852425181 4.637353785263018 2.6640863642014083 -1 0 0
1122 4 94.44047102435782 4.63735378526302 2.66408636420141 -1 0 0
1118 1 96.44846413597523 3.4786487387845306 1.3737771944449426 -1 0 0
1125 5 98.45625777517645 2.3201437743653845 0.08266063825934476 -1 0 0
1121 4 96.44978227441082 1.15712461195202 2.66408636420141 -1 0 0
1128 4 98.45909352446382 4.637353785263021 2.664086364201411 -1 0 0
1126 5 6.522579443461878e-06 5.800372947676385 0.08266063825934748 0 0 0
1132 5 4.018629022685443 5.800372947676384 0.08266063825934623 0 0 0
1279 1 2.010835383484223 6.958877912095529 1.3737771944449408 0 0 0
1281 5 2.0093177726324445 9.280602120987385 0.08266063825934684 0 0 0
1274 1 0.001524133431223532 10.439107085406528 1.3737771944449393 0 0 0
1280 1 4.020146633537222 10.43910708540653 1.3737771944449408 0 0 0
1277 4 0.0028422718668102416 8.11758295857402 2.66408636420141 0 0 0
1283 4 4.021464771972809 8.11758295857402 2.6640863642014105 0 0 0
1138 5 8.037251522791442 5.800372947676385 0.08266063825934691 0 0 0
1285 1 6.029457883590221 6.958877912095529 1.3737771944449408 0 0 0
1291 1 10.048080383696222 6.958877912095529 1.3737771944449408 0 0 0
1287 5 6.0279402727384435 9.280602120987385 0.08266063825934625 0 0 0
1293 5 10.046562772844444 9.280602120987385 0.08266063825934682 0 0 0
1286 1 8.038769133643221 10.43910708540653 1.3737771944449408 0 0 0
1289 4 8.040087272078807 8.11758295857402 2.6640863642014097 0 0 0
1144 5 12.055874022897443 5.800372947676385 0.08266063825934696 0 0 0
1150 5 16.074496523003447 5.800372947676386 0.08266063825934755 0 0 0
1297 1 14.066702883802222 6.958877912095529 1.3737771944449406 0 0 0
1299 5 14.065185272950442 9.280602120987385 0.08266063825934669 0 0 0
1292 1 12.057391633749223 10.43910708540653 1.3737771944449413 0 0 0
1298 1 16.07601413385522 10.43910708540653 1.3737771944449408 0 0 0
1295 4 12.058709772184809 8.11758295857402 2.6640863642014097 0 0 0
1301 4 16.07733227229081 8.11758295857402 2.664086364201409 0 0 0
1156 5 20.093119023109445 5.800372947676384 0.08266063825934597 0 0 0
1303 1 18.085325383908224 6.958877912095529 1.3737771944449406 0 0 0
1309 1 22.10394788401422 6.958877912095529 1.3737771944449408 0 0 0
1305 5 18.083807773056446 9.280602120987385 0.08266063825934707 0 0 0
1311 5 22.10243027316244 9.280602120987384 0.08266063825934529 0 0 0
1304 1 20.094636633961223 10.43910708540653 1.3737771944449415 0 0 0
1307 4 20.09595477239681 8.11758295857402 2.6640863642014105 0 0 0
1162 5 24.111741523215443 5.800372947676385 0.08266063825934669 0 0 0
1168 5 28.130364023321444 5.800372947676386 0.08266063825934823 0 0 0
1315 1 26.12257038412022 6.958877912095529 1.3737771944449408 0 0 0
1317 5 26.121052773268442 9.280602120987387 0.08266063825934811 0 0 0
1310 1 24.11325913406722 10.43910708540653 1.3737771944449404 0 0 0
1316 1 28.131881634173222 10.43910708540653 1.373777194444941 0 0 0
1313 4 24.114577272502807 8.11758295857402 2.6640863642014097 0 0 0
1319 4 28.13319977260881 8.117582958574019 2.6640863642014088 0 0 0
1174 5 32.148986523427446 5.800372947676384 0.08266063825934598 0 0 0
1321 1 30.141192884226225 6.958877912095529 1.3737771944449404 0 0 0
1327 1 34.15981538433222 6.958877912095529 1.3737771944449417 0 0 0
1323 5 30.139675273374444 9.280602120987385 0.0826606382593466 0 0 0
1329 5 34.15829777348044 9.280602120987384 0.0826606382593457 0 0 0
1322 1 32.150504134279224 10.43910708540653 1.3737771944449413 0 0 0
1325 4 32.15182227271481 8.117582958574022 2.6640863642014105 0 0 0
1180 5 36.167609023533444 5.800372947676385 0.08266063825934675 0 0 0
1186 5 40.18623152363944 5.800372947676385 0.08266063825934668 0 0 0
1333 1 38.17843788443822 6.958877912095529 1.3737771944449408 0 0 0
1335 5 38.17692027358644 9.280602120987387 0.08266063825934815 0 0 0
1328 1 36.16912663438522 10.43910708540653 1.3737771944449408 0 0 0
1334 1 40.18774913449123 10.43910708540653 1.3737771944449404 0 0 0
1331 4 36.17044477282081 8.11758295857402 2.6640863642014097 0 0 0
1337 4 40.189067272926806 8.11758295857402 2.66408636420141 0 0 0
1192 5 44.20485402374544 5.800372947676384 0.08266063825934601 0 0 0
1339 1 42.19706038454422 6.958877912095529 1.3737771944449406 0 0 0
1345 1 46.21568288465022 6.958877912095529 1.3737771944449408 0 0 0
1341 5 42.195542773692445 9.280602120987384 0.08266063825934568 0 0 0
1347 5 46.21416527379844 9.280602120987385 0.08266063825934665 0 0 0
1340 1 44.20637163459722 10.43910708540653 1.373777194444942 0 0 0
1343 4 44.207689773032804 8.11758295857402 2.664086364201411 0 0 0
1198 5 48.22347652385144 5.800372947676386 0.08266063825934826 0 0 0
1054 5 52.242099023957444 5.800372947676385 0.0826606382593469 -1 0 0
1201 1 50.234305384756226 6.958877912095529 1.3737771944449408 -1 0 0
1203 5 50.23278777390444 9.280602120987385 0.08266063825934729 -1 0 0
1346 1 48.224994134703216 10.43910708540653 1.373777194444941 0 0 0
1202 1 52.24361663480922 10.43910708540653 1.373777194444941 -1 0 0
1349 4 48.22631227313881 8.117582958574019 2.6640863642014083 0 0 0
1205 4 52.244934773244815 8.11758295857402 2.6640863642014097 -1 0 0
1060 5 56.26072152406344 5.800372947676385 0.0826606382593467 -1 0 0
1207 1 54.252927884862224 6.958877912095529 1.3737771944449408 -1 0 0
1213 1 58.27155038496822 6.958877912095529 1.3737771944449408 -1 0 0
1209 5 54.251410274010446 9.280602120987385 0.08266063825934691 -1 0 0
1215 5 58.270032774116444 9.280602120987385 0.08266063825934694 -1 0 0
1208 1 56.26223913491523 10.43910708540653 1.373777194444941 -1 0 0
1211 4 56.26355727335081 8.11758295857402 2.66408636420141 -1 0 0
1066 5 60.27934402416945 5.800372947676384 0.0826606382593462 -1 0 0
1072 5 64.29796652427545 5.800372947676386 0.08266063825934775 -1 0 0
1219 1 62.29017288507422 6.958877912095528 1.37377719444494 -1 0 0
1221 5 62.28865527422244 9.280602120987385 0.08266063825934618 -1 0 0
1214 1 60.280861635021225 10.43910708540653 1.373777194444941 -1 0 0
1220 1 64.29948413512723 10.43910708540653 1.3737771944449402 -1 0 0
1217 4 60.28217977345681 8.11758295857402 2.6640863642014105 -1 0 0
1223 4 64.30080227356281 8.11758295857402 2.6640863642014088 -1 0 0
1078 5 68.31658902438144 5.800372947676385 0.08266063825934664 -1 0 0
1225 1 66.30879538518022 6.958877912095529 1.373777194444941 -1 0 0
1231 1 70.32741788528622 6.95887791209553 1.3737771944449426 -1 0 0
1227 5 66.30727777432845 9.280602120987387 0.08266063825934807 -1 0 0
1233 5 70.32590027443445 9.280602120987385 0.08266063825934668 -1 0 0
1226 1 68.31810663523324 10.43910708540653 1.373777194444941 -1 0 0
1229 4 68.31942477366881 8.11758295857402 2.66408636420141 -1 0 0
1084 5 72.33521152448745 5.800372947676384 0.082660638259346 -1 0 0
1090 5 76.35383402459344 5.800372947676385 0.08266063825934675 -1 0 0
1237 1 74.34604038539223 6.958877912095527 1.3737771944449393 -1 0 0
1239 5 74.34452277454045 9.280602120987384 0.08266063825934565 -1 0 0
1232 1 72.33672913533923 10.439107085406532 1.3737771944449428 -1 0 0
1238 1 76.35535163544523 10.439107085406528 1.3737771944449395 -1 0 0
1235 4 72.33804727377482 8.117582958574022 2.664086364201411 -1 0 0
1241 4 76.35666977388081 8.11758295857402 2.66408636420141 -1 0 0
1096 5 80.37245652469944 5.800372947676384 0.08266063825934598 -1 0 0
1243 1 78.36466288549822 6.95887791209553 1.3737771944449424 -1 0 0
1249 1 82.38328538560422 6.958877912095527 1.373777194444939 -1 0 0
1245 5 78.36314527464644 9.280602120987385 0.0826606382593467 -1 0 0
1251 5 82.38176777475245 9.280602120987384 0.08266063825934565 -1 0 0
1244 1 80.37397413555122 10.43910708540653 1.3737771944449428 -1 0 0
1247 4 80.37529227398682 8.11758295857402 2.664086364201411 -1 0 0
1102 5 84.39107902480545 5.800372947676386 0.0826606382593483 -1 0 0
1108 5 88.40970152491145 5.800372947676386 0.08266063825934818 -1 0 0
1255 1 86.40190788571023 6.958877912095529 1.3737771944449408 -1 0 0
1257 5 86.40039027485845 9.280602120987387 0.0826606382593481 -1 0 0
1250 1 84.39259663565723 10.439107085406528 1.373777194444939 -1 0 0
1256 1 88.41121913576323 10.43910708540653 1.373777194444941 -1 0 0
1253 4 84.3939147740928 8.117582958574019 2.664086364201408 -1 0 0
1259 4 88.41253727419881 8.117582958574019 2.6640863642014088 -1 0 0
1114 5 92.42832402501745 5.800372947676385 0.08266063825934662 -1 0 0
1261 1 90.42053038581624 6.958877912095529 1.3737771944449408 -1 0 0
1267 1 94.43915288592223 6.95887791209553 1.3737771944449424 -1 0 0
1263 5 90.41901277496446 9.280602120987387 0.08266063825934805 -1 0 0
1269 5 94.43763527507045 9.280602120987385 0.08266063825934668 -1 0 0
1262 1 92.42984163586924 10.43910708540653 1.373777194444941 -1 0 0
1265 4 92.43115977430482 8.11758295857402 2.6640863642014105 -1 0 0
1120 5 96.44694652512345 5.800372947676384 0.082660638259346 -1 0 0
1273 1 98.45777538602823 6.958877912095527 1.373777194444939 -1 0 0
1275 5 98.45625777517645 9.280602120987384 0.08266063825934568 -1 0 0
1268 1 96.44846413597523 10.43910708540653 1.3737771944449428 -1 0 0
1271 4 96.44978227441082 8.11758295857402 2.664086364201411 -1 0 0
1276 5 6.522579443369071e-06 12.760831294298386 0.08266063825934726 0 0 0
1282 5 4.0186290226854435 12.760831294298384 0.08266063825934615 0 0 0
1429 1 2.010835383484223 13.91933625871753 1.3737771944449413 0 0 0
1431 5 2.0093177726324445 16.241060467609383 0.08266063825934727 0 0 0
1284 4 2.01215352191981 11.59781213188502 2.66408636420141 0 0 0
1427 4 0.002842271866810151 15.078041305196022 2.664086364201409 0 0 0
1433 4 4.021464771972808 15.078041305196022 2.6640863642014097 0 0 0
1288 5 8.037251522791442 12.760831294298384 0.08266063825934675 0 0 0
1435 1 6.029457883590221 13.91933625871753 1.3737771944449415 0 0 0
1441 1 10.048080383696222 13.91933625871753 1.373777194444941 0 0 0
1437 5 6.0279402727384435 16.241060467609383 0.08266063825934676 0 0 0
1443 5 10.046562772844444 16.241060467609387 0.08266063825934743 0 0 0
1290 4 6.030776022025809 11.597812131885021 2.6640863642014105 0 0 0
1296 4 10.049398522131808 11.59781213188502 2.66408636420141 0 0 0
1439 4 8.040087272078807 15.07804130519602 2.664086364201409 0 0 0
1294 5 12.055874022897443 12.760831294298384 0.08266063825934683 0 0 0
1447 1 14.066702883802222 13.91933625871753 1.373777194444941 0 0 0
1300 5 16.074496523003447 12.760831294298386 0.0826606382593473 0 0 0
1449 5 14.065185272950442 16.241060467609383 0.08266063825934718 0 0 0
1302 4 14.06802102223781 11.59781213188502 2.66408636420141 0 0 0
1445 4 12.058709772184809 15.07804130519602 2.664086364201409 0 0 0
1451 4 16.07733227229081 15.07804130519602 2.6640863642014088 0 0 0
1453 1 18.085325383908224 13.91933625871753 1.373777194444941 0 0 0
1306 5 20.093119023109445 12.760831294298384 0.08266063825934553 0 0 0
1459 1 22.10394788401422 13.91933625871753 1.3737771944449413 0 0 0
1455 5 18.083807773056446 16.241060467609387 0.08266063825934765 0 0 0
1461 5 22.102430273162444 16.241060467609383 0.0826606382593458 0 0 0
1308 4 18.08664352234381 11.59781213188502 2.6640863642014097 0 0 0
1314 4 22.105266022449808 11.59781213188502 2.6640863642014114 0 0 0
1457 4 20.09595477239681 15.07804130519602 2.6640863642014105 0 0 0
1312 5 24.111741523215443 12.760831294298384 0.08266063825934657 0 0 0
1465 1 26.12257038412022 13.91933625871753 1.373777194444941 0 0 0
1318 5 28.130364023321444 12.760831294298386 0.08266063825934808 0 0 0
1467 5 26.121052773268442 16.241060467609387 0.08266063825934863 0 0 0
1320 4 26.123888522555806 11.59781213188502 2.6640863642014088 0 0 0
1463 4 24.114577272502807 15.07804130519602 2.664086364201409 0 0 0
1469 4 28.13319977260881 15.07804130519602 2.664086364201408 0 0 0
1471 1 30.141192884226225 13.91933625871753 1.3737771944449415 0 0 0
1324 5 32.148986523427446 12.760831294298384 0.08266063825934557 0 0 0
1477 1 34.15981538433222 13.91933625871753 1.3737771944449413 0 0 0
1473 5 30.139675273374444 16.241060467609387 0.08266063825934715 0 0 0
1479 5 34.15829777348044 16.241060467609383 0.08266063825934622 0 0 0
1326 4 30.14251102266181 11.59781213188502 2.66408636420141 0 0 0
1332 4 34.161133522767805 11.59781213188502 2.664086364201411 0 0 0
1475 4 32.15182227271481 15.07804130519602 2.6640863642014105 0 0 0
1330 5 36.167609023533444 12.760831294298384 0.08266063825934655 0 0 0
1483 1 38.17843788443822 13.91933625871753 1.373777194444941 0 0 0
1336 5 40.18623152363944 12.760831294298384 0.08266063825934657 0 0 0
1485 5 38.17692027358644 16.241060467609387 0.08266063825934872 0 0 0
1338 4 38.17975602287381 11.59781213188502 2.6640863642014083 0 0 0
1481 4 36.17044477282081 15.07804130519602 2.6640863642014097 0 0 0
1487 4 40.189067272926806 15.07804130519602 2.6640863642014097 0 0 0
1342 5 44.20485402374544 12.760831294298384 0.08266063825934551 0 0 0
1489 1 42.19706038454422 13.91933625871753 1.373777194444941 0 0 0
1495 1 46.21568288465022 13.91933625871753 1.373777194444941 0 0 0
1491 5 42.195542773692445 16.241060467609383 0.08266063825934619 0 0 0
1497 5 46.21416527379844 16.241060467609387 0.0826606382593472 0 0 0
1344 4 42.19837852297981 11.597812131885021 2.664086364201411 0 0 0
1350 4 46.21700102308581 11.59781213188502 2.66408636420141 0 0 0
1493 4 44.207689773032804 15.07804130519602 2.6640863642014105 0 0 0
1348 5 48.22347652385144 12.760831294298386 0.08266063825934808 0 0 0
1351 1 50.234305384756226 13.91933625871753 1.373777194444941 -1 0 0
1204 5 52.242099023957444 12.760831294298386 0.08266063825934677 -1 0 0
1353 5 50.23278777390444 16.241060467609387 0.0826606382593479 -1 0 0
1206 4 50.23562352319181 11.59781213188502 2.6640863642014097 -1 0 0
1499 4 48.22631227313881 15.07804130519602 2.6640863642014083 0 0 0
1355 4 52.244934773244815 15.07804130519602 2.664086364201409 -1 0 0
1357 1 54.252927884862224 13.91933625871753 1.3737771944449413 -1 0 0
1210 5 56.26072152406344 12.760831294298384 0.08266063825934657 -1 0 0
1363 1 58.27155038496822 13.91933625871753 1.3737771944449415 -1 0 0
1359 5 54.251410274010446 16.241060467609383 0.08266063825934741 -1 0 0
1365 5 58.270032774116444 16.241060467609383 0.08266063825934743 -1 0 0
1212 4 54.25424602329781 11.59781213188502 2.6640863642014097 -1 0 0
1218 4 58.272868523403815 11.59781213188502 2.6640863642014097 -1 0 0
1361 4 56.26355727335081 15.07804130519602 2.6640863642014097 -1 0 0
1216 5 60.27934402416945 12.760831294298384 0.08266063825934611 -1 0 0
1369 1 62.29017288507422 13.91933625871753 1.3737771944449404 -1 0 0
1222 5 64.29796652427545 12.760831294298386 0.08266063825934762 -1 0 0
1371 5 62.28865527422244 16.241060467609383 0.08266063825934669 -1 0 0
1224 4 62.29149102350981 11.597812131885021 2.664086364201411 -1 0 0
1367 4 60.28217977345681 15.078041305196022 2.66408636420141 -1 0 0
1373 4 64.30080227356281 15.07804130519602 2.6640863642014083 -1 0 0
1375 1 66.30879538518022 13.91933625871753 1.3737771944449413 -1 0 0
1228 5 68.31658902438144 12.760831294298384 0.08266063825934647 -1 0 0
1381 1 70.32741788528622 13.919336258717532 1.3737771944449426 -1 0 0
1377 5 66.30727777432845 16.241060467609387 0.08266063825934868 -1 0 0
1383 5 70.32590027443445 16.241060467609387 0.08266063825934727 -1 0 0
1230 4 66.31011352361581 11.59781213188502 2.6640863642014088 -1 0 0
1236 4 70.32873602372182 11.59781213188502 2.66408636420141 -1 0 0
1379 4 68.31942477366881 15.07804130519602 2.6640863642014097 -1 0 0
1234 5 72.33521152448745 12.760831294298384 0.08266063825934557 -1 0 0
1387 1 74.34604038539223 13.91933625871753 1.3737771944449393 -1 0 0
1240 5 76.35383402459344 12.760831294298386 0.08266063825934658 -1 0 0
1389 5 74.34452277454045 16.241060467609383 0.08266063825934616 -1 0 0
1242 4 74.34735852382782 11.597812131885021 2.664086364201411 -1 0 0
1385 4 72.33804727377482 15.07804130519602 2.6640863642014105 -1 0 0
1391 4 76.35666977388081 15.07804130519602 2.664086364201409 -1 0 0
1393 1 78.36466288549822 13.919336258717532 1.3737771944449426 -1 0 0
1246 5 80.37245652469944 12.760831294298384 0.08266063825934557 -1 0 0
1399 1 82.38328538560422 13.919336258717529 1.3737771944449395 -1 0 0
1395 5 78.36314527464644 16.241060467609387 0.0826606382593473 -1 0 0
1401 5 82.38176777475245 16.241060467609383 0.08266063825934618 -1 0 0
1248 4 78.36598102393381 11.59781213188502 2.66408636420141 -1 0 0
1254 4 82.38460352403982 11.59781213188502 2.664086364201411 -1 0 0
1397 4 80.37529227398682 15.07804130519602 2.6640863642014105 -1 0 0
1252 5 84.39107902480545 12.760831294298386 0.08266063825934813 -1 0 0
1405 1 86.40190788571023 13.91933625871753 1.373777194444941 -1 0 0
1258 5 88.40970152491145 12.760831294298386 0.082660638259348 -1 0 0
1407 5 86.40039027485845 16.241060467609387 0.0826606382593486 -1 0 0
1260 4 86.40322602414581 11.59781213188502 2.6640863642014083 -1 0 0
1403 4 84.3939147740928 15.07804130519602 2.6640863642014074 -1 0 0
1409 4 88.41253727419881 15.07804130519602 2.6640863642014083 -1 0 0
1411 1 90.42053038581624 13.91933625871753 1.3737771944449413 -1 0 0
1264 5 92.42832402501745 12.760831294298384 0.08266063825934646 -1 0 0
1417 1 94.43915288592223 13.919336258717532 1.3737771944449426 -1 0 0
1413 5 90.41901277496446 16.241060467609387 0.08266063825934858 -1 0 0
1419 5 94.43763527507045 16.241060467609387 0.08266063825934727 -1 0 0
1266 4 90.42184852425181 11.59781213188502 2.6640863642014088 -1 0 0
1272 4 94.44047102435782 11.59781213188502 2.6640863642014105 -1 0 0
1415 4 92.43115977430482 15.07804130519602 2.6640863642014097 -1 0 0
1270 5 96.44694652512345 12.760831294298384 0.08266063825934557 -1 0 0
1423 1 98.45777538602823 13.919336258717529 1.3737771944449395 -1 0 0
1425 5 98.45625777517645 16.241060467609383 0.0826606382593462 -1 0 0
1278 4 98.45909352446382 11.597812131885021 2.664086364201412 -1 0 0
1421 4 96.44978227441082 15.07804130519602 2.6640863642014105 -1 0 0
1424 1 0.0015241334312236117 17.39956543202853 1.373777194444939 0 0 0
1430 1 4.020146633537223 17.39956543202853 1.373777194444941 0 0 0
1426 5 6.522579443373449e-06 19.72128964092039 0.08266063825934808 0 0 0
1432 5 4.0186290226854435 19.721289640920386 0.08266063825934701 0 0 0
1579 1 2.0108353834842236 20.879794605339534 1.3737771944449408 0 0 0
1434 4 2.01215352191981 18.558270478507023 2.6640863642014088 0 0 0
1577 4 0.002842271866810204 22.03849965181802 2.66408636420141 0 0 0
1583 4 4.021464771972808 22.038499651818025 2.6640863642014105 0 0 0
1436 1 8.038769133643221 17.39956543202853 1.3737771944449408 0 0 0
1438 5 8.037251522791442 19.721289640920386 0.08266063825934765 0 0 0
1585 1 6.029457883590221 20.879794605339534 1.373777194444941 0 0 0
1591 1 10.048080383696222 20.879794605339534 1.3737771944449415 0 0 0
1440 4 6.03077602202581 18.558270478507023 2.664086364201409 0 0 0
1446 4 10.049398522131808 18.558270478507023 2.6640863642014088 0 0 0
1589 4 8.040087272078807 22.038499651818025 2.66408636420141 0 0 0
1442 1 12.057391633749223 17.39956543202853 1.3737771944449413 0 0 0
1448 1 16.07601413385522 17.39956543202853 1.3737771944449406 0 0 0
1444 5 12.055874022897443 19.721289640920386 0.08266063825934772 0 0 0
1450 5 16.074496523003447 19.72128964092039 0.08266063825934811 0 0 0
1597 1 14.066702883802222 20.879794605339534 1.3737771944449408 0 0 0
1452 4 14.068021022237808 18.558270478507023 2.6640863642014088 0 0 0
1595 4 12.058709772184809 22.038499651818025 2.66408636420141 0 0 0
1601 4 16.07733227229081 22.03849965181802 2.664086364201409 0 0 0
1454 1 20.094636633961223 17.39956543202853 1.373777194444941 0 0 0
1456 5 20.093119023109445 19.721289640920386 0.0826606382593464 0 0 0
1603 1 18.085325383908224 20.879794605339534 1.3737771944449415 0 0 0
1609 1 22.10394788401422 20.879794605339534 1.3737771944449415 0 0 0
1458 4 18.08664352234381 18.558270478507023 2.6640863642014088 0 0 0
1464 4 22.105266022449808 18.558270478507023 2.66408636420141 0 0 0
1607 4 20.09595477239681 22.038499651818025 2.664086364201411 0 0 0
1460 1 24.11325913406722 17.39956543202853 1.3737771944449408 0 0 0
1466 1 28.131881634173222 17.39956543202853 1.3737771944449408 0 0 0
1462 5 24.111741523215443 19.72128964092039 0.08266063825934734 0 0 0
1468 5 28.130364023321444 19.72128964092039 0.08266063825934893 0 0 0
1615 1 26.12257038412022 20.879794605339534 1.3737771944449415 0 0 0
1470 4 26.123888522555806 18.55827047850702 2.664086364201408 0 0 0
1613 4 24.114577272502807 22.03849965181802 2.66408636420141 0 0 0
1619 4 28.13319977260881 22.03849965181802 2.6640863642014088 0 0 0
1472 1 32.150504134279224 17.39956543202853 1.3737771944449415 0 0 0
1474 5 32.148986523427446 19.721289640920386 0.08266063825934639 0 0 0
1621 1 30.141192884226225 20.879794605339534 1.373777194444942 0 0 0
1627 1 34.15981538433222 20.879794605339534 1.3737771944449415 0 0 0
1476 4 30.14251102266181 18.558270478507023 2.664086364201409 0 0 0
1482 4 34.161133522767805 18.558270478507023 2.66408636420141 0 0 0
1625 4 32.15182227271481 22.038499651818025 2.664086364201411 0 0 0
1478 1 36.16912663438522 17.39956543202853 1.3737771944449408 0 0 0
1484 1 40.18774913449122 17.39956543202853 1.3737771944449408 0 0 0
1480 5 36.167609023533444 19.72128964092039 0.08266063825934737 0 0 0
1486 5 40.18623152363944 19.72128964092039 0.08266063825934733 0 0 0
1633 1 38.178437884438225 20.879794605339534 1.3737771944449415 0 0 0
1488 4 38.17975602287381 18.55827047850702 2.6640863642014074 0 0 0
1631 4 36.17044477282081 22.03849965181802 2.66408636420141 0 0 0
1637 4 40.189067272926806 22.03849965181802 2.6640863642014105 0 0 0
1490 1 44.20637163459722 17.39956543202853 1.3737771944449413 0 0 0
1492 5 44.20485402374544 19.721289640920386 0.08266063825934646 0 0 0
1639 1 42.19706038454422 20.879794605339534 1.3737771944449417 0 0 0
1645 1 46.21568288465022 20.879794605339534 1.3737771944449415 0 0 0
1494 4 42.19837852297981 18.558270478507023 2.66408636420141 0 0 0
1500 4 46.21700102308581 18.558270478507023 2.664086364201409 0 0 0
1643 4 44.207689773032804 22.038499651818025 2.664086364201411 0 0 0
1496 1 48.224994134703216 17.39956543202853 1.3737771944449408 0 0 0
1352 1 52.24361663480922 17.39956543202853 1.373777194444941 -1 0 0
1498 5 48.22347652385144 19.72128964092039 0.08266063825934894 0 0 0
1354 5 52.242099023957444 19.721289640920386 0.08266063825934766 -1 0 0
1501 1 50.234305384756226 20.879794605339534 1.3737771944449415 -1 0 0
1356 4 50.23562352319181 18.558270478507023 2.6640863642014088 -1 0 0
1649 4 48.22631227313881 22.03849965181802 2.6640863642014088 0 0 0
1505 4 52.244934773244815 22.038499651818025 2.66408636420141 -1 0 0
1358 1 56.26223913491523 17.39956543202853 1.3737771944449408 -1 0 0
1360 5 56.26072152406344 19.72128964092039 0.08266063825934737 -1 0 0
1507 1 54.252927884862224 20.879794605339534 1.373777194444941 -1 0 0
1513 1 58.27155038496822 20.879794605339534 1.373777194444941 -1 0 0
1362 4 54.25424602329781 18.558270478507023 2.6640863642014088 -1 0 0
1368 4 58.272868523403815 18.558270478507023 2.6640863642014088 -1 0 0
1511 4 56.26355727335081 22.03849965181802 2.66408636420141 -1 0 0
1364 1 60.280861635021225 17.39956543202853 1.373777194444941 -1 0 0
1370 1 64.29948413512723 17.39956543202853 1.3737771944449404 -1 0 0
1366 5 60.27934402416945 19.721289640920386 0.082660638259347 -1 0 0
1372 5 64.29796652427545 19.721289640920386 0.08266063825934852 -1 0 0
1519 1 62.29017288507422 20.879794605339534 1.3737771944449402 -1 0 0