LAMMPS data file via write_data, version 29 Aug 2024, timestep = 2, units = metal

4200 atoms
6 atom types

0 100.46556250265 xlo xhi
0 97.446416852708 ylo yhi
-50 50 zlo zhi

Masses

1 106.42
2 106.42
3 127.6
4 127.6
5 127.6
6 127.6

Atoms # atomic

1124 1 0.0014861887712017238 3.478687316565984 1.3739172820656493 0 0 0
1131 4 2.00931788634035 2.3201437457196366 0.08368816675560334 0 0 0
1130 1 4.0201086888772 3.4786873165659826 1.3739172820656484 0 0 0
1127 3 0.002920965501358775 1.157040788262476 2.6626848919677313 0 0 0
1133 3 4.021543465607358 1.1570407882624767 2.662684891967732 0 0 0
1134 3 2.0122322155543593 4.637269961573477 2.662684891967732 0 0 0
1137 4 6.027940386446349 2.320143745719636 0.08368816675560266 0 0 0
1136 1 8.0387311889832 3.478687316565983 1.3739172820656484 0 0 0
1143 4 10.046562886552348 2.320143745719637 0.08368816675560338 0 0 0
1139 3 8.040165965713358 1.157040788262476 2.6626848919677313 0 0 0
1140 3 6.030854715660358 4.637269961573478 2.6626848919677326 0 0 0
1146 3 10.049477215766357 4.637269961573478 2.662684891967732 0 0 0
1149 4 14.06518538665835 2.3201437457196366 0.0836881667556034 0 0 0
1142 1 12.057353689089199 3.478687316565983 1.3739172820656482 0 0 0
1148 1 16.0759761891952 3.478687316565983 1.3739172820656484 0 0 0
1145 3 12.058788465819358 1.1570407882624762 2.6626848919677317 0 0 0
1151 3 16.07741096592536 1.1570407882624756 2.662684891967731 0 0 0
1152 3 14.068099715872359 4.637269961573477 2.662684891967732 0 0 0
1155 4 18.08380788676435 2.320143745719637 0.0836881667556033 0 0 0
1161 4 22.102430386870346 2.3201437457196357 0.08368816675560224 0 0 0
1154 1 20.0945986893012 3.478687316565983 1.3739172820656482 0 0 0
1157 3 20.096033466031358 1.1570407882624774 2.662684891967733 0 0 0
1158 3 18.08672221597836 4.637269961573478 2.662684891967732 0 0 0
1164 3 22.105344716084357 4.637269961573478 2.662684891967733 0 0 0
1160 1 24.1132211894072 3.478687316565983 1.3739172820656484 0 0 0
1167 4 26.121052886976347 2.320143745719638 0.08368816675560482 0 0 0
1166 1 28.1318436895132 3.478687316565983 1.3739172820656484 0 0 0
1163 3 24.114655966137356 1.157040788262476 2.6626848919677313 0 0 0
1169 3 28.13327846624336 1.1570407882624754 2.66268489196773 0 0 0
1170 3 26.12396721619036 4.637269961573476 2.662684891967731 0 0 0
1173 4 30.139675387082352 2.320143745719637 0.08368816675560327 0 0 0
1179 4 34.15829788718835 2.3201437457196357 0.08368816675560224 0 0 0
1172 1 32.1504661896192 3.4786873165659826 1.373917282065648 0 0 0
1175 3 32.151900966349366 1.1570407882624771 2.6626848919677326 0 0 0
1176 3 30.14258971629636 4.637269961573478 2.662684891967732 0 0 0
1182 3 34.161212216402355 4.637269961573478 2.662684891967733 0 0 0
1178 1 36.1690886897252 3.478687316565983 1.3739172820656482 0 0 0
1185 4 38.17692038729435 2.320143745719638 0.08368816675560489 0 0 0
1184 1 40.1877111898312 3.4786873165659835 1.3739172820656491 0 0 0
1181 3 36.17052346645536 1.1570407882624762 2.6626848919677313 0 0 0
1187 3 40.189145966561355 1.1570407882624762 2.6626848919677317 0 0 0
1188 3 38.17983471650836 4.637269961573476 2.6626848919677304 0 0 0
1191 4 42.19554288740035 2.320143745719636 0.08368816675560227 0 0 0
1190 1 44.206333689937196 3.4786873165659826 1.3739172820656476 0 0 0
1197 4 46.21416538750635 2.320143745719637 0.08368816675560335 0 0 0
1193 3 44.20776846666735 1.1570407882624771 2.6626848919677326 0 0 0
1194 3 42.198457216614365 4.637269961573478 2.662684891967733 0 0 0
1200 3 46.217079716720356 4.637269961573478 2.662684891967732 0 0 0
1196 1 48.224956190043194 3.478687316565983 1.3739172820656487 0 0 0
1053 4 50.232787887612346 2.3201437457196374 0.08368816675560391 -1 0 0
1052 1 52.2435786901492 3.478687316565983 1.3739172820656484 -1 0 0
1199 3 48.22639096677336 1.1570407882624754 2.66268489196773 0 0 0
1055 3 52.245013466879364 1.1570407882624762 2.6626848919677313 -1 0 0
1056 3 50.235702216826354 4.637269961573477 2.6626848919677317 -1 0 0
1059 4 54.25141038771835 2.3201437457196366 0.08368816675560341 -1 0 0
1058 1 56.262201190255205 3.4786873165659826 1.3739172820656484 -1 0 0
1065 4 58.27003288782436 2.320143745719637 0.08368816675560344 -1 0 0
1061 3 56.26363596698536 1.1570407882624762 2.6626848919677317 -1 0 0
1062 3 54.25432471693236 4.637269961573477 2.662684891967732 -1 0 0
1068 3 58.272947217038364 4.637269961573477 2.662684891967732 -1 0 0
1064 1 60.2808236903612 3.4786873165659826 1.3739172820656484 -1 0 0
1071 4 62.288655387930355 2.320143745719636 0.08368816675560264 -1 0 0
1070 1 64.29944619046721 3.478687316565983 1.3739172820656484 -1 0 0
1067 3 60.28225846709136 1.1570407882624767 2.662684891967732 -1 0 0
1073 3 64.30088096719736 1.1570407882624767 2.662684891967732 -1 0 0
1074 3 62.29156971714436 4.637269961573478 2.662684891967733 -1 0 0
1077 4 66.30727788803635 2.320143745719637 0.08368816675560309 -1 0 0
1076 1 68.31806869057321 3.478687316565983 1.3739172820656484 -1 0 0
1083 4 70.32590038814236 2.320143745719638 0.08368816675560498 -1 0 0
1079 3 68.31950346730336 1.1570407882624751 2.66268489196773 -1 0 0
1080 3 66.31019221725036 4.637269961573478 2.662684891967732 -1 0 0
1086 3 70.32881471735637 4.637269961573476 2.662684891967731 -1 0 0
1082 1 72.3366911906792 3.478687316565983 1.3739172820656487 -1 0 0
1089 4 74.34452288824835 2.3201437457196348 0.08368816675560062 -1 0 0
1088 1 76.3553136907852 3.478687316565983 1.3739172820656484 -1 0 0
1085 3 72.33812596740935 1.1570407882624774 2.6626848919677326 -1 0 0
1091 3 76.35674846751536 1.1570407882624762 2.6626848919677317 -1 0 0
1092 3 74.34743721746236 4.637269961573479 2.662684891967735 -1 0 0
1095 4 78.36314538835435 2.320143745719638 0.08368816675560492 -1 0 0
1094 1 80.3739361908912 3.478687316565983 1.3739172820656482 -1 0 0
1101 4 82.38176788846035 2.3201437457196348 0.08368816675560062 -1 0 0
1097 3 80.37537096762135 1.1570407882624771 2.6626848919677326 -1 0 0
1098 3 78.36605971756836 4.637269961573476 2.6626848919677304 -1 0 0
1104 3 82.38468221767435 4.6372699615734785 2.662684891967735 -1 0 0
1100 1 84.39255869099719 3.478687316565983 1.3739172820656482 -1 0 0
1107 4 86.40039038856635 2.320143745719638 0.08368816675560482 -1 0 0
1106 1 88.41118119110321 3.478687316565983 1.3739172820656484 -1 0 0
1103 3 84.39399346772736 1.1570407882624762 2.6626848919677313 -1 0 0
1109 3 88.41261596783336 1.1570407882624754 2.6626848919677304 -1 0 0
1110 3 86.40330471778036 4.637269961573476 2.662684891967731 -1 0 0
1113 4 90.41901288867236 2.320143745719638 0.08368816675560485 -1 0 0
1112 1 92.4298036912092 3.478687316565983 1.3739172820656484 -1 0 0
1119 4 94.43763538877836 2.320143745719638 0.08368816675560498 -1 0 0
1115 3 92.43123846793937 1.1570407882624751 2.66268489196773 -1 0 0
1116 3 90.42192721788636 4.637269961573476 2.662684891967731 -1 0 0
1122 3 94.44054971799237 4.637269961573477 2.6626848919677304 -1 0 0
1118 1 96.4484261913152 3.478687316565983 1.3739172820656482 -1 0 0
1125 4 98.45625788888435 2.3201437457196348 0.08368816675560083 -1 0 0
1121 3 96.44986096804536 1.1570407882624771 2.6626848919677326 -1 0 0
1128 3 98.45917221809836 4.6372699615734785 2.662684891967734 -1 0 0
1126 4 6.636287348977707e-06 5.800372919030637 0.08368816675560498 0 0 0
1132 4 4.018629136393349 5.800372919030636 0.0836881667556037 0 0 0
1279 1 2.0107974388242007 6.958916489876983 1.3739172820656478 0 0 0
1281 4 2.00931788634035 9.280602092341637 0.08368816675560409 0 0 0
1274 1 0.0014861887712015699 10.439145663187984 1.3739172820656491 0 0 0
1280 1 4.0201086888772 10.439145663187983 1.373917282065648 0 0 0
1277 3 0.002920965501358786 8.117499134884477 2.662684891967732 0 0 0
1283 3 4.021543465607358 8.117499134884477 2.662684891967733 0 0 0
1138 4 8.037251636499349 5.800372919030636 0.0836881667556045 0 0 0
1285 1 6.029419938930199 6.958916489876983 1.373917282065648 0 0 0
1291 1 10.0480424390362 6.958916489876983 1.3739172820656476 0 0 0
1287 4 6.027940386446349 9.280602092341637 0.08368816675560357 0 0 0
1293 4 10.046562886552348 9.280602092341637 0.08368816675560434 0 0 0
1286 1 8.0387311889832 10.439145663187983 1.3739172820656482 0 0 0
1289 3 8.040165965713358 8.117499134884477 2.662684891967732 0 0 0
1144 4 12.055874136605349 5.800372919030636 0.08368816675560427 0 0 0
1150 4 16.07449663671135 5.800372919030637 0.08368816675560521 0 0 0
1297 1 14.0666649391422 6.958916489876983 1.3739172820656482 0 0 0
1299 4 14.06518538665835 9.280602092341637 0.08368816675560414 0 0 0
1292 1 12.057353689089199 10.439145663187983 1.3739172820656482 0 0 0
1298 1 16.0759761891952 10.439145663187983 1.3739172820656482 0 0 0
1295 3 12.058788465819358 8.117499134884477 2.6626848919677326 0 0 0
1301 3 16.07741096592536 8.117499134884477 2.6626848919677313 0 0 0
1156 4 20.09311913681735 5.800372919030636 0.08368816675560281 0 0 0
1303 1 18.0852874392482 6.958916489876983 1.3739172820656478 0 0 0
1309 1 22.1039099393542 6.958916489876983 1.3739172820656478 0 0 0
1305 4 18.083807886764347 9.280602092341637 0.08368816675560417 0 0 0
1311 4 22.10243038687035 9.280602092341637 0.08368816675560312 0 0 0
1304 1 20.0945986893012 10.439145663187983 1.373917282065648 0 0 0
1307 3 20.096033466031358 8.11749913488448 2.662684891967734 0 0 0
1162 4 24.111741636923348 5.800372919030637 0.08368816675560468 0 0 0
1168 4 28.13036413702935 5.800372919030638 0.08368816675560566 0 0 0
1315 1 26.122532439460198 6.958916489876983 1.3739172820656478 0 0 0
1317 4 26.121052886976347 9.280602092341638 0.0836881667556055 0 0 0
1310 1 24.1132211894072 10.439145663187983 1.373917282065648 0 0 0
1316 1 28.1318436895132 10.439145663187983 1.3739172820656482 0 0 0
1313 3 24.114655966137356 8.117499134884477 2.662684891967732 0 0 0
1319 3 28.13327846624336 8.117499134884476 2.6626848919677313 0 0 0
1174 4 32.14898663713535 5.800372919030636 0.0836881667556032 0 0 0
1321 1 30.141154939566203 6.958916489876984 1.3739172820656482 0 0 0
1327 1 34.1597774396722 6.958916489876982 1.373917282065647 0 0 0
1323 4 30.13967538708235 9.280602092341637 0.08368816675560414 0 0 0
1329 4 34.15829788718835 9.280602092341637 0.08368816675560312 0 0 0
1322 1 32.1504661896192 10.439145663187983 1.3739172820656476 0 0 0
1325 3 32.151900966349366 8.11749913488448 2.6626848919677335 0 0 0
1180 4 36.16760913724135 5.800372919030636 0.0836881667556043 0 0 0
1186 4 40.18623163734735 5.800372919030636 0.08368816675560431 0 0 0
1333 1 38.178399939778195 6.958916489876983 1.3739172820656478 0 0 0
1335 4 38.17692038729435 9.280602092341638 0.08368816675560556 0 0 0
1328 1 36.1690886897252 10.439145663187983 1.373917282065648 0 0 0
1334 1 40.1877111898312 10.439145663187984 1.3739172820656491 0 0 0
1331 3 36.17052346645536 8.117499134884477 2.662684891967732 0 0 0
1337 3 40.189145966561355 8.117499134884477 2.6626848919677326 0 0 0
1192 4 44.204854137453346 5.800372919030636 0.08368816675560313 0 0 0
1339 1 42.1970224398842 6.958916489876983 1.3739172820656478 0 0 0
1345 1 46.2156449399902 6.958916489876983 1.3739172820656478 0 0 0
1341 4 42.19554288740035 9.280602092341637 0.08368816675560305 0 0 0
1347 4 46.21416538750635 9.280602092341637 0.08368816675560406 0 0 0
1340 1 44.206333689937196 10.439145663187983 1.3739172820656473 0 0 0
1343 3 44.20776846666735 8.11749913488448 2.6626848919677335 0 0 0
1198 4 48.22347663755935 5.800372919030638 0.08368816675560567 0 0 0
1054 4 52.242099137665356 5.800372919030636 0.08368816675560443 -1 0 0
1201 1 50.234267440096204 6.958916489876983 1.3739172820656478 -1 0 0
1203 4 50.232787887612346 9.280602092341638 0.08368816675560477 -1 0 0
1346 1 48.224956190043194 10.439145663187983 1.3739172820656482 0 0 0
1202 1 52.2435786901492 10.439145663187983 1.3739172820656482 -1 0 0
1349 3 48.22639096677336 8.117499134884476 2.6626848919677313 0 0 0
1205 3 52.245013466879364 8.117499134884477 2.662684891967732 -1 0 0
1060 4 56.260721637771354 5.800372919030636 0.08368816675560431 -1 0 0
1207 1 54.2528899402022 6.958916489876983 1.373917282065648 -1 0 0
1213 1 58.2715124403082 6.958916489876983 1.3739172820656478 -1 0 0
1209 4 54.25141038771835 9.280602092341637 0.08368816675560414 -1 0 0
1215 4 58.27003288782436 9.280602092341637 0.08368816675560418 -1 0 0
1208 1 56.262201190255205 10.439145663187983 1.3739172820656482 -1 0 0
1211 3 56.26363596698536 8.117499134884477 2.6626848919677326 -1 0 0
1066 4 60.27934413787735 5.800372919030636 0.08368816675560369 -1 0 0
1072 4 64.29796663798335 5.800372919030636 0.08368816675560366 -1 0 0
1219 1 62.290134940414205 6.958916489876983 1.3739172820656478 -1 0 0
1221 4 62.288655387930355 9.280602092341637 0.08368816675560348 -1 0 0
1214 1 60.2808236903612 10.439145663187983 1.3739172820656482 -1 0 0
1220 1 64.29944619046721 10.439145663187983 1.3739172820656482 -1 0 0
1217 3 60.28225846709136 8.117499134884477 2.662684891967733 -1 0 0
1223 3 64.30088096719736 8.117499134884477 2.662684891967733 -1 0 0
1078 4 68.31658913808936 5.800372919030638 0.08368816675560566 -1 0 0
1225 1 66.3087574405202 6.958916489876983 1.3739172820656478 -1 0 0
1231 1 70.3273799406262 6.958916489876983 1.373917282065648 -1 0 0
1227 4 66.30727788803635 9.280602092341637 0.08368816675560395 -1 0 0
1233 4 70.32590038814236 9.280602092341638 0.08368816675560578 -1 0 0
1226 1 68.31806869057321 10.439145663187983 1.3739172820656482 -1 0 0
1229 3 68.31950346730336 8.117499134884476 2.6626848919677313 -1 0 0
1084 4 72.33521163819535 5.800372919030636 0.08368816675560321 -1 0 0
1090 4 76.35383413830135 5.800372919030636 0.08368816675560432 -1 0 0
1237 1 74.3460024407322 6.958916489876983 1.373917282065648 -1 0 0
1239 4 74.34452288824835 9.280602092341635 0.08368816675560149 -1 0 0
1232 1 72.3366911906792 10.439145663187983 1.373917282065648 -1 0 0
1238 1 76.3553136907852 10.439145663187983 1.373917282065648 -1 0 0
1235 3 72.33812596740935 8.11749913488448 2.662684891967734 -1 0 0
1241 3 76.35674846751536 8.117499134884477 2.6626848919677326 -1 0 0
1096 4 80.37245663840734 5.800372919030636 0.08368816675560321 -1 0 0
1243 1 78.3646249408382 6.958916489876983 1.3739172820656478 -1 0 0
1249 1 82.3832474409442 6.958916489876983 1.3739172820656478 -1 0 0
1245 4 78.36314538835435 9.280602092341638 0.08368816675560582 -1 0 0
1251 4 82.38176788846035 9.280602092341635 0.08368816675560149 -1 0 0
1244 1 80.3739361908912 10.439145663187983 1.373917282065648 -1 0 0
1247 3 80.37537096762135 8.11749913488448 2.6626848919677335 -1 0 0
1102 4 84.39107913851335 5.800372919030636 0.08368816675560424 -1 0 0
1108 4 88.40970163861935 5.800372919030638 0.08368816675560563 -1 0 0
1255 1 86.40186994105021 6.958916489876983 1.3739172820656478 -1 0 0
1257 4 86.40039038856635 9.280602092341638 0.0836881667556055 -1 0 0
1250 1 84.39255869099719 10.439145663187983 1.373917282065648 -1 0 0
1256 1 88.41118119110321 10.439145663187983 1.3739172820656482 -1 0 0
1253 3 84.39399346772736 8.117499134884477 2.6626848919677326 -1 0 0
1259 3 88.41261596783336 8.117499134884476 2.6626848919677313 -1 0 0
1114 4 92.42832413872536 5.800372919030638 0.08368816675560564 -1 0 0
1261 1 90.42049244115621 6.958916489876983 1.3739172820656478 -1 0 0
1267 1 94.4391149412622 6.958916489876983 1.3739172820656478 -1 0 0
1263 4 90.41901288867236 9.280602092341638 0.08368816675560546 -1 0 0
1269 4 94.43763538877836 9.280602092341638 0.08368816675560578 -1 0 0
1262 1 92.42980369120922 10.439145663187983 1.3739172820656482 -1 0 0
1265 3 92.43123846793937 8.117499134884476 2.6626848919677313 -1 0 0
1120 4 96.44694663883135 5.800372919030636 0.08368816675560321 -1 0 0
1273 1 98.45773744136821 6.958916489876983 1.3739172820656478 -1 0 0
1275 4 98.45625788888435 9.280602092341635 0.08368816675560165 -1 0 0
1268 1 96.4484261913152 10.439145663187983 1.373917282065648 -1 0 0
1271 3 96.44986096804536 8.11749913488448 2.6626848919677335 -1 0 0
1276 4 6.636287348871519e-06 12.760831265652637 0.08368816675560485 0 0 0
1282 4 4.018629136393349 12.760831265652635 0.08368816675560357 0 0 0
1429 1 2.0107974388242007 13.919374836498983 1.3739172820656482 0 0 0
1431 4 2.00931788634035 16.241060438963636 0.08368816675560499 0 0 0
1284 3 2.0122322155543593 11.597728308195476 2.6626848919677326 0 0 0
1427 3 0.0029209655013588015 15.077957481506479 2.6626848919677313 0 0 0
1433 3 4.021543465607358 15.077957481506479 2.662684891967732 0 0 0
1288 4 8.037251636499349 12.760831265652637 0.08368816675560428 0 0 0
1435 1 6.029419938930199 13.919374836498983 1.3739172820656484 0 0 0
1441 1 10.0480424390362 13.919374836498983 1.3739172820656482 0 0 0
1437 4 6.027940386446349 16.241060438963636 0.08368816675560437 0 0 0
1443 4 10.046562886552348 16.241060438963636 0.08368816675560507 0 0 0
1290 3 6.030854715660358 11.597728308195478 2.662684891967733 0 0 0
1296 3 10.049477215766359 11.597728308195476 2.6626848919677326 0 0 0
1439 3 8.040165965713358 15.077957481506479 2.6626848919677317 0 0 0
1294 4 12.055874136605349 12.760831265652637 0.08368816675560402 0 0 0
1447 1 14.0666649391422 13.919374836498983 1.3739172820656484 0 0 0
1300 4 16.07449663671135 12.760831265652637 0.08368816675560509 0 0 0
1449 4 14.06518538665835 16.241060438963636 0.08368816675560498 0 0 0
1302 3 14.068099715872359 11.597728308195476 2.662684891967732 0 0 0
1445 3 12.058788465819358 15.077957481506479 2.6626848919677317 0 0 0
1451 3 16.07741096592536 15.077957481506477 2.662684891967731 0 0 0
1453 1 18.0852874392482 13.919374836498983 1.3739172820656484 0 0 0
1306 4 20.09311913681735 12.760831265652635 0.08368816675560256 0 0 0
1459 1 22.1039099393542 13.919374836498983 1.3739172820656484 0 0 0
1455 4 18.083807886764347 16.241060438963636 0.08368816675560493 0 0 0
1461 4 22.10243038687035 16.241060438963636 0.08368816675560377 0 0 0
1308 3 18.08672221597836 11.597728308195476 2.6626848919677326 0 0 0
1314 3 22.105344716084357 11.597728308195478 2.6626848919677335 0 0 0
1457 3 20.096033466031358 15.077957481506479 2.662684891967733 0 0 0
1312 4 24.111741636923348 12.760831265652637 0.08368816675560449 0 0 0
1465 1 26.122532439460198 13.919374836498983 1.3739172820656484 0 0 0
1318 4 28.13036413702935 12.760831265652637 0.08368816675560553 0 0 0
1467 4 26.121052886976347 16.241060438963636 0.08368816675560628 0 0 0
1320 3 26.12396721619036 11.597728308195476 2.6626848919677313 0 0 0
1463 3 24.114655966137356 15.077957481506479 2.6626848919677313 0 0 0
1469 3 28.13327846624336 15.077957481506477 2.6626848919677304 0 0 0
1471 1 30.141154939566203 13.919374836498983 1.373917282065649 0 0 0
1324 4 32.14898663713535 12.760831265652635 0.08368816675560295 0 0 0
1477 1 34.1597774396722 13.919374836498983 1.3739172820656478 0 0 0
1473 4 30.13967538708235 16.241060438963636 0.0836881667556049 0 0 0
1479 4 34.15829788718835 16.241060438963636 0.08368816675560377 0 0 0
1326 3 30.14258971629636 11.597728308195476 2.6626848919677326 0 0 0
1332 3 34.161212216402355 11.597728308195478 2.6626848919677335 0 0 0
1475 3 32.151900966349366 15.077957481506479 2.662684891967733 0 0 0
1330 4 36.16760913724135 12.760831265652637 0.0836881667556041 0 0 0
1483 1 38.178399939778195 13.919374836498983 1.3739172820656484 0 0 0
1336 4 40.18623163734735 12.760831265652637 0.08368816675560409 0 0 0
1485 4 38.17692038729435 16.241060438963636 0.08368816675560635 0 0 0
1338 3 38.17983471650836 11.597728308195476 2.662684891967731 0 0 0
1481 3 36.17052346645536 15.077957481506479 2.6626848919677317 0 0 0
1487 3 40.189145966561355 15.077957481506479 2.6626848919677317 0 0 0
1342 4 44.204854137453346 12.760831265652635 0.08368816675560296 0 0 0
1489 1 42.1970224398842 13.919374836498983 1.3739172820656484 0 0 0
1495 1 46.2156449399902 13.919374836498983 1.3739172820656482 0 0 0
1491 4 42.19554288740035 16.241060438963636 0.08368816675560378 0 0 0
1497 4 46.21416538750635 16.241060438963636 0.08368816675560492 0 0 0
1344 3 42.198457216614365 11.597728308195478 2.662684891967734 0 0 0
1350 3 46.217079716720356 11.597728308195476 2.662684891967732 0 0 0
1493 3 44.20776846666735 15.077957481506479 2.6626848919677326 0 0 0
1348 4 48.22347663755935 12.760831265652637 0.08368816675560554 0 0 0
1351 1 50.234267440096204 13.919374836498983 1.3739172820656487 -1 0 0
1204 4 52.242099137665356 12.760831265652637 0.08368816675560418 -1 0 0
1353 4 50.232787887612346 16.241060438963636 0.08368816675560554 -1 0 0
1206 3 50.235702216826354 11.597728308195476 2.662684891967732 -1 0 0
1499 3 48.22639096677336 15.077957481506477 2.6626848919677304 0 0 0
1355 3 52.245013466879364 15.077957481506479 2.6626848919677317 -1 0 0
1357 1 54.2528899402022 13.919374836498983 1.3739172820656484 -1 0 0
1210 4 56.260721637771354 12.760831265652637 0.08368816675560407 -1 0 0
1363 1 58.2715124403082 13.919374836498983 1.3739172820656484 -1 0 0
1359 4 54.25141038771835 16.241060438963636 0.08368816675560498 -1 0 0
1365 4 58.27003288782436 16.241060438963636 0.083688166755605 -1 0 0
1212 3 54.25432471693236 11.597728308195476 2.662684891967732 -1 0 0
1218 3 58.272947217038364 11.597728308195476 2.662684891967732 -1 0 0
1361 3 56.26363596698536 15.077957481506479 2.6626848919677317 -1 0 0
1216 4 60.27934413787735 12.760831265652635 0.08368816675560355 -1 0 0
1369 1 62.290134940414205 13.919374836498983 1.3739172820656484 -1 0 0
1222 4 64.29796663798335 12.760831265652635 0.08368816675560341 -1 0 0
1371 4 62.288655387930355 16.241060438963636 0.08368816675560428 -1 0 0
1224 3 62.29156971714436 11.597728308195478 2.662684891967733 -1 0 0
1367 3 60.28225846709136 15.077957481506479 2.6626848919677326 -1 0 0
1373 3 64.30088096719736 15.077957481506479 2.6626848919677326 -1 0 0
1375 1 66.3087574405202 13.919374836498983 1.3739172820656484 -1 0 0
1228 4 68.31658913808936 12.760831265652637 0.0836881667556056 -1 0 0
1381 1 70.3273799406262 13.919374836498983 1.3739172820656484 -1 0 0
1377 4 66.30727788803635 16.241060438963636 0.08368816675560473 -1 0 0
1383 4 70.32590038814236 16.241060438963636 0.08368816675560663 -1 0 0
1230 3 66.31019221725036 11.597728308195476 2.6626848919677326 -1 0 0
1236 3 70.32881471735637 11.597728308195476 2.662684891967731 -1 0 0
1379 3 68.31950346730336 15.077957481506477 2.66268489196773 -1 0 0
1234 4 72.33521163819535 12.760831265652635 0.08368816675560298 -1 0 0
1387 1 74.3460024407322 13.919374836498983 1.3739172820656487 -1 0 0
1240 4 76.35383413830135 12.760831265652637 0.08368816675560414 -1 0 0
1389 4 74.34452288824835 16.241060438963633 0.08368816675560209 -1 0 0
1242 3 74.34743721746236 11.59772830819548 2.6626848919677353 -1 0 0
1385 3 72.33812596740935 15.077957481506479 2.662684891967733 -1 0 0
1391 3 76.35674846751536 15.077957481506479 2.6626848919677317 -1 0 0
1393 1 78.3646249408382 13.919374836498983 1.3739172820656484 -1 0 0
1246 4 80.37245663840734 12.760831265652635 0.08368816675560298 -1 0 0
1399 1 82.3832474409442 13.919374836498983 1.3739172820656484 -1 0 0
1395 4 78.36314538835435 16.241060438963636 0.08368816675560665 -1 0 0
1401 4 82.38176788846035 16.241060438963633 0.08368816675560209 -1 0 0
1248 3 78.36605971756836 11.597728308195476 2.662684891967731 -1 0 0
1254 3 82.38468221767435 11.59772830819548 2.6626848919677353 -1 0 0
1397 3 80.37537096762135 15.077957481506479 2.662684891967733 -1 0 0
1252 4 84.39107913851335 12.760831265652637 0.08368816675560405 -1 0 0
1405 1 86.40186994105021 13.919374836498983 1.3739172820656484 -1 0 0
1258 4 88.40970163861935 12.760831265652637 0.08368816675560549 -1 0 0
1407 4 86.40039038856635 16.241060438963636 0.08368816675560634 -1 0 0
1260 3 86.40330471778036 11.597728308195476 2.6626848919677313 -1 0 0
1403 3 84.39399346772736 15.077957481506479 2.6626848919677317 -1 0 0
1409 3 88.41261596783336 15.077957481506477 2.6626848919677304 -1 0 0
1411 1 90.42049244115621 13.919374836498983 1.3739172820656484 -1 0 0
1264 4 92.42832413872536 12.760831265652637 0.08368816675560557 -1 0 0
1417 1 94.4391149412622 13.919374836498983 1.3739172820656484 -1 0 0
1413 4 90.41901288867236 16.241060438963636 0.0836881667556063 -1 0 0
1419 4 94.43763538877836 16.241060438963636 0.08368816675560663 -1 0 0
1266 3 90.42192721788636 11.597728308195476 2.6626848919677313 -1 0 0
1272 3 94.44054971799237 11.597728308195476 2.662684891967731 -1 0 0
1415 3 92.43123846793937 15.077957481506477 2.6626848919677304 -1 0 0
1270 4 96.44694663883135 12.760831265652635 0.08368816675560298 -1 0 0
1423 1 98.45773744136821 13.919374836498983 1.3739172820656487 -1 0 0
1425 4 98.45625788888435 16.241060438963633 0.08368816675560224 -1 0 0
1278 3 98.45917221809836 11.597728308195478 2.6626848919677344 -1 0 0
1421 3 96.44986096804536 15.077957481506479 2.662684891967733 -1 0 0
1424 1 0.0014861887712018457 17.399604009809988 1.3739172820656493 0 0 0
1430 1 4.0201086888772 17.399604009809988 1.3739172820656482 0 0 0
1426 4 6.636287348879044e-06 19.72128961227464 0.0836881667556057 0 0 0
1432 4 4.018629136393349 19.72128961227464 0.08368816675560437 0 0 0
1579 1 2.0107974388242007 20.879833183120986 1.3739172820656482 0 0 0
1434 3 2.0122322155543593 18.55818665481748 2.6626848919677317 0 0 0
1577 3 0.0029209655013588127 22.03841582812848 2.662684891967732 0 0 0
1583 3 4.021543465607358 22.038415828128482 2.6626848919677335 0 0 0
1436 1 8.0387311889832 17.399604009809988 1.3739172820656484 0 0 0
1438 4 8.037251636499349 19.72128961227464 0.08368816675560505 0 0 0
1585 1 6.029419938930199 20.879833183120986 1.3739172820656487 0 0 0
1591 1 10.0480424390362 20.879833183120986 1.373917282065648 0 0 0
1440 3 6.030854715660358 18.558186654817483 2.6626848919677317 0 0 0
1446 3 10.049477215766357 18.558186654817483 2.6626848919677313 0 0 0
1589 3 8.040165965713358 22.038415828128482 2.6626848919677326 0 0 0
1442 1 12.057353689089199 17.399604009809988 1.3739172820656482 0 0 0
1448 1 16.075976189195202 17.399604009809988 1.3739172820656484 0 0 0
1444 4 12.055874136605349 19.72128961227464 0.08368816675560482 0 0 0
1450 4 16.07449663671135 19.72128961227464 0.08368816675560585 0 0 0
1597 1 14.0666649391422 20.879833183120986 1.3739172820656487 0 0 0
1452 3 14.068099715872359 18.55818665481748 2.6626848919677313 0 0 0
1595 3 12.058788465819358 22.038415828128482 2.662684891967733 0 0 0
1601 3 16.07741096592536 22.03841582812848 2.6626848919677317 0 0 0
1454 1 20.0945986893012 17.399604009809984 1.373917282065648 0 0 0
1456 4 20.09311913681735 19.72128961227464 0.08368816675560341 0 0 0
1603 1 18.0852874392482 20.879833183120986 1.3739172820656478 0 0 0
1609 1 22.103909939354196 20.879833183120986 1.373917282065648 0 0 0
1458 3 18.08672221597836 18.558186654817483 2.6626848919677317 0 0 0
1464 3 22.105344716084357 18.55818665481748 2.662684891967732 0 0 0
1607 3 20.096033466031358 22.038415828128482 2.6626848919677344 0 0 0
1460 1 24.1132211894072 17.399604009809988 1.3739172820656482 0 0 0
1466 1 28.1318436895132 17.399604009809988 1.3739172820656484 0 0 0
1462 4 24.111741636923348 19.72128961227464 0.08368816675560532 0 0 0
1468 4 28.13036413702935 19.72128961227464 0.08368816675560632 0 0 0
1615 1 26.122532439460198 20.879833183120986 1.3739172820656478 0 0 0
1470 3 26.12396721619036 18.55818665481748 2.66268489196773 0 0 0
1613 3 24.114655966137356 22.03841582812848 2.662684891967732 0 0 0
1619 3 28.13327846624336 22.03841582812848 2.6626848919677317 0 0 0
1472 1 32.1504661896192 17.399604009809984 1.3739172820656478 0 0 0
1474 4 32.14898663713535 19.72128961227464 0.08368816675560381 0 0 0
1621 1 30.141154939566203 20.879833183120986 1.373917282065648 0 0 0
1627 1 34.1597774396722 20.879833183120986 1.3739172820656473 0 0 0
1476 3 30.14258971629636 18.558186654817483 2.6626848919677313 0 0 0
1482 3 34.161212216402355 18.55818665481748 2.662684891967732 0 0 0
1625 3 32.151900966349366 22.038415828128482 2.662684891967734 0 0 0
1478 1 36.1690886897252 17.399604009809988 1.3739172820656482 0 0 0
1484 1 40.1877111898312 17.399604009809988 1.3739172820656491 0 0 0
1480 4 36.16760913724135 19.72128961227464 0.08368816675560492 0 0 0
1486 4 40.18623163734735 19.72128961227464 0.08368816675560492 0 0 0
1633 1 38.178399939778195 20.879833183120986 1.3739172820656478 0 0 0
1488 3 38.17983471650836 18.55818665481748 2.66268489196773 0 0 0
1631 3 36.17052346645536 22.03841582812848 2.6626848919677326 0 0 0
1637 3 40.189145966561355 22.03841582812848 2.662684891967733 0 0 0
1490 1 44.206333689937196 17.399604009809984 1.3739172820656473 0 0 0
1492 4 44.204854137453346 19.72128961227464 0.08368816675560373 0 0 0
1639 1 42.1970224398842 20.879833183120986 1.3739172820656482 0 0 0
1645 1 46.2156449399902 20.879833183120986 1.3739172820656478 0 0 0
1494 3 42.198457216614365 18.55818665481748 2.6626848919677326 0 0 0
1500 3 46.217079716720356 18.558186654817483 2.6626848919677313 0 0 0
1643 3 44.20776846666735 22.038415828128482 2.662684891967734 0 0 0
1496 1 48.224956190043194 17.399604009809988 1.3739172820656487 0 0 0
1352 1 52.2435786901492 17.399604009809988 1.3739172820656482 -1 0 0
1498 4 48.22347663755935 19.72128961227464 0.08368816675560632 0 0 0
1354 4 52.242099137665356 19.72128961227464 0.08368816675560499 -1 0 0
1501 1 50.234267440096204 20.879833183120986 1.373917282065648 -1 0 0
1356 3 50.235702216826354 18.55818665481748 2.662684891967731 -1 0 0
1649 3 48.22639096677336 22.03841582812848 2.6626848919677317 0 0 0
1505 3 52.245013466879364 22.038415828128482 2.662684891967733 -1 0 0
1358 1 56.262201190255205 17.399604009809988 1.3739172820656484 -1 0 0
1360 4 56.260721637771354 19.72128961227464 0.08368816675560495 -1 0 0
1507 1 54.2528899402022 20.879833183120986 1.3739172820656484 -1 0 0
1513 1 58.2715124403082 20.879833183120986 1.3739172820656484 -1 0 0
1362 3 54.25432471693236 18.55818665481748 2.6626848919677317 -1 0 0
1368 3 58.272947217038364 18.55818665481748 2.6626848919677313 -1 0 0
1511 3 56.26363596698536 22.03841582812848 2.662684891967733 -1 0 0
1364 1 60.2808236903612 17.399604009809988 1.3739172820656482 -1 0 0
1370 1 64.29944619046721 17.399604009809988 1.3739172820656482 -1 0 0
1366 4 60.27934413787735 19.72128961227464 0.08368816675560434 -1 0 0
1372 4 64.29796663798335 19.72128961227464 0.08368816675560421 -1 0 0
1519 1 62.290134940414205 20.879833183120986 1.3739172820656487 -1 0 0