LAMMPS data file via write_data, version 29 Aug 2024, timestep = 6, units = metal

7200 atoms
24 atom types

0 102.567454354752 xlo xhi
0 99.33720890565 ylo yhi
-50 50 zlo zhi

Masses

1 72.63
2 72.63
3 72.63
4 72.63
5 72.63
6 72.63
7 72.63
8 72.63
9 72.63
10 72.63
11 72.63
12 72.63
13 78.971
14 78.971
15 78.971
16 78.971
17 78.971
18 78.971
19 78.971
20 78.971
21 78.971
22 78.971
23 78.971
24 78.971

Atoms # atomic

1207 15 4.246601737720825 9.593227319728477e-05 -0.008126700656134864 0 0 0
1298 2 2.542278291217263 1.9867688697536943 0.053146007223568714 0 0 0
1303 15 4.246601737720825 3.9735842884991968 -0.00812670065613495 0 0 0
1201 1 0.4948046722919786 0.00010177407813106717 2.4943997885428293 0 0 0
1300 14 1.9955167999871934 1.986741814082294 2.5414439306267904 0 0 0
1205 3 4.768448603739977 0.00010177407813131184 2.494399788542833 0 0 0
1297 1 0.4948046722919787 3.973590130304132 2.494399788542829 0 0 0
1301 3 4.768448603739977 3.973590130304132 2.494399788542833 0 0 0
1211 13 8.520245669168824 9.593227319729443e-05 -0.008126700656134142 0 0 0
1302 4 6.815922222665262 1.9867688697536943 0.05314600722356413 0 0 0
1306 2 11.089566154113266 1.9867688697536943 0.05314600722356009 0 0 0
1307 13 8.520245669168824 3.9735842884991968 -0.008126700656134236 0 0 0
1304 16 6.269160731435199 1.986741814082294 2.541443930626796 0 0 0
1209 1 9.04209253518798 0.00010177407813137262 2.494399788542829 0 0 0
1308 14 10.542804662883196 1.986741814082294 2.541443930626801 0 0 0
1305 1 9.04209253518798 3.973590130304132 2.494399788542829 0 0 0
1215 15 12.793889600616827 9.593227319729198e-05 -0.008126700656118412 0 0 0
1310 4 15.363210085561263 1.9867688697536943 0.05314600722358676 0 0 0
1311 15 12.793889600616827 3.9735842884991968 -0.008126700656118504 0 0 0
1213 3 13.315736466635983 0.00010177407813133757 2.494399788542817 0 0 0
1312 16 14.816448594331195 1.986741814082294 2.541443930626776 0 0 0
1309 3 13.315736466635983 3.973590130304132 2.4943997885428164 0 0 0
1219 13 17.06753353206483 9.593227319729508e-05 -0.00812670065613041 0 0 0
1315 13 17.06753353206483 3.9735842884991968 -0.008126700656130515 0 0 0
1223 15 21.341177463512825 9.593227319729385e-05 -0.008126700656123472 0 0 0
1314 2 19.63685401700926 1.9867688697536943 0.053146007223565606 0 0 0
1319 15 21.341177463512825 3.9735842884991968 -0.008126700656123595 0 0 0
1217 1 17.589380398083975 0.00010177407813134569 2.4943997885428253 0 0 0
1316 14 19.0900925257792 1.986741814082294 2.5414439306267904 0 0 0
1221 3 21.86302432953198 0.0001017740781313426 2.4943997885428226 0 0 0
1313 1 17.589380398083975 3.973590130304132 2.4943997885428253 0 0 0
1317 3 21.86302432953198 3.973590130304132 2.494399788542822 0 0 0
1227 13 25.614821394960828 9.593227319728922e-05 -0.008126700656129401 0 0 0
1318 4 23.910497948457266 1.9867688697536943 0.05314600722358404 0 0 0
1322 2 28.18414187990526 1.9867688697536943 0.053146007223563795 0 0 0
1323 13 25.614821394960828 3.9735842884991968 -0.008126700656129481 0 0 0
1320 16 23.36373645722719 1.986741814082294 2.5414439306267798 0 0 0
1225 1 26.136668260979974 0.00010177407813133726 2.494399788542824 0 0 0
1324 14 27.637380388675197 1.986741814082294 2.541443930626792 0 0 0
1321 1 26.136668260979974 3.973590130304132 2.4943997885428235 0 0 0
1231 15 29.88846532640882 9.593227319728716e-05 -0.008126700656122424 0 0 0
1326 4 32.45778581135327 1.9867688697536943 0.053146007223576305 0 0 0
1327 15 29.88846532640882 3.9735842884991968 -0.008126700656122535 0 0 0
1229 3 30.410312192427977 0.00010177407813132889 2.4943997885428213 0 0 0
1328 16 31.911024320123207 1.986741814082294 2.5414439306267815 0 0 0
1325 3 30.410312192427977 3.973590130304132 2.4943997885428213 0 0 0
1235 13 34.162109257856834 9.593227319729063e-05 -0.00812670065613914 0 0 0
1331 13 34.162109257856834 3.9735842884991968 -0.008126700656139223 0 0 0
1239 15 38.43575318930482 9.593227319729225e-05 -0.008126700656132125 0 0 0
1330 2 36.73142974280127 1.9867688697536943 0.05314600722357372 0 0 0
1335 15 38.43575318930482 3.9735842884991968 -0.008126700656132208 0 0 0
1233 1 34.68395612387598 0.00010177407813138118 2.494399788542839 0 0 0
1332 14 36.18466825157119 1.986741814082294 2.541443930626785 0 0 0
1237 3 38.95760005532399 0.00010177407813135748 2.494399788542836 0 0 0
1329 1 34.68395612387598 3.973590130304132 2.494399788542839 0 0 0
1333 3 38.95760005532399 3.973590130304132 2.4943997885428355 0 0 0
1243 13 42.70939712075283 9.593227319729113e-05 -0.008126700656137818 0 0 0
1334 4 41.005073674249275 1.9867688697536943 0.053146007223571025 0 0 0
1338 2 45.27871760569727 1.9867688697536943 0.053146007223563635 0 0 0
1339 13 42.709397120752826 3.9735842884991968 -0.008126700656132668 0 0 0
1336 16 40.4583121830192 1.986741814082294 2.5414439306267886 0 0 0
1241 1 43.23124398677198 0.00010177407813136209 2.4943997885428324 0 0 0
1340 14 44.73195611446719 1.986741814082294 2.5414439306267953 0 0 0
1337 1 43.23124398677198 3.973590130304132 2.4943997885428293 0 0 0
1247 15 46.98304105220082 9.593227319728743e-05 -0.00812670065613146 0 0 0
1342 4 49.55236153714527 1.9867688697536943 0.053146007223572295 0 0 0
1343 15 46.98304105220082 3.9735842884991968 -0.008126700656132073 0 0 0
1245 3 47.504887918219985 0.00010177407813140166 2.494399788542836 0 0 0
1344 16 49.0056000459152 1.986741814082294 2.541443930626791 0 0 0
1341 3 47.504887918219985 3.973590130304132 2.494399788542836 0 0 0
1155 13 51.25668498364883 9.593227319729087e-05 -0.00812670065613385 -1 0 0
1251 13 51.25668498364883 3.9735842884991968 -0.00812670065613394 -1 0 0
1159 15 55.53032891509683 9.593227319728824e-05 -0.008126700656133301 -1 0 0
1250 2 53.82600546859327 1.9867688697536943 0.053146007223573495 -1 0 0
1255 15 55.53032891509683 3.9735842884991968 -0.0081267006561334 -1 0 0
1153 1 51.778531849667985 0.00010177407813136915 2.4943997885428324 -1 0 0
1252 14 53.2792439773632 1.986741814082294 2.5414439306267846 -1 0 0
1157 3 56.052175781115984 0.00010177407813135301 2.4943997885428364 -1 0 0
1249 1 51.778531849667985 3.973590130304132 2.494399788542832 -1 0 0
1253 3 56.052175781115984 3.973590130304132 2.4943997885428364 -1 0 0
1163 13 59.80397284654483 9.593227319729269e-05 -0.008126700656135903 -1 0 0
1254 4 58.09964940004127 1.9867688697536943 0.053146007223557654 -1 0 0
1258 2 62.37329333148927 1.9867688697536943 0.05314600722357302 -1 0 0
1259 13 59.80397284654483 3.9735842884991968 -0.008126700656135808 -1 0 0
1256 16 57.552887908811186 1.986741814082294 2.5414439306268024 -1 0 0
1161 1 60.325819712563984 0.00010177407813135905 2.4943997885428324 -1 0 0
1260 14 61.8265318402592 1.986741814082294 2.541443930626784 -1 0 0
1257 1 60.325819712563984 3.973590130304132 2.4943997885428315 -1 0 0
1167 15 64.07761677799282 9.593227319728935e-05 -0.008126700656126525 -1 0 0
1262 4 66.64693726293729 1.9867688697536943 0.05314600722353824 -1 0 0
1263 15 64.07761677799282 3.9735842884991968 -0.008126700656126582 -1 0 0
1165 3 64.59946364401198 0.00010177407813134833 2.494399788542829 -1 0 0
1264 16 66.1001757717072 1.986741814082294 2.54144393062682 -1 0 0
1261 3 64.59946364401198 3.973590130304132 2.494399788542829 -1 0 0
1171 13 68.35126070944082 9.593227319728815e-05 -0.008126700656138831 -1 0 0
1267 13 68.35126070944082 3.9735842884991968 -0.008126700656138892 -1 0 0
1175 15 72.62490464088881 9.593227319729087e-05 -0.008126700656127278 -1 0 0
1266 2 70.92058119438526 1.9867688697536943 0.053146007223573086 -1 0 0
1271 15 72.62490464088881 3.9735842884991968 -0.008126700656126437 -1 0 0
1169 1 68.87310757545995 0.00010177407813135824 2.4943997885428257 -1 0 0
1268 14 70.3738197031552 1.986741814082294 2.541443930626791 -1 0 0
1173 3 73.14675150690798 0.00010177407813134347 2.4943997885428293 -1 0 0
1265 1 68.87310757545995 3.973590130304132 2.4943997885428257 -1 0 0
1269 3 73.14675150690798 3.973590130304132 2.494399788542829 -1 0 0
1179 13 76.89854857233682 9.59322731972945e-05 -0.008126700656139647 -1 0 0
1270 4 75.19422512583327 1.9867688697536943 0.053146007223574494 -1 0 0
1274 2 79.46786905728126 1.9867688697536943 0.05314600722357216 -1 0 0
1275 13 76.89854857233682 3.9735842884991968 -0.00812670065613925 -1 0 0
1272 16 74.64746363460321 1.986741814082294 2.541443930626787 -1 0 0
1177 1 77.42039543835595 0.00010177407813134112 2.4943997885428266 -1 0 0
1276 14 78.9211075660512 1.986741814082294 2.541443930626786 -1 0 0
1273 1 77.42039543835595 3.973590130304132 2.4943997885428257 -1 0 0
1183 15 81.17219250378481 9.593227319729049e-05 -0.008126700656126438 -1 0 0
1278 4 83.74151298872928 1.9867688697536943 0.05314600722353748 -1 0 0
1279 15 81.17219250378481 3.9735842884991968 -0.00812670065612655 -1 0 0
1181 3 81.69403936980397 0.00010177407813135422 2.4943997885428293 -1 0 0
1280 16 83.1947514974992 1.986741814082294 2.541443930626821 -1 0 0
1277 3 81.69403936980397 3.973590130304132 2.494399788542829 -1 0 0
1187 13 85.44583643523282 9.593227319728978e-05 -0.0081267006561397 -1 0 0
1283 13 85.44583643523282 3.9735842884991968 -0.008126700656139288 -1 0 0
1191 15 89.71948036668083 9.593227319729297e-05 -0.008126700656131525 -1 0 0
1282 2 88.01515692017728 1.9867688697536943 0.053146007223532354 -1 0 0
1287 15 89.71948036668083 3.9735842884991968 -0.008126700656131604 -1 0 0
1185 1 85.96768330125195 0.00010177407813134142 2.494399788542826 -1 0 0
1284 14 87.4683954289472 1.986741814082294 2.54144393062682 -1 0 0
1189 3 90.24132723269997 0.00010177407813130361 2.494399788542834 -1 0 0
1281 1 85.96768330125195 3.973590130304132 2.4943997885428257 -1 0 0
1285 3 90.24132723269997 3.973590130304132 2.494399788542834 -1 0 0
1195 13 93.99312429812882 9.593227319728949e-05 -0.0081267006561263 -1 0 0
1286 4 92.28880085162527 1.9867688697536943 0.05314600722357332 -1 0 0
1290 2 96.56244478307326 1.9867688697536943 0.05314600722357354 -1 0 0
1291 13 93.99312429812882 3.9735842884991968 -0.008126700656126367 -1 0 0
1288 16 91.74203936039521 1.986741814082294 2.5414439306267886 -1 0 0
1193 1 94.51497116414798 0.00010177407813130891 2.494399788542825 -1 0 0
1292 14 96.0156832918432 1.986741814082294 2.541443930626787 -1 0 0
1289 1 94.51497116414798 3.973590130304132 2.494399788542825 -1 0 0
1203 13 102.54041216102483 9.593227319728752e-05 -0.008126700656134977 -1 0 0
1299 13 102.54041216102483 3.9735842884991968 -0.008126700656135055 -1 0 0
1199 15 98.26676822957681 9.593227319728736e-05 -0.00812670065612654 -1 0 0
1294 4 100.83608871452128 1.9867688697536943 0.05314600722353403 -1 0 0
1295 15 98.26676822957681 3.9735842884991968 -0.008126700656126582 -1 0 0
1197 3 98.78861509559597 0.00010177407813107236 2.494399788542829 -1 0 0
1296 16 100.2893272232912 1.986741814082294 2.541443930626822 -1 0 0
1293 3 98.78861509559597 3.973590130304132 2.4943997885428293 -1 0 0
1394 2 2.542278291217263 5.960257225979701 0.05314600722356878 0 0 0
1399 15 4.246601737720825 7.947072644725196 -0.008126700656135417 0 0 0
1490 2 2.542278291217263 9.933745582205702 0.053146007223569325 0 0 0
1396 14 1.9955167999871934 5.960230170308292 2.5414439306267904 0 0 0
1393 1 0.49480467229197767 7.947078486530132 2.494399788542826 0 0 0
1492 14 1.9955167999871934 9.93371852653429 2.5414439306267904 0 0 0
1397 3 4.768448603739977 7.947078486530132 2.494399788542833 0 0 0
1398 4 6.815922222665262 5.960257225979701 0.05314600722356412 0 0 0
1402 2 11.089566154113266 5.960257225979701 0.05314600722356013 0 0 0
1403 13 8.520245669168826 7.947072644725196 -0.008126700656132536 0 0 0
1494 4 6.815922222665263 9.933745582205702 0.05314600722356439 0 0 0
1498 2 11.089566154113266 9.933745582205702 0.05314600722356062 0 0 0
1400 16 6.269160731435199 5.960230170308292 2.541443930626796 0 0 0
1404 14 10.542804662883196 5.960230170308292 2.541443930626801 0 0 0
1496 16 6.2691607314352 9.93371852653429 2.5414439306267966 0 0 0
1401 1 9.042092535187978 7.947078486530132 2.4943997885428275 0 0 0
1500 14 10.542804662883196 9.93371852653429 2.541443930626801 0 0 0
1406 4 15.363210085561265 5.960257225979701 0.053146007223585326 0 0 0
1407 15 12.793889600616827 7.947072644725196 -0.008126700656119016 0 0 0
1502 4 15.363210085561263 9.933745582205702 0.053146007223587276 0 0 0
1408 16 14.816448594331195 5.960230170308292 2.5414439306267775 0 0 0
1405 3 13.315736466635983 7.947078486530132 2.4943997885428164 0 0 0
1504 16 14.816448594331193 9.93371852653429 2.541443930626776 0 0 0
1411 13 17.06753353206483 7.947072644725196 -0.008126700656130489 0 0 0
1410 2 19.63685401700926 5.960257225979701 0.05314600722356557 0 0 0
1415 15 21.341177463512825 7.947072644725196 -0.00812670065612256 0 0 0
1506 2 19.63685401700926 9.933745582205702 0.053146007223566064 0 0 0
1412 14 19.0900925257792 5.960230170308292 2.5414439306267904 0 0 0
1409 1 17.589380398083975 7.947078486530132 2.4943997885428244 0 0 0
1508 14 19.0900925257792 9.93371852653429 2.5414439306267904 0 0 0
1413 3 21.863024329531978 7.947078486530132 2.494399788542823 0 0 0
1414 4 23.910497948457266 5.960257225979701 0.05314600722358406 0 0 0
1418 2 28.18414187990526 5.960257225979701 0.05314600722356095 0 0 0
1419 13 25.614821394960828 7.947072644725196 -0.008126700656129441 0 0 0
1510 4 23.910497948457266 9.933745582205702 0.0531460072235841 0 0 0
1514 2 28.18414187990526 9.933745582205702 0.053146007223558105 0 0 0
1416 16 23.36373645722719 5.960230170308292 2.5414439306267798 0 0 0
1420 14 27.637380388675194 5.960230170308292 2.541443930626795 0 0 0
1512 16 23.36373645722719 9.93371852653429 2.5414439306267798 0 0 0
1417 1 26.136668260979974 7.947078486530132 2.4943997885428235 0 0 0
1516 14 27.637380388675194 9.93371852653429 2.5414439306267984 0 0 0
1422 4 32.45778581135327 5.960257225979701 0.05314600722357632 0 0 0
1423 15 29.88846532640882 7.947072644725196 -0.008126700656122464 0 0 0
1518 4 32.45778581135327 9.933745582205702 0.05314600722357639 0 0 0
1424 16 31.911024320123207 5.960230170308292 2.541443930626781 0 0 0
1421 3 30.410312192427977 7.947078486530132 2.4943997885428213 0 0 0
1520 16 31.911024320123207 9.93371852653429 2.5414439306267815 0 0 0
1427 13 34.162109257856834 7.947072644725196 -0.008126700656139157 0 0 0
1426 2 36.73142974280127 5.960257225979701 0.05314600722357374 0 0 0
1431 15 38.43575318930482 7.947072644725196 -0.008126700656130841 0 0 0
1522 2 36.73142974280127 9.933745582205702 0.053146007223573745 0 0 0
1428 14 36.18466825157119 5.960230170308292 2.541443930626785 0 0 0
1425 1 34.68395612387598 7.947078486530132 2.494399788542839 0 0 0
1524 14 36.18466825157119 9.93371852653429 2.541443930626785 0 0 0
1429 3 38.95760005532399 7.947078486530132 2.4943997885428337 0 0 0
1430 4 41.005073674249275 5.960257225979701 0.05314600722357081 0 0 0
1434 2 45.27871760569727 5.960257225979701 0.05314600722356374 0 0 0
1435 13 42.709397120752826 7.947072644725196 -0.008126700656133046 0 0 0
1526 4 41.005073674249275 9.933745582205702 0.053146007223570844 0 0 0
1530 2 45.27871760569727 9.933745582205702 0.05314600722356374 0 0 0
1432 16 40.4583121830192 5.960230170308292 2.54144393062679 0 0 0
1436 14 44.73195611446719 5.960230170308292 2.5414439306267953 0 0 0
1528 16 40.4583121830192 9.93371852653429 2.5414439306267904 0 0 0
1433 1 43.23124398677198 7.947078486530132 2.4943997885428293 0 0 0
1532 14 44.73195611446719 9.93371852653429 2.5414439306267953 0 0 0
1438 4 49.55236153714527 5.960257225979701 0.05314600722357232 0 0 0
1439 15 46.98304105220082 7.947072644725196 -0.008126700656132036 0 0 0
1534 4 49.55236153714527 9.933745582205702 0.05314600722357386 0 0 0
1440 16 49.0056000459152 5.960230170308292 2.541443930626791 0 0 0
1437 3 47.504887918219985 7.947078486530132 2.494399788542836 0 0 0
1536 16 49.0056000459152 9.93371852653429 2.5414439306267917 0 0 0
1347 13 51.25668498364883 7.947072644725196 -0.008126700656133886 -1 0 0
1346 2 53.82600546859327 5.960257225979701 0.05314600722357347 -1 0 0
1351 15 55.53032891509683 7.947072644725196 -0.008126700656133868 -1 0 0
1442 2 53.82600546859327 9.933745582205702 0.05314600722357121 -1 0 0
1348 14 53.2792439773632 5.960230170308292 2.5414439306267846 -1 0 0
1345 1 51.778531849667985 7.947078486530132 2.494399788542832 -1 0 0
1444 14 53.2792439773632 9.93371852653429 2.541443930626785 -1 0 0
1349 3 56.052175781115984 7.947078486530132 2.4943997885428364 -1 0 0
1350 4 58.09964940004127 5.960257225979701 0.05314600722355768 -1 0 0
1354 2 62.37329333148927 5.960257225979701 0.05314600722357302 -1 0 0
1355 13 59.80397284654483 7.947072644725196 -0.008126700656135827 -1 0 0
1446 4 58.09964940004127 9.933745582205702 0.05314600722355774 -1 0 0
1450 2 62.37329333148927 9.933745582205702 0.05314600722357123 -1 0 0
1352 16 57.552887908811186 5.960230170308292 2.5414439306268024 -1 0 0
1356 14 61.8265318402592 5.960230170308292 2.541443930626784 -1 0 0
1448 16 57.552887908811186 9.93371852653429 2.5414439306268024 -1 0 0
1353 1 60.325819712563984 7.947078486530132 2.494399788542831 -1 0 0
1452 14 61.8265318402592 9.93371852653429 2.5414439306267846 -1 0 0
1358 4 66.64693726293729 5.960257225979701 0.05314600722353736 -1 0 0
1359 15 64.07761677799282 7.947072644725196 -0.008126700656127424 -1 0 0
1454 4 66.64693726293729 9.933745582205702 0.05314600722353739 -1 0 0
1360 16 66.1001757717072 5.960230170308292 2.541443930626821 -1 0 0
1357 3 64.59946364401198 7.947078486530132 2.4943997885428293 -1 0 0
1456 16 66.1001757717072 9.93371852653429 2.541443930626821 -1 0 0
1363 13 68.35126070944082 7.947072644725196 -0.00812670065613932 -1 0 0
1362 2 70.92058119438526 5.960257225979701 0.053146007223573107 -1 0 0
1367 15 72.62490464088881 7.947072644725196 -0.008126700656126392 -1 0 0
1458 2 70.92058119438526 9.933745582205702 0.05314600722357311 -1 0 0
1364 14 70.3738197031552 5.960230170308292 2.541443930626791 -1 0 0
1361 1 68.87310757545995 7.947078486530132 2.4943997885428257 -1 0 0
1460 14 70.3738197031552 9.93371852653429 2.541443930626791 -1 0 0
1365 3 73.14675150690798 7.947078486530132 2.4943997885428284 -1 0 0
1366 4 75.19422512583327 5.960257225979701 0.05314600722357299 -1 0 0
1370 2 79.46786905728126 5.960257225979701 0.05314600722357218 -1 0 0
1371 13 76.89854857233682 7.947072644725196 -0.008126700656139681 -1 0 0
1462 4 75.19422512583327 9.933745582205702 0.05314600722357351 -1 0 0
1466 2 79.46786905728126 9.933745582205702 0.05314600722357223 -1 0 0
1368 16 74.64746363460321 5.960230170308292 2.541443930626788 -1 0 0
1372 14 78.9211075660512 5.960230170308292 2.541443930626786 -1 0 0
1464 16 74.64746363460321 9.93371852653429 2.541443930626788 -1 0 0
1369 1 77.42039543835595 7.947078486530132 2.494399788542826 -1 0 0
1468 14 78.9211075660512 9.93371852653429 2.541443930626786 -1 0 0
1374 4 83.74151298872928 5.960257225979701 0.05314600722353748 -1 0 0
1375 15 81.17219250378481 7.947072644725196 -0.008126700656126496 -1 0 0
1470 4 83.74151298872928 9.933745582205702 0.05314600722353753 -1 0 0
1376 16 83.1947514974992 5.960230170308292 2.5414439306268206 -1 0 0
1373 3 81.69403936980397 7.947078486530132 2.494399788542829 -1 0 0
1472 16 83.1947514974992 9.93371852653429 2.5414439306268206 -1 0 0
1379 13 85.44583643523282 7.947072644725196 -0.00812670065613921 -1 0 0
1378 2 88.01515692017729 5.960257225979701 0.05314600722353671 -1 0 0
1383 15 89.71948036668083 7.947072644725196 -0.00812670065613203 -1 0 0
1474 2 88.01515692017729 9.933745582205702 0.053146007223537337 -1 0 0
1380 14 87.4683954289472 5.960230170308292 2.5414439306268157 -1 0 0
1377 1 85.96768330125195 7.947078486530132 2.4943997885428257 -1 0 0
1476 14 87.4683954289472 9.93371852653429 2.5414439306268166 -1 0 0
1381 3 90.24132723269997 7.947078486530132 2.494399788542834 -1 0 0
1382 4 92.28880085162527 5.960257225979701 0.05314600722357331 -1 0 0
1386 2 96.56244478307326 5.960257225979701 0.05314600722357353 -1 0 0
1387 13 93.99312429812882 7.947072644725196 -0.008126700656126357 -1 0 0
1478 4 92.28880085162527 9.933745582205702 0.05314600722357385 -1 0 0
1482 2 96.56244478307326 9.933745582205702 0.053146007223574064 -1 0 0
1384 16 91.74203936039521 5.960230170308292 2.541443930626789 -1 0 0
1388 14 96.0156832918432 5.960230170308292 2.541443930626787 -1 0 0
1480 16 91.74203936039521 9.93371852653429 2.541443930626789 -1 0 0
1385 1 94.51497116414798 7.947078486530132 2.4943997885428244 -1 0 0
1484 14 96.0156832918432 9.93371852653429 2.541443930626787 -1 0 0
1395 13 102.54041216102483 7.947072644725196 -0.008126700656131424 -1 0 0
1390 4 100.83608871452128 5.960257225979701 0.053146007223537434 -1 0 0
1391 15 98.26676822957681 7.947072644725196 -0.008126700656127446 -1 0 0
1486 4 100.83608871452128 9.933745582205702 0.053146007223537496 -1 0 0
1392 16 100.2893272232912 5.960230170308292 2.54144393062682 -1 0 0
1389 3 98.78861509559597 7.947078486530132 2.4943997885428293 -1 0 0
1488 16 100.2893272232912 9.93371852653429 2.54144393062682 -1 0 0
1495 15 4.246601737720825 11.920561000951196 -0.008126700656135397 0 0 0
1586 2 2.542278291217263 13.907233938431702 0.053146007223569304 0 0 0
1591 15 4.246601737720825 15.894049357177195 -0.008126700656135398 0 0 0
1489 1 0.4948046722919779 11.920566842756141 2.494399788542825 0 0 0
1588 14 1.9955167999871934 13.90720688276029 2.5414439306267904 0 0 0
1493 3 4.768448603739977 11.920566842756141 2.494399788542833 0 0 0
1585 1 0.49480467229197767 15.89405519898214 2.494399788542826 0 0 0
1589 3 4.768448603739977 15.89405519898214 2.494399788542833 0 0 0
1499 13 8.520245669168826 11.920561000951196 -0.00812670065613254 0 0 0
1590 4 6.815922222665263 13.907233938431702 0.05314600722356439 0 0 0
1594 2 11.089566154113266 13.907233938431702 0.05314600722356062 0 0 0
1595 13 8.520245669168824 15.894049357177195 -0.008126700656132949 0 0 0
1592 16 6.2691607314352 13.90720688276029 2.5414439306267966 0 0 0
1497 1 9.042092535187978 11.920566842756141 2.494399788542828 0 0 0
1596 14 10.542804662883196 13.90720688276029 2.541443930626801 0 0 0
1593 1 9.042092535187978 15.89405519898214 2.4943997885428275 0 0 0
1503 15 12.793889600616827 11.920561000951196 -0.008126700656118419 0 0 0
1598 4 15.363210085561263 13.907233938431702 0.05314600722358681 0 0 0
1599 15 12.793889600616827 15.894049357177195 -0.008126700656118445 0 0 0
1501 3 13.315736466635983 11.920566842756141 2.4943997885428164 0 0 0
1600 16 14.816448594331195 13.90720688276029 2.5414439306267766 0 0 0
1597 3 13.315736466635983 15.89405519898214 2.4943997885428164 0 0 0
1507 13 17.067533532064832 11.920561000951196 -0.008126700656129188 0 0 0
1603 13 17.06753353206483 15.894049357177195 -0.008126700656130482 0 0 0
1511 15 21.341177463512825 11.920561000951196 -0.008126700656122521 0 0 0
1602 2 19.63685401700926 13.907233938431702 0.053146007223566064 0 0 0
1607 15 21.341177463512825 15.894049357177195 -0.008126700656123493 0 0 0
1505 1 17.589380398083975 11.920566842756141 2.4943997885428235 0 0 0
1604 14 19.0900925257792 13.90720688276029 2.5414439306267904 0 0 0
1509 3 21.863024329531978 11.920566842756141 2.494399788542823 0 0 0
1601 1 17.589380398083975 15.89405519898214 2.4943997885428244 0 0 0
1605 3 21.86302432953198 15.89405519898214 2.494399788542822 0 0 0
1515 13 25.614821394960828 11.920561000951196 -0.008126700656128501 0 0 0
1606 4 23.910497948457266 13.907233938431702 0.053146007223584125 0 0 0
1610 2 28.18414187990526 13.907233938431702 0.053146007223558105 0 0 0
1611 13 25.614821394960828 15.894049357177195 -0.008126700656129391 0 0 0
1608 16 23.36373645722719 13.90720688276029 2.54144393062678 0 0 0
1513 1 26.136668260979974 11.920566842756141 2.4943997885428235 0 0 0
1612 14 27.637380388675194 13.90720688276029 2.5414439306267984 0 0 0
1609 1 26.136668260979974 15.89405519898214 2.4943997885428235 0 0 0
1519 15 29.88846532640882 11.920561000951196 -0.008126700656121378 0 0 0
1614 4 32.45778581135327 13.907233938431702 0.05314600722357639 0 0 0
1615 15 29.88846532640882 15.894049357177195 -0.008126700656122404 0 0 0
1517 3 30.410312192427977 11.920566842756141 2.494399788542819 0 0 0
1616 16 31.911024320123207 13.90720688276029 2.5414439306267815 0 0 0
1613 3 30.410312192427977 15.89405519898214 2.4943997885428213 0 0 0
1523 13 34.162109257856834 11.920561000951196 -0.008126700656139125 0 0 0
1619 13 34.162109257856834 15.894049357177195 -0.00812670065613916 0 0 0
1527 15 38.43575318930482 11.920561000951196 -0.00812670065613081 0 0 0
1618 2 36.73142974280127 13.907233938431702 0.053146007223574286 0 0 0
1623 15 38.43575318930482 15.894049357177195 -0.008126700656130817 0 0 0
1521 1 34.68395612387598 11.920566842756141 2.494399788542839 0 0 0
1620 14 36.18466825157119 13.90720688276029 2.5414439306267855 0 0 0
1525 3 38.95760005532399 11.920566842756141 2.4943997885428337 0 0 0
1617 1 34.68395612387598 15.89405519898214 2.494399788542839 0 0 0
1621 3 38.95760005532399 15.89405519898214 2.4943997885428337 0 0 0
1531 13 42.709397120752826 11.920561000951196 -0.008126700656132552 0 0 0
1622 4 41.005073674249275 13.907233938431702 0.05314600722357086 0 0 0
1626 2 45.27871760569727 13.907233938431702 0.053146007223564225 0 0 0
1627 13 42.709397120752826 15.894049357177195 -0.008126700656132569 0 0 0
1624 16 40.4583121830192 13.90720688276029 2.5414439306267904 0 0 0
1529 1 43.23124398677198 11.920566842756141 2.4943997885428293 0 0 0
1628 14 44.73195611446719 13.90720688276029 2.5414439306267953 0 0 0
1625 1 43.23124398677198 15.89405519898214 2.4943997885428293 0 0 0
1535 15 46.98304105220082 11.920561000951196 -0.008126700656132019 0 0 0
1630 4 49.55236153714527 13.907233938431702 0.05314600722357388 0 0 0
1631 15 46.98304105220082 15.894049357177195 -0.008126700656131974 0 0 0
1533 3 47.504887918219985 11.920566842756141 2.494399788542836 0 0 0
1632 16 49.0056000459152 13.90720688276029 2.5414439306267917 0 0 0
1629 3 47.504887918219985 15.89405519898214 2.494399788542836 0 0 0
1443 13 51.25668498364883 11.920561000951196 -0.008126700656134401 -1 0 0
1539 13 51.25668498364883 15.894049357177195 -0.008126700656134384 -1 0 0
1447 15 55.53032891509683 11.920561000951196 -0.008126700656133327 -1 0 0
1538 2 53.82600546859327 13.907233938431702 0.05314600722357129 -1 0 0
1543 15 55.53032891509683 15.894049357177195 -0.008126700656133847 -1 0 0
1441 1 51.778531849667985 11.920566842756141 2.4943997885428324 -1 0 0
1540 14 53.2792439773632 13.90720688276029 2.541443930626786 -1 0 0
1445 3 56.052175781115984 11.920566842756141 2.4943997885428364 -1 0 0
1537 1 51.778531849667985 15.89405519898214 2.4943997885428324 -1 0 0
1541 3 56.052175781115984 15.89405519898214 2.4943997885428364 -1 0 0
1451 13 59.80397284654483 11.920561000951196 -0.008126700656135813 -1 0 0
1542 4 58.09964940004127 13.907233938431702 0.053146007223557716 -1 0 0
1546 2 62.37329333148927 13.907233938431702 0.053146007223571254 -1 0 0
1547 13 59.80397284654483 15.894049357177195 -0.008126700656135792 -1 0 0
1544 16 57.552887908811186 13.90720688276029 2.5414439306268024 -1 0 0
1449 1 60.325819712563984 11.920566842756141 2.494399788542831 -1 0 0
1548 14 61.8265318402592 13.90720688276029 2.5414439306267846 -1 0 0
1545 1 60.325819712563984 15.89405519898214 2.494399788542831 -1 0 0
1455 15 64.07761677799282 11.920561000951196 -0.008126700656126553 -1 0 0
1550 4 66.64693726293729 13.907233938431702 0.05314600722353832 -1 0 0
1551 15 64.07761677799282 15.894049357177195 -0.008126700656127415 -1 0 0
1453 3 64.59946364401198 11.920566842756141 2.494399788542829 -1 0 0
1552 16 66.1001757717072 13.90720688276029 2.5414439306268206 -1 0 0
1549 3 64.59946364401198 15.89405519898214 2.4943997885428293 -1 0 0
1459 13 68.35126070944082 11.920561000951196 -0.008126700656139317 -1 0 0
1555 13 68.35126070944082 15.894049357177195 -0.008126700656139327 -1 0 0
1463 15 72.62490464088881 11.920561000951196 -0.008126700656126381 -1 0 0
1554 2 70.92058119438526 13.907233938431702 0.05314600722357315 -1 0 0
1559 15 72.62490464088881 15.894049357177195 -0.008126700656126364 -1 0 0
1457 1 68.87310757545995 11.920566842756141 2.4943997885428257 -1 0 0
1556 14 70.3738197031552 13.90720688276029 2.541443930626791 -1 0 0
1461 3 73.14675150690798 11.920566842756141 2.494399788542829 -1 0 0
1553 1 68.87310757545995 15.89405519898214 2.4943997885428257 -1 0 0
1557 3 73.14675150690798 15.89405519898214 2.494399788542829 -1 0 0
1467 13 76.89854857233682 11.920561000951196 -0.008126700656139638 -1 0 0
1558 4 75.19422512583327 13.907233938431702 0.05314600722357352 -1 0 0
1562 2 79.46786905728126 13.907233938431702 0.05314600722357221 -1 0 0
1563 13 76.89854857233682 15.894049357177195 -0.008126700656139647 -1 0 0
1560 16 74.64746363460321 13.90720688276029 2.541443930626788 -1 0 0
1465 1 77.42039543835595 11.920566842756141 2.494399788542826 -1 0 0
1564 14 78.9211075660512 13.90720688276029 2.541443930626786 -1 0 0
1561 1 77.42039543835595 15.89405519898214 2.494399788542826 -1 0 0
1471 15 81.17219250378481 11.920561000951196 -0.008126700656126435 -1 0 0
1566 4 83.74151298872928 13.907233938431702 0.053146007223537524 -1 0 0
1567 15 81.17219250378481 15.894049357177195 -0.008126700656126445 -1 0 0
1469 3 81.69403936980397 11.920566842756141 2.4943997885428293 -1 0 0
1568 16 83.1947514974992 13.90720688276029 2.541443930626821 -1 0 0
1565 3 81.69403936980397 15.89405519898214 2.494399788542829 -1 0 0
1475 13 85.44583643523282 11.920561000951196 -0.008126700656139673 -1 0 0
1571 13 85.44583643523282 15.894049357177195 -0.008126700656139694 -1 0 0
1479 15 89.71948036668083 11.920561000951196 -0.008126700656132494 -1 0 0
1570 2 88.01515692017729 13.907233938431702 0.053146007223537337 -1 0 0
1575 15 89.71948036668083 15.894049357177195 -0.008126700656132003 -1 0 0
1473 1 85.96768330125195 11.920566842756141 2.494399788542826 -1 0 0
1572 14 87.4683954289472 13.90720688276029 2.5414439306268166 -1 0 0
1477 3 90.24132723269997 11.920566842756141 2.4943997885428337 -1 0 0
1569 1 85.96768330125195 15.89405519898214 2.494399788542826 -1 0 0
1573 3 90.24132723269997 15.89405519898214 2.494399788542834 -1 0 0
1483 13 93.99312429812882 11.920561000951196 -0.008126700656126286 -1 0 0
1574 4 92.28880085162527 13.907233938431702 0.053146007223573884 -1 0 0