LAMMPS data file via write_data, version 29 Aug 2024, timestep = 55, units = metal

4800 atoms
16 atom types

0 102.567454354752 xlo xhi
0 99.33720890565 ylo yhi
-50 50 zlo zhi

Masses

1 72.63
2 72.63
3 72.63
4 72.63
5 72.63
6 72.63
7 72.63
8 72.63
9 78.971
10 78.971
11 78.971
12 78.971
13 78.971
14 78.971
15 78.971
16 78.971

Atoms # atomic

1207 11 3.0697139444162516 0.0002315388880849009 2.5131233036801817 0 0 0
1298 2 3.707357436854718 1.986179838759141 2.4678282040333452 0 0 0
1303 11 3.0697139444162658 3.9737198951140944 2.5131233036802154 0 0 0
1201 1 1.3389000730093408 0.0016458404127794959 2.5157748799145874 0 0 0
1300 10 1.1661493207333726 1.985810602125665 2.5669099805226905 0 0 0
1205 3 5.612544004457335 0.001645840412756513 2.515774879914527 0 0 0
1297 1 1.3389000730093439 3.9751341966392024 2.5157748799145505 0 0 0
1301 3 5.612544004457348 3.975134196639227 2.515774879914576 0 0 0
1304 12 5.439793252181432 1.985810602125716 2.56690998052257 0 0 0
1211 9 7.34335787586427 0.00023153888809468014 2.513123303680131 0 0 0
1302 4 7.981001368302815 1.9861798387591714 2.4678282040333337 0 0 0
1307 9 7.3433578758642675 3.9737198951140877 2.513123303680144 0 0 0
1209 1 9.886187935905351 0.0016458404127259847 2.5157748799145634 0 0 0
1308 10 9.71343718362939 1.9858106021256747 2.566909980522635 0 0 0
1305 1 9.886187935905348 3.9751341966392406 2.5157748799145465 0 0 0
1306 2 12.25464529975076 1.9861798387591652 2.467828204033332 0 0 0
1215 11 11.61700180731227 0.00023153888808833116 2.513123303680173 0 0 0
1310 4 16.52828923119881 1.9861798387591862 2.4678282040333506 0 0 0
1311 11 11.617001807312281 3.9737198951140926 2.513123303680165 0 0 0
1213 3 14.159831867353352 0.0016458404127407402 2.5157748799145248 0 0 0
1312 12 13.987081115077434 1.985810602125693 2.566909980522611 0 0 0
1309 3 14.159831867353361 3.9751341966392193 2.5157748799146016 0 0 0
1219 9 15.890645738760268 0.00023153888808130965 2.5131233036801426 0 0 0
1315 9 15.890645738760254 3.9737198951140904 2.5131233036801945 0 0 0
1223 11 20.164289670208248 0.00023153888808619399 2.5131233036801666 0 0 0
1314 2 20.8019331626468 1.9861798387592007 2.467828204033366 0 0 0
1319 11 20.16428967020823 3.973719895114103 2.5131233036801675 0 0 0
1217 1 18.433475798801346 0.0016458404127562996 2.5157748799145305 0 0 0
1316 10 18.260725046525426 1.9858106021256776 2.566909980522602 0 0 0
1221 3 22.70711973024933 0.0016458404127732127 2.515774879914562 0 0 0
1313 1 18.433475798801336 3.9751341966392526 2.515774879914592 0 0 0
1317 3 22.707119730249314 3.97513419663921 2.5157748799145265 0 0 0
1320 12 22.534368977973404 1.9858106021256312 2.5669099805226367 0 0 0
1227 9 24.43793360165626 0.00023153888809246585 2.513123303680159 0 0 0
1318 4 25.075577094094765 1.9861798387591778 2.4678282040333146 0 0 0
1323 9 24.437933601656265 3.9737198951141006 2.5131233036801195 0 0 0
1225 1 26.980763661697345 0.001645840412731384 2.5157748799145345 0 0 0
1324 10 26.8080129094214 1.9858106021256594 2.5669099805226123 0 0 0
1321 1 26.980763661697342 3.975134196639239 2.5157748799145168 0 0 0
1322 2 29.34922102554276 1.9861798387591627 2.467828204033333 0 0 0
1231 11 28.711577533104276 0.0002315388880826903 2.5131233036801657 0 0 0
1326 4 33.62286495699081 1.9861798387591407 2.4678282040333888 0 0 0
1327 11 28.71157753310429 3.973719895114095 2.5131233036801692 0 0 0
1229 3 31.25440759314536 0.0016458404127833173 2.515774879914621 0 0 0
1328 12 31.081656840869424 1.9858106021256683 2.566909980522602 0 0 0
1325 3 31.25440759314537 3.9751341966392357 2.515774879914572 0 0 0
1235 9 32.98522146455222 0.00023153888809121598 2.5131233036802105 0 0 0
1331 9 32.98522146455221 3.9737198951141037 2.5131233036802065 0 0 0
1239 11 37.25886539600028 0.00023153888808358125 2.5131233036801333 0 0 0
1330 2 37.89650888843877 1.9861798387591327 2.4678282040333253 0 0 0
1335 11 37.25886539600029 3.973719895114088 2.5131233036801315 0 0 0
1233 1 35.528051524593316 0.0016458404127804571 2.5157748799145496 0 0 0
1332 10 35.35530077231738 1.9858106021256758 2.5669099805226203 0 0 0
1237 3 39.801695456041365 0.001645840412775939 2.5157748799144124 0 0 0
1329 1 35.5280515245933 3.9751341966392015 2.515774879914536 0 0 0
1333 3 39.801695456041365 3.9751341966392184 2.515774879914605 0 0 0
1336 12 39.62894470376543 1.985810602125724 2.566909980522602 0 0 0
1243 9 41.532509327448274 0.000231538888084285 2.513123303680094 0 0 0
1334 4 42.17015281988679 1.9861798387592116 2.4678282040333035 0 0 0
1339 9 41.53250932744827 3.9737198951140895 2.5131233036802016 0 0 0
1241 1 44.075339387489336 0.001645840412765801 2.515774879914532 0 0 0
1340 10 43.90258863521341 1.9858106021256612 2.5669099805226123 0 0 0
1337 1 44.07533938748935 3.9751341966392477 2.515774879914651 0 0 0
1338 2 46.443796751334794 1.9861798387592602 2.4678282040333697 0 0 0
1247 11 45.8061532588963 0.00023153888809831027 2.513123303680208 0 0 0
1342 4 50.717440682782815 1.9861798387591811 2.46782820403334 0 0 0
1343 11 45.80615325889624 3.9737198951140997 2.5131233036801905 0 0 0
1245 3 48.34898331893738 0.001645840412798831 2.5157748799145927 0 0 0
1344 12 48.176232566661426 1.9858106021255721 2.5669099805226354 0 0 0
1341 3 48.34898331893732 3.975134196639238 2.515774879914519 0 0 0
1155 9 50.07979719034425 0.00023153888809956437 2.5131233036802025 -1 0 0
1251 9 50.079797190344294 3.973719895114111 2.5131233036800933 -1 0 0
1159 11 54.3534411217923 0.000231538888095035 2.5131233036801537 -1 0 0
1250 2 54.99108461423076 1.9861798387591616 2.4678282040333244 -1 0 0
1255 11 54.35344112179231 3.973719895114105 2.513123303680156 -1 0 0
1153 1 52.62262725038534 0.0016458404127894994 2.5157748799145647 -1 0 0
1252 10 52.4498764981094 1.9858106021255924 2.5669099805226416 -1 0 0
1157 3 56.89627118183338 0.0016458404127907371 2.5157748799145914 -1 0 0
1249 1 52.62262725038537 3.975134196639275 2.5157748799144994 -1 0 0
1253 3 56.89627118183338 3.975134196639224 2.515774879914587 -1 0 0
1256 12 56.72352042955743 1.9858106021256616 2.566909980522618 -1 0 0
1163 9 58.627085053240286 0.00023153888809169637 2.5131233036801626 -1 0 0
1254 4 59.264728545678814 1.9861798387591625 2.4678282040333457 -1 0 0
1259 9 58.627085053240265 3.9737198951140993 2.5131233036801848 -1 0 0
1161 1 61.16991511328137 0.0016458404128021807 2.5157748799145767 -1 0 0
1260 10 60.99716436100541 1.9858106021256683 2.5669099805226594 -1 0 0
1257 1 61.169915113281355 3.975134196639219 2.5157748799145723 -1 0 0
1258 2 63.53837247712676 1.9861798387591547 2.4678282040334243 -1 0 0
1167 11 62.900728984688186 0.00023153888810147142 2.5131233036802096 -1 0 0
1262 4 67.81201640857485 1.9861798387591763 2.4678282040333346 -1 0 0
1263 11 62.90072898468817 3.9737198951140824 2.513123303680222 -1 0 0
1165 3 65.44355904472928 0.001645840412746652 2.5157748799144706 -1 0 0
1264 12 65.27080829245342 1.9858106021256836 2.566909980522564 -1 0 0
1261 3 65.44355904472927 3.9751341966392753 2.5157748799145345 -1 0 0
1171 9 67.17437291613632 0.00023153888807990578 2.513123303680066 -1 0 0
1267 9 67.17437291613628 3.973719895114101 2.5131233036800964 -1 0 0
1175 11 71.44801684758419 0.00023153888807411958 2.513123303680256 -1 0 0
1266 2 72.08566034002274 1.9861798387592062 2.4678282040333857 -1 0 0
1271 11 71.44801684758424 3.9737198951141135 2.513123303680244 -1 0 0
1169 1 69.71720297617739 0.0016458404127527677 2.515774879914628 -1 0 0
1268 10 69.54445222390136 1.985810602125637 2.5669099805226665 -1 0 0
1173 3 73.99084690762527 0.0016458404127816005 2.515774879914431 -1 0 0
1265 1 69.71720297617738 3.975134196639244 2.5157748799145994 -1 0 0
1269 3 73.99084690762534 3.9751341966392304 2.515774879914585 -1 0 0
1272 12 73.81809615534945 1.9858106021256816 2.5669099805225604 -1 0 0
1179 9 75.7216607790323 0.00023153888810855376 2.5131233036800746 -1 0 0
1270 4 76.35930427147083 1.9861798387592264 2.467828204033309 -1 0 0
1275 9 75.72166077903232 3.9737198951140917 2.513123303680119 -1 0 0
1177 1 78.26449083907339 0.0016458404126991695 2.515774879914476 -1 0 0
1276 10 78.09174008679742 1.9858106021256434 2.5669099805225493 -1 0 0
1273 1 78.2644908390734 3.9751341966392153 2.5157748799146407 -1 0 0
1274 2 80.6329482029188 1.986179838759308 2.4678282040333333 -1 0 0
1183 11 79.99530471048024 0.00023153888808523257 2.5131233036801732 -1 0 0
1278 4 84.9065921343668 1.986179838759141 2.467828204033268 -1 0 0
1279 11 79.99530471048014 3.9737198951140913 2.513123303680215 -1 0 0
1181 3 82.5381347705213 0.0016458404127592957 2.515774879914603 -1 0 0
1280 12 82.36538401824538 1.9858106021255075 2.566909980522547 -1 0 0
1277 3 82.53813477052124 3.9751341966392593 2.515774879914322 -1 0 0
1187 9 84.26894864192829 0.00023153888810496464 2.513123303680237 -1 0 0
1283 9 84.26894864192835 3.973719895114101 2.5131233036800147 -1 0 0
1191 11 88.5425925733762 0.0002315388880525864 2.5131233036802123 -1 0 0
1282 2 89.18023606581478 1.9861798387591123 2.4678282040333572 -1 0 0
1287 11 88.54259257337627 3.973719895114122 2.5131233036802203 -1 0 0
1185 1 86.81177870196939 0.0016458404126702166 2.5157748799146913 -1 0 0
1284 10 86.63902794969336 1.9858106021256525 2.5669099805226088 -1 0 0
1189 3 91.0854226334173 0.0016458404127778895 2.5157748799145394 -1 0 0
1281 1 86.81177870196943 3.9751341966393223 2.515774879914605 -1 0 0
1285 3 91.08542263341734 3.9751341966391527 2.515774879914647 -1 0 0
1288 12 90.91267188114136 1.985810602125723 2.5669099805227193 -1 0 0
1195 9 92.81623650482435 0.00023153888807501665 2.513123303680105 -1 0 0
1286 4 93.45387999726273 1.9861798387591962 2.4678282040333404 -1 0 0
1291 9 92.81623650482429 3.973719895114115 2.5131233036802003 -1 0 0
1193 1 95.35906656486543 0.0016458404127550402 2.5157748799145323 -1 0 0
1292 10 95.18631581258946 1.9858106021256732 2.5669099805225435 -1 0 0
1289 1 95.35906656486536 3.975134196639163 2.5157748799145816 -1 0 0
1203 9 101.36352436772026 0.00023153888808933562 2.5131233036801213 -1 0 0
1299 9 101.36352436772027 3.973719895114087 2.513123303680077 -1 0 0
1290 2 97.72752392871085 1.9861798387592036 2.467828204033386 -1 0 0
1199 11 97.08988043627221 0.0002315388880909792 2.5131233036802123 -1 0 0
1294 4 102.00116786015874 1.9861798387591412 2.4678282040333355 -1 0 0
1295 11 97.08988043627213 3.9737198951140953 2.513123303680165 -1 0 0
1197 3 99.63271049631328 0.0016458404127832858 2.5157748799145954 -1 0 0
1296 12 99.45995974403732 1.9858106021256545 2.566909980522604 -1 0 0
1293 3 99.63271049631321 3.975134196639186 2.5157748799145025 -1 0 0
1394 2 3.7073574368547715 5.959668194985073 2.467828204033374 0 0 0
1399 11 3.069713944416247 7.947208251340125 2.51312330368013 0 0 0
1490 2 3.707357436854819 9.933156551210958 2.467828204033365 0 0 0
1396 10 1.1661493207334177 5.959298958351414 2.5669099805226705 0 0 0
1393 1 1.3389000730093723 7.948622552865384 2.5157748799145243 0 0 0
1492 10 1.166149320733455 9.93278731457732 2.5669099805226 0 0 0
1397 3 5.6125440044573285 7.948622552865396 2.515774879914516 0 0 0
1400 12 5.439793252181415 5.959298958351365 2.5669099805226105 0 0 0
1496 12 5.439793252181403 9.932787314577325 2.566909980522615 0 0 0
1398 4 7.981001368302793 5.959668194985037 2.467828204033343 0 0 0
1403 9 7.343357875864281 7.947208251340126 2.513123303680117 0 0 0
1494 4 7.981001368302779 9.933156551210983 2.4678282040333372 0 0 0
1404 10 9.713437183629397 5.959298958351396 2.5669099805226616 0 0 0
1401 1 9.886187935905362 7.948622552865389 2.5157748799145443 0 0 0
1500 10 9.713437183629425 9.932787314577286 2.5669099805226336 0 0 0
1402 2 12.25464529975076 5.959668194985051 2.4678282040333563 0 0 0
1498 2 12.254645299750793 9.93315655121096 2.4678282040333546 0 0 0
1406 4 16.52828923119882 5.959668194985042 2.4678282040333865 0 0 0
1407 11 11.617001807312265 7.947208251340126 2.513123303680165 0 0 0
1502 4 16.528289231198777 9.933156551210956 2.467828204033339 0 0 0
1408 12 13.987081115077434 5.959298958351391 2.566909980522622 0 0 0
1405 3 14.159831867353349 7.948622552865398 2.5157748799145683 0 0 0
1504 12 13.987081115077403 9.932787314577295 2.566909980522639 0 0 0
1411 9 15.890645738760277 7.947208251340123 2.513123303680142 0 0 0
1410 2 20.801933162646755 5.959668194985042 2.4678282040334 0 0 0
1415 11 20.164289670208223 7.94720825134012 2.5131233036801603 0 0 0
1506 2 20.80193316264682 9.933156551210981 2.467828204033399 0 0 0
1412 10 18.26072504652539 5.9592989583514 2.5669099805226803 0 0 0
1409 1 18.433475798801364 7.94862255286539 2.51577487991454 0 0 0
1508 10 18.260725046525426 9.9327873145773 2.566909980522616 0 0 0
1413 3 22.70711973024931 7.948622552865414 2.515774879914525 0 0 0
1416 12 22.534368977973404 5.959298958351423 2.566909980522635 0 0 0
1512 12 22.534368977973372 9.932787314577286 2.566909980522654 0 0 0
1414 4 25.075577094094776 5.959668194985051 2.4678282040333395 0 0 0
1419 9 24.43793360165627 7.947208251340123 2.5131233036801137 0 0 0
1510 4 25.075577094094736 9.933156551210967 2.4678282040333213 0 0 0
1420 10 26.80801290942136 5.9592989583514075 2.5669099805226465 0 0 0
1417 1 26.980763661697345 7.948622552865397 2.5157748799145487 0 0 0
1516 10 26.8080129094214 9.932787314577267 2.5669099805226145 0 0 0
1418 2 29.349221025542732 5.959668194985069 2.4678282040333444 0 0 0
1514 2 29.349221025542775 9.933156551210944 2.4678282040333475 0 0 0
1422 4 33.62286495699085 5.959668194985064 2.4678282040334123 0 0 0
1423 11 28.711577533104265 7.947208251340126 2.513123303680167 0 0 0
1518 4 33.62286495699082 9.93315655121097 2.4678282040333843 0 0 0
1424 12 31.081656840869456 5.959298958351387 2.566909980522597 0 0 0
1421 3 31.254407593145356 7.948622552865406 2.5157748799145585 0 0 0
1520 12 31.081656840869428 9.932787314577311 2.5669099805226048 0 0 0
1427 9 32.985221464552204 7.947208251340123 2.5131233036801555 0 0 0
1426 2 37.89650888843872 5.959668194985075 2.4678282040333697 0 0 0
1431 11 37.25886539600026 7.947208251340134 2.513123303680142 0 0 0
1522 2 37.896508888438724 9.933156551211006 2.4678282040334025 0 0 0
1428 10 35.35530077231736 5.959298958351404 2.566909980522664 0 0 0
1425 1 35.52805152459329 7.9486225528653955 2.5157748799145634 0 0 0
1524 10 35.35530077231737 9.93278731457731 2.5669099805226603 0 0 0
1429 3 39.80169545604134 7.948622552865359 2.5157748799145163 0 0 0
1432 12 39.62894470376541 5.959298958351372 2.5669099805226634 0 0 0
1528 12 39.62894470376543 9.93278731457726 2.566909980522621 0 0 0
1430 4 42.17015281988677 5.959668194985016 2.4678282040333444 0 0 0
1435 9 41.532509327448295 7.947208251340132 2.5131233036800884 0 0 0
1526 4 42.17015281988681 9.933156551210974 2.4678282040333284 0 0 0
1436 10 43.90258863521343 5.959298958351411 2.5669099805226994 0 0 0
1433 1 44.075339387489365 7.948622552865383 2.5157748799145923 0 0 0
1532 10 43.90258863521341 9.932787314577265 2.566909980522684 0 0 0
1434 2 46.44379675133476 5.959668194985027 2.4678282040334176 0 0 0
1530 2 46.443796751334744 9.93315655121092 2.4678282040333634 0 0 0
1438 4 50.71744068278286 5.959668194985044 2.467828204033355 0 0 0
1439 11 45.806153258896245 7.947208251340106 2.513123303680215 0 0 0
1534 4 50.71744068278283 9.93315655121099 2.4678282040333563 0 0 0
1440 12 48.17623256666146 5.959298958351445 2.5669099805226 0 0 0
1437 3 48.348983318937336 7.948622552865399 2.515774879914494 0 0 0
1536 12 48.176232566661476 9.932787314577318 2.5669099805226026 0 0 0
1347 9 50.079797190344294 7.947208251340114 2.5131233036800773 -1 0 0
1346 2 54.99108461423073 5.959668194985091 2.4678282040333426 -1 0 0
1351 11 54.35344112179223 7.94720825134012 2.5131233036802016 -1 0 0
1442 2 54.99108461423078 9.933156551210972 2.4678282040333475 -1 0 0
1348 10 52.44987649810938 5.959298958351427 2.566909980522684 -1 0 0
1345 1 52.622627250385364 7.9486225528653645 2.5157748799145723 -1 0 0
1444 10 52.44987649810941 9.932787314577283 2.5669099805226314 -1 0 0
1349 3 56.896271181833306 7.9486225528654275 2.515774879914513 -1 0 0
1352 12 56.72352042955741 5.9592989583514075 2.5669099805226008 -1 0 0
1448 12 56.72352042955741 9.932787314577247 2.5669099805226008 -1 0 0
1350 4 59.264728545678814 5.959668194985036 2.467828204033355 -1 0 0
1355 9 58.627085053240286 7.947208251340127 2.513123303680091 -1 0 0
1446 4 59.26472854567879 9.933156551210951 2.46782820403332 -1 0 0
1356 10 60.997164361005375 5.95929895835141 2.5669099805226834 -1 0 0
1353 1 61.16991511328137 7.948622552865405 2.5157748799145776 -1 0 0
1452 10 60.99716436100537 9.932787314577324 2.5669099805226714 -1 0 0
1354 2 63.53837247712674 5.9596681949850385 2.467828204033443 -1 0 0
1450 2 63.538372477126735 9.933156551210981 2.4678282040334056 -1 0 0
1358 4 67.81201640857482 5.959668194985113 2.4678282040334034 -1 0 0
1359 11 62.9007289846882 7.947208251340127 2.513123303680226 -1 0 0
1454 4 67.81201640857478 9.933156551210901 2.4678282040332946 -1 0 0
1360 12 65.27080829245341 5.959298958351421 2.5669099805226296 -1 0 0
1357 3 65.44355904472928 7.948622552865376 2.515774879914586 -1 0 0
1456 12 65.27080829245341 9.93278731457725 2.566909980522595 -1 0 0
1363 9 67.17437291613629 7.947208251340115 2.5131233036801244 -1 0 0
1362 2 72.0856603400227 5.959668194985018 2.4678282040333697 -1 0 0
1367 11 71.44801684758427 7.947208251340121 2.513123303680086 -1 0 0
1458 2 72.08566034002284 9.933156551210942 2.4678282040333155 -1 0 0
1364 10 69.54445222390139 5.959298958351401 2.56690998052271 -1 0 0
1361 1 69.71720297617739 7.948622552865434 2.5157748799144684 -1 0 0
1460 10 69.54445222390144 9.932787314577327 2.5669099805226057 -1 0 0
1365 3 73.99084690762531 7.9486225528654275 2.5157748799143995 -1 0 0
1368 12 73.81809615534942 5.959298958351384 2.566909980522537 -1 0 0
1464 12 73.81809615534937 9.932787314577338 2.566909980522622 -1 0 0
1366 4 76.35930427147083 5.959668194984941 2.4678282040333324 -1 0 0
1371 9 75.72166077903235 7.947208251340109 2.5131233036800875 -1 0 0
1462 4 76.35930427147073 9.93315655121106 2.4678282040332697 -1 0 0
1372 10 78.09174008679737 5.95929895835152 2.5669099805227376 -1 0 0
1369 1 78.2644908390734 7.948622552865434 2.515774879914844 -1 0 0
1468 10 78.09174008679743 9.932787314577197 2.5669099805226643 -1 0 0
1370 2 80.63294820291871 5.959668194985041 2.4678282040335007 -1 0 0
1466 2 80.6329482029188 9.933156551210912 2.4678282040335024 -1 0 0
1374 4 84.90659213436682 5.959668194985122 2.467828204033314 -1 0 0
1375 11 79.99530471048008 7.947208251340128 2.5131233036803917 -1 0 0
1470 4 84.90659213436675 9.933156551210939 2.4678282040333213 -1 0 0
1376 12 82.36538401824548 5.959298958351415 2.566909980522577 -1 0 0
1373 3 82.53813477052118 7.948622552865413 2.5157748799144684 -1 0 0
1472 12 82.3653840182454 9.932787314577336 2.5669099805226465 -1 0 0
1379 9 84.26894864192833 7.947208251340121 2.5131233036799014 -1 0 0
1378 2 89.18023606581474 5.959668194985158 2.46782820403344 -1 0 0
1383 11 88.5425925733762 7.947208251340123 2.5131233036802527 -1 0 0
1474 2 89.18023606581473 9.93315655121095 2.4678282040334607 -1 0 0
1380 10 86.63902794969334 5.95929895835135 2.566909980522633 -1 0 0
1377 1 86.8117787019694 7.948622552865402 2.5157748799147064 -1 0 0
1476 10 86.63902794969334 9.932787314577379 2.5669099805226527 -1 0 0
1381 3 91.08542263341728 7.948622552865547 2.5157748799144426 -1 0 0
1384 12 90.91267188114145 5.95929895835129 2.5669099805227154 -1 0 0
1480 12 90.91267188114138 9.932787314577284 2.566909980522616 -1 0 0
1382 4 93.45387999726279 5.959668194985045 2.4678282040334234 -1 0 0
1387 9 92.81623650482426 7.94720825134013 2.5131233036800165 -1 0 0
1478 4 93.45387999726276 9.933156551210919 2.4678282040333537 -1 0 0
1388 10 95.18631581258946 5.959298958351336 2.566909980522585 -1 0 0
1385 1 95.35906656486536 7.948622552865502 2.5157748799144573 -1 0 0
1484 10 95.18631581258941 9.932787314577352 2.5669099805225706 -1 0 0
1395 9 101.36352436772029 7.947208251340111 2.513123303680149 -1 0 0
1386 2 97.72752392871081 5.959668194984984 2.467828204033404 -1 0 0
1482 2 97.7275239287108 9.93315655121098 2.4678282040333808 -1 0 0
1390 4 102.00116786015874 5.959668194985094 2.467828204033352 -1 0 0
1391 11 97.08988043627218 7.947208251340119 2.513123303680138 -1 0 0
1486 4 102.00116786015867 9.933156551210937 2.4678282040333293 -1 0 0
1392 12 99.45995974403736 5.95929895835144 2.566909980522637 -1 0 0
1389 3 99.63271049631327 7.948622552865428 2.5157748799145834 -1 0 0
1488 12 99.45995974403732 9.9327873145773 2.5669099805226807 -1 0 0
1495 11 3.069713944416257 11.920696607566097 2.5131233036801826 0 0 0
1586 2 3.7073574368547 13.906644907436865 2.467828204033368 0 0 0
1591 11 3.06971394441625 15.894184963792119 2.5131233036802008 0 0 0
1489 1 1.338900073009371 11.92211090909166 2.515774879914572 0 0 0
1588 10 1.1661493207333273 13.906275670803181 2.5669099805227162 0 0 0
1493 3 5.612544004457337 11.922110909091673 2.5157748799145834 0 0 0
1585 1 1.3389000730093996 15.8955992653178 2.515774879914598 0 0 0
1589 3 5.6125440044573285 15.895599265317806 2.5157748799145905 0 0 0
1592 12 5.439793252181416 13.906275670803176 2.5669099805226523 0 0 0
1499 9 7.343357875864261 11.920696607566095 2.513123303680153 0 0 0
1590 4 7.981001368302793 13.906644907436856 2.4678282040333794 0 0 0
1595 9 7.343357875864257 15.894184963792112 2.5131233036801466 0 0 0
1497 1 9.88618793590534 11.922110909091707 2.515774879914547 0 0 0
1596 10 9.7134371836294 13.90627567080316 2.5669099805226687 0 0 0
1593 1 9.886187935905339 15.895599265317784 2.515774879914532 0 0 0
1594 2 12.25464529975076 13.906644907436858 2.4678282040333395 0 0 0
1503 11 11.617001807312274 11.920696607566097 2.5131233036801395 0 0 0
1598 4 16.528289231198826 13.906644907436862 2.4678282040333728 0 0 0
1599 11 11.617001807312274 15.894184963792124 2.5131233036801315 0 0 0
1501 3 14.159831867353354 11.922110909091737 2.5157748799145514 0 0 0
1600 12 13.987081115077455 13.906275670803149 2.5669099805226354 0 0 0
1597 3 14.15983186735336 15.895599265317745 2.5157748799145407 0 0 0
1507 9 15.890645738760275 11.92069660756612 2.5131233036801586 0 0 0
1603 9 15.890645738760261 15.894184963792103 2.5131233036801417 0 0 0
1511 11 20.16428967020823 11.920696607566098 2.5131233036801857 0 0 0
1602 2 20.801933162646765 13.90664490743685 2.46782820403339 0 0 0
1607 11 20.164289670208234 15.894184963792108 2.5131233036801413 0 0 0
1505 1 18.43347579880136 11.922110909091664 2.5157748799145905 0 0 0
1604 10 18.260725046525394 13.90627567080315 2.5669099805226487 0 0 0
1509 3 22.70711973024932 11.922110909091684 2.5157748799145274 0 0 0
1601 1 18.433475798801343 15.895599265317825 2.5157748799145385 0 0 0
1605 3 22.707119730249318 15.895599265317795 2.5157748799145163 0 0 0
1608 12 22.5343689779734 13.906275670803176 2.5669099805226447 0 0 0
1515 9 24.437933601656265 11.9206966075661 2.513123303680104 0 0 0
1606 4 25.075577094094783 13.906644907436855 2.4678282040333555 0 0 0
1611 9 24.43793360165627 15.894184963792105 2.5131233036801204 0 0 0
1513 1 26.980763661697345 11.922110909091737 2.5157748799145048 0 0 0
1612 10 26.808012909421375 13.906275670803177 2.5669099805226754 0 0 0
1609 1 26.980763661697356 15.895599265317767 2.5157748799145034 0 0 0
1610 2 29.349221025542736 13.906644907436853 2.4678282040333466 0 0 0
1519 11 28.711577533104286 11.920696607566104 2.5131233036801537 0 0 0
1614 4 33.622864956990824 13.906644907436872 2.467828204033409 0 0 0
1615 11 28.711577533104283 15.894184963792117 2.513123303680131 0 0 0
1517 3 31.25440759314537 11.922110909091684 2.515774879914581 0 0 0
1616 12 31.081656840869424 13.90627567080316 2.5669099805226114 0 0 0
1613 3 31.254407593145373 15.895599265317783 2.515774879914571 0 0 0
1523 9 32.98522146455221 11.920696607566102 2.5131233036801928 0 0 0
1619 9 32.98522146455218 15.894184963792101 2.5131233036801865 0 0 0
1527 11 37.258865396000246 11.920696607566105 2.513123303680166 0 0 0
1618 2 37.896508888438746 13.906644907436823 2.467828204033386 0 0 0
1623 11 37.25886539600028 15.894184963792112 2.5131233036800813 0 0 0
1521 1 35.52805152459331 11.922110909091687 2.515774879914617 0 0 0
1620 10 35.355300772317364 13.906275670803153 2.566909980522632 0 0 0
1525 3 39.80169545604132 11.922110909091714 2.515774879914479 0 0 0
1617 1 35.52805152459327 15.895599265317804 2.515774879914503 0 0 0
1621 3 39.80169545604136 15.895599265317768 2.515774879914553 0 0 0
1624 12 39.62894470376541 13.906275670803211 2.5669099805226576 0 0 0
1531 9 41.53250932744827 11.920696607566112 2.5131233036800613 0 0 0
1622 4 42.1701528198868 13.906644907436874 2.4678282040333674 0 0 0
1627 9 41.53250932744827 15.8941849637921 2.513123303680142 0 0 0
1529 1 44.07533938748934 11.922110909091684 2.5157748799145514 0 0 0
1628 10 43.90258863521338 13.90627567080317 2.566909980522661 0 0 0
1625 1 44.07533938748933 15.895599265317781 2.5157748799145803 0 0 0
1626 2 46.44379675133475 13.906644907436874 2.4678282040333603 0 0 0
1535 11 45.80615325889628 11.92069660756611 2.513123303680183 0 0 0
1630 4 50.71744068278282 13.90664490743685 2.4678282040334127 0 0 0
1631 11 45.80615325889626 15.894184963792107 2.513123303680123 0 0 0
1533 3 48.348983318937364 11.9221109090917 2.515774879914625 0 0 0
1632 12 48.176232566661426 13.906275670803126 2.566909980522639 0 0 0
1629 3 48.34898331893734 15.895599265317761 2.5157748799145603 0 0 0
1443 9 50.07979719034428 11.920696607566104 2.5131233036801732 -1 0 0
1539 9 50.07979719034426 15.894184963792105 2.51312330368016 -1 0 0
1447 11 54.35344112179224 11.920696607566112 2.5131233036801417 -1 0 0
1538 2 54.99108461423078 13.90664490743683 2.4678282040333928 -1 0 0
1543 11 54.35344112179227 15.894184963792105 2.513123303680092 -1 0 0
1441 1 52.62262725038536 11.922110909091696 2.5157748799145625 -1 0 0
1540 10 52.44987649810942 13.90627567080318 2.5669099805226883 -1 0 0
1445 3 56.89627118183333 11.922110909091671 2.5157748799144675 -1 0 0
1537 1 52.62262725038535 15.895599265317749 2.5157748799144932 -1 0 0
1541 3 56.896271181833356 15.895599265317752 2.515774879914492 -1 0 0
1544 12 56.72352042955739 13.90627567080318 2.566909980522632 -1 0 0
1451 9 58.627085053240336 11.920696607566097 2.513123303680088 -1 0 0
1542 4 59.26472854567875 13.90664490743688 2.4678282040333284 -1 0 0
1547 9 58.6270850532403 15.894184963792107 2.5131233036801075 -1 0 0
1449 1 61.16991511328141 11.922110909091652 2.5157748799146566 -1 0 0
1548 10 60.99716436100539 13.90627567080317 2.5669099805226585 -1 0 0
1545 1 61.16991511328138 15.895599265317772 2.5157748799145625 -1 0 0
1546 2 63.538372477126764 13.906644907436828 2.4678282040334554 -1 0 0
1455 11 62.90072898468814 11.920696607566097 2.5131233036802465 -1 0 0
1550 4 67.81201640857482 13.906644907436887 2.467828204033386 -1 0 0
1551 11 62.90072898468817 15.894184963792103 2.513123303680214 -1 0 0
1453 3 65.44355904472921 11.922110909091684 2.51577487991446 -1 0 0
1552 12 65.27080829245338 13.906275670803227 2.5669099805225812 -1 0 0
1549 3 65.44355904472928 15.895599265317852 2.5157748799145643 -1 0 0
1459 9 67.17437291613636 11.920696607566097 2.5131233036800067 -1 0 0
1555 9 67.17437291613626 15.894184963792133 2.5131233036800893 -1 0 0
1463 11 71.4480168475842 11.920696607566097 2.513123303680228 -1 0 0
1554 2 72.0856603400227 13.906644907436888 2.4678282040333754 -1 0 0
1559 11 71.44801684758427 15.89418496379213 2.513123303680112 -1 0 0
1457 1 69.71720297617745 11.9221109090917 2.5157748799145607 -1 0 0
1556 10 69.54445222390142 13.906275670803142 2.5669099805227398 -1 0 0
1461 3 73.99084690762528 11.922110909091652 2.5157748799146336 -1 0 0
1553 1 69.71720297617733 15.895599265317768 2.515774879914553 -1 0 0
1557 3 73.99084690762534 15.895599265317784 2.5157748799144724 -1 0 0
1560 12 73.81809615534941 13.906275670803105 2.5669099805225803 -1 0 0
1467 9 75.72166077903228 11.920696607566107 2.51312330368017 -1 0 0
1558 4 76.35930427147078 13.906644907436815 2.4678282040333404 -1 0 0
1563 9 75.7216607790323 15.89418496379213 2.5131233036800835 -1 0 0
1465 1 78.26449083907337 11.92211090909166 2.5157748799145825 -1 0 0
1564 10 78.09174008679744 13.906275670803215 2.566909980522629 -1 0 0
1561 1 78.26449083907337 15.895599265317802 2.515774879914629 -1 0 0
1562 2 80.63294820291883 13.906644907436855 2.4678282040334114 -1 0 0
1471 11 79.99530471048016 11.920696607566098 2.513123303680167 -1 0 0
1566 4 84.90659213436676 13.906644907436855 2.4678282040332875 -1 0 0
1567 11 79.99530471048017 15.894184963792103 2.5131233036802496 -1 0 0
1469 3 82.53813477052127 11.922110909091591 2.5157748799144626 -1 0 0
1568 12 82.3653840182454 13.906275670803232 2.5669099805226008 -1 0 0
1565 3 82.53813477052128 15.895599265317816 2.5157748799144146 -1 0 0
1475 9 84.26894864192833 11.920696607566075 2.5131233036800804 -1 0 0
1571 9 84.26894864192832 15.894184963792137 2.513123303680066 -1 0 0
1479 11 88.5425925733762 11.920696607566082 2.5131233036802327 -1 0 0
1570 2 89.1802360658148 13.906644907436817 2.4678282040333888 -1 0 0
1575 11 88.54259257337628 15.894184963792132 2.513123303680214 -1 0 0
1473 1 86.8117787019694 11.922110909091664 2.515774879914715 -1 0 0
1572 10 86.6390279496934 13.906275670803222 2.5669099805226496 -1 0 0
1477 3 91.0854226334173 11.922110909091714 2.5157748799144044 -1 0 0
1569 1 86.81177870196939 15.895599265317644 2.5157748799146393 -1 0 0
1573 3 91.08542263341737 15.89559926531763 2.5157748799144994 -1 0 0
1576 12 90.91267188114142 13.906275670803268 2.56690998052269 -1 0 0
1483 9 92.81623650482432 11.920696607566097 2.513123303680026 -1 0 0
1574 4 93.45387999726275 13.906644907436876 2.467828204033355 -1 0 0
1579 9 92.81623650482425 15.894184963792098 2.5131233036801213 -1 0 0
1481 1 95.35906656486539 11.922110909091646 2.515774879914558 -1 0 0
1580 10 95.18631581258933 13.90627567080319 2.5669099805225972 -1 0 0
1577 1 95.35906656486534 15.895599265317763 2.5157748799145514 -1 0 0
1491 9 101.3635243677203 11.920696607566132 2.513123303680118 -1 0 0
1587 9 101.36352436772033 15.894184963792103 2.5131233036800813 -1 0 0
1578 2 97.72752392871071 13.906644907436887 2.4678282040333253 -1 0 0