LAMMPS data file via write_data, version 29 Aug 2024, timestep = 2, units = metal

7020 atoms
9 atom types

0 100.906710149752 xlo xhi
0 100.83204738693 ylo yhi
-50 50 zlo zhi

Masses

1 192.217
2 192.217
3 192.217
4 127.6
5 127.6
6 127.6
7 127.6
8 127.6
9 127.6

Atoms # atomic

1174 5 1.9405136567259995 2.240710644452808 0.022019729939188153 0 0 0
1327 1 1.2787912619782856e-16 3.359705421510949 1.4486924973631325 0 0 0
1333 1 3.881027313451999 3.3597054215109488 1.4486924973631325 0 0 0
1180 5 5.821540970177999 2.2407106444528075 0.022019729939188 0 0 0
1329 5 9.062583026725254e-16 5.601778890683808 0.022019729939186855 0 0 0
1335 5 3.8810273134519995 5.601778890683808 0.022019729939187632 0 0 0
1176 4 9.221873125175271e-16 1.1162941728369244 2.8742498230781055 0 0 0
1182 4 3.8810273134519995 1.1162941728369238 2.8742498230781046 0 0 0
1331 4 1.9405136567259995 4.477362419067925 2.8742498230781055 0 0 0
1337 4 5.821540970177999 4.477362419067925 2.874249823078106 0 0 0
1339 1 7.762054626903999 3.3597054215109488 1.4486924973631325 0 0 0
1186 5 9.702568283629999 2.240710644452808 0.022019729939188142 0 0 0
1345 1 11.643081940355998 3.359705421510949 1.4486924973631325 0 0 0
1341 5 7.762054626903999 5.601778890683808 0.02201972993918763 0 0 0
1347 5 11.643081940355998 5.601778890683808 0.0220197299391869 0 0 0
1188 4 7.762054626903999 1.1162941728369238 2.8742498230781046 0 0 0
1194 4 11.643081940355998 1.1162941728369244 2.8742498230781055 0 0 0
1343 4 9.702568283629999 4.477362419067925 2.8742498230781055 0 0 0
1192 5 13.583595597081997 2.2407106444528075 0.022019729939187802 0 0 0
1351 1 15.524109253807998 3.3597054215109488 1.448692497363133 0 0 0
1198 5 17.464622910534 2.240710644452809 0.02201972993918923 0 0 0
1353 5 15.524109253807998 5.60177889068381 0.022019729939188697 0 0 0
1200 4 15.524109253807998 1.1162941728369231 2.8742498230781037 0 0 0
1349 4 13.583595597081997 4.477362419067925 2.8742498230781055 0 0 0
1355 4 17.464622910534 4.477362419067924 2.8742498230781046 0 0 0
1357 1 19.40513656726 3.3597054215109488 1.4486924973631328 0 0 0
1204 5 21.345650223986 2.240710644452807 0.02201972993918695 0 0 0
1363 1 23.286163880711996 3.359705421510949 1.4486924973631325 0 0 0
1359 5 19.40513656726 5.601778890683808 0.02201972993918732 0 0 0
1365 5 23.286163880711996 5.601778890683808 0.022019729939187316 0 0 0
1206 4 19.40513656726 1.116294172836924 2.8742498230781055 0 0 0
1212 4 23.286163880711996 1.116294172836924 2.874249823078105 0 0 0
1361 4 21.345650223986 4.477362419067925 2.874249823078107 0 0 0
1210 5 25.226677537437997 2.240710644452809 0.022019729939189228 0 0 0
1369 1 27.167191194163998 3.3597054215109488 1.4486924973631328 0 0 0
1216 5 29.107704850890002 2.2407106444528075 0.02201972993918785 0 0 0
1371 5 27.167191194164 5.60177889068381 0.022019729939188677 0 0 0
1218 4 27.167191194164 1.1162941728369231 2.8742498230781037 0 0 0
1367 4 25.226677537437997 4.477362419067924 2.8742498230781046 0 0 0
1373 4 29.107704850890002 4.477362419067924 2.8742498230781055 0 0 0
1375 1 31.048218507616 3.3597054215109488 1.4486924973631325 0 0 0
1222 5 32.988732164342 2.240710644452807 0.02201972993918754 0 0 0
1381 1 34.929245821068 3.3597054215109488 1.4486924973631328 0 0 0
1377 5 31.048218507616 5.601778890683807 0.02201972993918636 0 0 0
1383 5 34.929245821068 5.60177889068381 0.022019729939189093 0 0 0
1224 4 31.048218507616 1.1162941728369247 2.874249823078106 0 0 0
1230 4 34.929245821068 1.1162941728369231 2.8742498230781033 0 0 0
1379 4 32.988732164342 4.477362419067925 2.874249823078106 0 0 0
1228 5 36.869759477794 2.240710644452809 0.022019729939189568 0 0 0
1387 1 38.81027313452 3.3597054215109488 1.4486924973631328 0 0 0
1234 5 40.750786791246 2.240710644452807 0.022019729939186904 0 0 0
1389 5 38.81027313452 5.601778890683808 0.02201972993918694 0 0 0
1236 4 38.81027313452 1.1162941728369242 2.8742498230781055 0 0 0
1385 4 36.869759477794 4.477362419067923 2.874249823078104 0 0 0
1391 4 40.750786791246 4.477362419067925 2.874249823078107 0 0 0
1393 1 42.691300447972 3.3597054215109488 1.4486924973631328 0 0 0
1240 5 44.631814104698 2.240710644452809 0.02201972993918957 0 0 0
1399 1 46.572327761424 3.3597054215109488 1.4486924973631328 0 0 0
1395 5 42.691300447972 5.601778890683808 0.02201972993918694 0 0 0
1401 5 46.572327761424 5.60177889068381 0.022019729939189086 0 0 0
1242 4 42.691300447972 1.1162941728369242 2.8742498230781055 0 0 0
1248 4 46.572327761424 1.1162941728369231 2.8742498230781033 0 0 0
1397 4 44.631814104698 4.477362419067923 2.874249823078104 0 0 0
1246 5 48.51284141815 2.240710644452807 0.02201972993918752 0 0 0
1096 5 52.393868731602 2.2407106444528075 0.022019729939187934 -1 0 0
1249 1 50.453355074876 3.359705421510949 1.4486924973631325 -1 0 0
1251 5 50.453355074876 5.601778890683808 0.022019729939187077 -1 0 0
1098 4 50.453355074876 1.1162941728369242 2.8742498230781055 -1 0 0
1403 4 48.51284141815 4.477362419067925 2.874249823078106 0 0 0
1253 4 52.393868731602 4.477362419067925 2.8742498230781055 -1 0 0
1255 1 54.334382388327995 3.3597054215109488 1.4486924973631328 -1 0 0
1102 5 56.274896045054 2.240710644452808 0.02201972993918856 -1 0 0
1261 1 58.21540970178 3.3597054215109488 1.4486924973631328 -1 0 0
1257 5 54.334382388328 5.601778890683809 0.022019729939188055 -1 0 0
1263 5 58.215409701780004 5.601778890683808 0.022019729939187316 -1 0 0
1104 4 54.334382388328 1.1162941728369236 2.8742498230781046 -1 0 0
1110 4 58.215409701780004 1.116294172836924 2.874249823078105 -1 0 0
1259 4 56.274896045054 4.477362419067924 2.8742498230781046 -1 0 0
1108 5 60.155923358506 2.2407106444528075 0.022019729939188142 -1 0 0
1267 1 62.096437015232 3.3597054215109488 1.4486924973631328 -1 0 0
1114 5 64.036950671958 2.240710644452807 0.022019729939187514 -1 0 0
1269 5 62.096437015232006 5.601778890683809 0.022019729939188482 -1 0 0
1116 4 62.096437015232006 1.1162941728369233 2.874249823078104 -1 0 0
1265 4 60.155923358506 4.477362419067925 2.8742498230781055 -1 0 0
1271 4 64.036950671958 4.477362419067925 2.874249823078106 -1 0 0
1273 1 65.97746432868401 3.3597054215109488 1.4486924973631328 -1 0 0
1120 5 67.91797798541 2.2407106444528084 0.022019729939189058 -1 0 0
1279 1 69.858491642136 3.359705421510949 1.4486924973631328 -1 0 0
1275 5 65.97746432868401 5.601778890683808 0.02201972993918621 -1 0 0
1281 5 69.858491642136 5.601778890683808 0.022019729939187816 -1 0 0
1122 4 65.97746432868401 1.1162941728369247 2.874249823078106 -1 0 0
1128 4 69.858491642136 1.1162941728369238 2.8742498230781046 -1 0 0
1277 4 67.91797798541 4.477362419067924 2.8742498230781046 -1 0 0
1126 5 71.799005298862 2.240710644452807 0.02201972993918698 -1 0 0
1285 1 73.739518955588 3.359705421510949 1.4486924973631325 -1 0 0
1132 5 75.680032612314 2.2407106444528084 0.022019729939188815 -1 0 0
1287 5 73.739518955588 5.601778890683808 0.0220197299391877 -1 0 0
1134 4 73.739518955588 1.1162941728369238 2.8742498230781046 -1 0 0
1283 4 71.799005298862 4.477362419067925 2.874249823078107 -1 0 0
1289 4 75.680032612314 4.477362419067924 2.874249823078105 -1 0 0
1291 1 77.62054626903999 3.3597054215109488 1.448692497363133 -1 0 0
1138 5 79.561059925766 2.2407106444528075 0.022019729939188232 -1 0 0
1297 1 81.501573582492 3.359705421510949 1.4486924973631325 -1 0 0
1293 5 77.62054626904 5.60177889068381 0.022019729939188267 -1 0 0
1299 5 81.501573582492 5.601778890683807 0.022019729939186418 -1 0 0
1140 4 77.62054626904 1.1162941728369233 2.874249823078104 -1 0 0
1146 4 81.501573582492 1.1162941728369247 2.8742498230781064 -1 0 0
1295 4 79.561059925766 4.477362419067925 2.874249823078105 -1 0 0
1144 5 83.442087239218 2.2407106444528075 0.02201972993918823 -1 0 0
1303 1 85.38260089594401 3.3597054215109488 1.448692497363133 -1 0 0
1150 5 87.32311455267 2.2407106444528084 0.022019729939188812 -1 0 0
1305 5 85.382600895944 5.60177889068381 0.02201972993918827 -1 0 0
1152 4 85.382600895944 1.1162941728369233 2.874249823078104 -1 0 0
1301 4 83.442087239218 4.477362419067925 2.874249823078105 -1 0 0
1307 4 87.32311455267 4.477362419067924 2.874249823078105 -1 0 0
1309 1 89.263628209396 3.359705421510949 1.4486924973631325 -1 0 0
1156 5 91.204141866122 2.240710644452807 0.02201972993918699 -1 0 0
1315 1 93.144655522848 3.3597054215109488 1.4486924973631328 -1 0 0
1311 5 89.263628209396 5.601778890683808 0.022019729939187698 -1 0 0
1317 5 93.144655522848 5.601778890683808 0.02201972993918771 -1 0 0
1158 4 89.263628209396 1.1162941728369238 2.8742498230781046 -1 0 0
1164 4 93.144655522848 1.1162941728369238 2.874249823078105 -1 0 0
1313 4 91.204141866122 4.477362419067925 2.874249823078107 -1 0 0
1162 5 95.085169179574 2.2407106444528084 0.02201972993918882 -1 0 0
1321 1 97.02568283629999 3.3597054215109488 1.448692497363133 -1 0 0
1168 5 98.966196493026 2.2407106444528075 0.022019729939188208 -1 0 0
1323 5 97.0256828363 5.60177889068381 0.022019729939188267 -1 0 0
1170 4 97.0256828363 1.1162941728369233 2.874249823078104 -1 0 0
1319 4 95.085169179574 4.477362419067924 2.874249823078105 -1 0 0
1325 4 98.966196493026 4.477362419067925 2.874249823078105 -1 0 0
1328 1 1.940513656726 6.720773667741949 1.4486924973631328 0 0 0
1334 1 5.821540970177999 6.720773667741948 1.4486924973631328 0 0 0
1330 5 1.9405136567259995 8.962847136914808 0.022019729939187292 0 0 0
1483 1 1.1696503696698346e-16 10.08184191397295 1.448692497363132 0 0 0
1489 1 3.881027313451999 10.08184191397295 1.448692497363132 0 0 0
1336 5 5.821540970177999 8.962847136914808 0.02201972993918726 0 0 0
1332 4 8.612503143119753e-16 7.838430665298925 2.874249823078106 0 0 0
1338 4 3.8810273134519995 7.838430665298925 2.8742498230781046 0 0 0
1487 4 1.9405136567259993 11.199498911529924 2.874249823078105 0 0 0
1493 4 5.821540970177999 11.199498911529924 2.8742498230781055 0 0 0
1340 1 9.702568283629997 6.720773667741949 1.4486924973631328 0 0 0
1495 1 7.762054626903999 10.08184191397295 1.448692497363132 0 0 0
1342 5 9.702568283629999 8.962847136914808 0.022019729939187365 0 0 0
1501 1 11.643081940355998 10.08184191397295 1.4486924973631319 0 0 0
1344 4 7.762054626903999 7.838430665298925 2.8742498230781046 0 0 0
1350 4 11.643081940355998 7.838430665298925 2.8742498230781055 0 0 0
1499 4 9.702568283629999 11.199498911529924 2.8742498230781055 0 0 0
1346 1 13.583595597081995 6.720773667741948 1.448692497363133 0 0 0
1352 1 17.464622910533997 6.720773667741948 1.4486924973631328 0 0 0
1348 5 13.583595597081997 8.962847136914808 0.022019729939186963 0 0 0
1507 1 15.524109253808 10.08184191397295 1.4486924973631319 0 0 0
1354 5 17.464622910534 8.962847136914808 0.02201972993918852 0 0 0
1356 4 15.524109253807998 7.838430665298923 2.8742498230781037 0 0 0
1505 4 13.583595597081997 11.199498911529924 2.8742498230781055 0 0 0
1511 4 17.464622910534 11.199498911529924 2.874249823078104 0 0 0
1358 1 21.345650223986 6.720773667741948 1.448692497363133 0 0 0
1513 1 19.40513656726 10.08184191397295 1.4486924973631319 0 0 0
1360 5 21.345650223986 8.962847136914807 0.022019729939186074 0 0 0
1519 1 23.286163880711996 10.08184191397295 1.4486924973631319 0 0 0
1362 4 19.40513656726 7.838430665298924 2.874249823078105 0 0 0
1368 4 23.286163880711996 7.838430665298925 2.874249823078105 0 0 0
1517 4 21.345650223986 11.199498911529924 2.8742498230781064 0 0 0
1364 1 25.226677537438 6.720773667741948 1.4486924973631328 0 0 0
1370 1 29.107704850890002 6.720773667741948 1.448692497363133 0 0 0
1366 5 25.226677537437997 8.962847136914808 0.022019729939188524 0 0 0
1525 1 27.167191194163998 10.08184191397295 1.4486924973631319 0 0 0
1372 5 29.107704850890002 8.962847136914808 0.022019729939187008 0 0 0
1374 4 27.167191194164 7.838430665298923 2.8742498230781037 0 0 0
1523 4 25.226677537437997 11.199498911529924 2.874249823078104 0 0 0
1529 4 29.107704850890002 11.199498911529924 2.8742498230781055 0 0 0
1376 1 32.988732164342 6.720773667741948 1.448692497363133 0 0 0
1531 1 31.048218507616 10.08184191397295 1.448692497363132 0 0 0
1378 5 32.988732164342 8.962847136914808 0.022019729939186626 0 0 0
1537 1 34.929245821068 10.08184191397295 1.4486924973631319 0 0 0
1380 4 31.048218507616 7.838430665298925 2.8742498230781064 0 0 0
1386 4 34.929245821068 7.838430665298923 2.8742498230781033 0 0 0
1535 4 32.988732164342 11.199498911529924 2.874249823078106 0 0 0
1382 1 36.869759477794 6.720773667741948 1.4486924973631328 0 0 0
1388 1 40.750786791246 6.720773667741948 1.448692497363133 0 0 0
1384 5 36.869759477794 8.962847136914808 0.022019729939188857 0 0 0
1543 1 38.81027313452 10.08184191397295 1.448692497363132 0 0 0
1390 5 40.750786791246 8.962847136914807 0.022019729939186036 0 0 0
1392 4 38.81027313452 7.838430665298924 2.8742498230781055 0 0 0
1541 4 36.869759477794 11.199498911529922 2.8742498230781037 0 0 0
1547 4 40.750786791246 11.199498911529924 2.874249823078107 0 0 0
1394 1 44.631814104698 6.720773667741948 1.4486924973631328 0 0 0
1549 1 42.691300447972 10.08184191397295 1.4486924973631319 0 0 0
1396 5 44.631814104698 8.962847136914808 0.02201972993918893 0 0 0
1555 1 46.572327761424 10.08184191397295 1.4486924973631319 0 0 0
1398 4 42.691300447972 7.838430665298925 2.8742498230781055 0 0 0
1404 4 46.572327761424 7.838430665298923 2.8742498230781033 0 0 0
1553 4 44.631814104698 11.199498911529922 2.8742498230781037 0 0 0
1400 1 48.51284141815 6.720773667741949 1.4486924973631328 0 0 0
1250 1 52.393868731602005 6.720773667741949 1.448692497363133 -1 0 0
1402 5 48.51284141815 8.962847136914808 0.02201972993918655 0 0 0
1252 5 52.393868731602 8.962847136914808 0.02201972993918714 -1 0 0
1405 1 50.453355074876 10.08184191397295 1.448692497363132 -1 0 0
1254 4 50.453355074876 7.838430665298925 2.8742498230781055 -1 0 0
1559 4 48.51284141815 11.199498911529924 2.874249823078106 0 0 0
1409 4 52.393868731602 11.199498911529924 2.8742498230781055 -1 0 0
1256 1 56.27489604505401 6.720773667741949 1.4486924973631328 -1 0 0
1411 1 54.334382388327995 10.08184191397295 1.448692497363132 -1 0 0
1258 5 56.274896045054 8.962847136914808 0.022019729939187903 -1 0 0
1417 1 58.21540970178 10.08184191397295 1.4486924973631323 -1 0 0
1260 4 54.334382388328 7.838430665298924 2.874249823078104 -1 0 0
1266 4 58.215409701780004 7.838430665298925 2.874249823078105 -1 0 0
1415 4 56.274896045054 11.199498911529924 2.874249823078105 -1 0 0
1262 1 60.155923358506 6.720773667741948 1.4486924973631328 -1 0 0
1268 1 64.03695067195801 6.720773667741948 1.448692497363133 -1 0 0
1264 5 60.155923358506 8.962847136914808 0.022019729939187518 -1 0 0
1423 1 62.096437015232 10.08184191397295 1.4486924973631319 -1 0 0
1270 5 64.036950671958 8.962847136914808 0.022019729939186748 -1 0 0
1272 4 62.096437015232006 7.838430665298924 2.874249823078104 -1 0 0
1421 4 60.155923358506 11.199498911529924 2.8742498230781055 -1 0 0
1427 4 64.036950671958 11.199498911529924 2.8742498230781055 -1 0 0
1274 1 67.91797798541 6.720773667741948 1.4486924973631328 -1 0 0
1429 1 65.97746432868401 10.08184191397295 1.448692497363132 -1 0 0
1276 5 67.91797798541 8.962847136914808 0.022019729939188337 -1 0 0
1435 1 69.858491642136 10.08184191397295 1.448692497363132 -1 0 0
1278 4 65.97746432868401 7.838430665298925 2.874249823078106 -1 0 0
1284 4 69.858491642136 7.838430665298924 2.8742498230781046 -1 0 0
1433 4 67.91797798541 11.199498911529924 2.8742498230781046 -1 0 0
1280 1 71.799005298862 6.720773667741948 1.448692497363133 -1 0 0
1286 1 75.68003261231401 6.720773667741948 1.4486924973631328 -1 0 0
1282 5 71.799005298862 8.962847136914807 0.022019729939186123 -1 0 0
1441 1 73.739518955588 10.08184191397295 1.448692497363132 -1 0 0
1288 5 75.680032612314 8.962847136914808 0.022019729939188118 -1 0 0
1290 4 73.739518955588 7.838430665298924 2.8742498230781046 -1 0 0
1439 4 71.799005298862 11.199498911529924 2.8742498230781064 -1 0 0
1445 4 75.680032612314 11.199498911529924 2.8742498230781046 -1 0 0
1292 1 79.561059925766 6.720773667741948 1.448692497363133 -1 0 0
1447 1 77.62054626903999 10.08184191397295 1.4486924973631319 -1 0 0
1294 5 79.561059925766 8.962847136914808 0.022019729939187316 -1 0 0
1453 1 81.501573582492 10.08184191397295 1.448692497363132 -1 0 0
1296 4 77.62054626904 7.838430665298924 2.874249823078104 -1 0 0
1302 4 81.501573582492 7.838430665298925 2.8742498230781064 -1 0 0
1451 4 79.561059925766 11.199498911529924 2.874249823078105 -1 0 0
1298 1 83.442087239218 6.720773667741948 1.448692497363133 -1 0 0
1304 1 87.32311455266999 6.720773667741948 1.4486924973631328 -1 0 0
1300 5 83.442087239218 8.962847136914808 0.02201972993918731 -1 0 0
1459 1 85.38260089594401 10.08184191397295 1.4486924973631319 -1 0 0
1306 5 87.32311455267 8.962847136914808 0.022019729939188118 -1 0 0
1308 4 85.382600895944 7.838430665298924 2.874249823078104 -1 0 0
1457 4 83.442087239218 11.199498911529924 2.874249823078105 -1 0 0
1463 4 87.32311455267 11.199498911529924 2.8742498230781046 -1 0 0
1310 1 91.204141866122 6.720773667741948 1.448692497363133 -1 0 0
1465 1 89.263628209396 10.08184191397295 1.448692497363132 -1 0 0
1312 5 91.204141866122 8.962847136914807 0.022019729939186116 -1 0 0
1471 1 93.144655522848 10.08184191397295 1.448692497363132 -1 0 0
1314 4 89.263628209396 7.838430665298924 2.8742498230781046 -1 0 0
1320 4 93.144655522848 7.838430665298924 2.8742498230781046 -1 0 0
1469 4 91.204141866122 11.199498911529924 2.8742498230781064 -1 0 0
1316 1 95.08516917957401 6.720773667741948 1.4486924973631328 -1 0 0
1322 1 98.966196493026 6.720773667741948 1.448692497363133 -1 0 0
1318 5 95.085169179574 8.962847136914808 0.02201972993918812 -1 0 0
1477 1 97.02568283629999 10.08184191397295 1.4486924973631319 -1 0 0
1324 5 98.966196493026 8.962847136914808 0.022019729939187355 -1 0 0
1326 4 97.0256828363 7.838430665298924 2.874249823078104 -1 0 0
1475 4 95.085169179574 11.199498911529924 2.8742498230781046 -1 0 0
1481 4 98.966196493026 11.199498911529924 2.874249823078105 -1 0 0
1485 5 9.188254407434245e-16 12.32391538314581 0.02201972993918723 0 0 0
1484 1 1.940513656726 13.44291016020395 1.4486924973631334 0 0 0
1491 5 3.8810273134519995 12.32391538314581 0.022019729939187698 0 0 0
1490 1 5.821540970177999 13.44291016020395 1.4486924973631332 0 0 0
1486 5 1.9405136567259995 15.684983629376807 0.02201972993918867 0 0 0
1492 5 5.821540970177999 15.684983629376807 0.022019729939188267 0 0 0
1639 1 2.643052415833923e-16 16.80397840643495 1.448692497363133 0 0 0
1645 1 3.881027313451999 16.80397840643495 1.4486924973631332 0 0 0
1488 4 8.834422957480271e-16 14.560567157760925 2.8742498230781064 0 0 0
1494 4 3.8810273134519995 14.560567157760925 2.8742498230781055 0 0 0
1497 5 7.762054626903998 12.32391538314581 0.022019729939187698 0 0 0
1496 1 9.702568283629997 13.44291016020395 1.4486924973631334 0 0 0
1503 5 11.643081940355998 12.32391538314581 0.022019729939187205 0 0 0
1498 5 9.702568283629999 15.684983629376807 0.022019729939188604 0 0 0
1651 1 7.762054626903999 16.80397840643495 1.4486924973631332 0 0 0
1657 1 11.643081940355998 16.80397840643495 1.448692497363133 0 0 0
1500 4 7.762054626903999 14.560567157760925 2.8742498230781055 0 0 0
1506 4 11.643081940355998 14.560567157760925 2.874249823078106 0 0 0
1502 1 13.583595597081995 13.44291016020395 1.4486924973631337 0 0 0
1509 5 15.524109253807998 12.32391538314581 0.022019729939188916 0 0 0
1508 1 17.464622910533997 13.44291016020395 1.4486924973631334 0 0 0
1504 5 13.583595597081997 15.684983629376807 0.0220197299391883 0 0 0
1510 5 17.464622910534 15.68498362937681 0.02201972993918966 0 0 0
1663 1 15.524109253807998 16.80397840643495 1.4486924973631328 0 0 0
1512 4 15.524109253807998 14.560567157760925 2.8742498230781046 0 0 0
1515 5 19.40513656726 12.32391538314581 0.02201972993918764 0 0 0
1514 1 21.345650223986 13.44291016020395 1.4486924973631337 0 0 0
1521 5 23.286163880711996 12.32391538314581 0.022019729939187636 0 0 0
1516 5 21.345650223986 15.684983629376807 0.022019729939187275 0 0 0
1669 1 19.40513656726 16.80397840643495 1.4486924973631328 0 0 0
1675 1 23.286163880711996 16.80397840643495 1.4486924973631328 0 0 0
1518 4 19.40513656726 14.560567157760925 2.874249823078106 0 0 0
1524 4 23.286163880711996 14.560567157760925 2.8742498230781055 0 0 0
1520 1 25.226677537438 13.44291016020395 1.4486924973631334 0 0 0
1527 5 27.167191194164 12.32391538314581 0.02201972993918892 0 0 0
1526 1 29.107704850890002 13.44291016020395 1.4486924973631337 0 0 0
1522 5 25.226677537437997 15.68498362937681 0.022019729939189655 0 0 0
1528 5 29.107704850890002 15.684983629376807 0.022019729939188337 0 0 0
1681 1 27.167191194163998 16.80397840643495 1.4486924973631328 0 0 0
1530 4 27.167191194164 14.560567157760925 2.8742498230781046 0 0 0
1533 5 31.048218507616 12.32391538314581 0.022019729939186702 0 0 0
1532 1 32.988732164342 13.44291016020395 1.4486924973631337 0 0 0
1539 5 34.929245821068 12.323915383145811 0.022019729939189315 0 0 0
1534 5 32.988732164342 15.684983629376807 0.022019729939187962 0 0 0
1687 1 31.048218507616 16.80397840643495 1.4486924973631328 0 0 0
1693 1 34.929245821068 16.80397840643495 1.4486924973631328 0 0 0
1536 4 31.048218507616 14.560567157760927 2.874249823078107 0 0 0
1542 4 34.929245821068 14.560567157760925 2.874249823078104 0 0 0
1538 1 36.869759477794 13.44291016020395 1.4486924973631334 0 0 0
1545 5 38.81027313452 12.32391538314581 0.02201972993918726 0 0 0
1544 1 40.750786791246 13.44291016020395 1.4486924973631337 0 0 0
1540 5 36.869759477794 15.68498362937681 0.022019729939189995 0 0 0
1546 5 40.750786791246 15.684983629376807 0.02201972993918723 0 0 0
1699 1 38.81027313452 16.80397840643495 1.448692497363133 0 0 0
1548 4 38.81027313452 14.560567157760925 2.874249823078106 0 0 0
1551 5 42.691300447972 12.32391538314581 0.022019729939187264 0 0 0
1550 1 44.631814104698 13.44291016020395 1.4486924973631334 0 0 0
1557 5 46.572327761424 12.323915383145811 0.02201972993918932 0 0 0
1552 5 44.631814104698 15.68498362937681 0.02201972993918999 0 0 0
1705 1 42.691300447972 16.80397840643495 1.448692497363133 0 0 0
1711 1 46.572327761424 16.80397840643495 1.4486924973631328 0 0 0
1554 4 42.691300447972 14.560567157760925 2.874249823078106 0 0 0
1560 4 46.572327761424 14.560567157760925 2.874249823078104 0 0 0
1556 1 48.51284141815 13.44291016020395 1.4486924973631337 0 0 0
1407 5 50.453355074876 12.32391538314581 0.022019729939187372 -1 0 0
1406 1 52.393868731602005 13.44291016020395 1.4486924973631334 -1 0 0
1558 5 48.51284141815 15.684983629376807 0.022019729939187948 0 0 0
1408 5 52.393868731602 15.684983629376807 0.022019729939188385 -1 0 0
1561 1 50.453355074876 16.80397840643495 1.448692497363133 -1 0 0
1410 4 50.453355074876 14.560567157760925 2.874249823078106 -1 0 0
1413 5 54.334382388328 12.32391538314581 0.022019729939188156 -1 0 0
1412 1 56.27489604505401 13.44291016020395 1.4486924973631332 -1 0 0
1419 5 58.215409701780004 12.32391538314581 0.02201972993918737 -1 0 0
1414 5 56.274896045054 15.68498362937681 0.022019729939188992 -1 0 0
1567 1 54.334382388327995 16.80397840643495 1.4486924973631334 -1 0 0
1573 1 58.21540970178 16.80397840643495 1.4486924973631332 -1 0 0
1416 4 54.334382388328 14.560567157760925 2.874249823078105 -1 0 0
1422 4 58.215409701780004 14.560567157760925 2.8742498230781055 -1 0 0
1418 1 60.155923358506 13.44291016020395 1.4486924973631334 -1 0 0
1425 5 62.096437015232006 12.32391538314581 0.022019729939188652 -1 0 0
1424 1 64.03695067195801 13.44291016020395 1.4486924973631337 -1 0 0
1420 5 60.155923358506 15.684983629376807 0.022019729939188642 -1 0 0
1426 5 64.036950671958 15.684983629376807 0.022019729939187934 -1 0 0
1579 1 62.096437015232 16.80397840643495 1.448692497363133 -1 0 0
1428 4 62.096437015232006 14.560567157760923 2.874249823078105 -1 0 0
1431 5 65.97746432868401 12.32391538314581 0.02201972993918648 -1 0 0
1430 1 67.91797798541 13.44291016020395 1.4486924973631334 -1 0 0
1437 5 69.858491642136 12.32391538314581 0.022019729939188132 -1 0 0
1432 5 67.91797798541 15.68498362937681 0.022019729939189537 -1 0 0
1585 1 65.97746432868401 16.80397840643495 1.4486924973631328 -1 0 0
1591 1 69.858491642136 16.80397840643495 1.4486924973631328 -1 0 0
1434 4 65.97746432868401 14.560567157760925 2.874249823078107 -1 0 0
1440 4 69.858491642136 14.560567157760925 2.874249823078105 -1 0 0
1436 1 71.799005298862 13.44291016020395 1.4486924973631337 -1 0 0
1443 5 73.739518955588 12.32391538314581 0.02201972993918802 -1 0 0
1442 1 75.68003261231401 13.44291016020395 1.4486924973631334 -1 0 0
1438 5 71.799005298862 15.684983629376807 0.022019729939187313 -1 0 0
1444 5 75.680032612314 15.68498362937681 0.02201972993918925 -1 0 0
1597 1 73.739518955588 16.80397840643495 1.4486924973631328 -1 0 0
1446 4 73.739518955588 14.560567157760925 2.874249823078105 -1 0 0
1449 5 77.62054626904 12.32391538314581 0.022019729939188583 -1 0 0
1448 1 79.561059925766 13.44291016020395 1.4486924973631337 -1 0 0
1455 5 81.501573582492 12.32391538314581 0.02201972993918677 -1 0 0
1450 5 79.561059925766 15.684983629376807 0.02201972993918866 -1 0 0
1603 1 77.62054626903999 16.80397840643495 1.4486924973631328 -1 0 0
1609 1 81.501573582492 16.80397840643495 1.4486924973631328 -1 0 0
1452 4 77.62054626904 14.560567157760925 2.8742498230781046 -1 0 0
1458 4 81.501573582492 14.560567157760927 2.874249823078107 -1 0 0
1454 1 83.442087239218 13.44291016020395 1.4486924973631337 -1 0 0
1461 5 85.382600895944 12.32391538314581 0.022019729939188583 -1 0 0
1460 1 87.32311455266999 13.44291016020395 1.4486924973631334 -1 0 0
1456 5 83.442087239218 15.684983629376807 0.022019729939188663 -1 0 0
1462 5 87.32311455267 15.68498362937681 0.022019729939189246 -1 0 0
1615 1 85.38260089594401 16.80397840643495 1.4486924973631328 -1 0 0
1464 4 85.382600895944 14.560567157760925 2.8742498230781046 -1 0 0
1467 5 89.263628209396 12.32391538314581 0.02201972993918802 -1 0 0
1466 1 91.204141866122 13.44291016020395 1.4486924973631337 -1 0 0
1473 5 93.144655522848 12.32391538314581 0.022019729939188028 -1 0 0
1468 5 91.204141866122 15.684983629376807 0.022019729939187316 -1 0 0
1621 1 89.263628209396 16.80397840643495 1.4486924973631328 -1 0 0
1627 1 93.144655522848 16.80397840643495 1.4486924973631328 -1 0 0
1470 4 89.263628209396 14.560567157760925 2.874249823078105 -1 0 0
1476 4 93.144655522848 14.560567157760925 2.874249823078105 -1 0 0
1472 1 95.08516917957401 13.44291016020395 1.4486924973631334 -1 0 0
1479 5 97.0256828363 12.32391538314581 0.022019729939188583 -1 0 0
1478 1 98.966196493026 13.44291016020395 1.4486924973631337 -1 0 0
1474 5 95.085169179574 15.68498362937681 0.022019729939189252 -1 0 0
1480 5 98.966196493026 15.684983629376807 0.022019729939188708 -1 0 0
1633 1 97.02568283629999 16.80397840643495 1.4486924973631328 -1 0 0
1482 4 97.0256828363 14.560567157760925 2.8742498230781046 -1 0 0
1641 5 8.166797879637188e-16 19.04605187560781 0.022019729939186754 0 0 0
1647 5 3.8810273134519995 19.04605187560781 0.02201972993918735 0 0 0
1640 1 1.9405136567260002 20.16504665266595 1.448692497363133 0 0 0
1646 1 5.821540970177999 20.16504665266595 1.448692497363133 0 0 0
1642 5 1.9405136567259995 22.40712012183881 0.022019729939187518 0 0 0
1795 1 4.976848496362966e-16 23.52611489889695 1.4486924973631328 0 0 0
1801 1 3.881027313451999 23.52611489889695 1.448692497363133 0 0 0
1648 5 5.821540970177999 22.40712012183881 0.022019729939187264 0 0 0
1643 4 1.9405136567259995 17.921635403991925 2.8742498230781055 0 0 0
1649 4 5.821540970177999 17.921635403991925 2.8742498230781055 0 0 0
1644 4 9.3255569728683e-16 21.282703650222924 2.874249823078106 0 0 0
1650 4 3.8810273134519995 21.282703650222924 2.8742498230781055 0 0 0
1653 5 7.762054626903998 19.04605187560781 0.022019729939187348 0 0 0
1659 5 11.643081940355998 19.04605187560781 0.022019729939186803 0 0 0
1652 1 9.702568283629997 20.16504665266595 1.448692497363133 0 0 0
1807 1 7.762054626904 23.52611489889695 1.448692497363133 0 0 0
1654 5 9.702568283629999 22.40712012183881 0.022019729939187507 0 0 0
1813 1 11.643081940355998 23.52611489889695 1.4486924973631328 0 0 0
1655 4 9.702568283629999 17.921635403991925 2.8742498230781055 0 0 0
1656 4 7.762054626903999 21.282703650222924 2.8742498230781055 0 0 0
1662 4 11.643081940355998 21.282703650222924 2.874249823078106 0 0 0
1665 5 15.524109253807998 19.046051875607812 0.02201972993918858 0 0 0
1658 1 13.583595597081995 20.16504665266595 1.4486924973631328 0 0 0
1664 1 17.464622910534 20.16504665266595 1.448692497363133 0 0 0
1660 5 13.583595597081997 22.40712012183881 0.022019729939187306 0 0 0
1819 1 15.524109253807998 23.52611489889695 1.448692497363133 0 0 0
1666 5 17.464622910534 22.407120121838812 0.02201972993918868 0 0 0
1661 4 13.583595597081997 17.921635403991925 2.8742498230781055 0 0 0
1667 4 17.464622910534 17.921635403991925 2.874249823078104 0 0 0
1668 4 15.524109253807998 21.282703650222924 2.874249823078104 0 0 0
1671 5 19.40513656726 19.04605187560781 0.02201972993918727 0 0 0
1677 5 23.286163880711996 19.04605187560781 0.022019729939187264 0 0 0
1670 1 21.345650223986 20.16504665266595 1.4486924973631328 0 0 0
1825 1 19.40513656726 23.52611489889695 1.4486924973631328 0 0 0
1672 5 21.345650223986 22.40712012183881 0.022019729939186397 0 0 0
1831 1 23.286163880711996 23.52611489889695 1.4486924973631328 0 0 0
1673 4 21.345650223986 17.921635403991925 2.8742498230781064 0 0 0
1674 4 19.40513656726 21.282703650222924 2.8742498230781055 0 0 0
1680 4 23.286163880711996 21.282703650222924 2.8742498230781055 0 0 0
1683 5 27.167191194164 19.046051875607812 0.02201972993918859 0 0 0
1676 1 25.226677537438 20.16504665266595 1.448692497363133 0 0 0
1682 1 29.107704850890002 20.16504665266595 1.4486924973631328 0 0 0
1678 5 25.226677537437997 22.407120121838812 0.022019729939188663 0 0 0
1837 1 27.167191194163998 23.52611489889695 1.448692497363133 0 0 0
1684 5 29.107704850890002 22.40712012183881 0.022019729939187348 0 0 0
1679 4 25.226677537437997 17.921635403991925 2.874249823078104 0 0 0
1685 4 29.107704850890002 17.921635403991925 2.8742498230781055 0 0 0