LAMMPS data file via write_data, version 29 Aug 2024, timestep = 0, units = metal

2340 atoms
3 atom types

0 100.906710149752 xlo xhi
0 100.83204738693 ylo yhi
0 17.86519842258 zlo zhi

Masses

1 192.217
2 127.6
3 127.6

Atoms # atomic

1172 1 1.9405136567259973 0 1.4510862213120008 0 0 0
1178 1 5.821540970177999 0 1.4510862213120008 0 0 0
1184 1 9.70256828363 0 1.4510862213120008 0 0 0
1190 1 13.583595597081995 0 1.4510862213120008 0 0 0
1196 1 17.464622910534004 0 1.4510862213120008 0 0 0
1202 1 21.345650223986 0 1.4510862213120008 0 0 0
1208 1 25.226677537437993 0 1.4510862213120008 0 0 0
1214 1 29.107704850890002 0 1.4510862213120008 0 0 0
1220 1 32.988732164342 0 1.4510862213120008 0 0 0
1226 1 36.869759477794005 0 1.4510862213120008 0 0 0
1232 1 40.750786791246 0 1.4510862213120008 0 0 0
1238 1 44.631814104697995 0 1.4510862213120008 0 0 0
1244 1 48.51284141815 0 1.4510862213120008 0 0 0
1094 1 52.393868731602 0 1.4510862213120008 -1 0 0
1100 1 56.274896045054 0 1.4510862213120008 -1 0 0
1106 1 60.155923358506 0 1.4510862213120008 -1 0 0
1112 1 64.03695067195801 0 1.4510862213120008 -1 0 0
1118 1 67.91797798541 0 1.4510862213120008 -1 0 0
1124 1 71.799005298862 0 1.4510862213120008 -1 0 0
1130 1 75.680032612314 0 1.4510862213120008 -1 0 0
1136 1 79.561059925766 0 1.4510862213120008 -1 0 0
1142 1 83.442087239218 0 1.4510862213120008 -1 0 0
1148 1 87.32311455267 0 1.4510862213120008 -1 0 0
1154 1 91.204141866122 0 1.4510862213120008 -1 0 0
1160 1 95.085169179574 0 1.4510862213120008 -1 0 0
1166 1 98.966196493026 0 1.4510862213120008 -1 0 0
1174 3 1.9405136567259973 2.2407121641539973 0 0 0 0
1327 1 0 3.3610682462309995 1.4510862213120008 0 0 0
1333 1 3.8810273134520017 3.3610682462309995 1.4510862213120008 0 0 0
1180 3 5.821540970177999 2.2407121641539973 0 0 0 0
1339 1 7.762054626903996 3.3610682462309995 1.4510862213120008 0 0 0
1186 3 9.70256828363 2.2407121641539973 0 0 0 0
1345 1 11.643081940355998 3.3610682462309995 1.4510862213120008 0 0 0
1192 3 13.583595597081995 2.2407121641539973 0 0 0 0
1351 1 15.524109253807993 3.3610682462309995 1.4510862213120008 0 0 0
1198 3 17.464622910534004 2.2407121641539973 0 0 0 0
1357 1 19.40513656726 3.3610682462309995 1.4510862213120008 0 0 0
1204 3 21.345650223986 2.2407121641539973 0 0 0 0
1363 1 23.286163880711996 3.3610682462309995 1.4510862213120008 0 0 0
1210 3 25.226677537437993 2.2407121641539973 0 0 0 0
1369 1 27.167191194164005 3.3610682462309995 1.4510862213120008 0 0 0
1216 3 29.107704850890002 2.2407121641539973 0 0 0 0
1375 1 31.048218507616 3.3610682462309995 1.4510862213120008 0 0 0
1222 3 32.988732164342 2.2407121641539973 0 0 0 0
1381 1 34.929245821067994 3.3610682462309995 1.4510862213120008 0 0 0
1228 3 36.869759477794005 2.2407121641539973 0 0 0 0
1387 1 38.81027313452 3.3610682462309995 1.4510862213120008 0 0 0
1234 3 40.750786791246 2.2407121641539973 0 0 0 0
1393 1 42.691300447972 3.3610682462309995 1.4510862213120008 0 0 0
1240 3 44.631814104697995 2.2407121641539973 0 0 0 0
1399 1 46.572327761424006 3.3610682462309995 1.4510862213120008 0 0 0
1246 3 48.51284141815 2.2407121641539973 0 0 0 0
1096 3 52.393868731602 2.2407121641539973 0 -1 0 0
1249 1 50.453355074876 3.3610682462309995 1.4510862213120008 -1 0 0
1255 1 54.334382388328 3.3610682462309995 1.4510862213120008 -1 0 0
1102 3 56.274896045054 2.2407121641539973 0 -1 0 0
1261 1 58.215409701780004 3.3610682462309995 1.4510862213120008 -1 0 0
1108 3 60.155923358506 2.2407121641539973 0 -1 0 0
1267 1 62.096437015232 3.3610682462309995 1.4510862213120008 -1 0 0
1114 3 64.03695067195801 2.2407121641539973 0 -1 0 0
1273 1 65.977464328684 3.3610682462309995 1.4510862213120008 -1 0 0
1120 3 67.91797798541 2.2407121641539973 0 -1 0 0
1279 1 69.858491642136 3.3610682462309995 1.4510862213120008 -1 0 0
1126 3 71.799005298862 2.2407121641539973 0 -1 0 0
1285 1 73.739518955588 3.3610682462309995 1.4510862213120008 -1 0 0
1132 3 75.680032612314 2.2407121641539973 0 -1 0 0
1291 1 77.62054626904 3.3610682462309995 1.4510862213120008 -1 0 0
1138 3 79.561059925766 2.2407121641539973 0 -1 0 0
1297 1 81.501573582492 3.3610682462309995 1.4510862213120008 -1 0 0
1144 3 83.442087239218 2.2407121641539973 0 -1 0 0
1303 1 85.382600895944 3.3610682462309995 1.4510862213120008 -1 0 0
1150 3 87.32311455267 2.2407121641539973 0 -1 0 0
1309 1 89.263628209396 3.3610682462309995 1.4510862213120008 -1 0 0
1156 3 91.204141866122 2.2407121641539973 0 -1 0 0
1315 1 93.144655522848 3.3610682462309995 1.4510862213120008 -1 0 0
1162 3 95.085169179574 2.2407121641539973 0 -1 0 0
1321 1 97.0256828363 3.3610682462309995 1.4510862213120008 -1 0 0
1168 3 98.966196493026 2.2407121641539973 0 -1 0 0
1329 3 0 5.601780410384997 0 0 0 0
1335 3 3.8810273134520017 5.601780410384997 0 0 0 0
1341 3 7.762054626903996 5.601780410384997 0 0 0 0
1347 3 11.643081940355998 5.601780410384997 0 0 0 0
1353 3 15.524109253807993 5.601780410384997 0 0 0 0
1359 3 19.40513656726 5.601780410384997 0 0 0 0
1365 3 23.286163880711996 5.601780410384997 0 0 0 0
1371 3 27.167191194164005 5.601780410384997 0 0 0 0
1377 3 31.048218507616 5.601780410384997 0 0 0 0
1383 3 34.929245821067994 5.601780410384997 0 0 0 0
1389 3 38.81027313452 5.601780410384997 0 0 0 0
1395 3 42.691300447972 5.601780410384997 0 0 0 0
1401 3 46.572327761424006 5.601780410384997 0 0 0 0
1251 3 50.453355074876 5.601780410384997 0 -1 0 0
1257 3 54.334382388328 5.601780410384997 0 -1 0 0
1263 3 58.215409701780004 5.601780410384997 0 -1 0 0
1269 3 62.096437015232 5.601780410384997 0 -1 0 0
1275 3 65.977464328684 5.601780410384997 0 -1 0 0
1281 3 69.858491642136 5.601780410384997 0 -1 0 0
1287 3 73.739518955588 5.601780410384997 0 -1 0 0
1293 3 77.62054626904 5.601780410384997 0 -1 0 0
1299 3 81.501573582492 5.601780410384997 0 -1 0 0
1305 3 85.382600895944 5.601780410384997 0 -1 0 0
1311 3 89.263628209396 5.601780410384997 0 -1 0 0
1317 3 93.144655522848 5.601780410384997 0 -1 0 0
1323 3 97.0256828363 5.601780410384997 0 -1 0 0
1328 1 1.9405136567259973 6.722136492461999 1.4510862213120008 0 0 0
1334 1 5.821540970177999 6.722136492461999 1.4510862213120008 0 0 0
1340 1 9.70256828363 6.722136492461999 1.4510862213120008 0 0 0
1346 1 13.583595597081995 6.722136492461999 1.4510862213120008 0 0 0
1352 1 17.464622910534004 6.722136492461999 1.4510862213120008 0 0 0
1358 1 21.345650223986 6.722136492461999 1.4510862213120008 0 0 0
1364 1 25.226677537437993 6.722136492461999 1.4510862213120008 0 0 0
1370 1 29.107704850890002 6.722136492461999 1.4510862213120008 0 0 0
1376 1 32.988732164342 6.722136492461999 1.4510862213120008 0 0 0
1382 1 36.869759477794005 6.722136492461999 1.4510862213120008 0 0 0
1388 1 40.750786791246 6.722136492461999 1.4510862213120008 0 0 0
1394 1 44.631814104697995 6.722136492461999 1.4510862213120008 0 0 0
1400 1 48.51284141815 6.722136492461999 1.4510862213120008 0 0 0
1250 1 52.393868731602 6.722136492461999 1.4510862213120008 -1 0 0
1256 1 56.274896045054 6.722136492461999 1.4510862213120008 -1 0 0
1262 1 60.155923358506 6.722136492461999 1.4510862213120008 -1 0 0
1268 1 64.03695067195801 6.722136492461999 1.4510862213120008 -1 0 0
1274 1 67.91797798541 6.722136492461999 1.4510862213120008 -1 0 0
1280 1 71.799005298862 6.722136492461999 1.4510862213120008 -1 0 0
1286 1 75.680032612314 6.722136492461999 1.4510862213120008 -1 0 0
1292 1 79.561059925766 6.722136492461999 1.4510862213120008 -1 0 0
1298 1 83.442087239218 6.722136492461999 1.4510862213120008 -1 0 0
1304 1 87.32311455267 6.722136492461999 1.4510862213120008 -1 0 0
1310 1 91.204141866122 6.722136492461999 1.4510862213120008 -1 0 0
1316 1 95.085169179574 6.722136492461999 1.4510862213120008 -1 0 0
1322 1 98.966196493026 6.722136492461999 1.4510862213120008 -1 0 0
1330 3 1.9405136567259973 8.962848656615996 0 0 0 0
1483 1 0 10.083204738692999 1.4510862213120008 0 0 0
1489 1 3.8810273134520017 10.083204738692999 1.4510862213120008 0 0 0
1336 3 5.821540970177999 8.962848656615996 0 0 0 0
1495 1 7.762054626903996 10.083204738692999 1.4510862213120008 0 0 0
1342 3 9.70256828363 8.962848656615996 0 0 0 0
1501 1 11.643081940355998 10.083204738692999 1.4510862213120008 0 0 0
1348 3 13.583595597081995 8.962848656615996 0 0 0 0
1507 1 15.524109253807993 10.083204738692999 1.4510862213120008 0 0 0
1354 3 17.464622910534004 8.962848656615996 0 0 0 0
1513 1 19.40513656726 10.083204738692999 1.4510862213120008 0 0 0
1360 3 21.345650223986 8.962848656615996 0 0 0 0
1519 1 23.286163880711996 10.083204738692999 1.4510862213120008 0 0 0
1366 3 25.226677537437993 8.962848656615996 0 0 0 0
1525 1 27.167191194164005 10.083204738692999 1.4510862213120008 0 0 0
1372 3 29.107704850890002 8.962848656615996 0 0 0 0
1531 1 31.048218507616 10.083204738692999 1.4510862213120008 0 0 0
1378 3 32.988732164342 8.962848656615996 0 0 0 0
1537 1 34.929245821067994 10.083204738692999 1.4510862213120008 0 0 0
1384 3 36.869759477794005 8.962848656615996 0 0 0 0
1543 1 38.81027313452 10.083204738692999 1.4510862213120008 0 0 0
1390 3 40.750786791246 8.962848656615996 0 0 0 0
1549 1 42.691300447972 10.083204738692999 1.4510862213120008 0 0 0
1396 3 44.631814104697995 8.962848656615996 0 0 0 0
1555 1 46.572327761424006 10.083204738692999 1.4510862213120008 0 0 0
1402 3 48.51284141815 8.962848656615996 0 0 0 0
1252 3 52.393868731602 8.962848656615996 0 -1 0 0
1405 1 50.453355074876 10.083204738692999 1.4510862213120008 -1 0 0
1411 1 54.334382388328 10.083204738692999 1.4510862213120008 -1 0 0
1258 3 56.274896045054 8.962848656615996 0 -1 0 0
1417 1 58.215409701780004 10.083204738692999 1.4510862213120008 -1 0 0
1264 3 60.155923358506 8.962848656615996 0 -1 0 0
1423 1 62.096437015232 10.083204738692999 1.4510862213120008 -1 0 0
1270 3 64.03695067195801 8.962848656615996 0 -1 0 0
1429 1 65.977464328684 10.083204738692999 1.4510862213120008 -1 0 0
1276 3 67.91797798541 8.962848656615996 0 -1 0 0
1435 1 69.858491642136 10.083204738692999 1.4510862213120008 -1 0 0
1282 3 71.799005298862 8.962848656615996 0 -1 0 0
1441 1 73.739518955588 10.083204738692999 1.4510862213120008 -1 0 0
1288 3 75.680032612314 8.962848656615996 0 -1 0 0
1447 1 77.62054626904 10.083204738692999 1.4510862213120008 -1 0 0
1294 3 79.561059925766 8.962848656615996 0 -1 0 0
1453 1 81.501573582492 10.083204738692999 1.4510862213120008 -1 0 0
1300 3 83.442087239218 8.962848656615996 0 -1 0 0
1459 1 85.382600895944 10.083204738692999 1.4510862213120008 -1 0 0
1306 3 87.32311455267 8.962848656615996 0 -1 0 0
1465 1 89.263628209396 10.083204738692999 1.4510862213120008 -1 0 0
1312 3 91.204141866122 8.962848656615996 0 -1 0 0
1471 1 93.144655522848 10.083204738692999 1.4510862213120008 -1 0 0
1318 3 95.085169179574 8.962848656615996 0 -1 0 0
1477 1 97.0256828363 10.083204738692999 1.4510862213120008 -1 0 0
1324 3 98.966196493026 8.962848656615996 0 -1 0 0
1485 3 0 12.323916902847003 0 0 0 0
1484 1 1.9405136567259973 13.444272984923998 1.4510862213120008 0 0 0
1491 3 3.8810273134520017 12.323916902847003 0 0 0 0
1490 1 5.821540970177999 13.444272984923998 1.4510862213120008 0 0 0
1497 3 7.762054626903996 12.323916902847003 0 0 0 0
1496 1 9.70256828363 13.444272984923998 1.4510862213120008 0 0 0
1503 3 11.643081940355998 12.323916902847003 0 0 0 0
1502 1 13.583595597081995 13.444272984923998 1.4510862213120008 0 0 0
1509 3 15.524109253807993 12.323916902847003 0 0 0 0
1508 1 17.464622910534004 13.444272984923998 1.4510862213120008 0 0 0
1515 3 19.40513656726 12.323916902847003 0 0 0 0
1514 1 21.345650223986 13.444272984923998 1.4510862213120008 0 0 0
1521 3 23.286163880711996 12.323916902847003 0 0 0 0
1520 1 25.226677537437993 13.444272984923998 1.4510862213120008 0 0 0
1527 3 27.167191194164005 12.323916902847003 0 0 0 0
1526 1 29.107704850890002 13.444272984923998 1.4510862213120008 0 0 0
1533 3 31.048218507616 12.323916902847003 0 0 0 0
1532 1 32.988732164342 13.444272984923998 1.4510862213120008 0 0 0
1539 3 34.929245821067994 12.323916902847003 0 0 0 0
1538 1 36.869759477794005 13.444272984923998 1.4510862213120008 0 0 0
1545 3 38.81027313452 12.323916902847003 0 0 0 0
1544 1 40.750786791246 13.444272984923998 1.4510862213120008 0 0 0
1551 3 42.691300447972 12.323916902847003 0 0 0 0
1550 1 44.631814104697995 13.444272984923998 1.4510862213120008 0 0 0
1557 3 46.572327761424006 12.323916902847003 0 0 0 0
1556 1 48.51284141815 13.444272984923998 1.4510862213120008 0 0 0
1407 3 50.453355074876 12.323916902847003 0 -1 0 0
1406 1 52.393868731602 13.444272984923998 1.4510862213120008 -1 0 0
1413 3 54.334382388328 12.323916902847003 0 -1 0 0
1412 1 56.274896045054 13.444272984923998 1.4510862213120008 -1 0 0
1419 3 58.215409701780004 12.323916902847003 0 -1 0 0
1418 1 60.155923358506 13.444272984923998 1.4510862213120008 -1 0 0
1425 3 62.096437015232 12.323916902847003 0 -1 0 0
1424 1 64.03695067195801 13.444272984923998 1.4510862213120008 -1 0 0
1431 3 65.977464328684 12.323916902847003 0 -1 0 0
1430 1 67.91797798541 13.444272984923998 1.4510862213120008 -1 0 0
1437 3 69.858491642136 12.323916902847003 0 -1 0 0
1436 1 71.799005298862 13.444272984923998 1.4510862213120008 -1 0 0
1443 3 73.739518955588 12.323916902847003 0 -1 0 0
1442 1 75.680032612314 13.444272984923998 1.4510862213120008 -1 0 0
1449 3 77.62054626904 12.323916902847003 0 -1 0 0
1448 1 79.561059925766 13.444272984923998 1.4510862213120008 -1 0 0
1455 3 81.501573582492 12.323916902847003 0 -1 0 0
1454 1 83.442087239218 13.444272984923998 1.4510862213120008 -1 0 0
1461 3 85.382600895944 12.323916902847003 0 -1 0 0
1460 1 87.32311455267 13.444272984923998 1.4510862213120008 -1 0 0
1467 3 89.263628209396 12.323916902847003 0 -1 0 0
1466 1 91.204141866122 13.444272984923998 1.4510862213120008 -1 0 0
1473 3 93.144655522848 12.323916902847003 0 -1 0 0
1472 1 95.085169179574 13.444272984923998 1.4510862213120008 -1 0 0
1479 3 97.0256828363 12.323916902847003 0 -1 0 0
1478 1 98.966196493026 13.444272984923998 1.4510862213120008 -1 0 0
1486 3 1.9405136567259973 15.684985149077995 0 0 0 0
1492 3 5.821540970177999 15.684985149077995 0 0 0 0
1498 3 9.70256828363 15.684985149077995 0 0 0 0
1504 3 13.583595597081995 15.684985149077995 0 0 0 0
1510 3 17.464622910534004 15.684985149077995 0 0 0 0
1516 3 21.345650223986 15.684985149077995 0 0 0 0
1522 3 25.226677537437993 15.684985149077995 0 0 0 0
1528 3 29.107704850890002 15.684985149077995 0 0 0 0
1534 3 32.988732164342 15.684985149077995 0 0 0 0
1540 3 36.869759477794005 15.684985149077995 0 0 0 0
1546 3 40.750786791246 15.684985149077995 0 0 0 0
1552 3 44.631814104697995 15.684985149077995 0 0 0 0
1558 3 48.51284141815 15.684985149077995 0 0 0 0
1408 3 52.393868731602 15.684985149077995 0 -1 0 0
1414 3 56.274896045054 15.684985149077995 0 -1 0 0
1420 3 60.155923358506 15.684985149077995 0 -1 0 0
1426 3 64.03695067195801 15.684985149077995 0 -1 0 0
1432 3 67.91797798541 15.684985149077995 0 -1 0 0
1438 3 71.799005298862 15.684985149077995 0 -1 0 0
1444 3 75.680032612314 15.684985149077995 0 -1 0 0
1450 3 79.561059925766 15.684985149077995 0 -1 0 0
1456 3 83.442087239218 15.684985149077995 0 -1 0 0
1462 3 87.32311455267 15.684985149077995 0 -1 0 0
1468 3 91.204141866122 15.684985149077995 0 -1 0 0
1474 3 95.085169179574 15.684985149077995 0 -1 0 0
1480 3 98.966196493026 15.684985149077995 0 -1 0 0
1639 1 0 16.805341231155005 1.4510862213120008 0 0 0
1645 1 3.8810273134520017 16.805341231155005 1.4510862213120008 0 0 0
1651 1 7.762054626903996 16.805341231155005 1.4510862213120008 0 0 0
1657 1 11.643081940355998 16.805341231155005 1.4510862213120008 0 0 0
1663 1 15.524109253807993 16.805341231155005 1.4510862213120008 0 0 0
1669 1 19.40513656726 16.805341231155005 1.4510862213120008 0 0 0
1675 1 23.286163880711996 16.805341231155005 1.4510862213120008 0 0 0
1681 1 27.167191194164005 16.805341231155005 1.4510862213120008 0 0 0
1687 1 31.048218507616 16.805341231155005 1.4510862213120008 0 0 0
1693 1 34.929245821067994 16.805341231155005 1.4510862213120008 0 0 0
1699 1 38.81027313452 16.805341231155005 1.4510862213120008 0 0 0
1705 1 42.691300447972 16.805341231155005 1.4510862213120008 0 0 0
1711 1 46.572327761424006 16.805341231155005 1.4510862213120008 0 0 0
1561 1 50.453355074876 16.805341231155005 1.4510862213120008 -1 0 0
1567 1 54.334382388328 16.805341231155005 1.4510862213120008 -1 0 0
1573 1 58.215409701780004 16.805341231155005 1.4510862213120008 -1 0 0
1579 1 62.096437015232 16.805341231155005 1.4510862213120008 -1 0 0
1585 1 65.977464328684 16.805341231155005 1.4510862213120008 -1 0 0
1591 1 69.858491642136 16.805341231155005 1.4510862213120008 -1 0 0
1597 1 73.739518955588 16.805341231155005 1.4510862213120008 -1 0 0
1603 1 77.62054626904 16.805341231155005 1.4510862213120008 -1 0 0
1609 1 81.501573582492 16.805341231155005 1.4510862213120008 -1 0 0
1615 1 85.382600895944 16.805341231155005 1.4510862213120008 -1 0 0
1621 1 89.263628209396 16.805341231155005 1.4510862213120008 -1 0 0
1627 1 93.144655522848 16.805341231155005 1.4510862213120008 -1 0 0
1633 1 97.0256828363 16.805341231155005 1.4510862213120008 -1 0 0
1641 3 0 19.046053395308995 0 0 0 0
1647 3 3.8810273134520017 19.046053395308995 0 0 0 0
1653 3 7.762054626903996 19.046053395308995 0 0 0 0
1659 3 11.643081940355998 19.046053395308995 0 0 0 0
1665 3 15.524109253807993 19.046053395308995 0 0 0 0
1671 3 19.40513656726 19.046053395308995 0 0 0 0
1677 3 23.286163880711996 19.046053395308995 0 0 0 0
1683 3 27.167191194164005 19.046053395308995 0 0 0 0
1689 3 31.048218507616 19.046053395308995 0 0 0 0
1695 3 34.929245821067994 19.046053395308995 0 0 0 0
1701 3 38.81027313452 19.046053395308995 0 0 0 0
1707 3 42.691300447972 19.046053395308995 0 0 0 0
1713 3 46.572327761424006 19.046053395308995 0 0 0 0
1563 3 50.453355074876 19.046053395308995 0 -1 0 0
1569 3 54.334382388328 19.046053395308995 0 -1 0 0
1575 3 58.215409701780004 19.046053395308995 0 -1 0 0
1581 3 62.096437015232 19.046053395308995 0 -1 0 0
1587 3 65.977464328684 19.046053395308995 0 -1 0 0
1593 3 69.858491642136 19.046053395308995 0 -1 0 0
1599 3 73.739518955588 19.046053395308995 0 -1 0 0
1605 3 77.62054626904 19.046053395308995 0 -1 0 0
1611 3 81.501573582492 19.046053395308995 0 -1 0 0
1617 3 85.382600895944 19.046053395308995 0 -1 0 0
1623 3 89.263628209396 19.046053395308995 0 -1 0 0
1629 3 93.144655522848 19.046053395308995 0 -1 0 0
1635 3 97.0256828363 19.046053395308995 0 -1 0 0
1640 1 1.9405136567259973 20.166409477386004 1.4510862213120008 0 0 0
1646 1 5.821540970177999 20.166409477386004 1.4510862213120008 0 0 0
1652 1 9.70256828363 20.166409477386004 1.4510862213120008 0 0 0
1658 1 13.583595597081995 20.166409477386004 1.4510862213120008 0 0 0
1664 1 17.464622910534004 20.166409477386004 1.4510862213120008 0 0 0
1670 1 21.345650223986 20.166409477386004 1.4510862213120008 0 0 0
1676 1 25.226677537437993 20.166409477386004 1.4510862213120008 0 0 0
1682 1 29.107704850890002 20.166409477386004 1.4510862213120008 0 0 0
1688 1 32.988732164342 20.166409477386004 1.4510862213120008 0 0 0
1694 1 36.869759477794005 20.166409477386004 1.4510862213120008 0 0 0
1700 1 40.750786791246 20.166409477386004 1.4510862213120008 0 0 0
1706 1 44.631814104697995 20.166409477386004 1.4510862213120008 0 0 0
1712 1 48.51284141815 20.166409477386004 1.4510862213120008 0 0 0
1562 1 52.393868731602 20.166409477386004 1.4510862213120008 -1 0 0
1568 1 56.274896045054 20.166409477386004 1.4510862213120008 -1 0 0
1574 1 60.155923358506 20.166409477386004 1.4510862213120008 -1 0 0
1580 1 64.03695067195801 20.166409477386004 1.4510862213120008 -1 0 0
1586 1 67.91797798541 20.166409477386004 1.4510862213120008 -1 0 0
1592 1 71.799005298862 20.166409477386004 1.4510862213120008 -1 0 0
1598 1 75.680032612314 20.166409477386004 1.4510862213120008 -1 0 0
1604 1 79.561059925766 20.166409477386004 1.4510862213120008 -1 0 0
1610 1 83.442087239218 20.166409477386004 1.4510862213120008 -1 0 0
1616 1 87.32311455267 20.166409477386004 1.4510862213120008 -1 0 0
1622 1 91.204141866122 20.166409477386004 1.4510862213120008 -1 0 0
1628 1 95.085169179574 20.166409477386004 1.4510862213120008 -1 0 0
1634 1 98.966196493026 20.166409477386004 1.4510862213120008 -1 0 0
1642 3 1.9405136567259973 22.407121641539995 0 0 0 0
1795 1 0 23.527477723617004 1.4510862213120008 0 0 0
1801 1 3.8810273134520017 23.527477723617004 1.4510862213120008 0 0 0
1648 3 5.821540970177999 22.407121641539995 0 0 0 0
1807 1 7.762054626903996 23.527477723617004 1.4510862213120008 0 0 0
1654 3 9.70256828363 22.407121641539995 0 0 0 0
1813 1 11.643081940355998 23.527477723617004 1.4510862213120008 0 0 0
1660 3 13.583595597081995 22.407121641539995 0 0 0 0
1819 1 15.524109253807993 23.527477723617004 1.4510862213120008 0 0 0
1666 3 17.464622910534004 22.407121641539995 0 0 0 0
1825 1 19.40513656726 23.527477723617004 1.4510862213120008 0 0 0
1672 3 21.345650223986 22.407121641539995 0 0 0 0
1831 1 23.286163880711996 23.527477723617004 1.4510862213120008 0 0 0
1678 3 25.226677537437993 22.407121641539995 0 0 0 0
1837 1 27.167191194164005 23.527477723617004 1.4510862213120008 0 0 0
1684 3 29.107704850890002 22.407121641539995 0 0 0 0
1843 1 31.048218507616 23.527477723617004 1.4510862213120008 0 0 0
1690 3 32.988732164342 22.407121641539995 0 0 0 0
1849 1 34.929245821067994 23.527477723617004 1.4510862213120008 0 0 0
1696 3 36.869759477794005 22.407121641539995 0 0 0 0
1855 1 38.81027313452 23.527477723617004 1.4510862213120008 0 0 0
1702 3 40.750786791246 22.407121641539995 0 0 0 0
1861 1 42.691300447972 23.527477723617004 1.4510862213120008 0 0 0
1708 3 44.631814104697995 22.407121641539995 0 0 0 0
1867 1 46.572327761424006 23.527477723617004 1.4510862213120008 0 0 0
1714 3 48.51284141815 22.407121641539995 0 0 0 0
1564 3 52.393868731602 22.407121641539995 0 -1 0 0
1717 1 50.453355074876 23.527477723617004 1.4510862213120008 -1 0 0
1723 1 54.334382388328 23.527477723617004 1.4510862213120008 -1 0 0
1570 3 56.274896045054 22.407121641539995 0 -1 0 0
1729 1 58.215409701780004 23.527477723617004 1.4510862213120008 -1 0 0
1576 3 60.155923358506 22.407121641539995 0 -1 0 0
1735 1 62.096437015232 23.527477723617004 1.4510862213120008 -1 0 0
1582 3 64.03695067195801 22.407121641539995 0 -1 0 0
1741 1 65.977464328684 23.527477723617004 1.4510862213120008 -1 0 0
1588 3 67.91797798541 22.407121641539995 0 -1 0 0
1747 1 69.858491642136 23.527477723617004 1.4510862213120008 -1 0 0
1594 3 71.799005298862 22.407121641539995 0 -1 0 0
1753 1 73.739518955588 23.527477723617004 1.4510862213120008 -1 0 0
1600 3 75.680032612314 22.407121641539995 0 -1 0 0
1759 1 77.62054626904 23.527477723617004 1.4510862213120008 -1 0 0
1606 3 79.561059925766 22.407121641539995 0 -1 0 0
1765 1 81.501573582492 23.527477723617004 1.4510862213120008 -1 0 0
1612 3 83.442087239218 22.407121641539995 0 -1 0 0
1771 1 85.382600895944 23.527477723617004 1.4510862213120008 -1 0 0
1618 3 87.32311455267 22.407121641539995 0 -1 0 0
1777 1 89.263628209396 23.527477723617004 1.4510862213120008 -1 0 0
1624 3 91.204141866122 22.407121641539995 0 -1 0 0
1783 1 93.144655522848 23.527477723617004 1.4510862213120008 -1 0 0
1630 3 95.085169179574 22.407121641539995 0 -1 0 0
1789 1 97.0256828363 23.527477723617004 1.4510862213120008 -1 0 0
1636 3 98.966196493026 22.407121641539995 0 -1 0 0
1797 3 0 25.768189887770994 0 0 0 0
1803 3 3.8810273134520017 25.768189887770994 0 0 0 0
1809 3 7.762054626903996 25.768189887770994 0 0 0 0
1815 3 11.643081940355998 25.768189887770994 0 0 0 0
1821 3 15.524109253807993 25.768189887770994 0 0 0 0
1827 3 19.40513656726 25.768189887770994 0 0 0 0
1833 3 23.286163880711996 25.768189887770994 0 0 0 0
1839 3 27.167191194164005 25.768189887770994 0 0 0 0
1845 3 31.048218507616 25.768189887770994 0 0 0 0
1851 3 34.929245821067994 25.768189887770994 0 0 0 0
1857 3 38.81027313452 25.768189887770994 0 0 0 0
1863 3 42.691300447972 25.768189887770994 0 0 0 0
1869 3 46.572327761424006 25.768189887770994 0 0 0 0
1719 3 50.453355074876 25.768189887770994 0 -1 0 0
1725 3 54.334382388328 25.768189887770994 0 -1 0 0
1731 3 58.215409701780004 25.768189887770994 0 -1 0 0
1737 3 62.096437015232 25.768189887770994 0 -1 0 0
1743 3 65.977464328684 25.768189887770994 0 -1 0 0
1749 3 69.858491642136 25.768189887770994 0 -1 0 0
1755 3 73.739518955588 25.768189887770994 0 -1 0 0
1761 3 77.62054626904 25.768189887770994 0 -1 0 0
1767 3 81.501573582492 25.768189887770994 0 -1 0 0
1773 3 85.382600895944 25.768189887770994 0 -1 0 0
1779 3 89.263628209396 25.768189887770994 0 -1 0 0
1785 3 93.144655522848 25.768189887770994 0 -1 0 0
1791 3 97.0256828363 25.768189887770994 0 -1 0 0
1796 1 1.9405136567259973 26.888545969848003 1.4510862213120008 0 0 0
1802 1 5.821540970177999 26.888545969848003 1.4510862213120008 0 0 0
1808 1 9.70256828363 26.888545969848003 1.4510862213120008 0 0 0
1814 1 13.583595597081995 26.888545969848003 1.4510862213120008 0 0 0
1820 1 17.464622910534004 26.888545969848003 1.4510862213120008 0 0 0
1826 1 21.345650223986 26.888545969848003 1.4510862213120008 0 0 0
1832 1 25.226677537437993 26.888545969848003 1.4510862213120008 0 0 0
1838 1 29.107704850890002 26.888545969848003 1.4510862213120008 0 0 0
1844 1 32.988732164342 26.888545969848003 1.4510862213120008 0 0 0
1850 1 36.869759477794005 26.888545969848003 1.4510862213120008 0 0 0
1856 1 40.750786791246 26.888545969848003 1.4510862213120008 0 0 0
1862 1 44.631814104697995 26.888545969848003 1.4510862213120008 0 0 0
1868 1 48.51284141815 26.888545969848003 1.4510862213120008 0 0 0
1718 1 52.393868731602 26.888545969848003 1.4510862213120008 -1 0 0
1724 1 56.274896045054 26.888545969848003 1.4510862213120008 -1 0 0
1730 1 60.155923358506 26.888545969848003 1.4510862213120008 -1 0 0
1736 1 64.03695067195801 26.888545969848003 1.4510862213120008 -1 0 0
1742 1 67.91797798541 26.888545969848003 1.4510862213120008 -1 0 0
1748 1 71.799005298862 26.888545969848003 1.4510862213120008 -1 0 0
1754 1 75.680032612314 26.888545969848003 1.4510862213120008 -1 0 0
1760 1 79.561059925766 26.888545969848003 1.4510862213120008 -1 0 0
1766 1 83.442087239218 26.888545969848003 1.4510862213120008 -1 0 0
1772 1 87.32311455267 26.888545969848003 1.4510862213120008 -1 0 0
1778 1 91.204141866122 26.888545969848003 1.4510862213120008 -1 0 0
1784 1 95.085169179574 26.888545969848003 1.4510862213120008 -1 0 0
1790 1 98.966196493026 26.888545969848003 1.4510862213120008 -1 0 0
1798 3 1.9405136567259973 29.129258134001994 0 0 0 0
1804 3 5.821540970177999 29.129258134001994 0 0 0 0
1810 3 9.70256828363 29.129258134001994 0 0 0 0
1816 3 13.583595597081995 29.129258134001994 0 0 0 0
1822 3 17.464622910534004 29.129258134001994 0 0 0 0
1828 3 21.345650223986 29.129258134001994 0 0 0 0
1834 3 25.226677537437993 29.129258134001994 0 0 0 0
1840 3 29.107704850890002 29.129258134001994 0 0 0 0
1846 3 32.988732164342 29.129258134001994 0 0 0 0
1852 3 36.869759477794005 29.129258134001994 0 0 0 0
1858 3 40.750786791246 29.129258134001994 0 0 0 0
1864 3 44.631814104697995 29.129258134001994 0 0 0 0
1870 3 48.51284141815 29.129258134001994 0 0 0 0
1720 3 52.393868731602 29.129258134001994 0 -1 0 0
1726 3 56.274896045054 29.129258134001994 0 -1 0 0
1732 3 60.155923358506 29.129258134001994 0 -1 0 0
1738 3 64.03695067195801 29.129258134001994 0 -1 0 0
1744 3 67.91797798541 29.129258134001994 0 -1 0 0
1750 3 71.799005298862 29.129258134001994 0 -1 0 0
1756 3 75.680032612314 29.129258134001994 0 -1 0 0
1762 3 79.561059925766 29.129258134001994 0 -1 0 0
1768 3 83.442087239218 29.129258134001994 0 -1 0 0
1774 3 87.32311455267 29.129258134001994 0 -1 0 0
1780 3 91.204141866122 29.129258134001994 0 -1 0 0
1786 3 95.085169179574 29.129258134001994 0 -1 0 0
1792 3 98.966196493026 29.129258134001994 0 -1 0 0
1951 1 0 30.249614216079003 1.4510862213120008 0 0 0
1957 1 3.8810273134520017 30.249614216079003 1.4510862213120008 0 0 0
1963 1 7.762054626903996 30.249614216079003 1.4510862213120008 0 0 0
1969 1 11.643081940355998 30.249614216079003 1.4510862213120008 0 0 0
1975 1 15.524109253807993 30.249614216079003 1.4510862213120008 0 0 0
1981 1 19.40513656726 30.249614216079003 1.4510862213120008 0 0 0
1987 1 23.286163880711996 30.249614216079003 1.4510862213120008 0 0 0
1993 1 27.167191194164005 30.249614216079003 1.4510862213120008 0 0 0
1999 1 31.048218507616 30.249614216079003 1.4510862213120008 0 0 0
2005 1 34.929245821067994 30.249614216079003 1.4510862213120008 0 0 0
2011 1 38.81027313452 30.249614216079003 1.4510862213120008 0 0 0
2017 1 42.691300447972 30.249614216079003 1.4510862213120008 0 0 0
2023 1 46.572327761424006 30.249614216079003 1.4510862213120008 0 0 0
1873 1 50.453355074876 30.249614216079003 1.4510862213120008 -1 0 0
1879 1 54.334382388328 30.249614216079003 1.4510862213120008 -1 0 0
1885 1 58.215409701780004 30.249614216079003 1.4510862213120008 -1 0 0
1891 1 62.096437015232 30.249614216079003 1.4510862213120008 -1 0 0
1897 1 65.977464328684 30.249614216079003 1.4510862213120008 -1 0 0
1903 1 69.858491642136 30.249614216079003 1.4510862213120008 -1 0 0
1909 1 73.739518955588 30.249614216079003 1.4510862213120008 -1 0 0
1915 1 77.62054626904 30.249614216079003 1.4510862213120008 -1 0 0
1921 1 81.501573582492 30.249614216079003 1.4510862213120008 -1 0 0
1927 1 85.382600895944 30.249614216079003 1.4510862213120008 -1 0 0
1933 1 89.263628209396 30.249614216079003 1.4510862213120008 -1 0 0
1939 1 93.144655522848 30.249614216079003 1.4510862213120008 -1 0 0
1945 1 97.0256828363 30.249614216079003 1.4510862213120008 -1 0 0
1953 3 0 32.49032638023299 0 0 0 0
1952 1 1.9405136567259973 33.61068246231 1.4510862213120008 0 0 0
1959 3 3.8810273134520017 32.49032638023299 0 0 0 0
1958 1 5.821540970177999 33.61068246231 1.4510862213120008 0 0 0
1965 3 7.762054626903996 32.49032638023299 0 0 0 0
1964 1 9.70256828363 33.61068246231 1.4510862213120008 0 0 0
1971 3 11.643081940355998 32.49032638023299 0 0 0 0
1970 1 13.583595597081995 33.61068246231 1.4510862213120008 0 0 0
1977 3 15.524109253807993 32.49032638023299 0 0 0 0
1976 1 17.464622910534004 33.61068246231 1.4510862213120008 0 0 0
1983 3 19.40513656726 32.49032638023299 0 0 0 0