LAMMPS data file via write_data, version 29 Aug 2024, timestep = 2, units = metal

4680 atoms
6 atom types

0 100.906710149752 xlo xhi
0 100.83204738693 ylo yhi
-50 50 zlo zhi

Masses

1 192.217
2 192.217
3 127.6
4 127.6
5 127.6
6 127.6

Atoms # atomic

1174 4 1.9405136567259995 2.240710642011931 0.022358316770936526 0 0 0
1327 1 3.099009626807406e-16 3.359692070541733 1.4486738288017422 0 0 0
1333 1 3.881027313451999 3.359692070541733 1.4486738288017422 0 0 0
1180 4 5.821540970177999 2.2407106420119307 0.022358316770936252 0 0 0
1329 4 8.418759078865135e-16 5.601778888242931 0.022358316770935506 0 0 0
1335 4 3.8810273134519995 5.601778888242931 0.022358316770936144 0 0 0
1176 3 8.464885655720842e-16 1.1162216509760663 2.8737643399051005 0 0 0
1182 3 3.8810273134519995 1.1162216509760658 2.8737643399050996 0 0 0
1331 3 1.9405136567259995 4.477289897207066 2.8737643399051 0 0 0
1337 3 5.821540970177999 4.477289897207067 2.8737643399051005 0 0 0
1339 1 7.762054626903999 3.359692070541733 1.4486738288017422 0 0 0
1186 4 9.702568283629999 2.240710642011931 0.022358316770936575 0 0 0
1345 1 11.643081940355998 3.359692070541733 1.4486738288017422 0 0 0
1341 4 7.762054626903999 5.601778888242931 0.022358316770936137 0 0 0
1347 4 11.643081940355998 5.601778888242931 0.02235831677093548 0 0 0
1188 3 7.762054626903999 1.1162216509760658 2.8737643399050996 0 0 0
1194 3 11.643081940355998 1.1162216509760663 2.8737643399051 0 0 0
1343 3 9.702568283629999 4.477289897207066 2.8737643399051005 0 0 0
1192 4 13.583595597081997 2.2407106420119307 0.022358316770936207 0 0 0
1351 1 15.524109253807998 3.3596920705417324 1.4486738288017422 0 0 0
1198 4 17.464622910534 2.2407106420119316 0.02235831677093771 0 0 0
1353 4 15.524109253807998 5.601778888242932 0.02235831677093734 0 0 0
1200 3 15.524109253807998 1.116221650976065 2.8737643399050983 0 0 0
1349 3 13.583595597081997 4.477289897207067 2.8737643399051005 0 0 0
1355 3 17.464622910534 4.477289897207066 2.873764339905099 0 0 0
1357 1 19.40513656726 3.359692070541733 1.4486738288017422 0 0 0
1204 4 21.345650223986 2.24071064201193 0.02235831677093536 0 0 0
1363 1 23.286163880711996 3.359692070541733 1.4486738288017422 0 0 0
1359 4 19.40513656726 5.601778888242931 0.022358316770935846 0 0 0
1365 4 23.286163880711996 5.601778888242931 0.022358316770935843 0 0 0
1206 3 19.40513656726 1.116221650976066 2.8737643399051 0 0 0
1212 3 23.286163880711996 1.116221650976066 2.8737643399050996 0 0 0
1361 3 21.345650223986 4.477289897207068 2.8737643399051014 0 0 0
1210 4 25.226677537437997 2.2407106420119316 0.022358316770937702 0 0 0
1369 1 27.167191194163998 3.3596920705417324 1.4486738288017422 0 0 0
1216 4 29.107704850890002 2.2407106420119307 0.022358316770936252 0 0 0
1371 4 27.167191194164 5.601778888242932 0.02235831677093734 0 0 0
1218 3 27.167191194164 1.116221650976065 2.8737643399050983 0 0 0
1367 3 25.226677537437997 4.477289897207066 2.873764339905099 0 0 0
1373 3 29.107704850890002 4.477289897207067 2.8737643399051005 0 0 0
1375 1 31.048218507616 3.359692070541733 1.4486738288017422 0 0 0
1222 4 32.988732164342 2.2407106420119303 0.022358316770935867 0 0 0
1381 1 34.929245821068 3.3596920705417324 1.4486738288017422 0 0 0
1377 4 31.048218507616 5.60177888824293 0.022358316770934847 0 0 0
1383 4 34.929245821068 5.601778888242932 0.022358316770937685 0 0 0
1224 3 31.048218507616 1.1162216509760665 2.873764339905101 0 0 0
1230 3 34.929245821068 1.1162216509760647 2.873764339905098 0 0 0
1379 3 32.988732164342 4.477289897207067 2.873764339905101 0 0 0
1228 4 36.869759477794 2.240710642011932 0.022358316770938108 0 0 0
1387 1 38.81027313452 3.359692070541733 1.4486738288017422 0 0 0
1234 4 40.750786791246 2.24071064201193 0.022358316770935322 0 0 0
1389 4 38.81027313452 5.601778888242931 0.02235831677093554 0 0 0
1236 3 38.81027313452 1.1162216509760663 2.8737643399051005 0 0 0
1385 3 36.869759477794 4.477289897207065 2.8737643399050987 0 0 0
1391 3 40.750786791246 4.477289897207068 2.873764339905102 0 0 0
1393 1 42.691300447972 3.359692070541733 1.4486738288017422 0 0 0
1240 4 44.631814104698 2.240710642011932 0.02235831677093811 0 0 0
1399 1 46.572327761424 3.3596920705417324 1.4486738288017422 0 0 0
1395 4 42.691300447972 5.601778888242931 0.02235831677093554 0 0 0
1401 4 46.572327761424 5.601778888242932 0.022358316770937685 0 0 0
1242 3 42.691300447972 1.1162216509760663 2.8737643399051005 0 0 0
1248 3 46.572327761424 1.1162216509760647 2.873764339905098 0 0 0
1397 3 44.631814104698 4.477289897207065 2.8737643399050987 0 0 0
1246 4 48.51284141815 2.2407106420119303 0.022358316770935853 0 0 0
1096 4 52.393868731602 2.2407106420119307 0.02235831677093636 -1 0 0
1249 1 50.453355074876 3.359692070541733 1.4486738288017422 -1 0 0
1251 4 50.453355074876 5.601778888242931 0.02235831677093565 -1 0 0
1098 3 50.453355074876 1.1162216509760663 2.8737643399051 -1 0 0
1403 3 48.51284141815 4.477289897207067 2.873764339905101 0 0 0
1253 3 52.393868731602 4.477289897207066 2.8737643399051005 -1 0 0
1255 1 54.334382388327995 3.3596920705417324 1.4486738288017422 -1 0 0
1102 4 56.274896045054 2.240710642011931 0.02235831677093698 -1 0 0
1261 1 58.21540970178 3.359692070541733 1.4486738288017422 -1 0 0
1257 4 54.334382388328 5.601778888242932 0.022358316770936585 -1 0 0
1263 4 58.215409701780004 5.601778888242931 0.022358316770935947 -1 0 0
1104 3 54.334382388328 1.1162216509760654 2.873764339905099 -1 0 0
1110 3 58.215409701780004 1.1162216509760658 2.8737643399050996 -1 0 0
1259 3 56.274896045054 4.477289897207066 2.8737643399050996 -1 0 0
1108 4 60.155923358506 2.2407106420119307 0.022358316770936543 -1 0 0
1267 1 62.096437015232 3.3596920705417324 1.4486738288017422 -1 0 0
1114 4 64.036950671958 2.2407106420119303 0.022358316770935912 -1 0 0
1269 4 62.096437015232006 5.601778888242932 0.02235831677093707 -1 0 0
1116 3 62.096437015232006 1.1162216509760652 2.8737643399050987 -1 0 0
1265 3 60.155923358506 4.477289897207067 2.8737643399051 -1 0 0
1271 3 64.036950671958 4.477289897207067 2.8737643399051005 -1 0 0
1273 1 65.97746432868401 3.359692070541733 1.4486738288017424 -1 0 0
1120 4 67.91797798541 2.2407106420119316 0.022358316770937463 -1 0 0
1279 1 69.858491642136 3.359692070541733 1.4486738288017422 -1 0 0
1275 4 65.97746432868401 5.601778888242931 0.022358316770934743 -1 0 0
1281 4 69.858491642136 5.601778888242932 0.022358316770936408 -1 0 0
1122 3 65.97746432868401 1.1162216509760665 2.873764339905101 -1 0 0
1128 3 69.858491642136 1.1162216509760656 2.8737643399050996 -1 0 0
1277 3 67.91797798541 4.477289897207066 2.8737643399050996 -1 0 0
1126 4 71.799005298862 2.24071064201193 0.02235831677093539 -1 0 0
1285 1 73.739518955588 3.359692070541733 1.4486738288017422 -1 0 0
1132 4 75.680032612314 2.2407106420119316 0.022358316770937296 -1 0 0
1287 4 73.739518955588 5.601778888242932 0.022358316770936297 -1 0 0
1134 3 73.739518955588 1.1162216509760658 2.873764339905099 -1 0 0
1283 3 71.799005298862 4.477289897207068 2.873764339905102 -1 0 0
1289 3 75.680032612314 4.477289897207066 2.8737643399050996 -1 0 0
1291 1 77.62054626903999 3.359692070541733 1.4486738288017424 -1 0 0
1138 4 79.561059925766 2.2407106420119307 0.02235831677093656 -1 0 0
1297 1 81.501573582492 3.359692070541733 1.4486738288017422 -1 0 0
1293 4 77.62054626904 5.601778888242932 0.022358316770936942 -1 0 0
1299 4 81.501573582492 5.601778888242931 0.02235831677093491 -1 0 0
1140 3 77.62054626904 1.1162216509760652 2.8737643399050987 -1 0 0
1146 3 81.501573582492 1.1162216509760665 2.873764339905101 -1 0 0
1295 3 79.561059925766 4.477289897207067 2.8737643399051 -1 0 0
1144 4 83.442087239218 2.2407106420119307 0.02235831677093656 -1 0 0
1303 1 85.38260089594401 3.359692070541733 1.4486738288017424 -1 0 0
1150 4 87.32311455267 2.2407106420119316 0.022358316770937293 -1 0 0
1305 4 85.382600895944 5.601778888242932 0.022358316770936946 -1 0 0
1152 3 85.382600895944 1.1162216509760652 2.8737643399050987 -1 0 0
1301 3 83.442087239218 4.477289897207067 2.8737643399051 -1 0 0
1307 3 87.32311455267 4.477289897207066 2.8737643399050996 -1 0 0
1309 1 89.263628209396 3.359692070541733 1.4486738288017422 -1 0 0
1156 4 91.204141866122 2.24071064201193 0.022358316770935405 -1 0 0
1315 1 93.144655522848 3.359692070541733 1.4486738288017422 -1 0 0
1311 4 89.263628209396 5.601778888242932 0.022358316770936297 -1 0 0
1317 4 93.144655522848 5.601778888242932 0.022358316770936307 -1 0 0
1158 3 89.263628209396 1.1162216509760658 2.873764339905099 -1 0 0
1164 3 93.144655522848 1.1162216509760658 2.8737643399050996 -1 0 0
1313 3 91.204141866122 4.477289897207068 2.8737643399051014 -1 0 0
1162 4 95.085169179574 2.2407106420119316 0.0223583167709373 -1 0 0
1321 1 97.02568283629999 3.359692070541733 1.4486738288017424 -1 0 0
1168 4 98.966196493026 2.2407106420119307 0.022358316770936536 -1 0 0
1323 4 97.0256828363 5.601778888242932 0.022358316770936946 -1 0 0
1170 3 97.0256828363 1.1162216509760652 2.8737643399050987 -1 0 0
1319 3 95.085169179574 4.477289897207066 2.8737643399050996 -1 0 0
1325 3 98.966196493026 4.477289897207067 2.8737643399051 -1 0 0
1328 1 1.940513656726 6.720760316772733 1.4486738288017422 0 0 0
1334 1 5.821540970177999 6.720760316772733 1.4486738288017422 0 0 0
1330 4 1.9405136567259995 8.962847134473932 0.022358316770936016 0 0 0
1483 1 1.3251397598028124e-16 10.081828563003734 1.4486738288017413 0 0 0
1489 1 3.881027313451999 10.081828563003734 1.4486738288017418 0 0 0
1336 4 5.821540970177999 8.96284713447393 0.022358316770935676 0 0 0
1332 3 9.276471971535636e-16 7.838358143438067 2.8737643399051005 0 0 0
1338 3 3.8810273134519995 7.838358143438066 2.8737643399050996 0 0 0
1487 3 1.9405136567259995 11.199426389669066 2.8737643399051 0 0 0
1493 3 5.821540970177999 11.199426389669066 2.8737643399051005 0 0 0
1340 1 9.702568283629997 6.720760316772733 1.4486738288017422 0 0 0
1495 1 7.762054626903999 10.081828563003734 1.4486738288017418 0 0 0
1342 4 9.702568283629999 8.962847134473932 0.022358316770936065 0 0 0
1501 1 11.643081940355998 10.081828563003734 1.4486738288017413 0 0 0
1344 3 7.762054626903999 7.838358143438066 2.8737643399050996 0 0 0
1350 3 11.643081940355998 7.838358143438067 2.8737643399051005 0 0 0
1499 3 9.702568283629999 11.199426389669066 2.8737643399051 0 0 0
1346 1 13.583595597081995 6.720760316772733 1.4486738288017422 0 0 0
1352 1 17.464622910533997 6.720760316772733 1.4486738288017424 0 0 0
1348 4 13.583595597081997 8.96284713447393 0.022358316770935707 0 0 0
1507 1 15.524109253808 10.081828563003734 1.4486738288017416 0 0 0
1354 4 17.464622910534 8.962847134473932 0.022358316770937137 0 0 0
1356 3 15.524109253807998 7.838358143438065 2.8737643399050983 0 0 0
1505 3 13.583595597081997 11.199426389669066 2.8737643399051005 0 0 0
1511 3 17.464622910534 11.199426389669066 2.873764339905099 0 0 0
1358 1 21.345650223986 6.720760316772733 1.4486738288017422 0 0 0
1513 1 19.40513656726 10.081828563003734 1.4486738288017416 0 0 0
1360 4 21.345650223986 8.96284713447393 0.022358316770934777 0 0 0
1519 1 23.286163880711996 10.081828563003734 1.4486738288017416 0 0 0
1362 3 19.40513656726 7.838358143438067 2.8737643399051 0 0 0
1368 3 23.286163880711996 7.838358143438067 2.8737643399050996 0 0 0
1517 3 21.345650223986 11.199426389669068 2.8737643399051014 0 0 0
1364 1 25.226677537438 6.720760316772732 1.4486738288017424 0 0 0
1370 1 29.107704850890002 6.720760316772733 1.4486738288017424 0 0 0
1366 4 25.226677537437997 8.962847134473932 0.022358316770937123 0 0 0
1525 1 27.167191194163998 10.081828563003734 1.4486738288017416 0 0 0
1372 4 29.107704850890002 8.96284713447393 0.022358316770935752 0 0 0
1374 3 27.167191194164 7.838358143438065 2.8737643399050987 0 0 0
1523 3 25.226677537437997 11.199426389669066 2.873764339905099 0 0 0
1529 3 29.107704850890002 11.199426389669066 2.8737643399051005 0 0 0
1376 1 32.988732164342 6.720760316772733 1.4486738288017424 0 0 0
1531 1 31.048218507616 10.081828563003734 1.4486738288017416 0 0 0
1378 4 32.988732164342 8.96284713447393 0.022358316770935367 0 0 0
1537 1 34.929245821068 10.081828563003734 1.4486738288017416 0 0 0
1380 3 31.048218507616 7.838358143438068 2.873764339905101 0 0 0
1386 3 34.929245821068 7.838358143438065 2.8737643399050983 0 0 0
1535 3 32.988732164342 11.199426389669066 2.873764339905101 0 0 0
1382 1 36.869759477794 6.720760316772732 1.4486738288017424 0 0 0
1388 1 40.750786791246 6.720760316772733 1.4486738288017422 0 0 0
1384 4 36.869759477794 8.962847134473932 0.02235831677093747 0 0 0
1543 1 38.81027313452 10.081828563003734 1.4486738288017416 0 0 0
1390 4 40.750786791246 8.96284713447393 0.022358316770934732 0 0 0
1392 3 38.81027313452 7.838358143438067 2.8737643399051 0 0 0
1541 3 36.869759477794 11.199426389669066 2.8737643399050987 0 0 0
1547 3 40.750786791246 11.199426389669068 2.8737643399051014 0 0 0
1394 1 44.631814104698 6.720760316772732 1.4486738288017424 0 0 0
1549 1 42.691300447972 10.081828563003734 1.4486738288017416 0 0 0
1396 4 44.631814104698 8.962847134473932 0.022358316770937466 0 0 0
1555 1 46.572327761424 10.081828563003734 1.4486738288017416 0 0 0
1398 3 42.691300447972 7.838358143438067 2.8737643399051 0 0 0
1404 3 46.572327761424 7.838358143438065 2.8737643399050983 0 0 0
1553 3 44.631814104698 11.199426389669066 2.8737643399050987 0 0 0
1400 1 48.51284141815 6.720760316772733 1.4486738288017424 0 0 0
1250 1 52.393868731602005 6.720760316772733 1.4486738288017424 -1 0 0
1402 4 48.51284141815 8.96284713447393 0.022358316770935346 0 0 0
1252 4 52.393868731602 8.962847134473932 0.022358316770935853 -1 0 0
1405 1 50.453355074876 10.081828563003734 1.4486738288017413 -1 0 0
1254 3 50.453355074876 7.838358143438067 2.8737643399051 -1 0 0
1559 3 48.51284141815 11.199426389669066 2.873764339905101 0 0 0
1409 3 52.393868731602 11.199426389669066 2.8737643399051005 -1 0 0
1256 1 56.27489604505401 6.720760316772733 1.4486738288017422 -1 0 0
1411 1 54.334382388327995 10.081828563003734 1.4486738288017418 -1 0 0
1258 4 56.274896045054 8.962847134473932 0.022358316770936464 -1 0 0
1417 1 58.21540970178 10.081828563003734 1.4486738288017418 -1 0 0
1260 3 54.334382388328 7.838358143438066 2.873764339905099 -1 0 0
1266 3 58.215409701780004 7.838358143438066 2.8737643399050996 -1 0 0
1415 3 56.274896045054 11.199426389669066 2.8737643399051 -1 0 0
1262 1 60.155923358506 6.720760316772733 1.4486738288017424 -1 0 0
1268 1 64.036950671958 6.720760316772733 1.4486738288017424 -1 0 0
1264 4 60.155923358506 8.96284713447393 0.022358316770935957 -1 0 0
1423 1 62.096437015232 10.081828563003734 1.4486738288017416 -1 0 0
1270 4 64.036950671958 8.96284713447393 0.022358316770935333 -1 0 0
1272 3 62.096437015232006 7.838358143438066 2.8737643399050987 -1 0 0
1421 3 60.155923358506 11.199426389669066 2.8737643399051005 -1 0 0
1427 3 64.036950671958 11.199426389669066 2.873764339905101 -1 0 0
1274 1 67.91797798541 6.720760316772733 1.4486738288017427 -1 0 0
1429 1 65.97746432868401 10.081828563003734 1.4486738288017416 -1 0 0
1276 4 67.91797798541 8.962847134473932 0.02235831677093695 -1 0 0
1435 1 69.858491642136 10.081828563003734 1.4486738288017416 -1 0 0
1278 3 65.97746432868401 7.838358143438067 2.873764339905101 -1 0 0
1284 3 69.858491642136 7.838358143438067 2.873764339905099 -1 0 0
1433 3 67.91797798541 11.199426389669066 2.8737643399050996 -1 0 0
1280 1 71.799005298862 6.720760316772733 1.4486738288017422 -1 0 0
1286 1 75.68003261231401 6.720760316772732 1.4486738288017424 -1 0 0
1282 4 71.799005298862 8.96284713447393 0.022358316770934812 -1 0 0
1441 1 73.739518955588 10.081828563003734 1.4486738288017416 -1 0 0
1288 4 75.680032612314 8.962847134473932 0.02235831677093672 -1 0 0
1290 3 73.739518955588 7.838358143438067 2.873764339905099 -1 0 0
1439 3 71.799005298862 11.199426389669068 2.8737643399051014 -1 0 0
1445 3 75.680032612314 11.199426389669066 2.8737643399050996 -1 0 0
1292 1 79.561059925766 6.720760316772733 1.4486738288017424 -1 0 0
1447 1 77.62054626903999 10.081828563003734 1.4486738288017418 -1 0 0
1294 4 79.561059925766 8.96284713447393 0.022358316770936137 -1 0 0
1453 1 81.501573582492 10.081828563003734 1.4486738288017413 -1 0 0
1296 3 77.62054626904 7.838358143438066 2.873764339905099 -1 0 0
1302 3 81.501573582492 7.838358143438068 2.873764339905101 -1 0 0
1451 3 79.561059925766 11.199426389669066 2.8737643399051 -1 0 0
1298 1 83.442087239218 6.720760316772733 1.4486738288017424 -1 0 0
1304 1 87.32311455266999 6.720760316772732 1.4486738288017424 -1 0 0
1300 4 83.442087239218 8.96284713447393 0.022358316770936134 -1 0 0
1459 1 85.38260089594401 10.081828563003734 1.4486738288017416 -1 0 0
1306 4 87.32311455267 8.962847134473932 0.02235831677093672 -1 0 0
1308 3 85.382600895944 7.838358143438066 2.8737643399050987 -1 0 0
1457 3 83.442087239218 11.199426389669066 2.8737643399051 -1 0 0
1463 3 87.32311455267 11.199426389669066 2.8737643399050996 -1 0 0
1310 1 91.204141866122 6.720760316772733 1.4486738288017422 -1 0 0
1465 1 89.263628209396 10.081828563003734 1.4486738288017416 -1 0 0
1312 4 91.204141866122 8.96284713447393 0.02235831677093482 -1 0 0
1471 1 93.144655522848 10.081828563003734 1.4486738288017416 -1 0 0
1314 3 89.263628209396 7.838358143438067 2.873764339905099 -1 0 0
1320 3 93.144655522848 7.838358143438067 2.873764339905099 -1 0 0
1469 3 91.204141866122 11.199426389669068 2.8737643399051014 -1 0 0
1316 1 95.08516917957401 6.720760316772732 1.4486738288017424 -1 0 0
1322 1 98.966196493026 6.720760316772733 1.4486738288017422 -1 0 0
1318 4 95.085169179574 8.962847134473932 0.02235831677093672 -1 0 0
1477 1 97.02568283629999 10.081828563003734 1.4486738288017416 -1 0 0
1324 4 98.966196493026 8.96284713447393 0.022358316770936103 -1 0 0
1326 3 97.0256828363 7.838358143438066 2.8737643399050987 -1 0 0
1475 3 95.085169179574 11.199426389669066 2.8737643399050996 -1 0 0
1481 3 98.966196493026 11.199426389669066 2.8737643399051 -1 0 0
1485 4 9.072568680498142e-16 12.323915380704932 0.022358316770935492 0 0 0
1484 1 1.9405136567260002 13.442896809234732 1.4486738288017431 0 0 0
1491 4 3.8810273134519995 12.323915380704932 0.022358316770936106 0 0 0
1490 1 5.821540970177999 13.442896809234732 1.4486738288017431 0 0 0
1486 4 1.9405136567259997 15.684983626935932 0.022358316770937088 0 0 0
1492 4 5.821540970177999 15.684983626935932 0.022358316770936842 0 0 0
1639 1 2.922893580646254e-16 16.80396505546573 1.4486738288017427 0 0 0
1645 1 3.881027313451999 16.803965055465735 1.4486738288017424 0 0 0
1488 3 8.646448589907597e-16 14.560494635900069 2.873764339905101 0 0 0
1494 3 3.8810273134519995 14.560494635900067 2.8737643399051 0 0 0
1497 4 7.762054626903999 12.323915380704932 0.02235831677093611 0 0 0
1496 1 9.702568283629997 13.442896809234732 1.4486738288017433 0 0 0
1503 4 11.643081940355998 12.323915380704932 0.022358316770935464 0 0 0
1498 4 9.702568283629999 15.684983626935932 0.02235831677093722 0 0 0
1651 1 7.762054626904 16.803965055465735 1.4486738288017424 0 0 0
1657 1 11.643081940355998 16.80396505546573 1.448673828801743 0 0 0
1500 3 7.762054626903999 14.560494635900067 2.8737643399051 0 0 0
1506 3 11.643081940355998 14.560494635900067 2.873764339905101 0 0 0
1502 1 13.583595597081995 13.442896809234732 1.4486738288017431 0 0 0
1509 4 15.524109253807998 12.323915380704934 0.022358316770937244 0 0 0
1508 1 17.464622910533997 13.442896809234734 1.448673828801743 0 0 0
1504 4 13.583595597081997 15.684983626935932 0.02235831677093682 0 0 0
1510 4 17.464622910534 15.684983626935933 0.022358316770938316 0 0 0
1663 1 15.524109253808 16.80396505546573 1.448673828801743 0 0 0
1512 3 15.524109253807998 14.560494635900065 2.873764339905099 0 0 0
1515 4 19.40513656726 12.323915380704934 0.022358316770935912 0 0 0
1514 1 21.345650223986 13.442896809234734 1.4486738288017433 0 0 0
1521 4 23.286163880711996 12.323915380704934 0.02235831677093591 0 0 0
1516 4 21.345650223986 15.68498362693593 0.022358316770935922 0 0 0
1669 1 19.40513656726 16.80396505546573 1.4486738288017427 0 0 0
1675 1 23.286163880711996 16.80396505546573 1.4486738288017427 0 0 0
1518 3 19.40513656726 14.560494635900067 2.8737643399051005 0 0 0
1524 3 23.286163880711996 14.560494635900067 2.8737643399051005 0 0 0
1520 1 25.226677537438 13.442896809234734 1.448673828801743 0 0 0
1527 4 27.167191194164 12.323915380704934 0.022358316770937234 0 0 0
1526 1 29.107704850890002 13.442896809234732 1.4486738288017431 0 0 0
1522 4 25.226677537437997 15.684983626935933 0.022358316770938313 0 0 0
1528 4 29.107704850890002 15.684983626935932 0.02235831677093686 0 0 0
1681 1 27.167191194163998 16.80396505546573 1.448673828801743 0 0 0
1530 3 27.167191194164 14.560494635900065 2.873764339905099 0 0 0
1533 4 31.048218507616 12.323915380704932 0.02235831677093499 0 0 0
1532 1 32.988732164342 13.442896809234732 1.4486738288017431 0 0 0
1539 4 34.929245821068 12.323915380704934 0.022358316770937577 0 0 0
1534 4 32.988732164342 15.68498362693593 0.02235831677093648 0 0 0
1687 1 31.048218507616 16.80396505546573 1.448673828801743 0 0 0
1693 1 34.929245821068 16.80396505546573 1.448673828801743 0 0 0
1536 3 31.048218507616 14.560494635900067 2.8737643399051014 0 0 0
1542 3 34.929245821068 14.560494635900065 2.8737643399050987 0 0 0
1538 1 36.869759477794 13.442896809234734 1.448673828801743 0 0 0
1545 4 38.81027313452 12.323915380704932 0.022358316770935527 0 0 0
1544 1 40.750786791246 13.442896809234734 1.4486738288017433 0 0 0
1540 4 36.869759477794 15.684983626935933 0.022358316770938646 0 0 0
1546 4 40.750786791246 15.68498362693593 0.022358316770935877 0 0 0
1699 1 38.81027313452 16.80396505546573 1.4486738288017427 0 0 0
1548 3 38.81027313452 14.560494635900067 2.873764339905101 0 0 0
1551 4 42.691300447972 12.323915380704932 0.022358316770935527 0 0 0
1550 1 44.631814104698 13.442896809234734 1.448673828801743 0 0 0
1557 4 46.572327761424 12.323915380704934 0.02235831677093758 0 0 0
1552 4 44.631814104698 15.684983626935933 0.022358316770938642 0 0 0
1705 1 42.691300447972 16.80396505546573 1.4486738288017427 0 0 0
1711 1 46.572327761424 16.80396505546573 1.448673828801743 0 0 0
1554 3 42.691300447972 14.560494635900067 2.873764339905101 0 0 0
1560 3 46.572327761424 14.560494635900065 2.8737643399050987 0 0 0
1556 1 48.51284141815 13.442896809234732 1.4486738288017433 0 0 0
1407 4 50.453355074876 12.323915380704932 0.02235831677093564 -1 0 0
1406 1 52.393868731602005 13.442896809234732 1.4486738288017431 -1 0 0
1558 4 48.51284141815 15.68498362693593 0.02235831677093647 0 0 0
1408 4 52.393868731602 15.684983626935932 0.022358316770937012 -1 0 0
1561 1 50.453355074876 16.80396505546573 1.4486738288017427 -1 0 0
1410 3 50.453355074876 14.560494635900067 2.873764339905101 -1 0 0
1413 4 54.334382388328 12.323915380704934 0.022358316770936623 -1 0 0
1412 1 56.27489604505401 13.442896809234732 1.4486738288017431 -1 0 0
1419 4 58.215409701780004 12.323915380704932 0.02235831677093586 -1 0 0
1414 4 56.274896045054 15.684983626935932 0.022358316770937532 -1 0 0
1567 1 54.334382388327995 16.803965055465735 1.4486738288017427 -1 0 0
1573 1 58.21540970178 16.803965055465735 1.4486738288017424 -1 0 0
1416 3 54.334382388328 14.560494635900067 2.8737643399050996 -1 0 0
1422 3 58.215409701780004 14.560494635900067 2.8737643399051005 -1 0 0
1418 1 60.155923358506 13.442896809234732 1.4486738288017431 -1 0 0
1425 4 62.096437015232006 12.323915380704934 0.022358316770936994 -1 0 0
1424 1 64.036950671958 13.442896809234732 1.4486738288017431 -1 0 0
1420 4 60.155923358506 15.684983626935932 0.02235831677093714 -1 0 0
1426 4 64.036950671958 15.684983626935932 0.022358316770936557 -1 0 0
1579 1 62.096437015232 16.80396505546573 1.4486738288017427 -1 0 0
1428 3 62.096437015232006 14.560494635900065 2.8737643399050996 -1 0 0
1431 4 65.97746432868401 12.323915380704932 0.022358316770934694 -1 0 0
1430 1 67.91797798541 13.442896809234734 1.4486738288017431 -1 0 0
1437 4 69.858491642136 12.323915380704934 0.022358316770936398 -1 0 0
1432 4 67.91797798541 15.684983626935933 0.022358316770938132 -1 0 0
1585 1 65.97746432868401 16.80396505546573 1.448673828801743 -1 0 0
1591 1 69.858491642136 16.80396505546573 1.4486738288017427 -1 0 0
1434 3 65.97746432868401 14.560494635900069 2.8737643399051014 -1 0 0
1440 3 69.858491642136 14.560494635900067 2.8737643399051 -1 0 0
1436 1 71.799005298862 13.442896809234734 1.4486738288017433 -1 0 0
1443 4 73.739518955588 12.323915380704934 0.022358316770936287 -1 0 0
1442 1 75.68003261231401 13.442896809234734 1.448673828801743 -1 0 0
1438 4 71.799005298862 15.68498362693593 0.022358316770935964 -1 0 0
1444 4 75.680032612314 15.684983626935933 0.022358316770937903 -1 0 0
1597 1 73.739518955588 16.80396505546573 1.4486738288017427 -1 0 0
1446 3 73.739518955588 14.560494635900067 2.8737643399051 -1 0 0
1449 4 77.62054626904 12.323915380704934 0.022358316770936828 -1 0 0
1448 1 79.561059925766 13.442896809234732 1.4486738288017431 -1 0 0
1455 4 81.501573582492 12.323915380704932 0.022358316770935062 -1 0 0
1450 4 79.561059925766 15.684983626935932 0.02235831677093725 -1 0 0
1603 1 77.62054626903999 16.80396505546573 1.448673828801743 -1 0 0
1609 1 81.501573582492 16.80396505546573 1.448673828801743 -1 0 0
1452 3 77.62054626904 14.560494635900065 2.8737643399050996 -1 0 0
1458 3 81.501573582492 14.560494635900067 2.8737643399051014 -1 0 0
1454 1 83.442087239218 13.442896809234732 1.4486738288017431 -1 0 0
1461 4 85.382600895944 12.323915380704934 0.022358316770936828 -1 0 0
1460 1 87.32311455266999 13.442896809234734 1.448673828801743 -1 0 0
1456 4 83.442087239218 15.684983626935932 0.02235831677093725 -1 0 0
1462 4 87.32311455267 15.684983626935933 0.0223583167709379 -1 0 0
1615 1 85.38260089594401 16.80396505546573 1.448673828801743 -1 0 0
1464 3 85.382600895944 14.560494635900065 2.8737643399050996 -1 0 0
1467 4 89.263628209396 12.323915380704934 0.02235831677093629 -1 0 0
1466 1 91.204141866122 13.442896809234734 1.4486738288017433 -1 0 0
1473 4 93.144655522848 12.323915380704934 0.022358316770936294 -1 0 0
1468 4 91.204141866122 15.68498362693593 0.022358316770935967 -1 0 0
1621 1 89.263628209396 16.80396505546573 1.4486738288017427 -1 0 0
1627 1 93.144655522848 16.80396505546573 1.4486738288017427 -1 0 0
1470 3 89.263628209396 14.560494635900067 2.8737643399051 -1 0 0
1476 3 93.144655522848 14.560494635900067 2.8737643399051 -1 0 0
1472 1 95.08516917957401 13.442896809234734 1.448673828801743 -1 0 0
1479 4 97.0256828363 12.323915380704934 0.022358316770936828 -1 0 0
1478 1 98.966196493026 13.442896809234732 1.4486738288017431 -1 0 0
1474 4 95.085169179574 15.684983626935933 0.022358316770937907 -1 0 0
1480 4 98.966196493026 15.684983626935932 0.02235831677093723 -1 0 0
1633 1 97.02568283629999 16.80396505546573 1.448673828801743 -1 0 0
1482 3 97.0256828363 14.560494635900065 2.8737643399050996 -1 0 0
1641 4 8.327615223716636e-16 19.04605187316693 0.02235831677093526 0 0 0
1647 4 3.8810273134519995 19.04605187316693 0.022358316770936113 0 0 0
1640 1 1.940513656726 20.165033301696734 1.4486738288017422 0 0 0
1646 1 5.821540970177999 20.165033301696734 1.448673828801743 0 0 0
1642 4 1.9405136567259995 22.40712011939793 0.022358316770936235 0 0 0
1795 1 1.4177368562380573e-16 23.52610154792773 1.4486738288017424 0 0 0
1801 1 3.881027313451999 23.526101547927734 1.4486738288017422 0 0 0
1648 4 5.821540970177999 22.40712011939793 0.022358316770935846 0 0 0
1643 3 1.9405136567259995 17.921562882131067 2.8737643399051 0 0 0
1649 3 5.821540970177999 17.921562882131067 2.8737643399051005 0 0 0
1644 3 9.478006828482933e-16 21.282631128362066 2.873764339905101 0 0 0
1650 3 3.8810273134519995 21.282631128362066 2.8737643399051 0 0 0
1653 4 7.762054626903999 19.04605187316693 0.02235831677093604 0 0 0
1659 4 11.643081940355998 19.04605187316693 0.022358316770935308 0 0 0
1652 1 9.702568283629997 20.165033301696734 1.4486738288017422 0 0 0
1807 1 7.762054626903999 23.526101547927734 1.4486738288017422 0 0 0
1654 4 9.702568283629999 22.40712011939793 0.022358316770936307 0 0 0
1813 1 11.643081940355998 23.52610154792773 1.4486738288017427 0 0 0
1655 3 9.702568283629999 17.921562882131067 2.8737643399051005 0 0 0
1656 3 7.762054626903999 21.282631128362066 2.8737643399051 0 0 0
1662 3 11.643081940355998 21.282631128362066 2.873764339905101 0 0 0
1665 4 15.524109253807998 19.046051873166935 0.022358316770937144 0 0 0
1658 1 13.583595597081995 20.16503330169673 1.4486738288017424 0 0 0
1664 1 17.464622910533997 20.16503330169673 1.4486738288017427 0 0 0
1660 4 13.583595597081997 22.40712011939793 0.02235831677093571 0 0 0
1819 1 15.524109253808 23.52610154792773 1.4486738288017427 0 0 0
1666 4 17.464622910534 22.407120119397934 0.022358316770937203 0 0 0
1661 3 13.583595597081997 17.921562882131067 2.8737643399051005 0 0 0
1667 3 17.464622910534 17.921562882131067 2.873764339905099 0 0 0
1668 3 15.524109253807998 21.282631128362066 2.873764339905099 0 0 0
1671 4 19.40513656726 19.04605187316693 0.022358316770935704 0 0 0
1677 4 23.286163880711996 19.04605187316693 0.022358316770935697 0 0 0
1670 1 21.345650223986 20.16503330169673 1.4486738288017424 0 0 0
1825 1 19.40513656726 23.52610154792773 1.4486738288017424 0 0 0
1672 4 21.345650223986 22.40712011939793 0.022358316770934927 0 0 0
1831 1 23.286163880711996 23.52610154792773 1.4486738288017424 0 0 0
1673 3 21.345650223986 17.921562882131067 2.8737643399051014 0 0 0
1674 3 19.40513656726 21.282631128362066 2.8737643399051005 0 0 0
1680 3 23.286163880711996 21.282631128362066 2.8737643399051005 0 0 0
1683 4 27.167191194164 19.046051873166935 0.02235831677093714 0 0 0
1676 1 25.226677537438 20.16503330169673 1.4486738288017427 0 0 0
1682 1 29.107704850890002 20.16503330169673 1.4486738288017424 0 0 0
1678 4 25.226677537437997 22.407120119397934 0.02235831677093719 0 0 0
1837 1 27.167191194163998 23.52610154792773 1.4486738288017427 0 0 0
1684 4 29.107704850890002 22.40712011939793 0.022358316770935766 0 0 0
1679 3 25.226677537437997 17.921562882131067 2.873764339905099 0 0 0