LAMMPS data file via write_data, version 29 Aug 2024, timestep = 2, units = metal

7020 atoms
9 atom types

0 98.78060147826 xlo xhi
0 98.70751186302 ylo yhi
-50 50 zlo zhi

Masses

1 102.9055
2 102.9055
3 102.9055
4 127.6
5 127.6
6 127.6
7 127.6
8 127.6
9 127.6

Atoms # atomic

1174 5 1.8996269515050008 2.193505945316162 0.03339214432242982 0 0 0
1327 1 3.0293792798499753e-16 3.2889114983160397 1.5068051179389896 0 0 0
1333 1 3.7992539030100017 3.2889114983160397 1.5068051179389896 0 0 0
1180 5 5.698880854515003 2.193505945316161 0.033392144322428916 0 0 0
1329 5 7.051117137239344e-16 5.483756340750161 0.03339214432242946 0 0 0
1335 5 3.7992539030100025 5.483756340750162 0.03339214432243024 0 0 0
1339 1 7.598507806020002 3.2889114983160397 1.5068051179389896 0 0 0
1186 5 9.498134757525001 2.1935059453161605 0.033392144322428555 0 0 0
1345 1 11.39776170903 3.2889114983160397 1.5068051179389896 0 0 0
1341 5 7.598507806020002 5.483756340750161 0.03339214432242918 0 0 0
1347 5 11.39776170903 5.483756340750161 0.033392144322429575 0 0 0
1192 5 13.297388660535 2.193505945316162 0.03339214432242976 0 0 0
1351 1 15.197015612040001 3.2889114983160397 1.5068051179389896 0 0 0
1198 5 17.096642563545004 2.193505945316161 0.03339214432242903 0 0 0
1353 5 15.197015612040003 5.483756340750162 0.03339214432243024 0 0 0
1357 1 18.996269515050002 3.2889114983160397 1.5068051179389896 0 0 0
1204 5 20.895896466555 2.1935059453161605 0.033392144322428575 0 0 0
1363 1 22.79552341806 3.2889114983160397 1.5068051179389896 0 0 0
1359 5 18.996269515050002 5.483756340750161 0.03339214432242918 0 0 0
1365 5 22.79552341806 5.483756340750161 0.03339214432242921 0 0 0
1210 5 24.695150369565 2.1935059453161605 0.033392144322428575 0 0 0
1369 1 26.594777321069998 3.2889114983160397 1.5068051179389896 0 0 0
1216 5 28.494404272574997 2.1935059453161614 0.0333921443224295 0 0 0
1371 5 26.594777321069998 5.483756340750161 0.033392144322429165 0 0 0
1375 1 30.394031224080003 3.2889114983160397 1.5068051179389894 0 0 0
1222 5 32.293658175585 2.1935059453161627 0.03339214432243075 0 0 0
1381 1 34.19328512709001 3.2889114983160397 1.5068051179389894 0 0 0
1377 5 30.39403122408 5.483756340750163 0.033392144322431476 0 0 0
1383 5 34.19328512709001 5.483756340750161 0.03339214432242965 0 0 0
1228 5 36.092912078595006 2.1935059453161605 0.03339214432242851 0 0 0
1387 1 37.992539030100005 3.2889114983160397 1.5068051179389896 0 0 0
1234 5 39.892165981605004 2.1935059453161605 0.033392144322428575 0 0 0
1389 5 37.992539030100005 5.483756340750161 0.03339214432242921 0 0 0
1393 1 41.79179293311 3.2889114983160397 1.5068051179389896 0 0 0
1240 5 43.691419884615 2.1935059453161605 0.033392144322428575 0 0 0
1399 1 45.59104683612 3.2889114983160397 1.5068051179389896 0 0 0
1395 5 41.79179293311 5.483756340750161 0.03339214432242921 0 0 0
1401 5 45.59104683612 5.483756340750161 0.03339214432242921 0 0 0
1246 5 47.490673787625 2.1935059453161605 0.033392144322428575 0 0 0
1096 5 51.289927690635 2.1935059453161605 0.03339214432242857 -1 0 0
1249 1 49.39030073913 3.2889114983160397 1.5068051179389896 -1 0 0
1251 5 49.39030073913 5.483756340750161 0.03339214432242921 -1 0 0
1255 1 53.189554642139996 3.2889114983160397 1.5068051179389896 -1 0 0
1102 5 55.089181593644994 2.193505945316162 0.03339214432242959 -1 0 0
1261 1 56.98880854514999 3.2889114983160397 1.5068051179389896 -1 0 0
1257 5 53.189554642139996 5.483756340750161 0.033392144322429755 -1 0 0
1263 5 56.98880854515 5.483756340750162 0.03339214432243007 -1 0 0
1108 5 58.888435496655 2.193505945316161 0.03339214432242922 -1 0 0
1267 1 60.78806244816 3.2889114983160397 1.5068051179389894 -1 0 0
1114 5 62.687689399665 2.1935059453161605 0.033392144322428416 -1 0 0
1269 5 60.78806244816 5.48375634075016 0.03339214432242862 -1 0 0
1273 1 64.58731635117 3.2889114983160397 1.5068051179389894 -1 0 0
1120 5 66.486943302675 2.1935059453161623 0.03339214432243042 -1 0 0
1279 1 68.38657025418 3.2889114983160397 1.5068051179389896 -1 0 0
1275 5 64.58731635116999 5.483756340750162 0.03339214432243004 -1 0 0
1281 5 68.38657025418 5.483756340750162 0.03339214432243031 -1 0 0
1126 5 70.286197205685 2.1935059453161605 0.033392144322428555 -1 0 0
1285 1 72.18582415719 3.2889114983160397 1.5068051179389896 -1 0 0
1132 5 74.085451108695 2.1935059453161605 0.033392144322428575 -1 0 0
1287 5 72.18582415719 5.483756340750161 0.03339214432242921 -1 0 0
1291 1 75.9850780602 3.2889114983160397 1.5068051179389896 -1 0 0
1138 5 77.884705011705 2.1935059453161605 0.033392144322428555 -1 0 0
1297 1 79.78433196321 3.2889114983160397 1.5068051179389896 -1 0 0
1293 5 75.9850780602 5.483756340750161 0.03339214432242921 -1 0 0
1299 5 79.78433196321 5.483756340750162 0.03339214432243041 -1 0 0
1144 5 81.68395891471499 2.1935059453161623 0.033392144322430456 -1 0 0
1303 1 83.58358586621999 3.2889114983160397 1.5068051179389896 -1 0 0
1150 5 85.483212817725 2.193505945316161 0.033392144322428534 -1 0 0
1305 5 83.58358586621999 5.483756340750161 0.03339214432242905 -1 0 0
1309 1 87.38283976923 3.2889114983160397 1.5068051179389896 -1 0 0
1156 5 89.282466720735 2.193505945316161 0.033392144322428506 -1 0 0
1315 1 91.18209367224 3.2889114983160397 1.5068051179389896 -1 0 0
1311 5 87.38283976922999 5.483756340750161 0.03339214432242909 -1 0 0
1317 5 91.18209367224 5.483756340750162 0.03339214432243104 -1 0 0
1162 5 93.081720623745 2.1935059453161614 0.033392144322429866 -1 0 0
1321 1 94.98134757525 3.2889114983160397 1.5068051179389896 -1 0 0
1168 5 96.880974526755 2.1935059453161605 0.033392144322428555 -1 0 0
1323 5 94.98134757525 5.483756340750161 0.033392144322429186 -1 0 0
1328 1 1.899626951505002 6.57916189375004 1.5068051179389896 0 0 0
1334 1 5.698880854515004 6.57916189375004 1.5068051179389896 0 0 0
1330 5 1.899626951505001 8.77400673618416 0.033392144322430366 0 0 0
1336 5 5.698880854515003 8.774006736184162 0.033392144322429464 0 0 0
1483 1 4.234529479373304e-16 9.86941228918404 1.5068051179389894 0 0 0
1489 1 3.7992539030100017 9.86941228918404 1.5068051179389894 0 0 0
1340 1 9.498134757525001 6.57916189375004 1.5068051179389896 0 0 0
1342 5 9.498134757525001 8.77400673618416 0.03339214432242919 0 0 0
1495 1 7.598507806020002 9.86941228918404 1.5068051179389894 0 0 0
1501 1 11.39776170903 9.86941228918404 1.5068051179389894 0 0 0
1346 1 13.297388660535002 6.57916189375004 1.5068051179389896 0 0 0
1352 1 17.096642563545004 6.57916189375004 1.5068051179389896 0 0 0
1348 5 13.297388660535 8.77400673618416 0.03339214432243024 0 0 0
1354 5 17.096642563545004 8.774006736184162 0.03339214432242958 0 0 0
1507 1 15.197015612040001 9.86941228918404 1.5068051179389894 0 0 0
1358 1 20.895896466555 6.57916189375004 1.5068051179389896 0 0 0
1360 5 20.895896466555 8.77400673618416 0.033392144322429214 0 0 0
1513 1 18.996269515050002 9.86941228918404 1.5068051179389894 0 0 0
1519 1 22.79552341806 9.86941228918404 1.5068051179389894 0 0 0
1364 1 24.695150369565 6.57916189375004 1.5068051179389896 0 0 0
1370 1 28.494404272574997 6.57916189375004 1.5068051179389894 0 0 0
1366 5 24.695150369565 8.77400673618416 0.03339214432242921 0 0 0
1372 5 28.494404272574997 8.774006736184162 0.03339214432242999 0 0 0
1525 1 26.594777321069998 9.86941228918404 1.5068051179389894 0 0 0
1376 1 32.293658175585 6.57916189375004 1.5068051179389894 0 0 0
1378 5 32.293658175585 8.774006736184162 0.03339214432243124 0 0 0
1531 1 30.394031224080003 9.86941228918404 1.5068051179389892 0 0 0
1537 1 34.19328512709001 9.86941228918404 1.5068051179389894 0 0 0
1382 1 36.092912078595006 6.57916189375004 1.5068051179389896 0 0 0
1388 1 39.892165981605004 6.57916189375004 1.5068051179389896 0 0 0
1384 5 36.092912078595006 8.77400673618416 0.03339214432242915 0 0 0
1390 5 39.892165981605004 8.77400673618416 0.033392144322429214 0 0 0
1543 1 37.992539030100005 9.86941228918404 1.5068051179389894 0 0 0
1394 1 43.691419884615 6.57916189375004 1.5068051179389896 0 0 0
1396 5 43.691419884615 8.77400673618416 0.033392144322429214 0 0 0
1549 1 41.79179293311 9.86941228918404 1.5068051179389894 0 0 0
1555 1 45.59104683612 9.86941228918404 1.5068051179389894 0 0 0
1400 1 47.490673787625 6.57916189375004 1.5068051179389896 0 0 0
1250 1 51.289927690635 6.57916189375004 1.5068051179389896 -1 0 0
1402 5 47.490673787625 8.77400673618416 0.03339214432242921 0 0 0
1252 5 51.289927690635 8.77400673618416 0.03339214432242921 -1 0 0
1405 1 49.39030073913 9.86941228918404 1.5068051179389894 -1 0 0
1256 1 55.089181593645 6.57916189375004 1.5068051179389896 -1 0 0
1258 5 55.089181593644994 8.77400673618416 0.033392144322430116 -1 0 0
1411 1 53.189554642139996 9.86941228918404 1.5068051179389894 -1 0 0
1417 1 56.98880854514999 9.86941228918404 1.5068051179389894 -1 0 0
1262 1 58.888435496655 6.57916189375004 1.5068051179389896 -1 0 0
1268 1 62.68768939966499 6.57916189375004 1.5068051179389896 -1 0 0
1264 5 58.888435496655 8.774006736184162 0.033392144322429776 -1 0 0
1270 5 62.687689399665 8.77400673618416 0.03339214432242891 -1 0 0
1423 1 60.78806244816 9.86941228918404 1.5068051179389894 -1 0 0
1274 1 66.48694330267499 6.57916189375004 1.5068051179389896 -1 0 0
1276 5 66.486943302675 8.774006736184162 0.033392144322430914 -1 0 0
1429 1 64.58731635117 9.86941228918404 1.5068051179389894 -1 0 0
1435 1 68.38657025418 9.86941228918404 1.5068051179389894 -1 0 0
1280 1 70.286197205685 6.57916189375004 1.5068051179389896 -1 0 0
1286 1 74.085451108695 6.57916189375004 1.5068051179389896 -1 0 0
1282 5 70.286197205685 8.77400673618416 0.033392144322429186 -1 0 0
1288 5 74.085451108695 8.77400673618416 0.033392144322429214 -1 0 0
1441 1 72.18582415719 9.86941228918404 1.5068051179389894 -1 0 0
1292 1 77.884705011705 6.57916189375004 1.5068051179389896 -1 0 0
1294 5 77.884705011705 8.77400673618416 0.03339214432242919 -1 0 0
1447 1 75.9850780602 9.86941228918404 1.5068051179389894 -1 0 0
1453 1 79.78433196321 9.86941228918404 1.5068051179389894 -1 0 0
1298 1 81.68395891471499 6.57916189375004 1.5068051179389896 -1 0 0
1304 1 85.48321281772499 6.57916189375004 1.5068051179389896 -1 0 0
1300 5 81.68395891471499 8.774006736184162 0.03339214432243104 -1 0 0
1306 5 85.483212817725 8.77400673618416 0.033392144322429096 -1 0 0
1459 1 83.58358586621999 9.86941228918404 1.5068051179389894 -1 0 0
1310 1 89.282466720735 6.57916189375004 1.5068051179389896 -1 0 0
1312 5 89.282466720735 8.774006736184162 0.033392144322429054 -1 0 0
1465 1 87.38283976923 9.86941228918404 1.5068051179389894 -1 0 0
1471 1 91.18209367224 9.86941228918404 1.5068051179389894 -1 0 0
1316 1 93.081720623745 6.57916189375004 1.5068051179389894 -1 0 0
1322 1 96.880974526755 6.57916189375004 1.5068051179389896 -1 0 0
1318 5 93.081720623745 8.774006736184162 0.0333921443224304 -1 0 0
1324 5 96.880974526755 8.77400673618416 0.03339214432242919 -1 0 0
1477 1 94.98134757525 9.86941228918404 1.5068051179389894 -1 0 0
1485 5 7.136715909546355e-16 12.064257131618161 0.03339214432242966 0 0 0
1484 1 1.8996269515050017 13.15966268461804 1.5068051179389903 0 0 0
1491 5 3.7992539030100025 12.064257131618161 0.03339214432243049 0 0 0
1490 1 5.698880854515004 13.15966268461804 1.5068051179389905 0 0 0
1486 5 1.8996269515050008 15.35450752705216 0.033392144322429824 0 0 0
1492 5 5.698880854515003 15.354507527052158 0.033392144322429075 0 0 0
1639 1 2.8357649855003254e-16 16.44991308005204 1.5068051179389894 0 0 0
1645 1 3.7992539030100017 16.44991308005204 1.5068051179389896 0 0 0
1497 5 7.598507806020002 12.064257131618161 0.033392144322429256 0 0 0
1496 1 9.498134757525001 13.15966268461804 1.5068051179389907 0 0 0
1503 5 11.39776170903 12.064257131618161 0.03339214432242965 0 0 0
1498 5 9.498134757525001 15.354507527052158 0.03339214432242882 0 0 0
1651 1 7.598507806020002 16.44991308005204 1.5068051179389892 0 0 0
1657 1 11.39776170903 16.44991308005204 1.5068051179389894 0 0 0
1502 1 13.297388660535002 13.15966268461804 1.5068051179389903 0 0 0
1509 5 15.197015612040003 12.064257131618161 0.03339214432243049 0 0 0
1508 1 17.096642563545004 13.15966268461804 1.5068051179389905 0 0 0
1504 5 13.297388660535 15.35450752705216 0.033392144322429824 0 0 0
1510 5 17.096642563545004 15.354507527052158 0.033392144322429124 0 0 0
1663 1 15.197015612040001 16.44991308005204 1.5068051179389896 0 0 0
1515 5 18.996269515050002 12.064257131618161 0.033392144322429256 0 0 0
1514 1 20.895896466555 13.15966268461804 1.5068051179389907 0 0 0
1521 5 22.79552341806 12.064257131618161 0.03339214432242927 0 0 0
1516 5 20.895896466555 15.354507527052158 0.033392144322428846 0 0 0
1669 1 18.996269515050002 16.44991308005204 1.5068051179389892 0 0 0
1675 1 22.79552341806 16.44991308005204 1.5068051179389892 0 0 0
1520 1 24.695150369565 13.15966268461804 1.5068051179389907 0 0 0
1527 5 26.594777321069998 12.064257131618161 0.033392144322429235 0 0 0
1526 1 28.494404272574997 13.15966268461804 1.5068051179389907 0 0 0
1522 5 24.695150369565 15.354507527052158 0.03339214432242884 0 0 0
1528 5 28.494404272574997 15.354507527052158 0.03339214432242921 0 0 0
1681 1 26.594777321069998 16.44991308005204 1.5068051179389892 0 0 0
1533 5 30.39403122408 12.064257131618163 0.033392144322431656 0 0 0
1532 1 32.293658175585 13.15966268461804 1.5068051179389907 0 0 0
1539 5 34.19328512709001 12.064257131618161 0.03339214432242966 0 0 0
1534 5 32.293658175585 15.35450752705216 0.03339214432243107 0 0 0
1687 1 30.39403122408 16.44991308005204 1.5068051179389894 0 0 0
1693 1 34.19328512709001 16.44991308005204 1.506805117938989 0 0 0
1538 1 36.092912078595006 13.15966268461804 1.5068051179389907 0 0 0
1545 5 37.992539030100005 12.064257131618161 0.03339214432242927 0 0 0
1544 1 39.892165981605004 13.15966268461804 1.5068051179389907 0 0 0
1540 5 36.092912078595006 15.354507527052158 0.03339214432242878 0 0 0
1546 5 39.892165981605004 15.354507527052158 0.033392144322428846 0 0 0
1699 1 37.992539030100005 16.44991308005204 1.5068051179389892 0 0 0
1551 5 41.79179293311 12.064257131618161 0.03339214432242927 0 0 0
1550 1 43.691419884615 13.15966268461804 1.5068051179389907 0 0 0
1557 5 45.59104683612 12.064257131618161 0.03339214432242927 0 0 0
1552 5 43.691419884615 15.354507527052158 0.033392144322428846 0 0 0
1705 1 41.79179293311 16.44991308005204 1.5068051179389892 0 0 0
1711 1 45.59104683612 16.44991308005204 1.5068051179389892 0 0 0
1556 1 47.490673787625 13.15966268461804 1.5068051179389907 0 0 0
1407 5 49.39030073913 12.064257131618161 0.033392144322429276 -1 0 0
1406 1 51.289927690635 13.15966268461804 1.5068051179389907 -1 0 0
1558 5 47.490673787625 15.354507527052158 0.03339214432242884 0 0 0
1408 5 51.289927690635 15.354507527052158 0.03339214432242883 -1 0 0
1561 1 49.39030073913 16.44991308005204 1.5068051179389892 -1 0 0
1413 5 53.189554642139996 12.064257131618161 0.03339214432242983 -1 0 0
1412 1 55.089181593645 13.15966268461804 1.5068051179389903 -1 0 0
1419 5 56.98880854515 12.064257131618161 0.03339214432243032 -1 0 0
1414 5 55.089181593644994 15.354507527052158 0.03339214432242963 -1 0 0
1567 1 53.189554642139996 16.44991308005204 1.5068051179389894 -1 0 0
1573 1 56.98880854514999 16.44991308005204 1.5068051179389896 -1 0 0
1418 1 58.888435496655 13.15966268461804 1.5068051179389905 -1 0 0
1425 5 60.78806244816 12.064257131618161 0.03339214432242877 -1 0 0
1424 1 62.68768939966499 13.15966268461804 1.5068051179389903 -1 0 0
1420 5 58.888435496655 15.354507527052158 0.03339214432242931 -1 0 0
1426 5 62.687689399665 15.354507527052158 0.033392144322428347 -1 0 0
1579 1 60.78806244816 16.44991308005204 1.5068051179389892 -1 0 0
1431 5 64.58731635116999 12.064257131618161 0.03339214432243027 -1 0 0
1430 1 66.48694330267499 13.15966268461804 1.5068051179389903 -1 0 0
1437 5 68.38657025418 12.064257131618163 0.033392144322430366 -1 0 0
1432 5 66.486943302675 15.35450752705216 0.03339214432243054 -1 0 0
1585 1 64.58731635117 16.44991308005204 1.5068051179389894 -1 0 0
1591 1 68.38657025418 16.44991308005204 1.5068051179389892 -1 0 0
1436 1 70.286197205685 13.15966268461804 1.5068051179389907 -1 0 0
1443 5 72.18582415719 12.064257131618161 0.033392144322429276 -1 0 0
1442 1 74.085451108695 13.15966268461804 1.5068051179389907 -1 0 0
1438 5 70.286197205685 15.354507527052158 0.03339214432242881 -1 0 0
1444 5 74.085451108695 15.354507527052158 0.033392144322428846 -1 0 0
1597 1 72.18582415719 16.44991308005204 1.5068051179389892 -1 0 0
1449 5 75.9850780602 12.064257131618161 0.033392144322429276 -1 0 0
1448 1 77.884705011705 13.15966268461804 1.5068051179389907 -1 0 0
1455 5 79.78433196321 12.064257131618163 0.033392144322430456 -1 0 0
1450 5 77.884705011705 15.354507527052158 0.03339214432242881 -1 0 0
1603 1 75.9850780602 16.44991308005204 1.5068051179389892 -1 0 0
1609 1 79.78433196321 16.44991308005204 1.5068051179389892 -1 0 0
1454 1 81.68395891471499 13.15966268461804 1.5068051179389903 -1 0 0
1461 5 83.58358586621999 12.064257131618161 0.033392144322429235 -1 0 0
1460 1 85.48321281772499 13.15966268461804 1.5068051179389907 -1 0 0
1456 5 81.68395891471499 15.35450752705216 0.0333921443224306 -1 0 0
1462 5 85.483212817725 15.354507527052158 0.03339214432242867 -1 0 0
1615 1 83.58358586621999 16.44991308005204 1.5068051179389892 -1 0 0
1467 5 87.38283976922999 12.064257131618161 0.033392144322429276 -1 0 0
1466 1 89.282466720735 13.15966268461804 1.5068051179389907 -1 0 0
1473 5 91.18209367224 12.064257131618163 0.0333921443224312 -1 0 0
1468 5 89.282466720735 15.354507527052158 0.033392144322428506 -1 0 0
1621 1 87.38283976923 16.44991308005204 1.5068051179389892 -1 0 0
1627 1 91.18209367224 16.44991308005204 1.5068051179389892 -1 0 0
1472 1 93.081720623745 13.15966268461804 1.5068051179389907 -1 0 0
1479 5 94.98134757525 12.064257131618161 0.033392144322429256 -1 0 0
1478 1 96.880974526755 13.15966268461804 1.5068051179389907 -1 0 0
1474 5 93.081720623745 15.354507527052158 0.033392144322429894 -1 0 0
1480 5 96.880974526755 15.354507527052158 0.03339214432242882 -1 0 0
1633 1 94.98134757525 16.44991308005204 1.5068051179389892 -1 0 0
1641 5 7.069961693607243e-16 18.644757922486157 0.0333921443224296 0 0 0
1640 1 1.899626951505002 19.74016347548604 1.5068051179389894 0 0 0
1647 5 3.7992539030100025 18.644757922486157 0.033392144322430484 0 0 0
1646 1 5.698880854515004 19.74016347548604 1.5068051179389892 0 0 0
1642 5 1.899626951505001 21.935008317920158 0.0333921443224303 0 0 0
1795 1 4.327385314418544e-16 23.03041387092004 1.5068051179389892 0 0 0
1801 1 3.7992539030100017 23.03041387092004 1.5068051179389894 0 0 0
1648 5 5.698880854515003 21.935008317920158 0.03339214432242953 0 0 0
1653 5 7.598507806020002 18.644757922486157 0.03339214432242932 0 0 0
1652 1 9.498134757525001 19.74016347548604 1.5068051179389892 0 0 0
1659 5 11.39776170903 18.644757922486157 0.03339214432242966 0 0 0
1807 1 7.598507806020002 23.03041387092004 1.5068051179389892 0 0 0
1654 5 9.498134757525001 21.935008317920158 0.03339214432242926 0 0 0
1813 1 11.39776170903 23.03041387092004 1.5068051179389892 0 0 0
1658 1 13.297388660535002 19.74016347548604 1.5068051179389894 0 0 0
1665 5 15.197015612040003 18.644757922486157 0.03339214432243036 0 0 0
1664 1 17.096642563545004 19.74016347548604 1.5068051179389892 0 0 0
1660 5 13.297388660535 21.935008317920158 0.03339214432243024 0 0 0
1819 1 15.197015612040001 23.03041387092004 1.5068051179389894 0 0 0
1666 5 17.096642563545004 21.935008317920158 0.03339214432242959 0 0 0
1671 5 18.996269515050002 18.644757922486157 0.03339214432242932 0 0 0
1670 1 20.895896466555 19.74016347548604 1.5068051179389892 0 0 0
1677 5 22.79552341806 18.644757922486157 0.03339214432242934 0 0 0
1825 1 18.996269515050002 23.03041387092004 1.5068051179389892 0 0 0
1672 5 20.895896466555 21.935008317920158 0.03339214432242928 0 0 0
1831 1 22.79552341806 23.03041387092004 1.5068051179389892 0 0 0
1676 1 24.695150369565 19.74016347548604 1.5068051179389892 0 0 0
1683 5 26.594777321069998 18.644757922486157 0.033392144322429304 0 0 0
1682 1 28.494404272574997 19.74016347548604 1.5068051179389892 0 0 0
1678 5 24.695150369565 21.935008317920158 0.03339214432242928 0 0 0
1837 1 26.594777321069998 23.03041387092004 1.5068051179389894 0 0 0
1684 5 28.494404272574997 21.935008317920158 0.03339214432242964 0 0 0
1689 5 30.39403122408 18.644757922486157 0.0333921443224316 0 0 0
1688 1 32.293658175585 19.74016347548604 1.5068051179389896 0 0 0
1695 5 34.19328512709001 18.644757922486157 0.033392144322429665 0 0 0
1843 1 30.39403122408 23.03041387092004 1.5068051179389896 0 0 0
1690 5 32.293658175585 21.935008317920158 0.03339214432243152 0 0 0
1849 1 34.19328512709001 23.03041387092004 1.5068051179389892 0 0 0
1694 1 36.092912078595006 19.74016347548604 1.5068051179389892 0 0 0
1701 5 37.992539030100005 18.644757922486157 0.03339214432242934 0 0 0
1700 1 39.892165981605004 19.74016347548604 1.5068051179389892 0 0 0
1696 5 36.092912078595006 21.935008317920158 0.03339214432242923 0 0 0
1855 1 37.992539030100005 23.03041387092004 1.5068051179389892 0 0 0
1702 5 39.892165981605004 21.935008317920158 0.03339214432242928 0 0 0
1707 5 41.79179293311 18.644757922486157 0.03339214432242934 0 0 0
1706 1 43.691419884615 19.74016347548604 1.5068051179389892 0 0 0
1713 5 45.59104683612 18.644757922486157 0.03339214432242934 0 0 0
1861 1 41.79179293311 23.03041387092004 1.5068051179389892 0 0 0
1708 5 43.691419884615 21.935008317920158 0.03339214432242928 0 0 0
1867 1 45.59104683612 23.03041387092004 1.5068051179389892 0 0 0
1712 1 47.490673787625 19.74016347548604 1.5068051179389892 0 0 0
1563 5 49.39030073913 18.644757922486157 0.03339214432242934 -1 0 0
1562 1 51.289927690635 19.74016347548604 1.5068051179389892 -1 0 0
1714 5 47.490673787625 21.935008317920158 0.03339214432242928 0 0 0
1564 5 51.289927690635 21.935008317920158 0.033392144322429276 -1 0 0
1717 1 49.39030073913 23.03041387092004 1.5068051179389892 -1 0 0
1569 5 53.189554642139996 18.644757922486157 0.033392144322429824 -1 0 0
1568 1 55.089181593645 19.74016347548604 1.5068051179389894 -1 0 0
1575 5 56.98880854515 18.644757922486157 0.03339214432243017 -1 0 0
1723 1 53.189554642139996 23.03041387092004 1.5068051179389892 -1 0 0
1570 5 55.089181593644994 21.935008317920158 0.03339214432243005 -1 0 0
1729 1 56.98880854514999 23.03041387092004 1.5068051179389894 -1 0 0
1574 1 58.888435496655 19.74016347548604 1.5068051179389894 -1 0 0
1581 5 60.78806244816 18.644757922486157 0.03339214432242871 -1 0 0
1580 1 62.68768939966499 19.74016347548604 1.5068051179389894 -1 0 0
1576 5 58.888435496655 21.935008317920158 0.03339214432242976 -1 0 0
1735 1 60.78806244816 23.03041387092004 1.5068051179389894 -1 0 0
1582 5 62.687689399665 21.935008317920158 0.03339214432242885 -1 0 0
1587 5 64.58731635116999 18.644757922486157 0.033392144322430165 -1 0 0
1586 1 66.48694330267499 19.74016347548604 1.5068051179389896 -1 0 0
1593 5 68.38657025418 18.644757922486157 0.033392144322430393 -1 0 0
1741 1 64.58731635117 23.03041387092004 1.5068051179389892 -1 0 0
1588 5 66.486943302675 21.935008317920158 0.033392144322430935 -1 0 0
1747 1 68.38657025418 23.03041387092004 1.5068051179389892 -1 0 0
1592 1 70.286197205685 19.74016347548604 1.5068051179389892 -1 0 0
1599 5 72.18582415719 18.644757922486157 0.03339214432242934 -1 0 0
1598 1 74.085451108695 19.74016347548604 1.5068051179389892 -1 0 0
1594 5 70.286197205685 21.935008317920158 0.03339214432242927 -1 0 0
1753 1 72.18582415719 23.03041387092004 1.5068051179389892 -1 0 0
1600 5 74.085451108695 21.935008317920158 0.03339214432242928 -1 0 0
1605 5 75.9850780602 18.644757922486157 0.03339214432242934 -1 0 0
1604 1 77.884705011705 19.74016347548604 1.5068051179389892 -1 0 0
1611 5 79.78433196321 18.644757922486157 0.03339214432243047 -1 0 0
1759 1 75.9850780602 23.03041387092004 1.5068051179389892 -1 0 0
1606 5 77.884705011705 21.935008317920158 0.033392144322429256 -1 0 0
1765 1 79.78433196321 23.03041387092004 1.5068051179389894 -1 0 0
1610 1 81.68395891471499 19.74016347548604 1.5068051179389894 -1 0 0
1617 5 83.58358586621999 18.644757922486157 0.03339214432242915 -1 0 0
1616 1 85.48321281772499 19.74016347548604 1.5068051179389894 -1 0 0
1612 5 81.68395891471499 21.93500831792016 0.033392144322431136 -1 0 0
1771 1 83.58358586621999 23.03041387092004 1.5068051179389894 -1 0 0
1618 5 85.483212817725 21.935008317920158 0.03339214432242913 -1 0 0
1623 5 87.38283976922999 18.644757922486157 0.03339214432242917 -1 0 0
1622 1 89.282466720735 19.74016347548604 1.5068051179389894 -1 0 0
1629 5 91.18209367224 18.64475792248616 0.033392144322431185 -1 0 0
1777 1 87.38283976923 23.03041387092004 1.5068051179389894 -1 0 0
1624 5 89.282466720735 21.935008317920158 0.03339214432242911 -1 0 0
1783 1 91.18209367224 23.03041387092004 1.5068051179389894 -1 0 0
1628 1 93.081720623745 19.74016347548604 1.5068051179389894 -1 0 0
1635 5 94.98134757525 18.644757922486157 0.03339214432242931 -1 0 0
1634 1 96.880974526755 19.74016347548604 1.5068051179389892 -1 0 0
1630 5 93.081720623745 21.935008317920158 0.03339214432243042 -1 0 0
1789 1 94.98134757525 23.03041387092004 1.5068051179389894 -1 0 0
1636 5 96.880974526755 21.935008317920158 0.03339214432242927 -1 0 0
1797 5 7.204154658508381e-16 25.225258713354158 0.03339214432242953 0 0 0
1803 5 3.7992539030100025 25.225258713354158 0.033392144322430366 0 0 0
1796 1 1.899626951505002 26.32066426635404 1.5068051179389894 0 0 0
1802 1 5.698880854515004 26.32066426635404 1.5068051179389892 0 0 0
1798 5 1.899626951505001 28.51550910878816 0.0333921443224303 0 0 0
1804 5 5.698880854515003 28.51550910878816 0.03339214432242954 0 0 0
1809 5 7.598507806020002 25.225258713354158 0.03339214432242926 0 0 0
1815 5 11.39776170903 25.225258713354158 0.03339214432242959 0 0 0
1808 1 9.498134757525001 26.32066426635404 1.5068051179389892 0 0 0
1810 5 9.498134757525001 28.51550910878816 0.03339214432242927 0 0 0
1821 5 15.197015612040003 25.225258713354158 0.03339214432243024 0 0 0
1814 1 13.297388660535002 26.32066426635404 1.5068051179389894 0 0 0
1820 1 17.096642563545004 26.32066426635404 1.5068051179389892 0 0 0
1816 5 13.297388660535 28.51550910878816 0.03339214432243024 0 0 0
1822 5 17.096642563545004 28.51550910878816 0.03339214432242959 0 0 0
1827 5 18.996269515050002 25.225258713354158 0.03339214432242926 0 0 0
1833 5 22.79552341806 25.225258713354158 0.03339214432242928 0 0 0
1826 1 20.895896466555 26.32066426635404 1.5068051179389892 0 0 0
1828 5 20.895896466555 28.51550910878816 0.03339214432242929 0 0 0
1839 5 26.594777321069998 25.225258713354158 0.03339214432242925 0 0 0
1832 1 24.695150369565 26.32066426635404 1.5068051179389892 0 0 0
1838 1 28.494404272574997 26.32066426635404 1.5068051179389892 0 0 0
1834 5 24.695150369565 28.51550910878816 0.03339214432242929 0 0 0
1840 5 28.494404272574997 28.51550910878816 0.033392144322429644 0 0 0
1845 5 30.39403122408 25.225258713354158 0.03339214432243154 0 0 0
1851 5 34.19328512709001 25.225258713354158 0.033392144322429596 0 0 0
1844 1 32.293658175585 26.32066426635404 1.5068051179389896 0 0 0
1846 5 32.293658175585 28.51550910878816 0.03339214432243152 0 0 0
1857 5 37.992539030100005 25.225258713354158 0.03339214432242928 0 0 0
1850 1 36.092912078595006 26.32066426635404 1.5068051179389894 0 0 0
1856 1 39.892165981605004 26.32066426635404 1.5068051179389892 0 0 0
1852 5 36.092912078595006 28.51550910878816 0.033392144322429235 0 0 0
1858 5 39.892165981605004 28.51550910878816 0.03339214432242929 0 0 0
1863 5 41.79179293311 25.225258713354158 0.03339214432242928 0 0 0
1869 5 45.59104683612 25.225258713354158 0.03339214432242928 0 0 0
1862 1 43.691419884615 26.32066426635404 1.5068051179389892 0 0 0
1864 5 43.691419884615 28.51550910878816 0.03339214432242929 0 0 0
1719 5 49.39030073913 25.225258713354158 0.03339214432242929 -1 0 0
1868 1 47.490673787625 26.32066426635404 1.5068051179389892 0 0 0
1718 1 51.289927690635 26.32066426635404 1.5068051179389892 -1 0 0
1870 5 47.490673787625 28.51550910878816 0.03339214432242929 0 0 0
1720 5 51.289927690635 28.51550910878816 0.033392144322429276 -1 0 0
1725 5 53.189554642139996 25.225258713354158 0.03339214432242976 -1 0 0
1731 5 56.98880854515 25.225258713354158 0.03339214432243005 -1 0 0
1724 1 55.089181593645 26.32066426635404 1.5068051179389894 -1 0 0
1726 5 55.089181593644994 28.51550910878816 0.03339214432243005 -1 0 0
1737 5 60.78806244816 25.225258713354158 0.033392144322428575 -1 0 0
1730 1 58.888435496655 26.32066426635404 1.5068051179389894 -1 0 0
1736 1 62.68768939966499 26.32066426635404 1.5068051179389894 -1 0 0
1732 5 58.888435496655 28.51550910878816 0.03339214432242977 -1 0 0
1738 5 62.687689399665 28.51550910878816 0.03339214432242885 -1 0 0
1743 5 64.58731635116999 25.225258713354158 0.03339214432243008 -1 0 0
1749 5 68.38657025418 25.225258713354158 0.03339214432243032 -1 0 0
1742 1 66.48694330267499 26.32066426635404 1.5068051179389896 -1 0 0
1744 5 66.486943302675 28.51550910878816 0.033392144322430935 -1 0 0
1755 5 72.18582415719 25.225258713354158 0.03339214432242928 -1 0 0
1748 1 70.286197205685 26.32066426635404 1.5068051179389894 -1 0 0
1754 1 74.085451108695 26.32066426635404 1.5068051179389892 -1 0 0
1750 5 70.286197205685 28.51550910878816 0.033392144322429276 -1 0 0
1756 5 74.085451108695 28.51550910878816 0.03339214432242929 -1 0 0
1761 5 75.9850780602 25.225258713354158 0.03339214432242928 -1 0 0
1767 5 79.78433196321 25.225258713354158 0.03339214432243042 -1 0 0
1760 1 77.884705011705 26.32066426635404 1.5068051179389892 -1 0 0
1762 5 77.884705011705 28.51550910878816 0.03339214432242926 -1 0 0
1773 5 83.58358586621999 25.225258713354158 0.03339214432242911 -1 0 0
1766 1 81.68395891471499 26.32066426635404 1.5068051179389894 -1 0 0
1772 1 85.48321281772499 26.32066426635404 1.5068051179389894 -1 0 0
1768 5 81.68395891471499 28.515509108788162 0.033392144322431136 -1 0 0
1774 5 85.483212817725 28.51550910878816 0.03339214432242913 -1 0 0
1779 5 87.38283976922999 25.225258713354158 0.033392144322429124 -1 0 0
1785 5 91.18209367224 25.22525871335416 0.03339214432243114 -1 0 0