LAMMPS data file via write_data, version 29 Aug 2024, timestep = 2, units = metal

4680 atoms
6 atom types

0 98.78060147826 xlo xhi
0 98.70751186302 ylo yhi
-50 50 zlo zhi

Masses

1 102.9055
2 102.9055
3 127.6
4 127.6
5 127.6
6 127.6

Atoms # atomic

1174 4 1.899626951505001 2.19350612146498 0.03390161809907083 0 0 0
1327 1 4.474514420072087e-16 3.2889055628121615 1.5067998944878258 0 0 0
1333 1 3.7992539030100017 3.2889055628121615 1.5067998944878256 0 0 0
1180 4 5.698880854515003 2.1935061214649796 0.03390161809907001 0 0 0
1329 4 7.098191047804536e-16 5.483756516898979 0.0339016180990706 0 0 0
1335 4 3.7992539030100025 5.48375651689898 0.03390161809907134 0 0 0
1339 1 7.598507806020002 3.2889055628121615 1.5067998944878258 0 0 0
1186 4 9.498134757525001 2.193506121464979 0.03390161809906969 0 0 0
1345 1 11.39776170903 3.2889055628121615 1.5067998944878258 0 0 0
1341 4 7.598507806020002 5.483756516898979 0.03390161809907034 0 0 0
1347 4 11.39776170903 5.483756516898979 0.03390161809907065 0 0 0
1192 4 13.297388660535 2.19350612146498 0.03390161809907076 0 0 0
1351 1 15.197015612040001 3.2889055628121615 1.5067998944878256 0 0 0
1198 4 17.096642563545004 2.1935061214649796 0.033901618099070066 0 0 0
1353 4 15.197015612040003 5.48375651689898 0.03390161809907134 0 0 0
1357 1 18.996269515050002 3.2889055628121615 1.5067998944878258 0 0 0
1204 4 20.895896466555 2.193506121464979 0.03390161809906971 0 0 0
1363 1 22.79552341806 3.2889055628121615 1.5067998944878258 0 0 0
1359 4 18.996269515050002 5.483756516898979 0.033901618099070344 0 0 0
1365 4 22.79552341806 5.483756516898979 0.033901618099070364 0 0 0
1210 4 24.695150369565 2.193506121464979 0.03390161809906971 0 0 0
1369 1 26.594777321069998 3.2889055628121615 1.5067998944878258 0 0 0
1216 4 28.494404272574997 2.19350612146498 0.03390161809907054 0 0 0
1371 4 26.594777321069998 5.483756516898979 0.033901618099070316 0 0 0
1375 1 30.394031224080003 3.2889055628121615 1.5067998944878256 0 0 0
1222 4 32.293658175585 2.193506121464981 0.033901618099071815 0 0 0
1381 1 34.19328512709001 3.2889055628121615 1.5067998944878256 0 0 0
1377 4 30.39403122408 5.483756516898981 0.03390161809907266 0 0 0
1383 4 34.19328512709001 5.483756516898979 0.03390161809907078 0 0 0
1228 4 36.092912078595006 2.193506121464979 0.03390161809906965 0 0 0
1387 1 37.992539030100005 3.2889055628121615 1.5067998944878258 0 0 0
1234 4 39.892165981605004 2.193506121464979 0.03390161809906971 0 0 0
1389 4 37.992539030100005 5.483756516898979 0.033901618099070364 0 0 0
1393 1 41.79179293311 3.2889055628121615 1.5067998944878258 0 0 0
1240 4 43.691419884615 2.193506121464979 0.03390161809906971 0 0 0
1399 1 45.59104683612 3.2889055628121615 1.5067998944878258 0 0 0
1395 4 41.79179293311 5.483756516898979 0.033901618099070364 0 0 0
1401 4 45.59104683612 5.483756516898979 0.033901618099070364 0 0 0
1246 4 47.490673787625 2.193506121464979 0.03390161809906971 0 0 0
1096 4 51.289927690635 2.193506121464979 0.03390161809906971 -1 0 0
1249 1 49.39030073913 3.2889055628121615 1.5067998944878258 -1 0 0
1251 4 49.39030073913 5.483756516898979 0.03390161809907037 -1 0 0
1255 1 53.189554642139996 3.2889055628121615 1.5067998944878258 -1 0 0
1102 4 55.089181593644994 2.19350612146498 0.033901618099070566 -1 0 0
1261 1 56.98880854514999 3.2889055628121615 1.5067998944878256 -1 0 0
1257 4 53.189554642139996 5.483756516898979 0.03390161809907082 -1 0 0
1263 4 56.98880854515 5.48375651689898 0.033901618099071155 -1 0 0
1108 4 58.888435496655 2.1935061214649796 0.033901618099070246 -1 0 0
1267 1 60.78806244816 3.2889055628121615 1.5067998944878258 -1 0 0
1114 4 62.687689399665 2.1935061214649787 0.033901618099069275 -1 0 0
1269 4 60.78806244816 5.483756516898978 0.0339016180990697 -1 0 0
1273 1 64.58731635117 3.2889055628121615 1.5067998944878256 -1 0 0
1120 4 66.486943302675 2.193506121464981 0.03390161809907159 -1 0 0
1279 1 68.38657025418 3.2889055628121615 1.5067998944878256 -1 0 0
1275 4 64.58731635116999 5.48375651689898 0.033901618099071114 -1 0 0
1281 4 68.38657025418 5.483756516898979 0.03390161809907145 -1 0 0
1126 4 70.286197205685 2.193506121464979 0.03390161809906969 -1 0 0
1285 1 72.18582415719 3.2889055628121615 1.5067998944878258 -1 0 0
1132 4 74.085451108695 2.193506121464979 0.03390161809906971 -1 0 0
1287 4 72.18582415719 5.483756516898979 0.033901618099070364 -1 0 0
1291 1 75.9850780602 3.2889055628121615 1.5067998944878258 -1 0 0
1138 4 77.884705011705 2.193506121464979 0.03390161809906969 -1 0 0
1297 1 79.78433196321 3.2889055628121615 1.5067998944878256 -1 0 0
1293 4 75.9850780602 5.483756516898979 0.033901618099070364 -1 0 0
1299 4 79.78433196321 5.48375651689898 0.03390161809907154 -1 0 0
1144 4 81.68395891471499 2.193506121464981 0.033901618099071607 -1 0 0
1303 1 83.58358586621999 3.2889055628121615 1.5067998944878258 -1 0 0
1150 4 85.483212817725 2.193506121464979 0.03390161809906966 -1 0 0
1305 4 83.58358586621999 5.483756516898979 0.03390161809907005 -1 0 0
1309 1 87.38283976922999 3.2889055628121615 1.5067998944878256 -1 0 0
1156 4 89.282466720735 2.1935061214649796 0.03390161809906962 -1 0 0
1315 1 91.18209367224 3.2889055628121615 1.5067998944878256 -1 0 0
1311 4 87.38283976922999 5.483756516898979 0.03390161809907024 -1 0 0
1317 4 91.18209367224 5.483756516898981 0.03390161809907218 -1 0 0
1162 4 93.081720623745 2.19350612146498 0.0339016180990709 -1 0 0
1321 1 94.98134757525 3.2889055628121615 1.5067998944878258 -1 0 0
1168 4 96.880974526755 2.193506121464979 0.03390161809906969 -1 0 0
1323 4 94.98134757525 5.483756516898979 0.03390161809907034 -1 0 0
1328 1 1.899626951505002 6.5791559582461625 1.5067998944878256 0 0 0
1334 1 5.698880854515004 6.579155958246162 1.5067998944878256 0 0 0
1330 4 1.899626951505001 8.77400691233298 0.03390161809907134 0 0 0
1336 4 5.698880854515003 8.77400691233298 0.0339016180990706 0 0 0
1483 1 3.1735217941826574e-16 9.869406353680162 1.5067998944878256 0 0 0
1489 1 3.7992539030100017 9.869406353680162 1.5067998944878256 0 0 0
1340 1 9.498134757525001 6.579155958246162 1.5067998944878256 0 0 0
1342 4 9.498134757525001 8.774006912332979 0.033901618099070344 0 0 0
1495 1 7.598507806020002 9.869406353680162 1.5067998944878254 0 0 0
1501 1 11.39776170903 9.869406353680162 1.5067998944878256 0 0 0
1346 1 13.297388660535002 6.579155958246162 1.5067998944878256 0 0 0
1352 1 17.096642563545004 6.579155958246162 1.5067998944878256 0 0 0
1348 4 13.297388660535 8.77400691233298 0.03390161809907135 0 0 0
1354 4 17.096642563545004 8.77400691233298 0.03390161809907065 0 0 0
1507 1 15.197015612040001 9.869406353680162 1.5067998944878256 0 0 0
1358 1 20.895896466555 6.579155958246162 1.5067998944878256 0 0 0
1360 4 20.895896466555 8.774006912332979 0.033901618099070364 0 0 0
1513 1 18.996269515050002 9.869406353680162 1.5067998944878254 0 0 0
1519 1 22.79552341806 9.869406353680162 1.5067998944878254 0 0 0
1364 1 24.695150369565 6.579155958246162 1.5067998944878256 0 0 0
1370 1 28.494404272574997 6.579155958246162 1.5067998944878256 0 0 0
1366 4 24.695150369565 8.774006912332979 0.03390161809907036 0 0 0
1372 4 28.494404272574997 8.77400691233298 0.033901618099071114 0 0 0
1525 1 26.594777321069998 9.869406353680162 1.5067998944878256 0 0 0
1376 1 32.293658175585 6.579155958246162 1.5067998944878258 0 0 0
1378 4 32.293658175585 8.77400691233298 0.03390161809907229 0 0 0
1531 1 30.394031224080003 9.869406353680162 1.5067998944878256 0 0 0
1537 1 34.19328512709001 9.869406353680162 1.5067998944878256 0 0 0
1382 1 36.092912078595006 6.579155958246162 1.5067998944878256 0 0 0
1388 1 39.892165981605004 6.579155958246162 1.5067998944878256 0 0 0
1384 4 36.092912078595006 8.774006912332979 0.033901618099070295 0 0 0
1390 4 39.892165981605004 8.774006912332979 0.033901618099070364 0 0 0
1543 1 37.992539030100005 9.869406353680162 1.5067998944878254 0 0 0
1394 1 43.691419884615 6.579155958246162 1.5067998944878256 0 0 0
1396 4 43.691419884615 8.774006912332979 0.033901618099070364 0 0 0
1549 1 41.79179293311 9.869406353680162 1.5067998944878254 0 0 0
1555 1 45.59104683612 9.869406353680162 1.5067998944878254 0 0 0
1400 1 47.490673787625 6.579155958246162 1.5067998944878256 0 0 0
1250 1 51.289927690635 6.579155958246162 1.5067998944878256 -1 0 0
1402 4 47.490673787625 8.774006912332979 0.03390161809907036 0 0 0
1252 4 51.289927690635 8.774006912332979 0.03390161809907035 -1 0 0
1405 1 49.39030073913 9.869406353680162 1.5067998944878254 -1 0 0
1256 1 55.089181593645 6.579155958246162 1.5067998944878256 -1 0 0
1258 4 55.089181593644994 8.77400691233298 0.03390161809907115 -1 0 0
1411 1 53.189554642139996 9.869406353680162 1.5067998944878256 -1 0 0
1417 1 56.98880854514999 9.869406353680162 1.5067998944878256 -1 0 0
1262 1 58.888435496655 6.579155958246162 1.5067998944878256 -1 0 0
1268 1 62.68768939966499 6.579155958246162 1.5067998944878256 -1 0 0
1264 4 58.888435496655 8.77400691233298 0.03390161809907083 -1 0 0
1270 4 62.687689399665 8.77400691233298 0.03390161809906992 -1 0 0
1423 1 60.78806244816 9.869406353680162 1.5067998944878256 -1 0 0
1274 1 66.48694330267499 6.579155958246162 1.5067998944878258 -1 0 0
1276 4 66.486943302675 8.77400691233298 0.03390161809907209 -1 0 0
1429 1 64.58731635117 9.869406353680162 1.5067998944878256 -1 0 0
1435 1 68.38657025418 9.869406353680162 1.5067998944878256 -1 0 0
1280 1 70.286197205685 6.579155958246162 1.5067998944878256 -1 0 0
1286 1 74.085451108695 6.579155958246162 1.5067998944878256 -1 0 0
1282 4 70.286197205685 8.774006912332979 0.03390161809907034 -1 0 0
1288 4 74.085451108695 8.774006912332979 0.033901618099070364 -1 0 0
1441 1 72.18582415719 9.869406353680162 1.5067998944878254 -1 0 0
1292 1 77.884705011705 6.579155958246162 1.5067998944878256 -1 0 0
1294 4 77.884705011705 8.774006912332979 0.033901618099070344 -1 0 0
1447 1 75.9850780602 9.869406353680162 1.5067998944878254 -1 0 0
1453 1 79.78433196321 9.869406353680162 1.5067998944878256 -1 0 0
1298 1 81.68395891471499 6.579155958246162 1.5067998944878256 -1 0 0
1304 1 85.483212817725 6.579155958246162 1.5067998944878256 -1 0 0
1300 4 81.68395891471499 8.77400691233298 0.03390161809907221 -1 0 0
1306 4 85.483212817725 8.774006912332979 0.033901618099070246 -1 0 0
1459 1 83.58358586621999 9.869406353680162 1.5067998944878256 -1 0 0
1310 1 89.282466720735 6.5791559582461625 1.5067998944878258 -1 0 0
1312 4 89.282466720735 8.774006912332979 0.033901618099070066 -1 0 0
1465 1 87.38283976922999 9.869406353680162 1.5067998944878256 -1 0 0
1471 1 91.18209367224 9.869406353680162 1.5067998944878256 -1 0 0
1316 1 93.081720623745 6.579155958246162 1.5067998944878256 -1 0 0
1322 1 96.880974526755 6.579155958246162 1.5067998944878256 -1 0 0
1318 4 93.081720623745 8.77400691233298 0.03390161809907154 -1 0 0
1324 4 96.880974526755 8.774006912332979 0.03390161809907033 -1 0 0
1477 1 94.98134757525 9.869406353680162 1.5067998944878256 -1 0 0
1485 4 6.181604715451394e-16 12.06425730776698 0.033901618099070704 0 0 0
1484 1 1.899626951505002 13.159656749114161 1.5067998944878267 0 0 0
1491 4 3.7992539030100025 12.064257307766981 0.03390161809907156 0 0 0
1490 1 5.698880854515004 13.159656749114161 1.5067998944878265 0 0 0
1486 4 1.899626951505001 15.354507703200976 0.03390161809907061 0 0 0
1492 4 5.698880854515003 15.354507703200976 0.033901618099069906 0 0 0
1639 1 4.425751578022258e-16 16.44990714454816 1.5067998944878251 0 0 0
1645 1 3.7992539030100017 16.44990714454816 1.5067998944878256 0 0 0
1497 4 7.598507806020002 12.06425730776698 0.03390161809907036 0 0 0
1496 1 9.498134757525001 13.159656749114161 1.5067998944878265 0 0 0
1503 4 11.39776170903 12.06425730776698 0.033901618099070774 0 0 0
1498 4 9.498134757525001 15.354507703200976 0.03390161809906959 0 0 0
1651 1 7.598507806020002 16.44990714454816 1.5067998944878251 0 0 0
1657 1 11.39776170903 16.44990714454816 1.5067998944878251 0 0 0
1502 1 13.297388660535002 13.159656749114161 1.5067998944878265 0 0 0
1509 4 15.197015612040003 12.064257307766981 0.033901618099071565 0 0 0
1508 1 17.096642563545004 13.159656749114161 1.5067998944878265 0 0 0
1504 4 13.297388660535 15.354507703200976 0.03390161809907059 0 0 0
1510 4 17.096642563545004 15.354507703200976 0.0339016180990699 0 0 0
1663 1 15.197015612040001 16.44990714454816 1.5067998944878254 0 0 0
1515 4 18.996269515050002 12.06425730776698 0.03390161809907036 0 0 0
1514 1 20.895896466555 13.159656749114161 1.5067998944878265 0 0 0
1521 4 22.79552341806 12.06425730776698 0.033901618099070385 0 0 0
1516 4 20.895896466555 15.354507703200976 0.03390161809906961 0 0 0
1669 1 18.996269515050002 16.44990714454816 1.5067998944878251 0 0 0
1675 1 22.79552341806 16.44990714454816 1.5067998944878251 0 0 0
1520 1 24.695150369565 13.159656749114161 1.5067998944878265 0 0 0
1527 4 26.594777321069998 12.06425730776698 0.033901618099070344 0 0 0
1526 1 28.494404272574997 13.159656749114161 1.5067998944878265 0 0 0
1522 4 24.695150369565 15.354507703200976 0.033901618099069594 0 0 0
1528 4 28.494404272574997 15.354507703200978 0.03390161809907026 0 0 0
1681 1 26.594777321069998 16.44990714454816 1.5067998944878251 0 0 0
1533 4 30.39403122408 12.064257307766981 0.03390161809907283 0 0 0
1532 1 32.293658175585 13.159656749114161 1.5067998944878267 0 0 0
1539 4 34.19328512709001 12.06425730776698 0.03390161809907075 0 0 0
1534 4 32.293658175585 15.354507703200978 0.033901618099071607 0 0 0
1687 1 30.394031224080003 16.44990714454816 1.5067998944878256 0 0 0
1693 1 34.19328512709001 16.44990714454816 1.5067998944878254 0 0 0
1538 1 36.092912078595006 13.159656749114161 1.5067998944878265 0 0 0
1545 4 37.992539030100005 12.06425730776698 0.03390161809907038 0 0 0
1544 1 39.892165981605004 13.159656749114161 1.5067998944878265 0 0 0
1540 4 36.092912078595006 15.354507703200976 0.03390161809906954 0 0 0
1546 4 39.892165981605004 15.354507703200976 0.0339016180990696 0 0 0
1699 1 37.992539030100005 16.44990714454816 1.5067998944878251 0 0 0
1551 4 41.79179293311 12.06425730776698 0.03390161809907038 0 0 0
1550 1 43.691419884615 13.159656749114161 1.5067998944878265 0 0 0
1557 4 45.59104683612 12.06425730776698 0.033901618099070385 0 0 0
1552 4 43.691419884615 15.354507703200976 0.03390161809906961 0 0 0
1705 1 41.79179293311 16.44990714454816 1.5067998944878251 0 0 0
1711 1 45.59104683612 16.44990714454816 1.5067998944878251 0 0 0
1556 1 47.490673787625 13.159656749114161 1.5067998944878265 0 0 0
1407 4 49.39030073913 12.06425730776698 0.03390161809907038 -1 0 0
1406 1 51.289927690635 13.159656749114161 1.5067998944878265 -1 0 0
1558 4 47.490673787625 15.354507703200976 0.0339016180990696 0 0 0
1408 4 51.289927690635 15.354507703200976 0.033901618099069594 -1 0 0
1561 1 49.39030073913 16.44990714454816 1.5067998944878251 -1 0 0
1413 4 53.189554642139996 12.06425730776698 0.03390161809907094 -1 0 0
1412 1 55.089181593645 13.159656749114161 1.5067998944878267 -1 0 0
1419 4 56.98880854515 12.064257307766981 0.03390161809907139 -1 0 0
1414 4 55.089181593644994 15.354507703200976 0.03390161809907047 -1 0 0
1567 1 53.189554642139996 16.44990714454816 1.5067998944878251 -1 0 0
1573 1 56.98880854514999 16.44990714454816 1.5067998944878254 -1 0 0
1418 1 58.888435496655 13.159656749114161 1.5067998944878265 -1 0 0
1425 4 60.78806244816 12.06425730776698 0.0339016180990699 -1 0 0
1424 1 62.68768939966499 13.159656749114161 1.5067998944878265 -1 0 0
1420 4 58.888435496655 15.354507703200978 0.033901618099070094 -1 0 0
1426 4 62.687689399665 15.354507703200976 0.033901618099069095 -1 0 0
1579 1 60.78806244816 16.44990714454816 1.5067998944878254 -1 0 0
1431 4 64.58731635116999 12.064257307766981 0.03390161809907134 -1 0 0
1430 1 66.48694330267499 13.159656749114161 1.5067998944878267 -1 0 0
1437 4 68.38657025418 12.064257307766981 0.033901618099071405 -1 0 0
1432 4 66.486943302675 15.354507703200978 0.03390161809907134 -1 0 0
1585 1 64.58731635117 16.44990714454816 1.5067998944878258 -1 0 0
1591 1 68.38657025418 16.44990714454816 1.5067998944878254 -1 0 0
1436 1 70.286197205685 13.159656749114161 1.5067998944878265 -1 0 0
1443 4 72.18582415719 12.06425730776698 0.033901618099070385 -1 0 0
1442 1 74.085451108695 13.159656749114161 1.5067998944878265 -1 0 0
1438 4 70.286197205685 15.354507703200976 0.03390161809906958 -1 0 0
1444 4 74.085451108695 15.354507703200976 0.03390161809906961 -1 0 0
1597 1 72.18582415719 16.44990714454816 1.5067998944878251 -1 0 0
1449 4 75.9850780602 12.06425730776698 0.033901618099070385 -1 0 0
1448 1 77.884705011705 13.159656749114161 1.5067998944878265 -1 0 0
1455 4 79.78433196321 12.064257307766981 0.033901618099071495 -1 0 0
1450 4 77.884705011705 15.354507703200976 0.03390161809906958 -1 0 0
1603 1 75.9850780602 16.44990714454816 1.5067998944878251 -1 0 0
1609 1 79.78433196321 16.44990714454816 1.5067998944878254 -1 0 0
1454 1 81.68395891471499 13.159656749114161 1.5067998944878267 -1 0 0
1461 4 83.58358586621999 12.06425730776698 0.033901618099070205 -1 0 0
1460 1 85.483212817725 13.159656749114161 1.5067998944878267 -1 0 0
1456 4 81.68395891471499 15.354507703200978 0.03390161809907143 -1 0 0
1462 4 85.483212817725 15.354507703200976 0.033901618099069455 -1 0 0
1615 1 83.58358586621999 16.44990714454816 1.5067998944878254 -1 0 0
1467 4 87.38283976922999 12.06425730776698 0.03390161809907041 -1 0 0
1466 1 89.282466720735 13.159656749114161 1.5067998944878263 -1 0 0
1473 4 91.18209367224 12.064257307766981 0.03390161809907241 -1 0 0
1468 4 89.282466720735 15.354507703200976 0.03390161809906935 -1 0 0
1621 1 87.38283976922999 16.44990714454816 1.5067998944878251 -1 0 0
1627 1 91.18209367224 16.44990714454816 1.5067998944878254 -1 0 0
1472 1 93.081720623745 13.159656749114161 1.5067998944878265 -1 0 0
1479 4 94.98134757525 12.06425730776698 0.03390161809907036 -1 0 0
1478 1 96.880974526755 13.159656749114161 1.5067998944878265 -1 0 0
1474 4 93.081720623745 15.354507703200978 0.03390161809907069 -1 0 0
1480 4 96.880974526755 15.354507703200976 0.03390161809906958 -1 0 0
1633 1 94.98134757525 16.44990714454816 1.5067998944878251 -1 0 0
1641 4 7.090466542168383e-16 18.644758098634977 0.03390161809907076 0 0 0
1640 1 1.8996269515050017 19.74015753998216 1.5067998944878256 0 0 0
1647 4 3.7992539030100025 18.644758098634977 0.03390161809907139 0 0 0
1646 1 5.698880854515004 19.74015753998216 1.5067998944878256 0 0 0
1642 4 1.899626951505001 21.935008494068978 0.03390161809907134 0 0 0
1795 1 3.592882235811184e-16 23.03040793541616 1.5067998944878254 0 0 0
1801 1 3.7992539030100017 23.03040793541616 1.5067998944878256 0 0 0
1648 4 5.698880854515003 21.935008494068978 0.03390161809907059 0 0 0
1653 4 7.598507806020002 18.644758098634977 0.033901618099070385 0 0 0
1652 1 9.498134757525001 19.74015753998216 1.5067998944878256 0 0 0
1659 4 11.39776170903 18.644758098634977 0.03390161809907075 0 0 0
1807 1 7.598507806020002 23.03040793541616 1.5067998944878256 0 0 0
1654 4 9.498134757525001 21.935008494068978 0.03390161809907028 0 0 0
1813 1 11.39776170903 23.03040793541616 1.5067998944878256 0 0 0
1658 1 13.297388660535002 19.74015753998216 1.5067998944878256 0 0 0
1665 4 15.197015612040003 18.644758098634977 0.033901618099071384 0 0 0
1664 1 17.096642563545004 19.74015753998216 1.5067998944878256 0 0 0
1660 4 13.297388660535 21.935008494068978 0.033901618099071336 0 0 0
1819 1 15.197015612040001 23.03040793541616 1.5067998944878256 0 0 0
1666 4 17.096642563545004 21.935008494068978 0.03390161809907065 0 0 0
1671 4 18.996269515050002 18.644758098634977 0.033901618099070385 0 0 0
1670 1 20.895896466555 19.74015753998216 1.5067998944878256 0 0 0
1677 4 22.79552341806 18.644758098634977 0.033901618099070406 0 0 0
1825 1 18.996269515050002 23.03040793541616 1.5067998944878256 0 0 0
1672 4 20.895896466555 21.935008494068978 0.0339016180990703 0 0 0
1831 1 22.79552341806 23.03040793541616 1.5067998944878256 0 0 0
1676 1 24.695150369565 19.74015753998216 1.5067998944878256 0 0 0
1683 4 26.594777321069998 18.644758098634977 0.03390161809907037 0 0 0
1682 1 28.494404272574997 19.74015753998216 1.5067998944878254 0 0 0
1678 4 24.695150369565 21.935008494068978 0.0339016180990703 0 0 0
1837 1 26.594777321069998 23.03040793541616 1.5067998944878254 0 0 0
1684 4 28.494404272574997 21.935008494068978 0.03390161809907108 0 0 0
1689 4 30.39403122408 18.644758098634977 0.03390161809907272 0 0 0
1688 1 32.293658175585 19.74015753998216 1.5067998944878256 0 0 0
1695 4 34.19328512709001 18.644758098634977 0.033901618099070836 0 0 0
1843 1 30.394031224080003 23.03040793541616 1.5067998944878256 0 0 0
1690 4 32.293658175585 21.935008494068978 0.03390161809907222 0 0 0
1849 1 34.19328512709001 23.03040793541616 1.5067998944878254 0 0 0
1694 1 36.092912078595006 19.74015753998216 1.5067998944878254 0 0 0
1701 4 37.992539030100005 18.644758098634977 0.033901618099070406 0 0 0
1700 1 39.892165981605004 19.74015753998216 1.5067998944878256 0 0 0
1696 4 36.092912078595006 21.935008494068978 0.033901618099070246 0 0 0
1855 1 37.992539030100005 23.03040793541616 1.5067998944878256 0 0 0
1702 4 39.892165981605004 21.935008494068978 0.0339016180990703 0 0 0
1707 4 41.79179293311 18.644758098634977 0.033901618099070406 0 0 0
1706 1 43.691419884615 19.74015753998216 1.5067998944878256 0 0 0
1713 4 45.59104683612 18.644758098634977 0.033901618099070406 0 0 0
1861 1 41.79179293311 23.03040793541616 1.5067998944878256 0 0 0
1708 4 43.691419884615 21.935008494068978 0.0339016180990703 0 0 0
1867 1 45.59104683612 23.03040793541616 1.5067998944878256 0 0 0
1712 1 47.490673787625 19.74015753998216 1.5067998944878256 0 0 0
1563 4 49.39030073913 18.644758098634977 0.033901618099070406 -1 0 0
1562 1 51.289927690635 19.74015753998216 1.5067998944878256 -1 0 0
1714 4 47.490673787625 21.935008494068978 0.0339016180990703 0 0 0
1564 4 51.289927690635 21.935008494068978 0.0339016180990703 -1 0 0
1717 1 49.39030073913 23.03040793541616 1.5067998944878256 -1 0 0
1569 4 53.189554642139996 18.644758098634977 0.03390161809907093 -1 0 0
1568 1 55.089181593645 19.74015753998216 1.5067998944878256 -1 0 0
1575 4 56.98880854515 18.644758098634977 0.0339016180990712 -1 0 0
1723 1 53.189554642139996 23.03040793541616 1.5067998944878256 -1 0 0
1570 4 55.089181593644994 21.935008494068978 0.03390161809907114 -1 0 0
1729 1 56.98880854514999 23.03040793541616 1.5067998944878256 -1 0 0
1574 1 58.888435496655 19.74015753998216 1.5067998944878256 -1 0 0
1581 4 60.78806244816 18.644758098634977 0.03390161809906984 -1 0 0
1580 1 62.68768939966499 19.74015753998216 1.5067998944878256 -1 0 0
1576 4 58.888435496655 21.935008494068978 0.03390161809907084 -1 0 0
1735 1 60.78806244816 23.03040793541616 1.5067998944878256 -1 0 0
1582 4 62.687689399665 21.935008494068974 0.03390161809906985 -1 0 0
1587 4 64.58731635116999 18.644758098634977 0.033901618099071176 -1 0 0
1586 1 66.48694330267499 19.74015753998216 1.5067998944878256 -1 0 0
1593 4 68.38657025418 18.644758098634977 0.033901618099071475 -1 0 0
1741 1 64.58731635117 23.03040793541616 1.5067998944878256 -1 0 0
1588 4 66.486943302675 21.935008494068978 0.03390161809907215 -1 0 0
1747 1 68.38657025418 23.03040793541616 1.5067998944878254 -1 0 0
1592 1 70.286197205685 19.74015753998216 1.5067998944878254 -1 0 0
1599 4 72.18582415719 18.644758098634977 0.033901618099070406 -1 0 0
1598 1 74.085451108695 19.74015753998216 1.5067998944878256 -1 0 0
1594 4 70.286197205685 21.935008494068978 0.03390161809907029 -1 0 0
1753 1 72.18582415719 23.03040793541616 1.5067998944878256 -1 0 0
1600 4 74.085451108695 21.935008494068978 0.0339016180990703 -1 0 0
1605 4 75.9850780602 18.644758098634977 0.033901618099070406 -1 0 0
1604 1 77.884705011705 19.74015753998216 1.5067998944878254 -1 0 0
1611 4 79.78433196321 18.644758098634977 0.033901618099071565 -1 0 0
1759 1 75.9850780602 23.03040793541616 1.5067998944878256 -1 0 0
1606 4 77.884705011705 21.935008494068978 0.03390161809907028 -1 0 0
1765 1 79.78433196321 23.03040793541616 1.5067998944878256 -1 0 0
1610 1 81.68395891471499 19.74015753998216 1.5067998944878256 -1 0 0
1617 4 83.58358586621999 18.644758098634977 0.03390161809907015 -1 0 0
1616 1 85.483212817725 19.74015753998216 1.5067998944878256 -1 0 0
1612 4 81.68395891471499 21.935008494068978 0.033901618099072134 -1 0 0
1771 1 83.58358586621999 23.03040793541616 1.5067998944878256 -1 0 0
1618 4 85.483212817725 21.935008494068978 0.03390161809907029 -1 0 0
1623 4 87.38283976922999 18.644758098634977 0.03390161809907032 -1 0 0
1622 1 89.282466720735 19.74015753998216 1.5067998944878256 -1 0 0
1629 4 91.18209367224 18.644758098634977 0.03390161809907219 -1 0 0
1777 1 87.38283976922999 23.03040793541616 1.5067998944878256 -1 0 0
1624 4 89.282466720735 21.935008494068978 0.033901618099070094 -1 0 0
1783 1 91.18209367224 23.03040793541616 1.5067998944878256 -1 0 0
1628 1 93.081720623745 19.74015753998216 1.5067998944878256 -1 0 0
1635 4 94.98134757525 18.644758098634977 0.03390161809907039 -1 0 0
1634 1 96.880974526755 19.74015753998216 1.5067998944878254 -1 0 0
1630 4 93.081720623745 21.935008494068978 0.033901618099071495 -1 0 0
1789 1 94.98134757525 23.03040793541616 1.5067998944878254 -1 0 0
1636 4 96.880974526755 21.935008494068978 0.03390161809907034 -1 0 0
1797 4 7.094212471348731e-16 25.225258889502978 0.033901618099070656 0 0 0
1803 4 3.7992539030100025 25.225258889502978 0.033901618099071336 0 0 0
1796 1 1.8996269515050017 26.32065833085016 1.5067998944878256 0 0 0
1802 1 5.698880854515004 26.32065833085016 1.5067998944878256 0 0 0
1798 4 1.899626951505001 28.51550928493698 0.03390161809907134 0 0 0
1804 4 5.698880854515003 28.51550928493698 0.0339016180990706 0 0 0
1809 4 7.598507806020002 25.225258889502978 0.03390161809907028 0 0 0
1815 4 11.39776170903 25.225258889502978 0.03390161809907064 0 0 0
1808 1 9.498134757525001 26.32065833085016 1.5067998944878256 0 0 0
1810 4 9.498134757525001 28.51550928493698 0.03390161809907029 0 0 0
1821 4 15.197015612040003 25.225258889502978 0.03390161809907133 0 0 0
1814 1 13.297388660535002 26.32065833085016 1.5067998944878256 0 0 0
1820 1 17.096642563545004 26.32065833085016 1.5067998944878256 0 0 0
1816 4 13.297388660535 28.51550928493698 0.033901618099071336 0 0 0
1822 4 17.096642563545004 28.51550928493698 0.03390161809907064 0 0 0
1827 4 18.996269515050002 25.225258889502978 0.03390161809907028 0 0 0
1833 4 22.79552341806 25.225258889502978 0.0339016180990703 0 0 0
1826 1 20.895896466555 26.32065833085016 1.5067998944878256 0 0 0
1828 4 20.895896466555 28.51550928493698 0.03390161809907031 0 0 0
1839 4 26.594777321069998 25.225258889502978 0.03390161809907026 0 0 0
1832 1 24.695150369565 26.32065833085016 1.5067998944878256 0 0 0
1838 1 28.494404272574997 26.32065833085016 1.5067998944878254 0 0 0
1834 4 24.695150369565 28.51550928493698 0.03390161809907031 0 0 0
1840 4 28.494404272574997 28.51550928493698 0.033901618099071086 0 0 0
1845 4 30.39403122408 25.225258889502978 0.033901618099072585 0 0 0
1851 4 34.19328512709001 25.225258889502978 0.033901618099070774 0 0 0
1844 1 32.293658175585 26.32065833085016 1.5067998944878256 0 0 0
1846 4 32.293658175585 28.51550928493698 0.03390161809907222 0 0 0
1857 4 37.992539030100005 25.225258889502978 0.0339016180990703 0 0 0
1850 1 36.092912078595006 26.32065833085016 1.5067998944878254 0 0 0
1856 1 39.892165981605004 26.32065833085016 1.5067998944878256 0 0 0
1852 4 36.092912078595006 28.51550928493698 0.03390161809907025 0 0 0
1858 4 39.892165981605004 28.51550928493698 0.03390161809907031 0 0 0
1863 4 41.79179293311 25.225258889502978 0.0339016180990703 0 0 0
1869 4 45.59104683612 25.225258889502978 0.0339016180990703 0 0 0
1862 1 43.691419884615 26.32065833085016 1.5067998944878256 0 0 0
1864 4 43.691419884615 28.51550928493698 0.03390161809907031 0 0 0
1719 4 49.39030073913 25.225258889502978 0.03390161809907031 -1 0 0
1868 1 47.490673787625 26.32065833085016 1.5067998944878256 0 0 0
1718 1 51.289927690635 26.32065833085016 1.5067998944878256 -1 0 0
1870 4 47.490673787625 28.51550928493698 0.03390161809907031 0 0 0
1720 4 51.289927690635 28.51550928493698 0.0339016180990703 -1 0 0
1725 4 53.189554642139996 25.225258889502978 0.03390161809907083 -1 0 0
1731 4 56.98880854515 25.225258889502978 0.03390161809907115 -1 0 0
1724 1 55.089181593645 26.32065833085016 1.5067998944878256 -1 0 0
1726 4 55.089181593644994 28.51550928493698 0.03390161809907114 -1 0 0
1737 4 60.78806244816 25.225258889502978 0.033901618099069775 -1 0 0
1730 1 58.888435496655 26.32065833085016 1.5067998944878256 -1 0 0
1736 1 62.68768939966499 26.32065833085016 1.5067998944878256 -1 0 0
1732 4 58.888435496655 28.51550928493698 0.03390161809907085 -1 0 0
1738 4 62.687689399665 28.515509284936975 0.03390161809906985 -1 0 0
1743 4 64.58731635116999 25.225258889502978 0.03390161809907111 -1 0 0
1749 4 68.38657025418 25.225258889502978 0.03390161809907141 -1 0 0
1742 1 66.48694330267499 26.32065833085016 1.5067998944878256 -1 0 0
1744 4 66.486943302675 28.51550928493698 0.03390161809907215 -1 0 0
1755 4 72.18582415719 25.225258889502978 0.0339016180990703 -1 0 0
1748 1 70.286197205685 26.32065833085016 1.5067998944878254 -1 0 0
1754 1 74.085451108695 26.32065833085016 1.5067998944878256 -1 0 0
1750 4 70.286197205685 28.51550928493698 0.033901618099070295 -1 0 0
1756 4 74.085451108695 28.51550928493698 0.03390161809907031 -1 0 0
1761 4 75.9850780602 25.225258889502978 0.0339016180990703 -1 0 0
1767 4 79.78433196321 25.225258889502978 0.033901618099071495 -1 0 0
1760 1 77.884705011705 26.32065833085016 1.5067998944878254 -1 0 0
1762 4 77.884705011705 28.51550928493698 0.03390161809907029 -1 0 0
1773 4 83.58358586621999 25.225258889502978 0.03390161809907009 -1 0 0
1766 1 81.68395891471499 26.32065833085016 1.5067998944878256 -1 0 0
1772 1 85.483212817725 26.32065833085016 1.5067998944878254 -1 0 0
1768 4 81.68395891471499 28.51550928493698 0.033901618099072134 -1 0 0
1774 4 85.483212817725 28.51550928493698 0.03390161809907029 -1 0 0
1779 4 87.38283976922999 25.225258889502978 0.03390161809907028 -1 0 0