LAMMPS data file via write_data, version 29 Aug 2024, timestep = 2, units = metal

8568 atoms
36 atom types

0 97.20283262074 xlo xhi
0 102.218720019942 ylo yhi
-50 50 zlo zhi

Masses

1 92.90637
2 92.90637
3 92.90637
4 92.90637
5 92.90637
6 92.90637
7 92.90637
8 92.90637
9 92.90637
10 92.90637
11 92.90637
12 92.90637
13 78.971
14 78.971
15 78.971
16 78.971
17 78.971
18 78.971
19 78.971
20 78.971
21 78.971
22 78.971
23 78.971
24 78.971
25 78.971
26 78.971
27 78.971
28 78.971
29 78.971
30 78.971
31 78.971
32 78.971
33 78.971
34 78.971
35 78.971
36 78.971

Atoms # atomic

1434 16 1.1703881149564864e-13 1.0021443139209922 0.008318750797116425 0 0 0
1432 2 1.735764868227583 1.6134677662592617e-14 1.6751968765487562 0 0 0
1440 20 3.4715297364551176 1.0021443139209922 0.008318750797116808 0 0 0
1438 4 5.207294604682583 1.4679331956874376e-14 1.6751968765487562 0 0 0
1603 3 3.4715297364547415 3.00643294176302 1.6751968765487555 0 0 0
1599 14 1.7357648682272282 4.008577255683994 0.00831875079711723 0 0 0
1605 18 5.207294604682229 4.008577255683994 0.008318750797116612 0 0 0
1446 16 6.943059472910116 1.0021443139209916 0.00831875079711699 0 0 0
1444 2 8.678824341137583 1.6024210331076547e-14 1.6751968765487562 0 0 0
1452 20 10.414589209365118 1.0021443139209918 0.00831875079711664 0 0 0
1609 1 6.943059472909741 3.0064329417630193 1.6751968765487553 0 0 0
1615 3 10.41458920936474 3.0064329417630193 1.6751968765487555 0 0 0
1611 14 8.678824341137227 4.008577255683994 0.008318750797117243 0 0 0
1450 4 12.150354077592583 1.4669582043382722e-14 1.6751968765487564 0 0 0
1458 16 13.886118945820117 1.0021443139209918 0.008318750797116992 0 0 0
1456 2 15.621883814047582 1.4884988732062112e-14 1.6751968765487562 0 0 0
1621 1 13.886118945819737 3.0064329417630193 1.6751968765487553 0 0 0
1617 18 12.150354077592226 4.008577255683994 0.008318750797116522 0 0 0
1623 14 15.621883814047223 4.008577255683994 0.008318750797116818 0 0 0
1464 20 17.357648682275116 1.002144313920992 0.00831875079711679 0 0 0
1470 16 20.829178418730113 1.002144313920992 0.008318750797116845 0 0 0
1462 4 19.09341355050258 1.4831970972895714e-14 1.6751968765487562 0 0 0
1468 2 22.564943286957583 1.717547892782908e-14 1.675196876548756 0 0 0
1627 3 17.35764868227474 3.0064329417630207 1.6751968765487553 0 0 0
1633 1 20.82917841872974 3.0064329417630193 1.6751968765487553 0 0 0
1629 18 19.093413550502227 4.008577255683994 0.008318750797116865 0 0 0
1635 14 22.564943286957227 4.008577255683993 0.00831875079711755 0 0 0
1476 20 24.300708155185117 1.0021443139209922 0.00831875079711645 0 0 0
1474 4 26.036473023412583 1.4560345670796796e-14 1.6751968765487564 0 0 0
1482 16 27.772237891640117 1.0021443139209913 0.008318750797117485 0 0 0
1639 3 24.30070815518474 3.006432941763019 1.6751968765487553 0 0 0
1645 1 27.77223789163974 3.00643294176302 1.6751968765487555 0 0 0
1641 18 26.036473023412228 4.008577255683994 0.008318750797116496 0 0 0
1480 2 29.508002759867583 1.476653263974645e-14 1.6751968765487562 0 0 0
1488 20 31.243767628095117 1.002144313920992 0.008318750797116916 0 0 0
1486 4 32.979532496322584 1.4893938075086474e-14 1.6751968765487562 0 0 0
1651 3 31.24376762809474 3.0064329417630202 1.6751968765487553 0 0 0
1647 14 29.508002759867228 4.008577255683994 0.008318750797116916 0 0 0
1653 18 32.97953249632223 4.008577255683994 0.008318750797116964 0 0 0
1494 16 34.71529736455012 1.0021443139209922 0.008318750797116192 0 0 0
1492 2 36.45106223277758 1.7183283944517233e-14 1.675196876548756 0 0 0
1500 20 38.186827101005115 1.002144313920992 0.008318750797116702 0 0 0
1498 4 39.922591969232585 1.461096002144116e-14 1.6751968765487555 0 0 0
1657 1 34.71529736454974 3.0064329417630193 1.6751968765487553 0 0 0
1663 3 38.186827101004745 3.006432941763019 1.6751968765487553 0 0 0
1659 14 36.45106223277723 4.008577255683994 0.008318750797117514 0 0 0
1665 18 39.92259196923223 4.008577255683994 0.008318750797116494 0 0 0
1506 16 41.65835683746012 1.0021443139209916 0.00831875079711725 0 0 0
1504 2 43.39412170568758 1.4627461433303063e-14 1.675196876548757 0 0 0
1512 20 45.129886573915115 1.0021443139209922 0.00831875079711655 0 0 0
1669 1 41.65835683745974 3.0064329417630193 1.6751968765487555 0 0 0
1675 3 45.12988657391474 3.006432941763019 1.6751968765487555 0 0 0
1671 14 43.394121705687226 4.008577255683994 0.008318750797116506 0 0 0
1510 4 46.86565144214258 1.4915460999893186e-14 1.6751968765487564 0 0 0
1350 16 48.60141631037011 1.0021443139209922 0.008318750797116579 -1 0 0
1348 2 50.337181178597575 1.4656634669878272e-14 1.6751968765487562 -1 0 0
1513 1 48.601416310369736 3.0064329417630202 1.6751968765487553 -1 0 0
1677 18 46.86565144214222 4.008577255683994 0.008318750797117188 0 0 0
1515 14 50.33718117859723 4.008577255683994 0.008318750797116446 -1 0 0
1356 20 52.07294604682511 1.0021443139209918 0.008318750797117016 -1 0 0
1354 4 53.80871091505258 1.577753902019548e-14 1.6751968765487562 -1 0 0
1362 16 55.54447578328011 1.0021443139209922 0.00831875079711649 -1 0 0
1519 3 52.07294604682474 3.006432941763019 1.6751968765487555 -1 0 0
1525 1 55.544475783279736 3.00643294176302 1.6751968765487553 -1 0 0
1521 18 53.808710915052224 4.008577255683994 0.008318750797117549 -1 0 0
1368 20 59.01600551973511 1.0021443139209916 0.008318750797117294 -1 0 0
1360 2 57.280240651507576 1.5128238674271566e-14 1.6751968765487564 -1 0 0
1366 4 60.75177038796258 1.5440873609482154e-14 1.6751968765487562 -1 0 0
1374 16 62.487535256190114 1.0021443139209922 0.008318750797116567 -1 0 0
1531 3 59.01600551973474 3.0064329417630193 1.6751968765487553 -1 0 0
1537 1 62.48753525618974 3.006432941763019 1.6751968765487553 -1 0 0
1527 14 57.28024065150723 4.008577255683994 0.008318750797116343 -1 0 0
1533 18 60.751770387962225 4.008577255683994 0.008318750797117158 -1 0 0
1372 2 64.22330012441758 1.5464692433095096e-14 1.6751968765487562 -1 0 0
1380 20 65.95906499264511 1.0021443139209918 0.008318750797117367 -1 0 0
1378 4 67.69482986087259 1.4883555118522917e-14 1.6751968765487562 -1 0 0
1543 3 65.95906499264474 3.0064329417630216 1.6751968765487553 -1 0 0
1539 14 64.22330012441722 4.008577255683995 0.00831875079711617 -1 0 0
1545 18 67.69482986087223 4.008577255683994 0.008318750797117457 -1 0 0
1386 16 69.43059472910011 1.0021443139209925 0.008318750797116171 -1 0 0
1384 2 71.16635959732758 1.7900635932855316e-14 1.675196876548756 -1 0 0
1392 20 72.90212446555512 1.0021443139209916 0.008318750797117315 -1 0 0
1549 1 69.43059472909974 3.0064329417630185 1.6751968765487553 -1 0 0
1555 3 72.90212446555473 3.006432941763019 1.6751968765487553 -1 0 0
1551 14 71.16635959732723 4.008577255683993 0.008318750797117514 -1 0 0
1390 4 74.63788933378258 1.4119243970087754e-14 1.6751968765487564 -1 0 0
1398 16 76.37365420201012 1.0021443139209913 0.008318750797117323 -1 0 0
1396 2 78.10941907023758 1.4290190106112128e-14 1.6751968765487562 -1 0 0
1404 20 79.84518393846511 1.0021443139209922 0.008318750797116553 -1 0 0
1561 1 76.37365420200973 3.0064329417630193 1.6751968765487555 -1 0 0
1567 3 79.84518393846473 3.0064329417630193 1.6751968765487555 -1 0 0
1557 18 74.63788933378223 4.008577255683994 0.008318750797116567 -1 0 0
1563 14 78.10941907023722 4.008577255683994 0.008318750797116505 -1 0 0
1402 4 81.58094880669258 1.4791816082714654e-14 1.6751968765487562 -1 0 0
1410 16 83.31671367492011 1.002144313920992 0.008318750797116595 -1 0 0
1408 2 85.05247854314757 1.5109640354468053e-14 1.6751968765487562 -1 0 0
1573 1 83.31671367491974 3.006432941763021 1.6751968765487553 -1 0 0
1569 18 81.58094880669222 4.008577255683995 0.008318750797116336 -1 0 0
1575 14 85.05247854314723 4.008577255683994 0.008318750797117464 -1 0 0
1416 20 86.7882434113751 1.0021443139209925 0.008318750797116194 -1 0 0
1414 4 88.52400827960258 1.789827077628315e-14 1.675196876548756 -1 0 0
1422 16 90.25977314783012 1.0021443139209916 0.008318750797117316 -1 0 0
1579 3 86.78824341137474 3.0064329417630185 1.6751968765487553 -1 0 0
1585 1 90.25977314782973 3.006432941763019 1.6751968765487553 -1 0 0
1581 18 88.52400827960223 4.008577255683993 0.008318750797117518 -1 0 0
1597 1 97.20283262073974 3.006432941763018 1.6751968765487548 -1 0 0
1420 2 91.99553801605758 1.4346299001015732e-14 1.6751968765487562 -1 0 0
1428 20 93.73130288428511 1.0021443139209916 0.008318750797117426 -1 0 0
1426 4 95.46706775251259 1.474498332916685e-14 1.6751968765487562 -1 0 0
1591 3 93.73130288428474 3.0064329417630216 1.6751968765487553 -1 0 0
1587 14 91.99553801605722 4.008577255683995 0.008318750797116229 -1 0 0
1593 18 95.46706775251224 4.008577255683994 0.008318750797117734 -1 0 0
1602 16 1.1704619625256816e-13 7.015010197446994 0.008318750797115885 0 0 0
1600 2 1.7357648682275832 6.012865883526021 1.6751968765487553 0 0 0
1608 20 3.471529736455117 7.015010197446994 0.008318750797116444 0 0 0
1606 4 5.207294604682583 6.012865883526021 1.6751968765487555 0 0 0
1771 3 3.4715297364547415 9.01929882528902 1.6751968765487553 0 0 0
1767 14 1.735764868227228 10.021443139209993 0.008318750797116942 0 0 0
1773 18 5.207294604682229 10.02144313920999 0.008318750797116501 0 0 0
1614 16 6.943059472910116 7.015010197446993 0.008318750797116583 0 0 0
1612 2 8.678824341137583 6.012865883526021 1.6751968765487553 0 0 0
1620 20 10.414589209365118 7.015010197446994 0.00831875079711633 0 0 0
1777 1 6.943059472909741 9.019298825289018 1.6751968765487553 0 0 0
1783 3 10.41458920936474 9.019298825289018 1.6751968765487553 0 0 0
1779 14 8.678824341137227 10.021443139209993 0.008318750797116846 0 0 0
1618 4 12.150354077592583 6.012865883526021 1.6751968765487555 0 0 0
1626 16 13.886118945820117 7.015010197446994 0.008318750797116515 0 0 0
1624 2 15.621883814047582 6.012865883526021 1.6751968765487553 0 0 0
1789 1 13.886118945819739 9.019298825289018 1.675196876548755 0 0 0
1785 18 12.150354077592226 10.02144313920999 0.00831875079711637 0 0 0
1791 14 15.621883814047223 10.02144313920999 0.008318750797116598 0 0 0
1632 20 17.357648682275116 7.015010197446994 0.008318750797116319 0 0 0
1638 16 20.829178418730113 7.015010197446994 0.008318750797116576 0 0 0
1630 4 19.09341355050258 6.012865883526021 1.6751968765487555 0 0 0
1636 2 22.564943286957583 6.012865883526022 1.6751968765487553 0 0 0
1795 3 17.35764868227474 9.01929882528902 1.6751968765487553 0 0 0
1801 1 20.82917841872974 9.019298825289018 1.6751968765487553 0 0 0
1797 18 19.093413550502227 10.02144313920999 0.008318750797116746 0 0 0
1803 14 22.564943286957227 10.02144313920999 0.008318750797117407 0 0 0
1644 20 24.300708155185117 7.015010197446994 0.008318750797116274 0 0 0
1642 4 26.036473023412583 6.012865883526021 1.6751968765487555 0 0 0
1650 16 27.772237891640117 7.015010197446993 0.008318750797117039 0 0 0
1807 3 24.30070815518474 9.019298825289018 1.675196876548755 0 0 0
1813 1 27.77223789163974 9.01929882528902 1.675196876548755 0 0 0
1809 18 26.036473023412228 10.02144313920999 0.008318750797116348 0 0 0
1648 2 29.508002759867583 6.012865883526021 1.6751968765487553 0 0 0
1656 20 31.243767628095117 7.015010197446994 0.008318750797116607 0 0 0
1654 4 32.979532496322584 6.012865883526021 1.6751968765487553 0 0 0
1819 3 31.24376762809474 9.01929882528902 1.6751968765487553 0 0 0
1815 14 29.508002759867228 10.02144313920999 0.008318750797116864 0 0 0
1821 18 32.97953249632223 10.02144313920999 0.008318750797116834 0 0 0
1662 16 34.71529736455012 7.015010197446994 0.00831875079711599 0 0 0
1660 2 36.45106223277758 6.012865883526022 1.6751968765487553 0 0 0
1668 20 38.186827101005115 7.015010197446994 0.00831875079711644 0 0 0
1666 4 39.922591969232585 6.012865883526021 1.6751968765487548 0 0 0
1825 1 34.71529736454974 9.01929882528902 1.675196876548755 0 0 0
1831 3 38.186827101004745 9.019298825289018 1.675196876548755 0 0 0
1827 14 36.45106223277723 10.02144313920999 0.00831875079711737 0 0 0
1833 18 39.92259196923223 10.02144313920999 0.008318750797116348 0 0 0
1674 16 41.65835683746012 7.015010197446994 0.008318750797116714 0 0 0
1672 2 43.39412170568758 6.012865883526021 1.6751968765487562 0 0 0
1680 20 45.129886573915115 7.015010197446994 0.008318750797116197 0 0 0
1837 1 41.65835683745974 9.019298825289018 1.675196876548755 0 0 0
1843 3 45.12988657391474 9.019298825289018 1.675196876548755 0 0 0
1839 14 43.394121705687226 10.02144313920999 0.008318750797116437 0 0 0
1678 4 46.86565144214258 6.012865883526021 1.6751968765487553 0 0 0
1518 16 48.60141631037011 7.015010197446995 0.008318750797116218 -1 0 0
1516 2 50.337181178597575 6.012865883526021 1.6751968765487555 -1 0 0
1681 1 48.601416310369736 9.01929882528902 1.6751968765487555 -1 0 0
1845 18 46.86565144214222 10.02144313920999 0.008318750797116815 0 0 0
1683 14 50.33718117859723 10.021443139209993 0.0083187507971162 -1 0 0
1524 20 52.07294604682511 7.015010197446994 0.008318750797116668 -1 0 0
1522 4 53.80871091505258 6.012865883526021 1.6751968765487555 -1 0 0
1530 16 55.54447578328011 7.015010197446995 0.008318750797116062 -1 0 0
1687 3 52.07294604682474 9.019298825289018 1.6751968765487553 -1 0 0
1693 1 55.544475783279736 9.01929882528902 1.6751968765487553 -1 0 0
1689 18 53.808710915052224 10.021443139209993 0.008318750797117412 -1 0 0
1536 20 59.01600551973511 7.015010197446993 0.008318750797116957 -1 0 0
1528 2 57.280240651507576 6.012865883526021 1.6751968765487555 -1 0 0
1534 4 60.75177038796258 6.012865883526021 1.6751968765487553 -1 0 0
1542 16 62.487535256190114 7.015010197446995 0.008318750797116407 -1 0 0
1699 3 59.01600551973474 9.019298825289018 1.6751968765487555 -1 0 0
1705 1 62.48753525618974 9.019298825289018 1.6751968765487553 -1 0 0
1695 14 57.28024065150723 10.021443139209993 0.008318750797116083 -1 0 0
1701 18 60.751770387962225 10.021443139209993 0.008318750797116784 -1 0 0
1540 2 64.22330012441758 6.012865883526021 1.6751968765487553 -1 0 0
1548 20 65.95906499264511 7.015010197446993 0.008318750797117025 -1 0 0
1546 4 67.69482986087259 6.012865883526021 1.6751968765487553 -1 0 0
1711 3 65.95906499264474 9.019298825289022 1.6751968765487553 -1 0 0
1707 14 64.22330012441722 10.021443139209993 0.008318750797116008 -1 0 0
1713 18 67.69482986087223 10.02144313920999 0.008318750797117283 -1 0 0
1554 16 69.43059472910011 7.015010197446994 0.008318750797115967 -1 0 0
1552 2 71.16635959732758 6.012865883526023 1.6751968765487553 -1 0 0
1560 20 72.90212446555512 7.015010197446994 0.00831875079711705 -1 0 0
1717 1 69.43059472909974 9.019298825289018 1.675196876548755 -1 0 0
1723 3 72.90212446555473 9.019298825289018 1.675196876548755 -1 0 0
1719 14 71.16635959732723 10.02144313920999 0.008318750797117372 -1 0 0
1558 4 74.63788933378258 6.01286588352602 1.6751968765487555 -1 0 0
1566 16 76.37365420201012 7.015010197446994 0.00831875079711688 -1 0 0
1564 2 78.10941907023758 6.01286588352602 1.6751968765487555 -1 0 0
1572 20 79.84518393846511 7.015010197446994 0.008318750797116204 -1 0 0
1729 1 76.37365420200973 9.019298825289018 1.675196876548755 -1 0 0
1735 3 79.84518393846473 9.019298825289018 1.675196876548755 -1 0 0
1725 18 74.63788933378223 10.02144313920999 0.008318750797116421 -1 0 0
1731 14 78.10941907023722 10.02144313920999 0.00831875079711644 -1 0 0
1570 4 81.58094880669258 6.012865883526021 1.6751968765487553 -1 0 0
1578 16 83.31671367492011 7.015010197446994 0.008318750797116279 -1 0 0
1576 2 85.05247854314757 6.012865883526021 1.6751968765487553 -1 0 0
1741 1 83.31671367491974 9.01929882528902 1.6751968765487553 -1 0 0
1737 18 81.58094880669222 10.021443139209993 0.008318750797116133 -1 0 0
1743 14 85.05247854314723 10.02144313920999 0.008318750797117351 -1 0 0
1584 20 86.7882434113751 7.015010197446994 0.00831875079711599 -1 0 0
1582 4 88.52400827960258 6.012865883526023 1.6751968765487553 -1 0 0
1590 16 90.25977314783012 7.015010197446994 0.00831875079711705 -1 0 0
1747 3 86.78824341137474 9.019298825289018 1.675196876548755 -1 0 0
1753 1 90.25977314782973 9.019298825289018 1.6751968765487553 -1 0 0
1749 18 88.52400827960223 10.02144313920999 0.008318750797117374 -1 0 0
1765 1 97.20283262073974 9.019298825289018 1.6751968765487548 -1 0 0
1588 2 91.99553801605758 6.01286588352602 1.6751968765487553 -1 0 0
1596 20 93.73130288428511 7.015010197446993 0.008318750797117084 -1 0 0
1594 4 95.46706775251258 6.012865883526021 1.6751968765487553 -1 0 0
1759 3 93.73130288428474 9.019298825289022 1.6751968765487553 -1 0 0
1755 14 91.99553801605722 10.021443139209993 0.008318750797116057 -1 0 0
1761 18 95.46706775251224 10.02144313920999 0.008318750797117342 -1 0 0
1770 16 1.170519253998871e-13 13.027876080972993 0.008318750797116485 0 0 0
1768 2 1.735764868227583 12.025731767052019 1.6751968765487555 0 0 0
1776 20 3.4715297364551176 13.027876080972993 0.00831875079711674 0 0 0
1774 4 5.207294604682583 12.025731767052019 1.6751968765487555 0 0 0
1939 3 3.4715297364547415 15.032164708815019 1.6751968765487553 0 0 0
1935 14 1.735764868227228 16.03430902273599 0.008318750797116534 0 0 0
1941 18 5.207294604682229 16.03430902273599 0.008318750797116213 0 0 0
1782 16 6.943059472910116 13.027876080972993 0.008318750797116945 0 0 0
1780 2 8.678824341137583 12.025731767052019 1.6751968765487555 0 0 0
1788 20 10.414589209365118 13.027876080972993 0.008318750797116563 0 0 0
1945 1 6.9430594729097415 15.032164708815017 1.6751968765487553 0 0 0
1951 3 10.41458920936474 15.032164708815017 1.6751968765487553 0 0 0
1947 14 8.678824341137227 16.03430902273599 0.00831875079711659 0 0 0
1786 4 12.150354077592583 12.025731767052019 1.6751968765487553 0 0 0
1794 16 13.886118945820117 13.027876080972993 0.00831875079711709 0 0 0
1792 2 15.621883814047582 12.025731767052019 1.6751968765487553 0 0 0
1957 1 13.886118945819739 15.032164708815017 1.6751968765487555 0 0 0
1953 18 12.150354077592226 16.03430902273599 0.008318750797115979 0 0 0
1959 14 15.621883814047223 16.03430902273599 0.008318750797116225 0 0 0
1800 20 17.357648682275116 13.027876080972993 0.008318750797116768 0 0 0
1806 16 20.829178418730113 13.027876080972993 0.00831875079711678 0 0 0
1798 4 19.09341355050258 12.025731767052019 1.6751968765487555 0 0 0
1804 2 22.564943286957583 12.025731767052019 1.6751968765487553 0 0 0
1963 3 17.35764868227474 15.032164708815019 1.6751968765487555 0 0 0
1969 1 20.82917841872974 15.032164708815017 1.6751968765487553 0 0 0
1965 18 19.09341355050223 16.03430902273599 0.008318750797116452 0 0 0
1971 14 22.564943286957227 16.03430902273599 0.008318750797117006 0 0 0
1812 20 24.300708155185117 13.027876080972993 0.008318750797116466 0 0 0
1810 4 26.036473023412583 12.025731767052019 1.6751968765487553 0 0 0
1818 16 27.772237891640117 13.027876080972991 0.008318750797117596 0 0 0
1975 3 24.30070815518474 15.032164708815017 1.6751968765487553 0 0 0
1981 1 27.77223789163974 15.032164708815017 1.6751968765487555 0 0 0
1977 18 26.036473023412228 16.03430902273599 0.008318750797116173 0 0 0
1816 2 29.508002759867583 12.025731767052019 1.6751968765487553 0 0 0
1824 20 31.243767628095117 13.027876080972993 0.008318750797117053 0 0 0
1822 4 32.979532496322584 12.025731767052019 1.6751968765487553 0 0 0
1987 3 31.24376762809474 15.032164708815019 1.6751968765487555 0 0 0
1983 14 29.508002759867228 16.03430902273599 0.00831875079711611 0 0 0
1989 18 32.97953249632223 16.03430902273599 0.008318750797116399 0 0 0
1830 16 34.71529736455012 13.027876080972993 0.008318750797116208 0 0 0
1828 2 36.45106223277758 12.02573176705202 1.6751968765487553 0 0 0
1836 20 38.186827101005115 13.027876080972993 0.008318750797116721 0 0 0
1834 4 39.922591969232585 12.025731767052019 1.6751968765487546 0 0 0
1993 1 34.71529736454974 15.032164708815017 1.6751968765487553 0 0 0
1999 3 38.186827101004745 15.032164708815017 1.6751968765487553 0 0 0
1995 14 36.45106223277723 16.03430902273599 0.00831875079711697 0 0 0
2001 18 39.92259196923223 16.03430902273599 0.008318750797115894 0 0 0
1842 16 41.65835683746012 13.027876080972991 0.008318750797117289 0 0 0
1840 2 43.39412170568758 12.025731767052019 1.675196876548756 0 0 0
1848 20 45.129886573915115 13.027876080972993 0.008318750797116494 0 0 0
2005 1 41.65835683745974 15.032164708815017 1.6751968765487553 0 0 0
2011 3 45.12988657391474 15.032164708815017 1.6751968765487553 0 0 0
2007 14 43.394121705687226 16.03430902273599 0.008318750797116085 0 0 0
1846 4 46.86565144214258 12.025731767052019 1.6751968765487555 0 0 0
1686 16 48.60141631037011 13.027876080972993 0.008318750797116635 -1 0 0
1684 2 50.337181178597575 12.025731767052019 1.6751968765487553 -1 0 0
1849 1 48.601416310369736 15.032164708815019 1.675196876548755 -1 0 0
2013 18 46.86565144214222 16.03430902273599 0.008318750797116609 0 0 0
1851 14 50.33718117859723 16.03430902273599 0.008318750797116034 -1 0 0
1692 20 52.07294604682511 13.027876080972993 0.008318750797117039 -1 0 0
1690 4 53.80871091505258 12.025731767052019 1.6751968765487553 -1 0 0
1698 16 55.54447578328011 13.027876080972993 0.008318750797116435 -1 0 0
1855 3 52.07294604682474 15.032164708815017 1.6751968765487553 -1 0 0
1861 1 55.544475783279736 15.032164708815019 1.6751968765487553 -1 0 0
1857 18 53.808710915052224 16.03430902273599 0.00831875079711685 -1 0 0
1704 20 59.01600551973511 13.027876080972993 0.008318750797117323 -1 0 0
1696 2 57.280240651507576 12.025731767052019 1.6751968765487555 -1 0 0
1702 4 60.75177038796258 12.025731767052019 1.6751968765487553 -1 0 0
1710 16 62.487535256190114 13.027876080972993 0.008318750797116557 -1 0 0
1867 3 59.01600551973474 15.032164708815017 1.6751968765487553 -1 0 0
1873 1 62.48753525618974 15.032164708815017 1.6751968765487553 -1 0 0
1863 14 57.28024065150723 16.03430902273599 0.008318750797115887 -1 0 0
1869 18 60.751770387962225 16.03430902273599 0.008318750797116485 -1 0 0
1708 2 64.22330012441758 12.025731767052019 1.6751968765487555 -1 0 0
1716 20 65.95906499264511 13.027876080972991 0.00831875079711734 -1 0 0
1714 4 67.69482986087259 12.025731767052019 1.6751968765487553 -1 0 0
1879 3 65.95906499264474 15.032164708815019 1.6751968765487555 -1 0 0
1875 14 64.22330012441722 16.03430902273599 0.008318750797115665 -1 0 0
1881 18 67.69482986087223 16.03430902273599 0.00831875079711695 -1 0 0
1722 16 69.43059472910011 13.027876080972993 0.008318750797116185 -1 0 0
1720 2 71.16635959732758 12.02573176705202 1.6751968765487553 -1 0 0
1728 20 72.90212446555512 13.027876080972993 0.00831875079711727 -1 0 0
1885 1 69.43059472909974 15.032164708815017 1.6751968765487553 -1 0 0
1891 3 72.90212446555473 15.032164708815017 1.6751968765487553 -1 0 0
1887 14 71.16635959732723 16.03430902273599 0.008318750797116971 -1 0 0
1726 4 74.63788933378258 12.025731767052017 1.6751968765487553 -1 0 0
1734 16 76.37365420201012 13.027876080972991 0.008318750797117355 -1 0 0
1732 2 78.10941907023758 12.025731767052017 1.6751968765487553 -1 0 0
1740 20 79.84518393846511 13.027876080972993 0.008318750797116501 -1 0 0
1897 1 76.37365420200973 15.032164708815017 1.6751968765487553 -1 0 0
1903 3 79.84518393846473 15.032164708815017 1.6751968765487553 -1 0 0
1893 18 74.63788933378223 16.03430902273599 0.008318750797115965 -1 0 0
1899 14 78.10941907023722 16.03430902273599 0.008318750797116088 -1 0 0
1738 4 81.58094880669258 12.025731767052019 1.6751968765487553 -1 0 0
1746 16 83.31671367492011 13.027876080972993 0.00831875079711673 -1 0 0
1744 2 85.05247854314757 12.025731767052019 1.6751968765487553 -1 0 0
1909 1 83.31671367491974 15.032164708815019 1.6751968765487555 -1 0 0
1905 18 81.58094880669222 16.03430902273599 0.008318750797115804 -1 0 0
1911 14 85.05247854314723 16.03430902273599 0.008318750797116987 -1 0 0
1752 20 86.7882434113751 13.027876080972993 0.008318750797116206 -1 0 0
1750 4 88.52400827960258 12.02573176705202 1.6751968765487553 -1 0 0
1758 16 90.25977314783012 13.027876080972993 0.008318750797117276 -1 0 0
1915 3 86.78824341137474 15.032164708815017 1.6751968765487553 -1 0 0
1921 1 90.25977314782973 15.032164708815017 1.6751968765487553 -1 0 0
1917 18 88.52400827960223 16.03430902273599 0.008318750797116975 -1 0 0
1933 1 97.20283262073974 15.032164708815017 1.6751968765487548 -1 0 0
1756 2 91.99553801605758 12.025731767052017 1.6751968765487553 -1 0 0
1764 20 93.73130288428511 13.027876080972991 0.008318750797117403 -1 0 0
1762 4 95.46706775251258 12.025731767052019 1.6751968765487553 -1 0 0
1927 3 93.73130288428474 15.032164708815019 1.6751968765487553 -1 0 0
1923 14 91.99553801605722 16.03430902273599 0.008318750797115717 -1 0 0
1929 18 95.46706775251224 16.03430902273599 0.008318750797117037 -1 0 0
1936 2 1.7357648682275828 18.03859765057802 1.6751968765487553 0 0 0
1942 4 5.207294604682583 18.038597650578016 1.6751968765487553 0 0 0
1938 16 1.1716011286053416e-13 19.040741964498995 0.00831875079711713 0 0 0
1944 20 3.471529736455117 19.04074196449899 0.008318750797117297 0 0 0
2103 14 1.7357648682272282 22.047174906261993 0.008318750797116607 0 0 0
2107 3 3.4715297364547415 21.04503059234102 1.6751968765487555 0 0 0
2109 18 5.207294604682229 22.04717490626199 0.008318750797116128 0 0 0
1948 2 8.678824341137583 18.03859765057802 1.6751968765487555 0 0 0
1950 16 6.943059472910116 19.040741964498995 0.00831875079711759 0 0 0
1956 20 10.414589209365118 19.040741964498995 0.008318750797117271 0 0 0
2113 1 6.943059472909741 21.04503059234102 1.6751968765487553 0 0 0
2115 14 8.678824341137227 22.047174906261993 0.008318750797116558 0 0 0
2119 3 10.41458920936474 21.04503059234102 1.6751968765487553 0 0 0
1954 4 12.150354077592583 18.038597650578016 1.6751968765487553 0 0 0
1960 2 15.621883814047582 18.038597650578016 1.6751968765487553 0 0 0
1962 16 13.886118945820117 19.040741964498995 0.00831875079711742 0 0 0
2121 18 12.150354077592226 22.047174906261993 0.008318750797115824 0 0 0
2125 1 13.886118945819739 21.04503059234102 1.6751968765487553 0 0 0
2127 14 15.621883814047223 22.047174906261993 0.00831875079711598 0 0 0
1966 4 19.093413550502582 18.03859765057802 1.6751968765487553 0 0 0
1972 2 22.564943286957583 18.03859765057802 1.6751968765487553 0 0 0
1968 20 17.357648682275116 19.040741964498995 0.008318750797117394 0 0 0
1974 16 20.829178418730113 19.040741964498995 0.008318750797117412 0 0 0
2131 3 17.35764868227474 21.04503059234102 1.6751968765487555 0 0 0
2133 18 19.093413550502227 22.047174906261993 0.008318750797116066 0 0 0
2137 1 20.829178418729743 21.04503059234102 1.6751968765487553 0 0 0
2139 14 22.564943286957227 22.047174906261993 0.00831875079711675 0 0 0
1978 4 26.036473023412583 18.03859765057802 1.6751968765487555 0 0 0
1980 20 24.300708155185117 19.040741964498995 0.008318750797117122 0 0 0
1986 16 27.772237891640117 19.040741964498995 0.008318750797118059 0 0 0
2143 3 24.30070815518474 21.04503059234102 1.6751968765487553 0 0 0
2145 18 26.036473023412228 22.04717490626199 0.008318750797116135 0 0 0
2149 1 27.77223789163974 21.04503059234102 1.6751968765487553 0 0 0
1984 2 29.508002759867583 18.038597650578016 1.6751968765487553 0 0 0
1990 4 32.979532496322584 18.03859765057802 1.6751968765487553 0 0 0
1992 20 31.243767628095117 19.040741964498995 0.008318750797117679 0 0 0
2151 14 29.508002759867228 22.047174906261993 0.008318750797115795 0 0 0
2155 3 31.24376762809474 21.04503059234102 1.6751968765487555 0 0 0
2157 18 32.97953249632223 22.047174906261993 0.008318750797116083 0 0 0
1996 2 36.45106223277758 18.03859765057802 1.6751968765487553 0 0 0
2002 4 39.922591969232585 18.03859765057802 1.6751968765487546 0 0 0
1998 16 34.71529736455012 19.040741964498995 0.008318750797116806 0 0 0
2004 20 38.186827101005115 19.040741964498995 0.008318750797117368 0 0 0
2161 1 34.71529736454974 21.04503059234102 1.6751968765487553 0 0 0
2163 14 36.45106223277723 22.047174906261993 0.008318750797116716 0 0 0
2169 18 39.92259196923223 22.047174906261993 0.008318750797115774 0 0 0
2167 3 38.186827101004745 21.04503059234102 1.6751968765487553 0 0 0
2008 2 43.39412170568758 18.038597650578016 1.675196876548756 0 0 0
2010 16 41.65835683746012 19.040741964498995 0.008318750797117734 0 0 0
2016 20 45.129886573915115 19.040741964498995 0.008318750797117195 0 0 0
2173 1 41.65835683745974 21.04503059234102 1.6751968765487553 0 0 0
2175 14 43.394121705687226 22.047174906261993 0.008318750797115831 0 0 0
2179 3 45.12988657391474 21.04503059234102 1.6751968765487553 0 0 0
2014 4 46.86565144214258 18.038597650578016 1.6751968765487553 0 0 0
1852 2 50.33718117859758 18.038597650578016 1.675196876548755 -1 0 0
1854 16 48.60141631037011 19.040741964498995 0.008318750797117087 -1 0 0
2181 18 46.86565144214222 22.04717490626199 0.00831875079711634 0 0 0
2017 1 48.601416310369736 21.04503059234102 1.6751968765487555 -1 0 0
2019 14 50.33718117859723 22.047174906261993 0.008318750797115757 -1 0 0
1858 4 53.80871091505258 18.03859765057802 1.6751968765487553 -1 0 0
1860 20 52.07294604682511 19.040741964498995 0.008318750797117663 -1 0 0
1866 16 55.54447578328011 19.040741964498995 0.008318750797116888 -1 0 0
2023 3 52.07294604682474 21.04503059234102 1.6751968765487557 -1 0 0
2025 18 53.808710915052224 22.047174906261993 0.008318750797117061 -1 0 0
2029 1 55.544475783279736 21.04503059234102 1.6751968765487553 -1 0 0
1864 2 57.280240651507576 18.03859765057802 1.6751968765487553 -1 0 0
1870 4 60.75177038796258 18.03859765057802 1.6751968765487555 -1 0 0
1872 20 59.01600551973511 19.04074196449899 0.00831875079711798 -1 0 0
1878 16 62.487535256190114 19.040741964498995 0.008318750797117424 -1 0 0
2031 14 57.28024065150723 22.047174906261993 0.008318750797115722 -1 0 0
2035 3 59.01600551973474 21.04503059234102 1.6751968765487553 -1 0 0
2037 18 60.751770387962225 22.047174906261993 0.008318750797116477 -1 0 0
2041 1 62.48753525618974 21.04503059234102 1.6751968765487555 -1 0 0
1876 2 64.22330012441758 18.03859765057802 1.6751968765487553 -1 0 0
1882 4 67.69482986087259 18.03859765057802 1.6751968765487553 -1 0 0
1884 20 65.95906499264511 19.040741964498995 0.008318750797117908 -1 0 0
2043 14 64.22330012441722 22.047174906261993 0.008318750797115405 -1 0 0
2047 3 65.95906499264474 21.04503059234102 1.6751968765487553 -1 0 0
2049 18 67.69482986087223 22.04717490626199 0.008318750797116647 -1 0 0