LAMMPS data file via write_data, version 29 Aug 2024, timestep = 2, units = metal

5712 atoms
24 atom types

0 97.20283262074 xlo xhi
0 102.218720019942 ylo yhi
-50 50 zlo zhi

Masses

1 92.90637
2 92.90637
3 92.90637
4 92.90637
5 92.90637
6 92.90637
7 92.90637
8 92.90637
9 78.971
10 78.971
11 78.971
12 78.971
13 78.971
14 78.971
15 78.971
16 78.971
17 78.971
18 78.971
19 78.971
20 78.971
21 78.971
22 78.971
23 78.971
24 78.971

Atoms # atomic

1434 12 1.2176000012908148e-13 1.0021443139209922 0.008284084388748779 0 0 0
1432 2 1.7357648682275786 1.662970816764069e-14 1.675280039090184 0 0 0
1440 16 3.4715297364551216 1.002144313920992 0.00828408438874949 0 0 0
1438 4 5.207294604682579 1.5198912803523568e-14 1.675280039090184 0 0 0
1603 3 3.4715297364547353 3.0064329417630202 1.6752800390901834 0 0 0
1599 10 1.7357648682272295 4.008577255683994 0.008284084388749951 0 0 0
1605 14 5.207294604682231 4.008577255683994 0.008284084388749379 0 0 0
1446 12 6.943059472910121 1.0021443139209916 0.008284084388749778 0 0 0
1444 2 8.67882434113758 1.632517222273981e-14 1.675280039090184 0 0 0
1452 16 10.414589209365122 1.002144313920992 0.008284084388749372 0 0 0
1609 1 6.943059472909734 3.0064329417630193 1.6752800390901834 0 0 0
1615 3 10.414589209364733 3.00643294176302 1.6752800390901834 0 0 0
1611 10 8.67882434113723 4.008577255683994 0.00828408438874985 0 0 0
1450 4 12.150354077592578 1.5169255845878798e-14 1.6752800390901843 0 0 0
1458 12 13.88611894582012 1.0021443139209916 0.008284084388749563 0 0 0
1456 2 15.621883814047576 1.5301695361968428e-14 1.6752800390901843 0 0 0
1621 1 13.886118945819732 3.0064329417630193 1.6752800390901836 0 0 0
1617 14 12.150354077592228 4.008577255683994 0.00828408438874923 0 0 0
1623 10 15.621883814047225 4.008577255683994 0.008284084388749348 0 0 0
1464 16 17.35764868227512 1.002144313920992 0.008284084388749398 0 0 0
1470 12 20.829178418730116 1.0021443139209918 0.00828408438874953 0 0 0
1462 4 19.093413550502575 1.5300398991786443e-14 1.6752800390901843 0 0 0
1468 2 22.564943286957575 1.7606646603194156e-14 1.675280039090184 0 0 0
1627 3 17.357648682274732 3.0064329417630207 1.6752800390901834 0 0 0
1633 1 20.829178418729732 3.0064329417630193 1.6752800390901834 0 0 0
1629 14 19.093413550502227 4.008577255683994 0.008284084388749635 0 0 0
1635 10 22.56494328695723 4.008577255683993 0.008284084388750487 0 0 0
1476 16 24.30070815518512 1.0021443139209918 0.008284084388749445 0 0 0
1474 4 26.03647302341258 1.512997468321061e-14 1.6752800390901843 0 0 0
1482 12 27.77223789164012 1.0021443139209911 0.008284084388750085 0 0 0
1639 3 24.300708155184736 3.0064329417630193 1.6752800390901834 0 0 0
1645 1 27.772237891639733 3.00643294176302 1.6752800390901834 0 0 0
1641 14 26.03647302341223 4.008577255683994 0.008284084388749191 0 0 0
1480 2 29.508002759867576 1.5301885260365807e-14 1.6752800390901843 0 0 0
1488 16 31.24376762809512 1.002144313920992 0.00828408438874934 0 0 0
1486 4 32.97953249632258 1.5384712141773552e-14 1.6752800390901843 0 0 0
1651 3 31.243767628094734 3.006432941763021 1.6752800390901834 0 0 0
1647 10 29.508002759867228 4.008577255683994 0.008284084388749294 0 0 0
1653 14 32.979532496322236 4.008577255683994 0.00828408438874989 0 0 0
1494 12 34.71529736455012 1.0021443139209918 0.008284084388749563 0 0 0
1492 2 36.45106223277758 1.752454639677626e-14 1.675280039090184 0 0 0
1500 16 38.18682710100512 1.0021443139209918 0.008284084388749445 0 0 0
1498 4 39.92259196923258 1.5463465279091386e-14 1.6752800390901843 0 0 0
1657 1 34.715297364549734 3.0064329417630193 1.6752800390901834 0 0 0
1663 3 38.18682710100474 3.0064329417630193 1.6752800390901834 0 0 0
1659 10 36.45106223277723 4.008577255683993 0.00828408438875031 0 0 0
1665 14 39.92259196923223 4.008577255683994 0.008284084388749183 0 0 0
1506 12 41.658356837460126 1.0021443139209913 0.008284084388750015 0 0 0
1504 2 43.39412170568758 1.4820570034061438e-14 1.6752800390901843 0 0 0
1512 16 45.12988657391512 1.0021443139209918 0.00828408438874925 0 0 0
1669 1 41.658356837459735 3.00643294176302 1.675280039090184 0 0 0
1675 3 45.12988657391473 3.00643294176302 1.6752800390901827 0 0 0
1671 10 43.394121705687226 4.008577255683994 0.008284084388749136 0 0 0
1510 4 46.86565144214258 1.523157644678384e-14 1.6752800390901843 0 0 0
1350 12 48.60141631037012 1.002144313920992 0.008284084388749398 -1 0 0
1348 2 50.337181178597575 1.5387599509865385e-14 1.6752800390901843 -1 0 0
1513 1 48.60141631036973 3.00643294176302 1.6752800390901834 -1 0 0
1677 14 46.86565144214223 4.008577255683994 0.00828408438874926 0 0 0
1515 10 50.33718117859723 4.008577255683994 0.00828408438874982 -1 0 0
1356 16 52.072946046825116 1.0021443139209922 0.008284084388749165 -1 0 0
1354 4 53.80871091505257 1.6866050540832904e-14 1.675280039090184 -1 0 0
1362 12 55.54447578328012 1.0021443139209918 0.008284084388749705 -1 0 0
1519 3 52.07294604682473 3.0064329417630193 1.6752800390901836 -1 0 0
1525 1 55.54447578327973 3.0064329417630207 1.6752800390901834 -1 0 0
1521 14 53.808710915052224 4.008577255683994 0.008284084388749615 -1 0 0
1368 16 59.01600551973512 1.0021443139209918 0.008284084388749544 -1 0 0
1360 2 57.280240651507576 1.5014574604207917e-14 1.6752800390901843 -1 0 0
1366 4 60.75177038796257 1.6137131525854314e-14 1.6752800390901839 -1 0 0
1374 12 62.487535256190114 1.0021443139209925 0.008284084388748713 -1 0 0
1531 3 59.01600551973473 3.0064329417630193 1.6752800390901834 -1 0 0
1537 1 62.48753525618973 3.0064329417630193 1.6752800390901834 -1 0 0
1527 10 57.28024065150723 4.008577255683994 0.008284084388749724 -1 0 0
1533 14 60.751770387962225 4.008577255683994 0.008284084388749889 -1 0 0
1372 2 64.22330012441758 1.5811842103383722e-14 1.6752800390901843 -1 0 0
1380 16 65.95906499264511 1.0021443139209907 0.008284084388751193 -1 0 0
1378 4 67.69482986087257 1.529723456505317e-14 1.6752800390901843 -1 0 0
1543 3 65.95906499264473 3.006432941763022 1.6752800390901834 -1 0 0
1539 10 64.22330012441722 4.008577255683994 0.00828408438874904 -1 0 0
1545 14 67.69482986087223 4.008577255683994 0.008284084388750095 -1 0 0
1386 12 69.43059472910012 1.0021443139209922 0.008284084388748962 -1 0 0
1384 2 71.16635959732757 1.8444024449785298e-14 1.675280039090184 -1 0 0
1392 16 72.90212446555512 1.0021443139209922 0.008284084388748869 -1 0 0
1549 1 69.43059472909974 3.006432941763019 1.6752800390901834 -1 0 0
1555 3 72.90212446555473 3.006432941763019 1.6752800390901834 -1 0 0
1551 10 71.16635959732723 4.008577255683993 0.008284084388750243 -1 0 0
1390 4 74.63788933378258 1.478143607105917e-14 1.6752800390901843 -1 0 0
1398 12 76.37365420201012 1.0021443139209911 0.008284084388750142 -1 0 0
1396 2 78.10941907023758 1.4868590909513412e-14 1.6752800390901845 -1 0 0
1404 16 79.84518393846511 1.002144313920992 0.008284084388749313 -1 0 0
1561 1 76.37365420200973 3.00643294176302 1.6752800390901834 -1 0 0
1567 3 79.84518393846473 3.0064329417630193 1.6752800390901834 -1 0 0
1557 14 74.63788933378223 4.008577255683994 0.00828408438874925 -1 0 0
1563 10 78.10941907023722 4.008577255683994 0.008284084388749202 -1 0 0
1402 4 81.58094880669258 1.5041930696719356e-14 1.6752800390901843 -1 0 0
1410 12 83.31671367492011 1.0021443139209913 0.008284084388750446 -1 0 0
1408 2 85.05247854314757 1.538449084741663e-14 1.6752800390901843 -1 0 0
1573 1 83.31671367491973 3.006432941763022 1.6752800390901834 -1 0 0
1569 14 81.58094880669222 4.008577255683994 0.008284084388749035 -1 0 0
1575 10 85.05247854314723 4.008577255683994 0.008284084388750178 -1 0 0
1416 16 86.78824341137512 1.0021443139209922 0.008284084388748905 -1 0 0
1414 4 88.52400827960257 1.8443139272357614e-14 1.675280039090184 -1 0 0
1422 12 90.25977314783012 1.0021443139209922 0.008284084388748876 -1 0 0
1579 3 86.78824341137474 3.006432941763019 1.6752800390901834 -1 0 0
1585 1 90.25977314782973 3.006432941763019 1.6752800390901834 -1 0 0
1581 14 88.52400827960223 4.008577255683993 0.008284084388750244 -1 0 0
1597 1 97.20283262073973 3.0064329417630185 1.6752800390901827 -1 0 0
1420 2 91.99553801605758 1.4874158406609297e-14 1.6752800390901843 -1 0 0
1428 16 93.73130288428511 1.0021443139209905 0.00828408438875124 -1 0 0
1426 4 95.46706775251258 1.513690856037215e-14 1.6752800390901843 -1 0 0
1591 3 93.73130288428473 3.006432941763022 1.6752800390901834 -1 0 0
1587 10 91.99553801605722 4.008577255683994 0.008284084388749087 -1 0 0
1593 14 95.46706775251224 4.008577255683994 0.008284084388750357 -1 0 0
1602 12 1.2177151094945869e-13 7.015010197446994 0.008284084388748367 0 0 0
1600 2 1.7357648682275786 6.012865883526022 1.6752800390901834 0 0 0
1608 16 3.4715297364551216 7.015010197446994 0.008284084388749051 0 0 0
1606 4 5.207294604682578 6.012865883526021 1.6752800390901836 0 0 0
1771 3 3.471529736454735 9.01929882528902 1.6752800390901834 0 0 0
1767 10 1.7357648682272295 10.021443139209993 0.008284084388749762 0 0 0
1773 14 5.207294604682231 10.02144313920999 0.0082840843887492 0 0 0
1614 12 6.943059472910121 7.015010197446993 0.008284084388749339 0 0 0
1612 2 8.67882434113758 6.012865883526022 1.6752800390901836 0 0 0
1620 16 10.414589209365122 7.015010197446994 0.008284084388748949 0 0 0
1777 1 6.943059472909734 9.019298825289018 1.6752800390901834 0 0 0
1783 3 10.414589209364733 9.01929882528902 1.6752800390901834 0 0 0
1779 10 8.67882434113723 10.021443139209993 0.00828408438874976 0 0 0
1618 4 12.150354077592578 6.012865883526021 1.6752800390901836 0 0 0
1626 12 13.88611894582012 7.015010197446993 0.008284084388749113 0 0 0
1624 2 15.621883814047576 6.012865883526021 1.6752800390901834 0 0 0
1789 1 13.886118945819732 9.019298825289018 1.6752800390901834 0 0 0
1785 14 12.150354077592228 10.02144313920999 0.00828408438874902 0 0 0
1791 10 15.621883814047225 10.02144313920999 0.008284084388749032 0 0 0
1632 16 17.35764868227512 7.015010197446994 0.008284084388748867 0 0 0
1638 12 20.829178418730116 7.015010197446994 0.008284084388749096 0 0 0
1630 4 19.093413550502575 6.012865883526021 1.6752800390901834 0 0 0
1636 2 22.564943286957575 6.012865883526023 1.6752800390901834 0 0 0
1795 3 17.357648682274732 9.01929882528902 1.6752800390901836 0 0 0
1801 1 20.829178418729732 9.01929882528902 1.6752800390901834 0 0 0
1797 14 19.093413550502227 10.02144313920999 0.008284084388749514 0 0 0
1803 10 22.56494328695723 10.02144313920999 0.008284084388750333 0 0 0
1644 16 24.30070815518512 7.015010197446994 0.008284084388748954 0 0 0
1642 4 26.03647302341258 6.012865883526021 1.6752800390901834 0 0 0
1650 12 27.77223789164012 7.015010197446994 0.008284084388749694 0 0 0
1807 3 24.300708155184736 9.01929882528902 1.6752800390901834 0 0 0
1813 1 27.772237891639733 9.01929882528902 1.6752800390901834 0 0 0
1809 14 26.036473023412228 10.02144313920999 0.00828408438874894 0 0 0
1648 2 29.508002759867576 6.012865883526021 1.6752800390901832 0 0 0
1656 16 31.24376762809512 7.015010197446994 0.008284084388748813 0 0 0
1654 4 32.97953249632258 6.012865883526021 1.6752800390901834 0 0 0
1819 3 31.243767628094734 9.01929882528902 1.6752800390901836 0 0 0
1815 10 29.508002759867228 10.02144313920999 0.008284084388748938 0 0 0
1821 14 32.979532496322236 10.02144313920999 0.008284084388749785 0 0 0
1662 12 34.71529736455012 7.015010197446994 0.008284084388749129 0 0 0
1660 2 36.45106223277758 6.012865883526022 1.6752800390901834 0 0 0
1668 16 38.18682710100512 7.015010197446994 0.008284084388748954 0 0 0
1666 4 39.92259196923258 6.012865883526022 1.6752800390901834 0 0 0
1825 1 34.715297364549734 9.019298825289018 1.6752800390901834 0 0 0
1831 3 38.18682710100474 9.019298825289018 1.6752800390901834 0 0 0
1827 10 36.45106223277723 10.02144313920999 0.008284084388750074 0 0 0
1833 14 39.92259196923223 10.02144313920999 0.008284084388748949 0 0 0
1674 12 41.658356837460126 7.015010197446994 0.0082840843887497 0 0 0
1672 2 43.39412170568758 6.012865883526021 1.6752800390901834 0 0 0
1680 16 45.12988657391512 7.015010197446994 0.008284084388748622 0 0 0
1837 1 41.658356837459735 9.01929882528902 1.675280039090184 0 0 0
1843 3 45.12988657391473 9.01929882528902 1.6752800390901827 0 0 0
1839 10 43.394121705687226 10.02144313920999 0.008284084388748982 0 0 0
1678 4 46.86565144214258 6.012865883526021 1.6752800390901834 0 0 0
1518 12 48.60141631037012 7.015010197446994 0.00828408438874906 -1 0 0
1516 2 50.337181178597575 6.012865883526021 1.6752800390901834 -1 0 0
1681 1 48.60141631036973 9.01929882528902 1.6752800390901834 -1 0 0
1845 14 46.86565144214223 10.02144313920999 0.00828408438874898 0 0 0
1683 10 50.33718117859723 10.02144313920999 0.008284084388749589 -1 0 0
1524 16 52.072946046825116 7.015010197446994 0.008284084388748609 -1 0 0
1522 4 53.80871091505257 6.012865883526022 1.6752800390901836 -1 0 0
1530 12 55.54447578328012 7.015010197446994 0.00828408438874928 -1 0 0
1687 3 52.07294604682473 9.019298825289018 1.6752800390901836 -1 0 0
1693 1 55.54447578327973 9.01929882528902 1.6752800390901834 -1 0 0
1689 14 53.808710915052224 10.021443139209993 0.008284084388749459 -1 0 0
1536 16 59.01600551973512 7.015010197446994 0.00828408438874904 -1 0 0
1528 2 57.280240651507576 6.012865883526021 1.6752800390901836 -1 0 0
1534 4 60.75177038796257 6.012865883526021 1.6752800390901836 -1 0 0
1542 12 62.487535256190114 7.015010197446994 0.008284084388748265 -1 0 0
1699 3 59.01600551973473 9.019298825289018 1.6752800390901836 -1 0 0
1705 1 62.48753525618973 9.019298825289018 1.6752800390901836 -1 0 0
1695 10 57.28024065150723 10.02144313920999 0.008284084388749488 -1 0 0
1701 14 60.751770387962225 10.021443139209993 0.008284084388749604 -1 0 0
1540 2 64.22330012441758 6.012865883526021 1.6752800390901834 -1 0 0
1548 16 65.95906499264511 7.015010197446992 0.008284084388750824 -1 0 0
1546 4 67.69482986087257 6.012865883526021 1.6752800390901834 -1 0 0
1711 3 65.95906499264473 9.019298825289022 1.6752800390901834 -1 0 0
1707 10 64.22330012441722 10.021443139209993 0.008284084388748619 -1 0 0
1713 14 67.69482986087223 10.02144313920999 0.00828408438874995 -1 0 0
1554 12 69.43059472910012 7.015010197446994 0.008284084388748452 -1 0 0
1552 2 71.16635959732757 6.012865883526023 1.6752800390901834 -1 0 0
1560 16 72.90212446555512 7.015010197446994 0.008284084388748437 -1 0 0
1717 1 69.43059472909974 9.019298825289018 1.6752800390901834 -1 0 0
1723 3 72.90212446555473 9.019298825289018 1.6752800390901834 -1 0 0
1719 10 71.16635959732723 10.02144313920999 0.008284084388750008 -1 0 0
1558 4 74.63788933378258 6.012865883526021 1.6752800390901836 -1 0 0
1566 12 76.37365420201012 7.015010197446994 0.008284084388749755 -1 0 0
1564 2 78.10941907023758 6.012865883526021 1.6752800390901834 -1 0 0
1572 16 79.84518393846511 7.015010197446994 0.008284084388748758 -1 0 0
1729 1 76.37365420200973 9.01929882528902 1.6752800390901834 -1 0 0
1735 3 79.84518393846473 9.019298825289018 1.6752800390901834 -1 0 0
1725 14 74.63788933378223 10.02144313920999 0.008284084388749016 -1 0 0
1731 10 78.10941907023722 10.02144313920999 0.008284084388749047 -1 0 0
1570 4 81.58094880669258 6.012865883526021 1.6752800390901834 -1 0 0
1578 12 83.31671367492011 7.015010197446993 0.008284084388749842 -1 0 0
1576 2 85.05247854314757 6.012865883526021 1.6752800390901834 -1 0 0
1741 1 83.31671367491973 9.019298825289022 1.6752800390901836 -1 0 0
1737 14 81.58094880669222 10.021443139209993 0.008284084388748733 -1 0 0
1743 10 85.05247854314723 10.02144313920999 0.008284084388750083 -1 0 0
1584 16 86.78824341137512 7.015010197446994 0.008284084388748473 -1 0 0
1582 4 88.52400827960257 6.012865883526023 1.6752800390901834 -1 0 0
1590 12 90.25977314783012 7.015010197446994 0.008284084388748433 -1 0 0
1747 3 86.78824341137474 9.019298825289018 1.6752800390901834 -1 0 0
1753 1 90.25977314782973 9.019298825289018 1.6752800390901834 -1 0 0
1749 14 88.52400827960223 10.02144313920999 0.008284084388750007 -1 0 0
1765 1 97.20283262073973 9.019298825289018 1.6752800390901827 -1 0 0
1588 2 91.99553801605758 6.012865883526021 1.6752800390901834 -1 0 0
1596 16 93.73130288428511 7.015010197446992 0.008284084388750881 -1 0 0
1594 4 95.46706775251258 6.012865883526021 1.6752800390901834 -1 0 0
1759 3 93.73130288428473 9.019298825289022 1.6752800390901834 -1 0 0
1755 10 91.99553801605722 10.021443139209993 0.00828408438874866 -1 0 0
1761 14 95.46706775251224 10.02144313920999 0.008284084388749868 -1 0 0
1770 12 1.2177306352377444e-13 13.027876080972993 0.008284084388748853 0 0 0
1768 2 1.7357648682275786 12.025731767052019 1.6752800390901834 0 0 0
1776 16 3.4715297364551216 13.027876080972993 0.008284084388749504 0 0 0
1774 4 5.207294604682579 12.025731767052019 1.6752800390901836 0 0 0
1939 3 3.471529736454735 15.032164708815019 1.6752800390901834 0 0 0
1935 10 1.7357648682272293 16.03430902273599 0.0082840843887492 0 0 0
1941 14 5.207294604682231 16.03430902273599 0.008284084388748792 0 0 0
1782 12 6.943059472910121 13.027876080972993 0.00828408438874999 0 0 0
1780 2 8.67882434113758 12.025731767052019 1.6752800390901834 0 0 0
1788 16 10.414589209365122 13.027876080972993 0.00828408438874933 0 0 0
1945 1 6.943059472909734 15.032164708815017 1.6752800390901836 0 0 0
1951 3 10.414589209364733 15.032164708815017 1.6752800390901834 0 0 0
1947 10 8.67882434113723 16.03430902273599 0.008284084388749155 0 0 0
1786 4 12.150354077592578 12.025731767052019 1.6752800390901834 0 0 0
1794 12 13.88611894582012 13.027876080972991 0.008284084388749715 0 0 0
1792 2 15.621883814047576 12.025731767052019 1.6752800390901836 0 0 0
1957 1 13.886118945819732 15.032164708815017 1.6752800390901834 0 0 0
1953 14 12.150354077592228 16.03430902273599 0.008284084388748692 0 0 0
1959 10 15.621883814047225 16.03430902273599 0.008284084388748765 0 0 0
1800 16 17.35764868227512 13.027876080972993 0.00828408438874938 0 0 0
1806 12 20.829178418730116 13.027876080972993 0.00828408438874946 0 0 0
1798 4 19.093413550502575 12.025731767052019 1.6752800390901834 0 0 0
1804 2 22.564943286957575 12.02573176705202 1.6752800390901834 0 0 0
1963 3 17.357648682274732 15.032164708815019 1.6752800390901836 0 0 0
1969 1 20.829178418729732 15.032164708815017 1.6752800390901836 0 0 0
1965 14 19.09341355050223 16.03430902273599 0.008284084388749014 0 0 0
1971 10 22.56494328695723 16.03430902273599 0.008284084388749818 0 0 0
1812 16 24.30070815518512 13.027876080972993 0.00828408438874938 0 0 0
1810 4 26.03647302341258 12.025731767052019 1.6752800390901834 0 0 0
1818 12 27.77223789164012 13.027876080972991 0.008284084388750142 0 0 0
1975 3 24.300708155184736 15.032164708815017 1.6752800390901834 0 0 0
1981 1 27.772237891639733 15.032164708815017 1.6752800390901834 0 0 0
1977 14 26.036473023412228 16.03430902273599 0.008284084388748624 0 0 0
1816 2 29.508002759867576 12.025731767052019 1.6752800390901834 0 0 0
1824 16 31.24376762809512 13.027876080972993 0.00828408438874933 0 0 0
1822 4 32.97953249632258 12.025731767052019 1.6752800390901834 0 0 0
1987 3 31.243767628094734 15.032164708815019 1.6752800390901836 0 0 0
1983 10 29.508002759867228 16.03430902273599 0.008284084388748702 0 0 0
1989 14 32.979532496322236 16.03430902273599 0.008284084388749346 0 0 0
1830 12 34.71529736455012 13.027876080972993 0.008284084388749493 0 0 0
1828 2 36.45106223277758 12.02573176705202 1.6752800390901834 0 0 0
1836 16 38.18682710100512 13.027876080972993 0.00828408438874938 0 0 0
1834 4 39.92259196923258 12.025731767052019 1.6752800390901834 0 0 0
1993 1 34.715297364549734 15.032164708815017 1.6752800390901834 0 0 0
1999 3 38.18682710100474 15.032164708815017 1.6752800390901834 0 0 0
1995 10 36.45106223277723 16.03430902273599 0.008284084388749635 0 0 0
2001 14 39.92259196923223 16.03430902273599 0.008284084388748544 0 0 0
1842 12 41.658356837460126 13.027876080972991 0.008284084388750146 0 0 0
1840 2 43.39412170568758 12.025731767052019 1.6752800390901834 0 0 0
1848 16 45.12988657391512 13.027876080972993 0.008284084388749224 0 0 0
2005 1 41.658356837459735 15.032164708815017 1.6752800390901834 0 0 0
2011 3 45.12988657391473 15.032164708815017 1.6752800390901834 0 0 0
2007 10 43.394121705687226 16.03430902273599 0.008284084388748662 0 0 0
1846 4 46.86565144214258 12.025731767052019 1.6752800390901834 0 0 0
1686 12 48.60141631037012 13.027876080972993 0.008284084388749401 -1 0 0
1684 2 50.337181178597575 12.025731767052019 1.6752800390901834 -1 0 0
1849 1 48.60141631036973 15.032164708815017 1.6752800390901834 -1 0 0
2013 14 46.86565144214223 16.03430902273599 0.008284084388748607 0 0 0
1851 10 50.33718117859723 16.03430902273599 0.008284084388749266 -1 0 0
1692 16 52.072946046825116 13.027876080972993 0.008284084388749138 -1 0 0
1690 4 53.80871091505257 12.02573176705202 1.6752800390901834 -1 0 0
1698 12 55.54447578328012 13.027876080972993 0.008284084388749745 -1 0 0
1855 3 52.07294604682473 15.032164708815017 1.6752800390901834 -1 0 0
1861 1 55.54447578327973 15.032164708815019 1.6752800390901834 -1 0 0
1857 14 53.808710915052224 16.03430902273599 0.008284084388748955 -1 0 0
1704 16 59.01600551973512 13.027876080972993 0.008284084388749753 -1 0 0
1696 2 57.280240651507576 12.025731767052019 1.6752800390901834 -1 0 0
1702 4 60.75177038796257 12.025731767052019 1.6752800390901834 -1 0 0
1710 12 62.487535256190114 13.027876080972993 0.008284084388748628 -1 0 0
1867 3 59.01600551973473 15.032164708815017 1.6752800390901836 -1 0 0
1873 1 62.48753525618973 15.032164708815017 1.6752800390901834 -1 0 0
1863 10 57.28024065150723 16.03430902273599 0.008284084388749072 -1 0 0
1869 14 60.751770387962225 16.03430902273599 0.008284084388749077 -1 0 0
1708 2 64.22330012441758 12.025731767052019 1.6752800390901834 -1 0 0
1716 16 65.95906499264511 13.027876080972991 0.008284084388751192 -1 0 0
1714 4 67.69482986087257 12.025731767052019 1.6752800390901834 -1 0 0
1879 3 65.95906499264473 15.03216470881502 1.6752800390901834 -1 0 0
1875 10 64.22330012441722 16.03430902273599 0.008284084388748399 -1 0 0
1881 14 67.69482986087223 16.03430902273599 0.008284084388749538 -1 0 0
1722 12 69.43059472910012 13.027876080972993 0.008284084388748893 -1 0 0
1720 2 71.16635959732757 12.02573176705202 1.6752800390901836 -1 0 0
1728 16 72.90212446555512 13.027876080972993 0.008284084388748714 -1 0 0
1885 1 69.43059472909974 15.032164708815017 1.6752800390901834 -1 0 0
1891 3 72.90212446555473 15.032164708815017 1.6752800390901834 -1 0 0
1887 10 71.16635959732723 16.03430902273599 0.008284084388749568 -1 0 0
1726 4 74.63788933378258 12.025731767052019 1.6752800390901834 -1 0 0
1734 12 76.37365420201012 13.027876080972991 0.008284084388750203 -1 0 0
1732 2 78.10941907023758 12.025731767052019 1.6752800390901834 -1 0 0
1740 16 79.84518393846511 13.027876080972993 0.00828408438874921 -1 0 0
1897 1 76.37365420200973 15.032164708815017 1.6752800390901834 -1 0 0
1903 3 79.84518393846473 15.032164708815017 1.6752800390901834 -1 0 0
1893 14 74.63788933378223 16.03430902273599 0.008284084388748614 -1 0 0
1899 10 78.10941907023722 16.03430902273599 0.008284084388748732 -1 0 0
1738 4 81.58094880669258 12.025731767052019 1.6752800390901836 -1 0 0
1746 12 83.31671367492011 13.027876080972993 0.008284084388750433 -1 0 0
1744 2 85.05247854314757 12.025731767052019 1.6752800390901834 -1 0 0
1909 1 83.31671367491973 15.03216470881502 1.6752800390901836 -1 0 0
1905 14 81.58094880669222 16.03430902273599 0.008284084388748536 -1 0 0
1911 10 85.05247854314723 16.03430902273599 0.008284084388749571 -1 0 0
1752 16 86.78824341137512 13.027876080972993 0.008284084388748914 -1 0 0
1750 4 88.52400827960257 12.02573176705202 1.6752800390901836 -1 0 0
1758 12 90.25977314783012 13.027876080972993 0.008284084388748716 -1 0 0
1915 3 86.78824341137474 15.032164708815017 1.6752800390901834 -1 0 0
1921 1 90.25977314782973 15.032164708815017 1.6752800390901834 -1 0 0
1917 14 88.52400827960223 16.03430902273599 0.008284084388749568 -1 0 0
1933 1 97.20283262073973 15.032164708815017 1.6752800390901827 -1 0 0
1756 2 91.99553801605758 12.025731767052019 1.6752800390901836 -1 0 0
1764 16 93.73130288428511 13.027876080972991 0.008284084388751249 -1 0 0
1762 4 95.46706775251258 12.025731767052019 1.6752800390901836 -1 0 0
1927 3 93.73130288428473 15.03216470881502 1.6752800390901834 -1 0 0
1923 10 91.99553801605722 16.03430902273599 0.00828408438874845 -1 0 0
1929 14 95.46706775251224 16.03430902273599 0.00828408438874964 -1 0 0
1936 2 1.7357648682275784 18.03859765057802 1.6752800390901834 0 0 0
1942 4 5.207294604682579 18.03859765057802 1.6752800390901834 0 0 0
1938 12 1.219165957159844e-13 19.040741964498995 0.008284084388749589 0 0 0
1944 16 3.4715297364551216 19.04074196449899 0.008284084388750074 0 0 0
2103 10 1.7357648682272295 22.047174906261993 0.008284084388749372 0 0 0
2107 3 3.471529736454735 21.04503059234102 1.6752800390901834 0 0 0
2109 14 5.207294604682231 22.04717490626199 0.008284084388748732 0 0 0
1948 2 8.67882434113758 18.03859765057802 1.6752800390901839 0 0 0
1950 12 6.943059472910121 19.04074196449899 0.008284084388750404 0 0 0
1956 16 10.414589209365122 19.04074196449899 0.008284084388749908 0 0 0
2113 1 6.943059472909734 21.04503059234102 1.6752800390901836 0 0 0
2115 10 8.67882434113723 22.047174906261993 0.008284084388749252 0 0 0
2119 3 10.414589209364733 21.04503059234102 1.6752800390901834 0 0 0
1954 4 12.150354077592578 18.038597650578016 1.6752800390901836 0 0 0
1960 2 15.621883814047576 18.03859765057802 1.6752800390901834 0 0 0
1962 12 13.88611894582012 19.040741964498995 0.008284084388750201 0 0 0
2121 14 12.150354077592228 22.04717490626199 0.00828408438874852 0 0 0
2125 1 13.886118945819732 21.04503059234102 1.6752800390901834 0 0 0
2127 10 15.621883814047225 22.047174906261993 0.008284084388748487 0 0 0
1966 4 19.093413550502575 18.03859765057802 1.6752800390901834 0 0 0
1972 2 22.564943286957575 18.03859765057802 1.6752800390901832 0 0 0
1968 16 17.35764868227512 19.040741964498995 0.008284084388749984 0 0 0
1974 12 20.829178418730116 19.040741964498995 0.008284084388750003 0 0 0
2131 3 17.357648682274732 21.04503059234102 1.6752800390901836 0 0 0
2133 14 19.093413550502227 22.04717490626199 0.008284084388748818 0 0 0
2137 1 20.829178418729732 21.04503059234102 1.6752800390901839 0 0 0
2139 10 22.56494328695723 22.047174906261993 0.00828408438874967 0 0 0
1978 4 26.03647302341258 18.03859765057802 1.6752800390901834 0 0 0
1980 16 24.30070815518512 19.040741964498995 0.00828408438874996 0 0 0
1986 12 27.77223789164012 19.040741964498995 0.008284084388750619 0 0 0
2143 3 24.300708155184736 21.04503059234102 1.6752800390901839 0 0 0
2145 14 26.03647302341223 22.047174906261993 0.008284084388748489 0 0 0
2149 1 27.772237891639733 21.04503059234102 1.6752800390901836 0 0 0
1984 2 29.508002759867576 18.03859765057802 1.6752800390901836 0 0 0
1990 4 32.97953249632258 18.03859765057802 1.6752800390901834 0 0 0
1992 16 31.24376762809512 19.040741964498995 0.00828408438874993 0 0 0
2151 10 29.508002759867228 22.047174906261993 0.008284084388748423 0 0 0
2155 3 31.243767628094734 21.04503059234102 1.6752800390901836 0 0 0
2157 14 32.979532496322236 22.04717490626199 0.008284084388749067 0 0 0
1996 2 36.45106223277758 18.03859765057802 1.6752800390901832 0 0 0
2002 4 39.92259196923258 18.03859765057802 1.6752800390901834 0 0 0
1998 12 34.71529736455012 19.040741964498995 0.008284084388750036 0 0 0
2004 16 38.18682710100512 19.040741964498995 0.00828408438874996 0 0 0
2161 1 34.715297364549734 21.04503059234102 1.675280039090184 0 0 0
2163 10 36.45106223277723 22.047174906261993 0.008284084388749407 0 0 0
2169 14 39.92259196923223 22.04717490626199 0.008284084388748541 0 0 0
2167 3 38.18682710100474 21.04503059234102 1.6752800390901839 0 0 0
2008 2 43.39412170568758 18.038597650578016 1.6752800390901834 0 0 0
2010 12 41.658356837460126 19.040741964498995 0.008284084388750546 0 0 0
2016 16 45.12988657391512 19.04074196449899 0.008284084388749847 0 0 0
2173 1 41.658356837459735 21.04503059234102 1.6752800390901834 0 0 0
2175 10 43.394121705687226 22.04717490626199 0.00828408438874853 0 0 0
2179 3 45.12988657391473 21.04503059234102 1.6752800390901834 0 0 0
2014 4 46.86565144214258 18.03859765057802 1.6752800390901834 0 0 0
1852 2 50.337181178597575 18.03859765057802 1.6752800390901834 -1 0 0
1854 12 48.60141631037012 19.040741964498995 0.008284084388749845 -1 0 0
2181 14 46.86565144214223 22.047174906261993 0.008284084388748426 0 0 0
2017 1 48.60141631036973 21.04503059234102 1.6752800390901834 -1 0 0
2019 10 50.33718117859723 22.04717490626199 0.008284084388749053 -1 0 0
1858 4 53.80871091505257 18.03859765057802 1.6752800390901834 -1 0 0
1860 16 52.072946046825116 19.040741964498995 0.008284084388749852 -1 0 0
1866 12 55.54447578328012 19.04074196449899 0.008284084388750364 -1 0 0
2023 3 52.07294604682473 21.04503059234102 1.6752800390901834 -1 0 0
2025 14 53.808710915052224 22.047174906261993 0.008284084388749063 -1 0 0
2029 1 55.54447578327973 21.04503059234102 1.6752800390901834 -1 0 0
1864 2 57.280240651507576 18.038597650578016 1.6752800390901834 -1 0 0
1870 4 60.75177038796257 18.03859765057802 1.6752800390901836 -1 0 0
1872 16 59.01600551973512 19.040741964498995 0.008284084388750178 -1 0 0
1878 12 62.487535256190114 19.040741964498995 0.008284084388749372 -1 0 0
2031 10 57.28024065150723 22.04717490626199 0.008284084388749072 -1 0 0
2035 3 59.01600551973473 21.04503059234102 1.6752800390901834 -1 0 0
2037 14 60.751770387962225 22.047174906261993 0.008284084388749188 -1 0 0
2041 1 62.48753525618973 21.04503059234102 1.6752800390901834 -1 0 0
1876 2 64.22330012441758 18.03859765057802 1.6752800390901834 -1 0 0
1882 4 67.69482986087257 18.03859765057802 1.6752800390901834 -1 0 0
1884 16 65.95906499264511 19.04074196449899 0.008284084388751764 -1 0 0
2043 10 64.22330012441722 22.047174906261993 0.008284084388748088 -1 0 0
2047 3 65.95906499264473 21.045030592341025 1.6752800390901836 -1 0 0
2049 14 67.69482986087223 22.04717490626199 0.008284084388749268 -1 0 0
1888 2 71.16635959732757 18.03859765057802 1.6752800390901832 -1 0 0
1890 12 69.43059472910012 19.040741964498995 0.008284084388749363 -1 0 0