LAMMPS data file via write_data, version 29 Aug 2024, timestep = 2, units = metal

5376 atoms
8 atom types

0 99.563485887984 xlo xhi
0 100.597273409136 ylo yhi
-50 50 zlo zhi

Masses

1 69.723
2 69.723
3 69.723
4 69.723
5 127.6
6 127.6
7 127.6
8 127.6

Atoms # atomic

1443 5 2.0742421716704595 1.197550018757665 0.00630976413211185 0 0 0
1455 1 4.148478336418244 2.395152407270822 1.2674217848347398 0 0 0
1444 5 2.8788355459524737e-06 4.79030978336967 0.006309764132127442 0 0 0
1452 5 4.148481457501544 4.790309783369673 0.006309764132130099 0 0 0
1451 5 6.222720750336459 1.1975500187576655 0.006309764132112839 0 0 0
1459 5 10.37119932900246 1.1975500187576653 0.006309764132114097 0 0 0
1463 1 8.296956915084245 2.3951524072708215 1.2674217848347389 0 0 0
1460 5 8.29696003616754 4.790309783369672 0.006309764132127872 0 0 0
1467 5 14.51967790766846 1.1975500187576662 0.006309764132113047 0 0 0
1471 1 12.445435493750244 2.39515240727082 1.267421784834737 0 0 0
1479 1 16.593914072416247 2.395152407270822 1.2674217848347402 0 0 0
1468 5 12.44543861483354 4.790309783369673 0.006309764132129896 0 0 0
1476 5 16.593917193499543 4.790309783369673 0.006309764132130531 0 0 0
1475 5 18.66815648633446 1.197550018757666 0.006309764132113203 0 0 0
1483 5 22.816635065000458 1.1975500187576644 0.0063097641321148 0 0 0
1487 1 20.742392651082245 2.3951524072708215 1.2674217848347382 0 0 0
1484 5 20.74239577216554 4.790309783369673 0.0063097641321298616 0 0 0
1491 5 26.96511364366646 1.1975500187576655 0.006309764132113399 0 0 0
1495 1 24.890871229748242 2.39515240727082 1.2674217848347389 0 0 0
1503 1 29.039349808414244 2.3951524072708206 1.2674217848347373 0 0 0
1492 5 24.89087435083154 4.790309783369674 0.0063097641321295615 0 0 0
1500 5 29.03935292949754 4.790309783369673 0.006309764132130196 0 0 0
1499 5 31.113592222332457 1.1975500187576644 0.006309764132111941 0 0 0
1511 1 33.187828387080245 2.3951524072708206 1.267421784834739 0 0 0
1508 5 33.18783150816354 4.790309783369672 0.006309764132128335 0 0 0
1507 5 35.26207080099846 1.1975500187576658 0.006309764132113056 0 0 0
1515 5 39.41054937966446 1.197550018757666 0.006309764132113416 0 0 0
1519 1 37.33630696574624 2.395152407270822 1.2674217848347407 0 0 0
1516 5 37.33631008682954 4.790309783369673 0.00630976413213023 0 0 0
1523 5 43.55902795833046 1.1975500187576655 0.006309764132113337 0 0 0
1527 1 41.48478554441224 2.3951524072708206 1.2674217848347389 0 0 0
1535 1 45.633264123078234 2.3951524072708215 1.267421784834739 0 0 0
1524 5 41.484788665495536 4.790309783369674 0.006309764132129487 0 0 0
1532 5 45.633267244161544 4.790309783369673 0.006309764132129686 0 0 0
1531 5 47.70750653699646 1.1975500187576658 0.006309764132113312 0 0 0
1347 5 51.855985115662456 1.197550018757664 0.006309764132110839 -1 0 0
1351 1 49.78174270174424 2.395152407270819 1.2674217848347358 -1 0 0
1348 5 49.78174582282754 4.790309783369673 0.00630976413213022 -1 0 0
1355 5 56.00446369432846 1.1975500187576658 0.006309764132114629 -1 0 0
1359 1 53.93022128041025 2.395152407270822 1.267421784834741 -1 0 0
1367 1 58.078699859076245 2.3951524072708206 1.2674217848347389 -1 0 0
1356 5 53.93022440149354 4.790309783369674 0.006309764132130886 -1 0 0
1364 5 58.07870298015954 4.790309783369672 0.006309764132127645 -1 0 0
1363 5 60.15294227299446 1.1975500187576662 0.006309764132113531 -1 0 0
1371 5 64.30142085166045 1.197550018757664 0.006309764132110289 -1 0 0
1375 1 62.22717843774224 2.395152407270823 1.2674217848347398 -1 0 0
1372 5 62.227181558825535 4.79030978336967 0.006309764132126856 -1 0 0
1379 5 68.44989943032645 1.1975500187576655 0.006309764132113711 -1 0 0
1383 1 66.37565701640824 2.39515240727082 1.267421784834738 -1 0 0
1380 5 66.37566013749154 4.790309783369676 0.0063097641321361135 -1 0 0
1387 5 72.59837800899246 1.197550018757666 0.006309764132113376 -1 0 0
1391 1 70.52413559507424 2.3951524072708215 1.267421784834738 -1 0 0
1399 1 74.67261417374024 2.39515240727082 1.267421784834739 -1 0 0
1388 5 70.52413871615754 4.790309783369668 0.006309764132123839 -1 0 0
1396 5 74.67261729482352 4.790309783369674 0.006309764132129867 -1 0 0
1395 5 76.74685658765846 1.197550018757666 0.006309764132113278 -1 0 0
1403 5 80.89533516632446 1.197550018757666 0.006309764132113266 -1 0 0
1407 1 78.82109275240624 2.39515240727082 1.267421784834739 -1 0 0
1404 5 78.82109587348953 4.790309783369674 0.0063097641321298 -1 0 0
1411 5 85.04381374499046 1.1975500187576655 0.006309764132115831 -1 0 0
1415 1 82.96957133107225 2.3951524072708215 1.2674217848347384 -1 0 0
1423 1 87.11804990973825 2.3951524072708206 1.2674217848347389 -1 0 0
1412 5 82.96957445215553 4.790309783369675 0.006309764132131459 -1 0 0
1420 5 87.11805303082154 4.790309783369674 0.006309764132130059 -1 0 0
1419 5 89.19229232365646 1.197550018757667 0.006309764132111954 -1 0 0
1427 5 93.34077090232246 1.197550018757664 0.006309764132114365 -1 0 0
1431 1 91.26652848840425 2.395152407270822 1.2674217848347378 -1 0 0
1428 5 91.26653160948753 4.790309783369672 0.006309764132129735 -1 0 0
1447 1 99.56348564573625 2.395152407270821 1.2674217848347387 -1 0 0
1435 5 97.48924948098846 1.197550018757667 0.006309764132113132 -1 0 0
1439 1 95.41500706707025 2.3951524072708206 1.2674217848347398 -1 0 0
1436 5 95.41501018815354 4.790309783369674 0.006309764132130308 -1 0 0
1448 1 2.0742390446813976 5.987912171882795 1.267421784834792 0 0 0
1635 5 2.0742421716704595 8.383069547981668 0.00630976413211007 0 0 0
1647 1 4.148478336418244 9.580671936494824 1.2674217848347409 0 0 0
1456 1 6.222717623347397 5.987912171882796 1.267421784834792 0 0 0
1464 1 10.371196202013397 5.9879121718827975 1.267421784834793 0 0 0
1643 5 6.222720750336459 8.383069547981668 0.006309764132110949 0 0 0
1651 5 10.371199329002458 8.383069547981668 0.006309764132112085 0 0 0
1655 1 8.296956915084245 9.580671936494822 1.2674217848347413 0 0 0
1472 1 14.519674780679399 5.987912171882796 1.267421784834792 0 0 0
1659 5 14.51967790766846 8.383069547981668 0.006309764132111726 0 0 0
1663 1 12.445435493750244 9.580671936494822 1.267421784834739 0 0 0
1671 1 16.593914072416247 9.580671936494822 1.2674217848347418 0 0 0
1480 1 18.668153359345396 5.987912171882797 1.267421784834792 0 0 0
1488 1 22.816631938011398 5.987912171882794 1.2674217848347917 0 0 0
1667 5 18.66815648633446 8.383069547981668 0.006309764132112188 0 0 0
1675 5 22.816635065000458 8.38306954798167 0.006309764132112318 0 0 0
1679 1 20.742392651082245 9.580671936494822 1.2674217848347398 0 0 0
1496 1 26.9651105166774 5.987912171882796 1.2674217848347915 0 0 0
1683 5 26.96511364366646 8.383069547981668 0.0063097641321118005 0 0 0
1687 1 24.890871229748242 9.580671936494822 1.2674217848347396 0 0 0
1695 1 29.039349808414244 9.580671936494822 1.2674217848347389 0 0 0
1504 1 31.113589095343396 5.9879121718827975 1.2674217848347935 0 0 0
1691 5 31.11359222233246 8.383069547981668 0.006309764132110292 0 0 0
1703 1 33.187828387080245 9.580671936494822 1.2674217848347404 0 0 0
1512 1 35.262067674009394 5.987912171882795 1.267421784834792 0 0 0
1520 1 39.410546252675395 5.987912171882795 1.2674217848347906 0 0 0
1699 5 35.26207080099846 8.38306954798167 0.006309764132111702 0 0 0
1707 5 39.41054937966446 8.383069547981668 0.006309764132111897 0 0 0
1711 1 37.33630696574624 9.580671936494824 1.267421784834742 0 0 0
1528 1 43.5590248313414 5.9879121718827975 1.2674217848347935 0 0 0
1715 5 43.55902795833046 8.383069547981668 0.006309764132111678 0 0 0
1719 1 41.48478554441224 9.580671936494822 1.2674217848347407 0 0 0
1727 1 45.63326412307824 9.58067193649482 1.2674217848347376 0 0 0
1536 1 47.7075034100074 5.987912171882794 1.26742178483479 0 0 0
1352 1 51.855981988673406 5.987912171882796 1.2674217848347928 -1 0 0
1723 5 47.70750653699646 8.383069547981668 0.006309764132112091 0 0 0
1539 5 51.855985115662456 8.383069547981668 0.006309764132109534 -1 0 0
1543 1 49.78174270174425 9.58067193649482 1.2674217848347396 -1 0 0
1360 1 56.00446056733939 5.9879121718827975 1.2674217848347944 -1 0 0
1547 5 56.00446369432846 8.38306954798167 0.00630976413211279 -1 0 0
1551 1 53.93022128041025 9.580671936494824 1.2674217848347418 -1 0 0
1559 1 58.078699859076245 9.580671936494822 1.2674217848347404 -1 0 0
1368 1 60.1529391460054 5.987912171882795 1.2674217848347895 -1 0 0
1376 1 64.30141772467141 5.987912171882795 1.2674217848347924 -1 0 0
1555 5 60.15294227299446 8.383069547981668 0.0063097641321121665 -1 0 0
1563 5 64.30142085166045 8.383069547981668 0.006309764132108655 -1 0 0
1567 1 62.22717843774224 9.580671936494822 1.2674217848347413 -1 0 0
1384 1 68.4498963033374 5.987912171882797 1.2674217848347922 -1 0 0
1571 5 68.44989943032645 8.383069547981668 0.006309764132111961 -1 0 0
1575 1 66.37565701640824 9.580671936494822 1.2674217848347393 -1 0 0
1392 1 72.59837488200341 5.987912171882795 1.2674217848347904 -1 0 0
1579 5 72.59837800899246 8.383069547981668 0.006309764132111963 -1 0 0
1583 1 70.52413559507424 9.580671936494822 1.26742178483474 -1 0 0
1591 1 74.67261417374024 9.580671936494822 1.26742178483474 -1 0 0
1400 1 76.74685346066941 5.987912171882796 1.2674217848347915 -1 0 0
1408 1 80.89533203933541 5.987912171882796 1.2674217848347917 -1 0 0
1587 5 76.74685658765846 8.383069547981668 0.006309764132111945 -1 0 0
1595 5 80.89533516632446 8.383069547981668 0.006309764132111954 -1 0 0
1599 1 78.82109275240624 9.580671936494822 1.26742178483474 -1 0 0
1416 1 85.0438106180014 5.987912171882799 1.267421784834796 -1 0 0
1603 5 85.04381374499046 8.38306954798167 0.006309764132113829 -1 0 0
1607 1 82.96957133107225 9.580671936494822 1.2674217848347404 -1 0 0
1615 1 87.11804990973825 9.580671936494822 1.2674217848347396 -1 0 0
1424 1 89.1922891966674 5.987912171882793 1.2674217848347884 -1 0 0
1432 1 93.3407677753334 5.987912171882798 1.2674217848347966 -1 0 0
1611 5 89.19229232365646 8.383069547981668 0.006309764132111522 -1 0 0
1619 5 93.34077090232246 8.38306954798167 0.006309764132112585 -1 0 0
1623 1 91.26652848840425 9.580671936494822 1.2674217848347389 -1 0 0
1639 1 99.56348564573625 9.580671936494822 1.2674217848347398 -1 0 0
1440 1 97.48924635399939 5.9879121718827975 1.2674217848347946 -1 0 0
1627 5 97.48924948098846 8.383069547981668 0.006309764132112347 -1 0 0
1631 1 95.41500706707025 9.58067193649482 1.26742178483474 -1 0 0
1636 5 2.8788355459699653e-06 11.97582931259367 0.00630976413212892 0 0 0
1644 5 4.148481457501543 11.975829312593673 0.0063097641321315685 0 0 0
1640 1 2.074239044681398 13.173431701106795 1.26742178483479 0 0 0
1827 5 2.074242171670459 15.56858907720567 0.006309764132111089 0 0 0
1839 1 4.148478336418244 16.766191465718826 1.2674217848347413 0 0 0
1652 5 8.29696003616754 11.975829312593673 0.006309764132129224 0 0 0
1648 1 6.222717623347398 13.173431701106797 1.26742178483479 0 0 0
1656 1 10.371196202013397 13.173431701106798 1.2674217848347904 0 0 0
1835 5 6.222720750336459 15.568589077205669 0.0063097641321121336 0 0 0
1847 1 8.296956915084243 16.766191465718823 1.2674217848347422 0 0 0
1843 5 10.37119932900246 15.56858907720567 0.006309764132113312 0 0 0
1660 5 12.445438614833542 11.975829312593673 0.006309764132132099 0 0 0
1668 5 16.593917193499543 11.975829312593673 0.006309764132130938 0 0 0
1664 1 14.519674780679397 13.173431701106797 1.267421784834791 0 0 0
1855 1 12.445435493750244 16.766191465718826 1.2674217848347396 0 0 0
1851 5 14.51967790766846 15.568589077205672 0.006309764132112625 0 0 0
1863 1 16.593914072416247 16.766191465718823 1.2674217848347435 0 0 0
1676 5 20.74239577216554 11.975829312593673 0.0063097641321305745 0 0 0
1672 1 18.668153359345396 13.173431701106798 1.2674217848347902 0 0 0
1680 1 22.816631938011398 13.173431701106797 1.2674217848347902 0 0 0
1859 5 18.66815648633446 15.56858907720567 0.0063097641321131345 0 0 0
1871 1 20.742392651082245 16.766191465718826 1.2674217848347396 0 0 0
1867 5 22.816635065000458 15.568589077205672 0.006309764132112823 0 0 0
1684 5 24.89087435083154 11.975829312593673 0.006309764132131185 0 0 0
1692 5 29.03935292949754 11.975829312593673 0.006309764132131508 0 0 0
1688 1 26.9651105166774 13.173431701106797 1.26742178483479 0 0 0
1879 1 24.890871229748246 16.766191465718826 1.26742178483474 0 0 0
1875 5 26.96511364366646 15.56858907720567 0.006309764132112657 0 0 0
1887 1 29.039349808414244 16.766191465718826 1.267421784834739 0 0 0
1700 5 33.18783150816354 11.975829312593673 0.006309764132129593 0 0 0
1696 1 31.113589095343396 13.173431701106798 1.2674217848347917 0 0 0
1883 5 31.113592222332457 15.568589077205669 0.00630976413211111 0 0 0
1895 1 33.187828387080245 16.766191465718826 1.2674217848347402 0 0 0
1708 5 37.33631008682954 11.975829312593673 0.006309764132131211 0 0 0
1704 1 35.262067674009394 13.173431701106797 1.26742178483479 0 0 0
1712 1 39.410546252675395 13.173431701106797 1.2674217848347886 0 0 0
1891 5 35.26207080099846 15.568589077205672 0.0063097641321125456 0 0 0
1903 1 37.33630696574624 16.766191465718826 1.267421784834742 0 0 0
1899 5 39.41054937966446 15.56858907720567 0.006309764132112743 0 0 0
1716 5 41.484788665495536 11.975829312593675 0.006309764132130758 0 0 0
1724 5 45.633267244161544 11.975829312593673 0.006309764132131452 0 0 0
1720 1 43.5590248313414 13.173431701106798 1.2674217848347917 0 0 0
1911 1 41.48478554441224 16.766191465718823 1.2674217848347413 0 0 0
1907 5 43.55902795833046 15.56858907720567 0.00630976413211269 0 0 0
1919 1 45.633264123078234 16.766191465718826 1.2674217848347409 0 0 0
1540 5 49.781745822827546 11.975829312593673 0.006309764132130797 -1 0 0
1728 1 47.70750341000739 13.173431701106798 1.2674217848347915 0 0 0
1544 1 51.8559819886734 13.173431701106795 1.2674217848347882 -1 0 0
1915 5 47.70750653699646 15.56858907720567 0.006309764132112931 0 0 0
1735 1 49.78174270174424 16.766191465718823 1.2674217848347378 -1 0 0
1731 5 51.855985115662456 15.568589077205669 0.00630976413210959 -1 0 0
1548 5 53.93022440149354 11.975829312593673 0.006309764132131985 -1 0 0
1556 5 58.07870298015954 11.975829312593673 0.006309764132128868 -1 0 0
1552 1 56.00446056733939 13.1734317011068 1.2674217848347928 -1 0 0
1743 1 53.93022128041025 16.766191465718826 1.2674217848347422 -1 0 0
1739 5 56.00446369432846 15.56858907720567 0.006309764132114155 -1 0 0
1751 1 58.078699859076245 16.766191465718826 1.2674217848347404 -1 0 0
1564 5 62.227181558825535 11.975829312593671 0.006309764132127715 -1 0 0
1560 1 60.152939146005394 13.173431701106797 1.2674217848347877 -1 0 0
1568 1 64.30141772467141 13.173431701106797 1.2674217848347908 -1 0 0
1747 5 60.15294227299446 15.56858907720567 0.00630976413211279 -1 0 0
1759 1 62.22717843774224 16.766191465718826 1.2674217848347424 -1 0 0
1755 5 64.30142085166045 15.568589077205669 0.006309764132109536 -1 0 0
1572 5 66.37566013749154 11.975829312593678 0.006309764132137253 -1 0 0
1576 1 68.4498963033374 13.173431701106797 1.2674217848347902 -1 0 0
1767 1 66.37565701640824 16.766191465718823 1.267421784834741 -1 0 0
1763 5 68.44989943032645 15.56858907720567 0.006309764132112558 -1 0 0
1580 5 70.52413871615754 11.97582931259367 0.0063097641321251206 -1 0 0
1588 5 74.67261729482352 11.975829312593673 0.006309764132131317 -1 0 0
1584 1 72.59837488200341 13.173431701106797 1.2674217848347886 -1 0 0
1775 1 70.52413559507424 16.766191465718823 1.267421784834741 -1 0 0
1771 5 72.59837800899246 15.56858907720567 0.006309764132112507 -1 0 0
1783 1 74.67261417374024 16.766191465718826 1.2674217848347407 -1 0 0
1596 5 78.82109587348953 11.975829312593673 0.0063097641321312355 -1 0 0
1592 1 76.74685346066941 13.173431701106798 1.2674217848347902 -1 0 0
1600 1 80.89533203933541 13.173431701106798 1.2674217848347902 -1 0 0
1779 5 76.74685658765846 15.56858907720567 0.006309764132112495 -1 0 0
1791 1 78.82109275240624 16.766191465718826 1.2674217848347407 -1 0 0
1787 5 80.89533516632446 15.56858907720567 0.006309764132112483 -1 0 0
1604 5 82.96957445215553 11.975829312593675 0.0063097641321325695 -1 0 0
1612 5 87.11805303082154 11.975829312593675 0.006309764132131194 -1 0 0
1608 1 85.0438106180014 13.173431701106802 1.267421784834794 -1 0 0
1799 1 82.96957133107225 16.766191465718826 1.2674217848347404 -1 0 0
1795 5 85.04381374499046 15.568589077205672 0.0063097641321146715 -1 0 0
1807 1 87.11804990973825 16.76619146571882 1.267421784834741 -1 0 0
1620 5 91.26653160948753 11.975829312593673 0.006309764132130788 -1 0 0
1616 1 89.1922891966674 13.173431701106793 1.267421784834787 -1 0 0
1624 1 93.3407677753334 13.173431701106802 1.2674217848347942 -1 0 0
1803 5 89.19229232365646 15.568589077205672 0.00630976413211288 -1 0 0
1815 1 91.26652848840425 16.766191465718826 1.2674217848347396 -1 0 0
1811 5 93.34077090232246 15.568589077205672 0.00630976413211419 -1 0 0
1831 1 99.56348564573625 16.766191465718826 1.2674217848347404 -1 0 0
1628 5 95.41501018815354 11.975829312593675 0.006309764132131378 -1 0 0
1632 1 97.48924635399939 13.173431701106798 1.267421784834793 -1 0 0
1823 1 95.41500706707025 16.76619146571882 1.2674217848347424 -1 0 0
1819 5 97.48924948098846 15.568589077205672 0.006309764132113526 -1 0 0
1828 5 2.8788355466412444e-06 19.161348841817674 0.006309764132127162 0 0 0
1832 1 2.074239044681398 20.358951230330796 1.2674217848347926 0 0 0
1836 5 4.148481457501542 19.161348841817674 0.006309764132130557 0 0 0
2019 5 2.0742421716704595 22.75410860642967 0.006309764132109491 0 0 0
1840 1 6.222717623347399 20.358951230330796 1.2674217848347935 0 0 0
1844 5 8.29696003616754 19.161348841817677 0.006309764132128559 0 0 0
1848 1 10.371196202013397 20.358951230330796 1.267421784834794 0 0 0
2027 5 6.222720750336459 22.75410860642967 0.006309764132110228 0 0 0
2035 5 10.37119932900246 22.75410860642967 0.00630976413211159 0 0 0
1852 5 12.445438614833542 19.161348841817677 0.006309764132130637 0 0 0
1856 1 14.519674780679399 20.3589512303308 1.2674217848347924 0 0 0
1860 5 16.593917193499543 19.16134884181768 0.006309764132129445 0 0 0
2043 5 14.51967790766846 22.75410860642967 0.006309764132110825 0 0 0
1864 1 18.668153359345396 20.358951230330796 1.2674217848347933 0 0 0
1868 5 20.74239577216554 19.161348841817674 0.00630976413212977 0 0 0
1872 1 22.816631938011398 20.3589512303308 1.267421784834793 0 0 0
2051 5 18.66815648633446 22.75410860642967 0.006309764132111255 0 0 0
2059 5 22.816635065000458 22.75410860642967 0.006309764132111923 0 0 0
1876 5 24.89087435083154 19.161348841817674 0.006309764132129899 0 0 0
1880 1 26.9651105166774 20.358951230330796 1.2674217848347942 0 0 0
1884 5 29.03935292949754 19.161348841817674 0.006309764132130472 0 0 0
2067 5 26.96511364366646 22.75410860642967 0.006309764132110799 0 0 0
1888 1 31.113589095343396 20.3589512303308 1.2674217848347957 0 0 0
1892 5 33.18783150816354 19.161348841817674 0.006309764132128854 0 0 0
2075 5 31.11359222233246 22.75410860642967 0.006309764132109343 0 0 0
1896 1 35.262067674009394 20.358951230330796 1.2674217848347933 0 0 0
1900 5 37.33631008682954 19.161348841817674 0.006309764132130479 0 0 0
1904 1 39.410546252675395 20.358951230330796 1.267421784834792 0 0 0
2083 5 35.26207080099846 22.75410860642967 0.006309764132110739 0 0 0
2091 5 39.41054937966446 22.75410860642967 0.006309764132110971 0 0 0
1908 5 41.484788665495536 19.161348841817677 0.006309764132130202 0 0 0
1912 1 43.5590248313414 20.358951230330796 1.2674217848347955 0 0 0
1916 5 45.633267244161544 19.161348841817674 0.00630976413213028 0 0 0
2099 5 43.55902795833046 22.75410860642967 0.006309764132110832 0 0 0
1920 1 47.70750341000739 20.3589512303308 1.2674217848347935 0 0 0
1732 5 49.781745822827546 19.161348841817677 0.0063097641321299145 -1 0 0
1736 1 51.8559819886734 20.358951230330796 1.267421784834791 -1 0 0
2107 5 47.70750653699646 22.75410860642967 0.006309764132110705 0 0 0
1923 5 51.855985115662456 22.75410860642967 0.0063097641321080405 -1 0 0
1740 5 53.93022440149354 19.161348841817674 0.006309764132130984 -1 0 0
1744 1 56.00446056733939 20.3589512303308 1.2674217848347966 -1 0 0
1748 5 58.07870298015954 19.161348841817674 0.006309764132127989 -1 0 0
1931 5 56.00446369432846 22.75410860642967 0.006309764132112289 -1 0 0
1752 1 60.1529391460054 20.358951230330796 1.267421784834791 -1 0 0
1756 5 62.227181558825535 19.161348841817674 0.0063097641321271675 -1 0 0
1760 1 64.30141772467141 20.358951230330796 1.2674217848347928 -1 0 0
1939 5 60.15294227299446 22.75410860642967 0.006309764132111217 -1 0 0
1947 5 64.30142085166045 22.754108606429668 0.00630976413210758 -1 0 0
1764 5 66.37566013749154 19.16134884181768 0.0063097641321361855 -1 0 0
1768 1 68.4498963033374 20.358951230330796 1.2674217848347935 -1 0 0
1955 5 68.44989943032645 22.75410860642967 0.006309764132110962 -1 0 0
1772 5 70.52413871615754 19.161348841817674 0.006309764132124142 -1 0 0
1776 1 72.59837488200341 20.358951230330796 1.2674217848347922 -1 0 0
1780 5 74.67261729482352 19.161348841817674 0.0063097641321304705 -1 0 0
1963 5 72.59837800899246 22.75410860642967 0.00630976413211101 -1 0 0
1784 1 76.74685346066941 20.358951230330796 1.2674217848347942 -1 0 0
1788 5 78.82109587348953 19.161348841817674 0.0063097641321304045 -1 0 0
1792 1 80.89533203933541 20.358951230330796 1.2674217848347942 -1 0 0
1971 5 76.74685658765846 22.75410860642967 0.006309764132111061 -1 0 0
1979 5 80.89533516632446 22.75410860642967 0.006309764132111054 -1 0 0
1796 5 82.96957445215553 19.161348841817677 0.006309764132131766 -1 0 0
1800 1 85.0438106180014 20.3589512303308 1.267421784834797 -1 0 0
1804 5 87.11805303082154 19.161348841817677 0.006309764132128896 -1 0 0
1987 5 85.04381374499046 22.75410860642967 0.006309764132114105 -1 0 0
1808 1 89.1922891966674 20.358951230330796 1.2674217848347882 -1 0 0
1812 5 91.26653160948753 19.161348841817674 0.0063097641321287435 -1 0 0
1816 1 93.3407677753334 20.3589512303308 1.267421784834797 -1 0 0
1995 5 89.19229232365646 22.754108606429668 0.0063097641321116 -1 0 0
2003 5 93.34077090232246 22.75410860642967 0.006309764132112853 -1 0 0
1820 5 95.41501018815354 19.161348841817677 0.006309764132129267 -1 0 0
1824 1 97.48924635399939 20.3589512303308 1.2674217848347957 -1 0 0
2011 5 97.48924948098846 22.75410860642967 0.0063097641321127685 -1 0 0
2031 1 4.148478336418245 23.95171099494282 1.267421784834739 0 0 0
2020 5 2.878835546590083e-06 26.34686837104167 0.0063097641321271155 0 0 0
2028 5 4.148481457501543 26.34686837104167 0.006309764132130478 0 0 0
2024 1 2.074239044681398 27.54447075955479 1.267421784834793 0 0 0
2039 1 8.296956915084245 23.951710994942818 1.2674217848347393 0 0 0
2036 5 8.29696003616754 26.346868371041673 0.006309764132128404 0 0 0
2032 1 6.222717623347399 27.544470759554795 1.2674217848347922 0 0 0
2040 1 10.371196202013397 27.54447075955479 1.2674217848347942 0 0 0
2047 1 12.445435493750244 23.95171099494282 1.2674217848347376 0 0 0
2055 1 16.593914072416247 23.951710994942818 1.267421784834742 0 0 0
2044 5 12.445438614833542 26.346868371041673 0.006309764132130663 0 0 0
2052 5 16.593917193499543 26.346868371041676 0.006309764132129398 0 0 0
2048 1 14.519674780679399 27.544470759554795 1.2674217848347926 0 0 0
2063 1 20.742392651082245 23.95171099494282 1.2674217848347376 0 0 0
2060 5 20.74239577216554 26.34686837104167 0.0063097641321297 0 0 0
2056 1 18.668153359345396 27.544470759554795 1.267421784834792 0 0 0
2064 1 22.816631938011398 27.544470759554795 1.2674217848347935 0 0 0
2071 1 24.890871229748246 23.95171099494282 1.2674217848347378 0 0 0
2079 1 29.039349808414244 23.95171099494282 1.2674217848347367 0 0 0
2068 5 24.89087435083154 26.34686837104167 0.00630976413212989 0 0 0
2076 5 29.03935292949754 26.34686837104167 0.006309764132130285 0 0 0
2072 1 26.9651105166774 27.54447075955479 1.267421784834794 0 0 0
2087 1 33.187828387080245 23.95171099494282 1.2674217848347382 0 0 0
2084 5 33.18783150816354 26.34686837104167 0.006309764132128831 0 0 0
2080 1 31.113589095343396 27.544470759554795 1.267421784834796 0 0 0
2095 1 37.33630696574624 23.951710994942825 1.2674217848347398 0 0 0
2092 5 37.33631008682954 26.34686837104167 0.006309764132130427 0 0 0
2088 1 35.262067674009394 27.544470759554795 1.2674217848347935 0 0 0
2096 1 39.410546252675395 27.544470759554795 1.2674217848347906 0 0 0
2103 1 41.48478554441224 23.951710994942818 1.2674217848347387 0 0 0
2111 1 45.633264123078234 23.95171099494282 1.2674217848347393 0 0 0
2100 5 41.484788665495536 26.346868371041673 0.006309764132130051 0 0 0
2108 5 45.633267244161544 26.34686837104167 0.0063097641321302605 0 0 0
2104 1 43.5590248313414 27.544470759554795 1.2674217848347942 0 0 0
1927 1 49.78174270174424 23.95171099494282 1.2674217848347364 -1 0 0
1924 5 49.781745822827546 26.346868371041673 0.006309764132129971 -1 0 0
2112 1 47.70750341000739 27.544470759554795 1.2674217848347937 0 0 0
1928 1 51.8559819886734 27.54447075955479 1.2674217848347915 -1 0 0
1935 1 53.93022128041025 23.951710994942825 1.2674217848347402 -1 0 0
1943 1 58.078699859076245 23.95171099494282 1.2674217848347376 -1 0 0
1932 5 53.93022440149354 26.34686837104167 0.006309764132130949 -1 0 0
1940 5 58.07870298015954 26.34686837104167 0.006309764132127877 -1 0 0
1936 1 56.00446056733939 27.544470759554795 1.267421784834797 -1 0 0
1951 1 62.22717843774224 23.95171099494282 1.2674217848347402 -1 0 0
1948 5 62.227181558825535 26.34686837104167 0.006309764132127091 -1 0 0
1944 1 60.1529391460054 27.544470759554795 1.2674217848347897 -1 0 0
1952 1 64.30141772467141 27.54447075955479 1.267421784834793 -1 0 0
1959 1 66.37565701640824 23.951710994942818 1.2674217848347389 -1 0 0
1956 5 66.37566013749154 26.346868371041676 0.0063097641321361204 -1 0 0
1960 1 68.4498963033374 27.544470759554795 1.2674217848347922 -1 0 0
1967 1 70.52413559507424 23.951710994942818 1.2674217848347382 -1 0 0
1975 1 74.67261417374024 23.95171099494282 1.2674217848347378 -1 0 0
1964 5 70.52413871615754 26.34686837104167 0.006309764132123993 -1 0 0
1972 5 74.67261729482352 26.34686837104167 0.006309764132130316 -1 0 0
1968 1 72.59837488200341 27.544470759554795 1.2674217848347908 -1 0 0
1983 1 78.82109275240624 23.95171099494282 1.2674217848347378 -1 0 0
1980 5 78.82109587348953 26.34686837104167 0.006309764132130249 -1 0 0
1976 1 76.74685346066941 27.544470759554795 1.2674217848347928 -1 0 0
1984 1 80.89533203933541 27.544470759554795 1.2674217848347928 -1 0 0
1991 1 82.96957133107225 23.95171099494282 1.2674217848347378 -1 0 0
1999 1 87.11804990973825 23.951710994942818 1.2674217848347396 -1 0 0
1988 5 82.96957445215553 26.346868371041673 0.00630976413213164 -1 0 0
1996 5 87.11805303082154 26.346868371041673 0.006309764132128876 -1 0 0
1992 1 85.0438106180014 27.544470759554795 1.2674217848347973 -1 0 0
2007 1 91.26652848840425 23.95171099494282 1.2674217848347384 -1 0 0
2004 5 91.26653160948753 26.346868371041673 0.006309764132128335 -1 0 0
2000 1 89.1922891966674 27.54447075955479 1.2674217848347884 -1 0 0
2008 1 93.3407677753334 27.544470759554795 1.2674217848347973 -1 0 0
2023 1 99.56348564573625 23.95171099494282 1.267421784834738 -1 0 0
2015 1 95.41500706707025 23.951710994942818 1.26742178483474 -1 0 0
2012 5 95.41501018815354 26.346868371041673 0.006309764132129004 -1 0 0
2016 1 97.48924635399939 27.544470759554798 1.2674217848347942 -1 0 0
2211 5 2.07424217167046 29.93962813565367 0.00630976413210961 0 0 0
2223 1 4.148478336418243 31.13723052416682 1.2674217848347396 0 0 0
2212 5 2.8788355458163055e-06 33.53238790026567 0.006309764132128159 0 0 0
2220 5 4.148481457501542 33.532387900265675 0.006309764132129197 0 0 0
2216 1 2.074239044681398 34.729990288778794 1.2674217848347922 0 0 0
2219 5 6.2227207503364586 29.939628135653667 0.006309764132110386 0 0 0
2231 1 8.296956915084245 31.13723052416682 1.267421784834738 0 0 0
2227 5 10.37119932900246 29.939628135653667 0.006309764132110708 0 0 0
2228 5 8.296960036167539 33.53238790026567 0.006309764132129284 0 0 0
2224 1 6.222717623347398 34.7299902887788 1.2674217848347904 0 0 0
2232 1 10.3711962020134 34.7299902887788 1.2674217848347908 0 0 0
2239 1 12.445435493750244 31.13723052416682 1.267421784834737 0 0 0
2235 5 14.51967790766846 29.939628135653667 0.006309764132109994 0 0 0
2247 1 16.593914072416247 31.13723052416682 1.2674217848347402 0 0 0
2236 5 12.445438614833542 33.53238790026567 0.0063097641321308694 0 0 0
2244 5 16.593917193499543 33.532387900265675 0.00630976413212971 0 0 0
2240 1 14.519674780679397 34.729990288778794 1.2674217848347915 0 0 0
2243 5 18.66815648633446 29.939628135653667 0.006309764132110402 0 0 0
2255 1 20.742392651082245 31.13723052416682 1.2674217848347384 0 0 0
2251 5 22.816635065000458 29.939628135653667 0.006309764132111029 0 0 0
2252 5 20.74239577216554 33.53238790026567 0.006309764132130337 0 0 0
2248 1 18.6681533593454 34.7299902887788 1.2674217848347902 0 0 0
2256 1 22.816631938011398 34.7299902887788 1.2674217848347888 0 0 0
2263 1 24.890871229748246 31.13723052416682 1.2674217848347376 0 0 0
2259 5 26.96511364366646 29.93962813565367 0.006309764132110089 0 0 0
2271 1 29.039349808414244 31.13723052416682 1.267421784834736 0 0 0
2260 5 24.89087435083154 33.53238790026567 0.006309764132129815 0 0 0
2268 5 29.03935292949754 33.53238790026567 0.006309764132130653 0 0 0
2264 1 26.9651105166774 34.7299902887788 1.2674217848347902 0 0 0
2267 5 31.11359222233246 29.939628135653667 0.006309764132108571 0 0 0
2279 1 33.187828387080245 31.13723052416682 1.2674217848347376 0 0 0
2276 5 33.18783150816354 33.53238790026567 0.006309764132129603 0 0 0
2272 1 31.113589095343396 34.7299902887788 1.2674217848347917 0 0 0
2275 5 35.26207080099846 29.939628135653667 0.006309764132109954 0 0 0
2287 1 37.33630696574624 31.13723052416682 1.2674217848347404 0 0 0
2283 5 39.41054937966446 29.939628135653667 0.006309764132110082 0 0 0
2284 5 37.33631008682954 33.53238790026567 0.006309764132130282 0 0 0
2280 1 35.262067674009394 34.729990288778794 1.267421784834793 0 0 0
2288 1 39.410546252675395 34.729990288778794 1.2674217848347897 0 0 0
2295 1 41.48478554441224 31.137230524166824 1.2674217848347384 0 0 0
2291 5 43.55902795833046 29.939628135653667 0.006309764132110179 0 0 0