LAMMPS data file via write_data, version 29 Aug 2024, timestep = 2, units = metal

8064 atoms
12 atom types

0 99.563485887984 xlo xhi
0 100.597273409136 ylo yhi
-50 50 zlo zhi

Masses

1 69.723
2 69.723
3 69.723
4 69.723
5 69.723
6 69.723
7 127.6
8 127.6
9 127.6
10 127.6
11 127.6
12 127.6

Atoms # atomic

1443 7 2.0742415816929216 1.1975498321729212 0.006580842844391638 0 0 0
1447 1 9.480933592166757e-08 2.395152680224572 1.2675170367608257 0 0 0
1455 1 4.148478673475337 2.395152680224573 1.267517036760828 0 0 0
1444 7 2.288942075344575e-06 4.790309596784923 0.006580842844414035 0 0 0
1452 7 4.148480867608077 4.7903095967849225 0.006580842844413015 0 0 0
1451 7 6.222720160358921 1.1975498321729217 0.006580842844392085 0 0 0
1459 7 10.371198739024923 1.1975498321729205 0.00658084284439314 0 0 0
1463 1 8.296957252141336 2.3951526802245726 1.2675170367608273 0 0 0
1460 7 8.296959446274075 4.7903095967849225 0.006580842844411962 0 0 0
1467 7 14.519677317690922 1.197549832172922 0.0065808428443920415 0 0 0
1471 1 12.445435830807336 2.3951526802245713 1.2675170367608264 0 0 0
1479 1 16.593914409473335 2.3951526802245735 1.267517036760828 0 0 0
1468 7 12.445438024940076 4.7903095967849225 0.006580842844413093 0 0 0
1476 7 16.593916603606075 4.7903095967849225 0.006580842844413282 0 0 0
1475 7 18.668155896356925 1.1975498321729212 0.006580842844392628 0 0 0
1483 7 22.816634475022923 1.1975498321729203 0.006580842844394093 0 0 0
1487 1 20.742392988139333 2.3951526802245717 1.2675170367608266 0 0 0
1484 7 20.742395182272073 4.790309596784923 0.00658084284441297 0 0 0
1491 7 26.965113053688924 1.1975498321729214 0.00658084284439249 0 0 0
1495 1 24.890871566805334 2.3951526802245726 1.2675170367608264 0 0 0
1503 1 29.039350145471335 2.395152680224572 1.2675170367608253 0 0 0
1492 7 24.890873760938074 4.7903095967849225 0.006580842844413277 0 0 0
1500 7 29.039352339604076 4.7903095967849225 0.006580842844413222 0 0 0
1499 7 31.113591632354925 1.1975498321729214 0.006580842844392296 0 0 0
1511 1 33.18782872413733 2.3951526802245713 1.2675170367608255 0 0 0
1508 7 33.18783091827007 4.7903095967849225 0.006580842844413063 0 0 0
1507 7 35.26207021102092 1.1975498321729199 0.006580842844389192 0 0 0
1515 7 39.41054878968692 1.197549832172921 0.006580842844392864 0 0 0
1519 1 37.33630730280334 2.3951526802245735 1.2675170367608286 0 0 0
1516 7 37.336309496936074 4.7903095967849225 0.006580842844413435 0 0 0
1523 7 43.559027368352915 1.197549832172921 0.006580842844392478 0 0 0
1527 1 41.484785881469335 2.3951526802245717 1.2675170367608268 0 0 0
1535 1 45.63326446013534 2.395152680224573 1.2675170367608273 0 0 0
1524 7 41.484788075602076 4.790309596784921 0.006580842844409847 0 0 0
1532 7 45.63326665426807 4.7903095967849225 0.006580842844413251 0 0 0
1531 7 47.707505947018916 1.1975498321729214 0.006580842844392993 0 0 0
1347 7 51.855984525684924 1.1975498321729223 0.006580842844392914 -1 0 0
1351 1 49.78174303880134 2.3951526802245726 1.2675170367608268 -1 0 0
1348 7 49.78174523293408 4.790309596784924 0.006580842844416181 -1 0 0
1355 7 56.00446310435092 1.197549832172919 0.006580842844391005 -1 0 0
1359 1 53.93022161746734 2.3951526802245717 1.2675170367608257 -1 0 0
1367 1 58.07870019613334 2.3951526802245717 1.2675170367608268 -1 0 0
1356 7 53.93022381160008 4.790309596784922 0.006580842844411253 -1 0 0
1364 7 58.07870239026607 4.790309596784924 0.006580842844413517 -1 0 0
1363 7 60.15294168301691 1.197549832172921 0.006580842844392948 -1 0 0
1371 7 64.3014202616829 1.1975498321729197 0.006580842844389663 -1 0 0
1375 1 62.22717877479934 2.395152680224571 1.2675170367608253 -1 0 0
1372 7 62.227180968932075 4.790309596784921 0.006580842844409468 -1 0 0
1379 7 68.44989884034891 1.1975498321729217 0.006580842844393427 -1 0 0
1383 1 66.37565735346536 2.395152680224572 1.2675170367608262 -1 0 0
1380 7 66.37565954759808 4.790309596784927 0.006580842844420152 -1 0 0
1387 7 72.59837741901491 1.1975498321729214 0.006580842844392778 -1 0 0
1391 1 70.52413593213134 2.3951526802245766 1.2675170367608326 -1 0 0
1399 1 74.67261451079733 2.395152680224572 1.2675170367608273 -1 0 0
1388 7 70.52413812626408 4.790309596784918 0.006580842844406564 -1 0 0
1396 7 74.67261670493006 4.790309596784923 0.006580842844412946 -1 0 0
1395 7 76.74685599768091 1.1975498321729212 0.006580842844392386 -1 0 0
1403 7 80.89533457634691 1.1975498321729212 0.0065808428443923815 -1 0 0
1407 1 78.82109308946333 2.395152680224572 1.2675170367608273 -1 0 0
1404 7 78.82109528359607 4.790309596784923 0.006580842844412869 -1 0 0
1411 7 85.04381315501291 1.1975498321729208 0.0065808428443952125 -1 0 0
1415 1 82.96957166812933 2.395152680224572 1.2675170367608273 -1 0 0
1423 1 87.11805024679533 2.3951526802245717 1.2675170367608257 -1 0 0
1412 7 82.96957386226207 4.790309596784924 0.006580842844414306 -1 0 0
1420 7 87.11805244092808 4.790309596784923 0.006580842844413459 -1 0 0
1419 7 89.19229173367891 1.1975498321729228 0.00658084284439091 -1 0 0
1427 7 93.34077031234492 1.1975498321729199 0.006580842844394439 -1 0 0
1431 1 91.26652882546134 2.3951526802245726 1.267517036760826 -1 0 0
1428 7 91.26653101959407 4.7903095967849225 0.0065808428444127706 -1 0 0
1435 7 97.48924889101092 1.1975498321729234 0.0065808428443924 -1 0 0
1439 1 95.41500740412734 2.395152680224572 1.2675170367608277 -1 0 0
1436 7 95.41500959826008 4.7903095967849225 0.006580842844413354 -1 0 0
1448 1 2.0742393818325935 5.987912444836547 1.2675170367608795 0 0 0
1635 7 2.074241581692921 8.383069361396917 0.006580842844392808 0 0 0
1639 1 9.48093356982855e-08 9.580672209448574 1.2675170367608268 0 0 0
1647 1 4.148478673475337 9.580672209448574 1.2675170367608297 0 0 0
1456 1 6.222717960498593 5.987912444836547 1.2675170367608808 0 0 0
1464 1 10.371196539164593 5.987912444836547 1.2675170367608817 0 0 0
1643 7 6.2227201603589215 8.383069361396918 0.0065808428443945004 0 0 0
1651 7 10.37119873902492 8.383069361396918 0.006580842844393725 0 0 0
1655 1 8.296957252141334 9.580672209448572 1.2675170367608277 0 0 0
1472 1 14.519675117830593 5.987912444836547 1.2675170367608812 0 0 0
1659 7 14.51967731769092 8.383069361396918 0.006580842844395248 0 0 0
1663 1 12.445435830807337 9.580672209448572 1.2675170367608277 0 0 0
1671 1 16.593914409473335 9.580672209448572 1.26751703676083 0 0 0
1480 1 18.668153696496596 5.987912444836546 1.2675170367608806 0 0 0
1488 1 22.816632275162593 5.987912444836547 1.26751703676088 0 0 0
1667 7 18.668155896356925 8.383069361396918 0.0065808428443947095 0 0 0
1675 7 22.816634475022923 8.383069361396918 0.006580842844395031 0 0 0
1679 1 20.742392988139333 9.580672209448572 1.2675170367608282 0 0 0
1496 1 26.965110853828595 5.987912444836547 1.2675170367608808 0 0 0
1683 7 26.965113053688924 8.383069361396918 0.006580842844394364 0 0 0
1687 1 24.890871566805334 9.580672209448572 1.2675170367608282 0 0 0
1695 1 29.039350145471335 9.580672209448572 1.2675170367608268 0 0 0
1504 1 31.113589432494596 5.987912444836547 1.267517036760881 0 0 0
1691 7 31.113591632354925 8.383069361396918 0.0065808428443947485 0 0 0
1703 1 33.18782872413733 9.580672209448572 1.2675170367608273 0 0 0
1512 1 35.26206801116059 5.987912444836547 1.267517036760881 0 0 0
1520 1 39.41054658982659 5.987912444836548 1.267517036760883 0 0 0
1699 7 35.26207021102092 8.383069361396917 0.006580842844391175 0 0 0
1707 7 39.41054878968692 8.383069361396918 0.0065808428443948335 0 0 0
1711 1 37.33630730280334 9.580672209448574 1.2675170367608304 0 0 0
1528 1 43.559025168492596 5.987912444836545 1.2675170367608795 0 0 0
1715 7 43.559027368352915 8.383069361396918 0.006580842844394479 0 0 0
1719 1 41.484785881469335 9.580672209448572 1.2675170367608282 0 0 0
1727 1 45.63326446013534 9.580672209448572 1.2675170367608288 0 0 0
1536 1 47.7075037471586 5.987912444836548 1.267517036760882 0 0 0
1352 1 51.85598232582459 5.987912444836548 1.2675170367608812 -1 0 0
1723 7 47.70750594701892 8.383069361396918 0.006580842844395337 0 0 0
1539 7 51.855984525684924 8.383069361396918 0.006580842844394868 -1 0 0
1543 1 49.78174303880134 9.580672209448572 1.267517036760828 -1 0 0
1360 1 56.0044609044906 5.987912444836546 1.2675170367608801 -1 0 0
1547 7 56.00446310435092 8.383069361396917 0.006580842844392448 -1 0 0
1551 1 53.93022161746734 9.580672209448572 1.2675170367608273 -1 0 0
1559 1 58.07870019613334 9.580672209448572 1.267517036760828 -1 0 0
1368 1 60.152939483156594 5.987912444836548 1.267517036760882 -1 0 0
1376 1 64.30141806182259 5.987912444836548 1.2675170367608806 -1 0 0
1555 7 60.15294168301691 8.383069361396918 0.006580842844394818 -1 0 0
1563 7 64.3014202616829 8.383069361396915 0.006580842844391019 -1 0 0
1567 1 62.22717877479934 9.58067220944857 1.2675170367608268 -1 0 0
1384 1 68.44989664048859 5.987912444836547 1.267517036760881 -1 0 0
1571 7 68.44989884034891 8.383069361396918 0.0065808428443947815 -1 0 0
1575 1 66.37565735346536 9.580672209448572 1.2675170367608284 -1 0 0
1392 1 72.59837521915459 5.987912444836545 1.2675170367608797 -1 0 0
1579 7 72.59837741901491 8.383069361396918 0.0065808428443948075 -1 0 0
1583 1 70.52413593213134 9.580672209448576 1.2675170367608346 -1 0 0
1591 1 74.67261451079733 9.580672209448572 1.2675170367608284 -1 0 0
1400 1 76.74685379782059 5.987912444836547 1.267517036760881 -1 0 0
1408 1 80.89533237648659 5.987912444836547 1.2675170367608812 -1 0 0
1587 7 76.74685599768091 8.383069361396918 0.006580842844394494 -1 0 0
1595 7 80.89533457634691 8.383069361396918 0.006580842844394474 -1 0 0
1599 1 78.82109308946333 9.580672209448572 1.2675170367608284 -1 0 0
1416 1 85.04381095515258 5.98791244483655 1.2675170367608848 -1 0 0
1603 7 85.04381315501291 8.38306936139692 0.006580842844396716 -1 0 0
1607 1 82.96957166812933 9.580672209448572 1.2675170367608284 -1 0 0
1615 1 87.11805024679533 9.580672209448572 1.267517036760828 -1 0 0
1424 1 89.19228953381858 5.987912444836543 1.267517036760877 -1 0 0
1432 1 93.34076811248458 5.98791244483655 1.2675170367608848 -1 0 0
1611 7 89.19229173367891 8.383069361396918 0.006580842844393976 -1 0 0
1619 7 93.34077031234492 8.383069361396918 0.006580842844395239 -1 0 0
1623 1 91.26652882546134 9.580672209448572 1.2675170367608277 -1 0 0
1440 1 97.48924669115058 5.987912444836543 1.267517036760878 -1 0 0
1627 7 97.48924889101092 8.383069361396918 0.006580842844394706 -1 0 0
1631 1 95.41500740412734 9.580672209448572 1.2675170367608293 -1 0 0
1636 7 2.2889420751195922e-06 11.975829126008923 0.006580842844415719 0 0 0
1644 7 4.148480867608077 11.975829126008923 0.006580842844414481 0 0 0
1640 1 2.0742393818325935 13.173431974060549 1.2675170367608783 0 0 0
1831 1 9.48093357221947e-08 16.766191738672575 1.267517036760828 0 0 0
1827 7 2.0742415816929207 15.56858889062092 0.006580842844394173 0 0 0
1839 1 4.148478673475337 16.76619173867258 1.26751703676083 0 0 0
1652 7 8.296959446274075 11.975829126008922 0.0065808428444128365 0 0 0
1648 1 6.222717960498593 13.173431974060549 1.2675170367608797 0 0 0
1656 1 10.371196539164593 13.173431974060549 1.2675170367608797 0 0 0
1835 7 6.2227201603589215 15.568588890620921 0.006580842844395531 0 0 0
1847 1 8.296957252141334 16.76619173867258 1.2675170367608284 0 0 0
1843 7 10.371198739024923 15.568588890620921 0.00658084284439628 0 0 0
1660 7 12.445438024940076 11.975829126008923 0.006580842844414443 0 0 0
1668 7 16.593916603606075 11.975829126008923 0.006580842844414002 0 0 0
1664 1 14.519675117830593 13.173431974060549 1.2675170367608795 0 0 0
1855 1 12.445435830807336 16.766191738672575 1.2675170367608284 0 0 0
1851 7 14.519677317690922 15.568588890620921 0.006580842844396615 0 0 0
1863 1 16.593914409473335 16.766191738672575 1.2675170367608295 0 0 0
1676 7 20.742395182272073 11.975829126008923 0.006580842844414176 0 0 0
1672 1 18.668153696496592 13.173431974060547 1.2675170367608792 0 0 0
1680 1 22.816632275162593 13.173431974060547 1.2675170367608783 0 0 0
1859 7 18.66815589635692 15.568588890620921 0.0065808428443960825 0 0 0
1871 1 20.742392988139333 16.766191738672575 1.2675170367608286 0 0 0
1867 7 22.816634475022923 15.568588890620921 0.006580842844395906 0 0 0
1684 7 24.890873760938074 11.975829126008923 0.00658084284441463 0 0 0
1692 7 29.039352339604076 11.975829126008923 0.006580842844414541 0 0 0
1688 1 26.96511085382859 13.173431974060547 1.267517036760879 0 0 0
1879 1 24.890871566805334 16.766191738672575 1.2675170367608288 0 0 0
1875 7 26.965113053688924 15.568588890620921 0.006580842844395301 0 0 0
1887 1 29.039350145471335 16.766191738672575 1.267517036760827 0 0 0
1700 7 33.18783091827007 11.975829126008923 0.006580842844414142 0 0 0
1696 1 31.113589432494592 13.173431974060547 1.267517036760879 0 0 0
1883 7 31.113591632354925 15.568588890620921 0.0065808428443950425 0 0 0
1895 1 33.18782872413733 16.766191738672575 1.2675170367608273 0 0 0
1708 7 37.336309496936074 11.975829126008923 0.006580842844414728 0 0 0
1704 1 35.26206801116059 13.173431974060547 1.2675170367608792 0 0 0
1712 1 39.41054658982659 13.173431974060549 1.2675170367608808 0 0 0
1891 7 35.26207021102092 15.56858889062092 0.006580842844392051 0 0 0
1903 1 37.33630730280334 16.76619173867258 1.2675170367608304 0 0 0
1899 7 39.41054878968692 15.568588890620921 0.006580842844395857 0 0 0
1716 7 41.484788075602076 11.975829126008922 0.00658084284441094 0 0 0
1724 7 45.63326665426807 11.975829126008923 0.006580842844414644 0 0 0
1720 1 43.559025168492596 13.173431974060547 1.267517036760878 0 0 0
1911 1 41.484785881469335 16.766191738672575 1.2675170367608295 0 0 0
1907 7 43.559027368352915 15.568588890620921 0.006580842844395504 0 0 0
1919 1 45.63326446013534 16.766191738672575 1.2675170367608293 0 0 0
1540 7 49.78174523293408 11.975829126008925 0.006580842844417328 -1 0 0
1728 1 47.7075037471586 13.173431974060549 1.2675170367608803 0 0 0
1544 1 51.85598232582459 13.173431974060549 1.2675170367608795 -1 0 0
1915 7 47.707505947018916 15.568588890620921 0.006580842844396074 0 0 0
1735 1 49.78174303880134 16.766191738672575 1.2675170367608297 -1 0 0
1731 7 51.855984525684924 15.568588890620921 0.0065808428443951735 -1 0 0
1548 7 53.93022381160008 11.975829126008922 0.00658084284441234 -1 0 0
1556 7 58.07870239026607 11.975829126008925 0.006580842844414979 -1 0 0
1552 1 56.0044609044906 13.173431974060549 1.2675170367608786 -1 0 0
1743 1 53.93022161746734 16.766191738672575 1.2675170367608282 -1 0 0
1739 7 56.00446310435092 15.568588890620918 0.006580842844393579 -1 0 0
1751 1 58.07870019613334 16.766191738672575 1.267517036760829 -1 0 0
1564 7 62.227180968932075 11.975829126008922 0.006580842844410592 -1 0 0
1560 1 60.152939483156594 13.173431974060549 1.2675170367608801 -1 0 0
1568 1 64.30141806182259 13.173431974060549 1.267517036760879 -1 0 0
1747 7 60.15294168301691 15.568588890620921 0.006580842844395408 -1 0 0
1759 1 62.22717877479934 16.766191738672575 1.2675170367608284 -1 0 0
1755 7 64.3014202616829 15.568588890620918 0.006580842844391924 -1 0 0
1572 7 66.37565954759808 11.975829126008929 0.006580842844421068 -1 0 0
1576 1 68.44989664048859 13.173431974060547 1.267517036760879 -1 0 0
1767 1 66.37565735346536 16.766191738672575 1.2675170367608295 -1 0 0
1763 7 68.44989884034891 15.568588890620921 0.006580842844395859 -1 0 0
1580 7 70.52413812626408 11.97582912600892 0.006580842844408253 -1 0 0
1588 7 74.67261670493006 11.975829126008923 0.006580842844414474 -1 0 0
1584 1 72.59837521915459 13.173431974060545 1.2675170367608775 -1 0 0
1775 1 70.52413593213134 16.76619173867258 1.2675170367608355 -1 0 0
1771 7 72.59837741901491 15.568588890620921 0.0065808428443958405 -1 0 0
1783 1 74.67261451079733 16.766191738672575 1.2675170367608288 -1 0 0
1596 7 78.82109528359607 11.975829126008923 0.006580842844414389 -1 0 0
1592 1 76.74685379782059 13.173431974060547 1.2675170367608795 -1 0 0
1600 1 80.89533237648659 13.173431974060547 1.2675170367608795 -1 0 0
1779 7 76.74685599768091 15.568588890620921 0.006580842844395498 -1 0 0
1791 1 78.82109308946333 16.766191738672575 1.2675170367608288 -1 0 0
1787 7 80.89533457634691 15.568588890620921 0.006580842844395487 -1 0 0
1604 7 82.96957386226207 11.975829126008925 0.006580842844416088 -1 0 0
1612 7 87.11805244092808 11.975829126008925 0.0065808428444146735 -1 0 0
1608 1 85.04381095515258 13.173431974060552 1.267517036760883 -1 0 0
1799 1 82.96957166812933 16.766191738672575 1.2675170367608288 -1 0 0
1795 7 85.04381315501291 15.568588890620923 0.006580842844397925 -1 0 0
1807 1 87.11805024679533 16.766191738672575 1.2675170367608275 -1 0 0
1620 7 91.26653101959407 11.975829126008923 0.006580842844414306 -1 0 0
1616 1 89.19228953381858 13.173431974060543 1.267517036760875 -1 0 0
1624 1 93.34076811248458 13.17343197406055 1.2675170367608828 -1 0 0
1803 7 89.19229173367891 15.568588890620921 0.0065808428443957755 -1 0 0
1815 1 91.26652882546134 16.766191738672575 1.2675170367608277 -1 0 0
1811 7 93.34077031234492 15.568588890620923 0.006580842844397208 -1 0 0
1628 7 95.41500959826008 11.975829126008925 0.006580842844414573 -1 0 0
1632 1 97.48924669115058 13.173431974060545 1.2675170367608763 -1 0 0
1823 1 95.41500740412734 16.766191738672575 1.2675170367608293 -1 0 0
1819 7 97.48924889101092 15.568588890620921 0.006580842844396679 -1 0 0
1828 7 2.288942075844795e-06 19.161348655232928 0.0065808428444136995 0 0 0
1832 1 2.074239381832593 20.358951503284548 1.2675170367608808 0 0 0
1836 7 4.148480867608077 19.161348655232924 0.006580842844413716 0 0 0
2019 7 2.0742415816929207 22.754108419844922 0.006580842844392456 0 0 0
1840 1 6.222717960498593 20.35895150328455 1.2675170367608812 0 0 0
1844 7 8.296959446274075 19.161348655232924 0.006580842844411898 0 0 0
1848 1 10.371196539164593 20.35895150328455 1.267517036760882 0 0 0
2027 7 6.2227201603589215 22.75410841984492 0.006580842844393701 0 0 0
2035 7 10.371198739024923 22.75410841984492 0.006580842844394158 0 0 0
1852 7 12.445438024940078 19.161348655232928 0.00658084284441289 0 0 0
1856 1 14.519675117830593 20.358951503284548 1.267517036760881 0 0 0
1860 7 16.593916603606075 19.161348655232928 0.006580842844413098 0 0 0
2043 7 14.519677317690922 22.754108419844922 0.0065808428443937085 0 0 0
1864 1 18.668153696496592 20.35895150328455 1.2675170367608808 0 0 0
1868 7 20.742395182272073 19.161348655232924 0.006580842844412816 0 0 0
1872 1 22.816632275162593 20.35895150328455 1.2675170367608803 0 0 0
2051 7 18.66815589635692 22.75410841984492 0.006580842844393978 0 0 0
2059 7 22.816634475022923 22.75410841984492 0.006580842844394385 0 0 0
1876 7 24.890873760938074 19.161348655232924 0.00658084284441327 0 0 0
1880 1 26.96511085382859 20.35895150328455 1.2675170367608806 0 0 0
1884 7 29.039352339604076 19.161348655232928 0.006580842844413683 0 0 0
2067 7 26.965113053688924 22.75410841984492 0.006580842844393128 0 0 0
1888 1 31.113589432494592 20.35895150328455 1.267517036760881 0 0 0
1892 7 33.18783091827007 19.161348655232928 0.0065808428444135356 0 0 0
2075 7 31.113591632354925 22.75410841984492 0.006580842844393336 0 0 0
1896 1 35.26206801116059 20.358951503284548 1.2675170367608815 0 0 0
1900 7 37.336309496936074 19.161348655232924 0.006580842844413867 0 0 0
1904 1 39.41054658982659 20.35895150328455 1.2675170367608821 0 0 0
2083 7 35.26207021102092 22.75410841984492 0.0065808428443900994 0 0 0
2091 7 39.41054878968692 22.75410841984492 0.006580842844393794 0 0 0
1908 7 41.484788075602076 19.161348655232924 0.006580842844410119 0 0 0
1912 1 43.559025168492596 20.358951503284548 1.267517036760879 0 0 0
1916 7 45.63326665426807 19.161348655232928 0.0065808428444137325 0 0 0
2099 7 43.559027368352915 22.75410841984492 0.006580842844393339 0 0 0
1920 1 47.7075037471586 20.35895150328455 1.2675170367608817 0 0 0
1732 7 49.78174523293408 19.161348655232928 0.006580842844416751 -1 0 0
1736 1 51.85598232582459 20.358951503284548 1.2675170367608826 -1 0 0
2107 7 47.707505947018916 22.75410841984492 0.006580842844394258 0 0 0
1923 7 51.855984525684924 22.754108419844922 0.006580842844393641 -1 0 0
1740 7 53.93022381160008 19.161348655232924 0.006580842844411719 -1 0 0
1744 1 56.00446090449059 20.35895150328455 1.2675170367608806 -1 0 0
1748 7 58.07870239026607 19.161348655232928 0.006580842844413994 -1 0 0
1931 7 56.00446310435092 22.75410841984492 0.006580842844391805 -1 0 0
1752 1 60.152939483156594 20.35895150328455 1.2675170367608812 -1 0 0
1756 7 62.227180968932075 19.161348655232924 0.006580842844409979 -1 0 0
1760 1 64.30141806182259 20.358951503284548 1.2675170367608812 -1 0 0
1939 7 60.15294168301691 22.75410841984492 0.006580842844393925 -1 0 0
1947 7 64.3014202616829 22.75410841984492 0.006580842844390138 -1 0 0
1764 7 66.37565954759808 19.16134865523293 0.006580842844420518 -1 0 0
1768 1 68.44989664048859 20.358951503284548 1.26751703676088 -1 0 0
1955 7 68.44989884034891 22.75410841984492 0.006580842844393939 -1 0 0
1772 7 70.52413812626408 19.161348655232924 0.006580842844406931 -1 0 0
1776 1 72.59837521915459 20.358951503284548 1.2675170367608788 -1 0 0
1780 7 74.67261670493006 19.161348655232928 0.0065808428444137776 -1 0 0
1963 7 72.59837741901491 22.75410841984492 0.0065808428443936695 -1 0 0
1784 1 76.74685379782059 20.35895150328455 1.2675170367608806 -1 0 0
1788 7 78.82109528359607 19.161348655232928 0.0065808428444137 -1 0 0
1792 1 80.89533237648659 20.35895150328455 1.2675170367608806 -1 0 0
1971 7 76.74685599768091 22.75410841984492 0.006580842844393395 -1 0 0
1979 7 80.89533457634691 22.75410841984492 0.0065808428443933885 -1 0 0
1796 7 82.96957386226207 19.161348655232928 0.0065808428444147655 -1 0 0
1800 1 85.04381095515258 20.358951503284555 1.267517036760885 -1 0 0
1804 7 87.11805244092808 19.161348655232928 0.0065808428444124835 -1 0 0
1987 7 85.04381315501291 22.75410841984492 0.006580842844396681 -1 0 0
1808 1 89.19228953381858 20.358951503284548 1.267517036760877 -1 0 0
1812 7 91.26653101959407 19.161348655232924 0.006580842844412001 -1 0 0
1816 1 93.34076811248458 20.358951503284555 1.2675170367608848 -1 0 0
1995 7 89.19229173367891 22.75410841984492 0.0065808428443944345 -1 0 0
2003 7 93.34077031234492 22.75410841984492 0.006580842844395633 -1 0 0
1820 7 95.41500959826008 19.161348655232928 0.006580842844412494 -1 0 0
1824 1 97.48924669115058 20.358951503284548 1.267517036760878 -1 0 0
2011 7 97.48924889101092 22.75410841984492 0.006580842844395196 -1 0 0
2023 1 9.480933710806512e-08 23.95171126789657 1.2675170367608264 0 0 0
2031 1 4.148478673475336 23.951711267896574 1.2675170367608277 0 0 0
2020 7 2.288942075985122e-06 26.346868184456923 0.006580842844413728 0 0 0
2028 7 4.148480867608077 26.34686818445692 0.0065808428444137385 0 0 0
2024 1 2.074239381832593 27.544471032508543 1.2675170367608812 0 0 0
2039 1 8.296957252141334 23.951711267896574 1.2675170367608275 0 0 0
2036 7 8.296959446274075 26.34686818445692 0.0065808428444119795 0 0 0
2032 1 6.222717960498593 27.544471032508547 1.2675170367608817 0 0 0
2040 1 10.371196539164593 27.544471032508547 1.2675170367608823 0 0 0
2047 1 12.445435830807336 23.951711267896574 1.2675170367608277 0 0 0
2055 1 16.593914409473335 23.951711267896574 1.2675170367608293 0 0 0
2044 7 12.445438024940078 26.346868184456923 0.0065808428444130256 0 0 0
2052 7 16.593916603606075 26.346868184456923 0.006580842844412882 0 0 0
2048 1 14.519675117830593 27.544471032508543 1.2675170367608812 0 0 0
2063 1 20.742392988139333 23.951711267896574 1.2675170367608277 0 0 0
2060 7 20.742395182272073 26.34686818445692 0.006580842844412946 0 0 0
2056 1 18.668153696496592 27.544471032508547 1.267517036760881 0 0 0
2064 1 22.816632275162593 27.544471032508547 1.2675170367608806 0 0 0
2071 1 24.890871566805334 23.951711267896574 1.267517036760828 0 0 0
2079 1 29.039350145471335 23.951711267896574 1.2675170367608264 0 0 0
2068 7 24.890873760938074 26.34686818445692 0.0065808428444134 0 0 0
2076 7 29.039352339604076 26.346868184456923 0.006580842844413695 0 0 0
2072 1 26.96511085382859 27.544471032508547 1.2675170367608808 0 0 0
2087 1 33.18782872413733 23.951711267896574 1.2675170367608257 0 0 0
2084 7 33.18783091827007 26.346868184456923 0.006580842844413614 0 0 0
2080 1 31.113589432494592 27.544471032508547 1.2675170367608812 0 0 0
2095 1 37.33630730280334 23.951711267896574 1.2675170367608293 0 0 0
2092 7 37.336309496936074 26.34686818445692 0.006580842844413937 0 0 0
2088 1 35.26206801116059 27.544471032508543 1.267517036760882 0 0 0
2096 1 39.41054658982659 27.544471032508547 1.2675170367608823 0 0 0
2103 1 41.484785881469335 23.951711267896574 1.2675170367608288 0 0 0
2111 1 45.63326446013534 23.951711267896574 1.2675170367608282 0 0 0
2100 7 41.484788075602076 26.34686818445692 0.006580842844410248 0 0 0
2108 7 45.63326665426807 26.346868184456923 0.0065808428444138626 0 0 0
2104 1 43.559025168492596 27.544471032508543 1.2675170367608795 0 0 0
1927 1 49.78174303880134 23.951711267896574 1.2675170367608277 -1 0 0
1924 7 49.78174523293408 26.346868184456923 0.0065808428444167335 -1 0 0
2112 1 47.7075037471586 27.544471032508547 1.2675170367608821 0 0 0
1928 1 51.85598232582459 27.544471032508547 1.2675170367608812 -1 0 0
1935 1 53.93022161746733 23.951711267896574 1.267517036760826 -1 0 0
1943 1 58.07870019613334 23.951711267896574 1.2675170367608275 -1 0 0
1932 7 53.93022381160008 26.34686818445692 0.006580842844411709 -1 0 0
1940 7 58.07870239026607 26.346868184456923 0.006580842844414134 -1 0 0
1936 1 56.00446090449059 27.544471032508547 1.2675170367608808 -1 0 0
1951 1 62.22717877479934 23.95171126789657 1.2675170367608266 -1 0 0
1948 7 62.227180968932075 26.34686818445692 0.006580842844409891 -1 0 0
1944 1 60.152939483156594 27.544471032508547 1.2675170367608815 -1 0 0
1952 1 64.30141806182259 27.544471032508543 1.2675170367608815 -1 0 0
1959 1 66.37565735346534 23.95171126789657 1.2675170367608277 -1 0 0
1956 7 66.37565954759808 26.346868184456927 0.006580842844420546 -1 0 0
1960 1 68.44989664048859 27.544471032508543 1.2675170367608803 -1 0 0
1967 1 70.52413593213134 23.951711267896577 1.2675170367608346 -1 0 0
1975 1 74.67261451079733 23.951711267896574 1.267517036760828 -1 0 0
1964 7 70.52413812626408 26.34686818445692 0.006580842844407064 -1 0 0
1972 7 74.67261670493006 26.346868184456923 0.006580842844413908 -1 0 0
1968 1 72.59837521915459 27.544471032508543 1.2675170367608792 -1 0 0
1983 1 78.82109308946333 23.951711267896574 1.267517036760828 -1 0 0
1980 7 78.82109528359607 26.346868184456923 0.0065808428444138305 -1 0 0
1976 1 76.74685379782059 27.544471032508547 1.267517036760881 -1 0 0
1984 1 80.89533237648659 27.544471032508547 1.267517036760881 -1 0 0
1991 1 82.96957166812933 23.951711267896574 1.267517036760828 -1 0 0
1999 1 87.11805024679533 23.951711267896574 1.2675170367608273 -1 0 0
1988 7 82.96957386226207 26.346868184456923 0.006580842844414898 -1 0 0
1996 7 87.11805244092808 26.346868184456923 0.00658084284441225 -1 0 0
1992 1 85.04381095515258 27.54447103250855 1.2675170367608852 -1 0 0
2007 1 91.26652882546134 23.951711267896574 1.2675170367608268 -1 0 0
2004 7 91.26653101959407 26.34686818445692 0.006580842844411957 -1 0 0
2000 1 89.19228953381858 27.544471032508543 1.2675170367608775 -1 0 0
2008 1 93.34076811248458 27.54447103250855 1.267517036760885 -1 0 0
2015 1 95.41500740412734 23.95171126789657 1.2675170367608288 -1 0 0
2012 7 95.41500959826008 26.346868184456923 0.006580842844412241 -1 0 0
2016 1 97.48924669115058 27.544471032508543 1.2675170367608781 -1 0 0
2215 1 9.480933697655986e-08 31.137230797120573 1.267517036760824 0 0 0
2211 7 2.0742415816929216 29.93962794906892 0.00658084284439223 0 0 0
2223 1 4.148478673475336 31.137230797120573 1.267517036760826 0 0 0
2212 7 2.2889420741667437e-06 33.53238771368092 0.006580842844414263 0 0 0
2220 7 4.148480867608077 33.53238771368092 0.006580842844412214 0 0 0
2216 1 2.0742393818325935 34.72999056173255 1.2675170367608808 0 0 0
2219 7 6.222720160358921 29.939627949068917 0.006580842844393624 0 0 0
2231 1 8.296957252141334 31.137230797120576 1.2675170367608253 0 0 0
2227 7 10.371198739024923 29.939627949068917 0.00658084284439338 0 0 0
2228 7 8.296959446274075 33.53238771368092 0.0065808428444125685 0 0 0
2224 1 6.222717960498593 34.72999056173255 1.2675170367608823 0 0 0
2232 1 10.371196539164593 34.72999056173255 1.2675170367608828 0 0 0
2239 1 12.445435830807336 31.137230797120576 1.2675170367608253 0 0 0
2235 7 14.519677317690922 29.939627949068917 0.006580842844392875 0 0 0
2247 1 16.593914409473335 31.137230797120576 1.267517036760827 0 0 0
2236 7 12.445438024940078 33.53238771368092 0.006580842844413268 0 0 0
2244 7 16.593916603606075 33.53238771368092 0.006580842844412909 0 0 0
2240 1 14.519675117830593 34.72999056173255 1.2675170367608828 0 0 0
2243 7 18.66815589635692 29.939627949068917 0.006580842844393184 0 0 0
2255 1 20.742392988139333 31.137230797120576 1.2675170367608257 0 0 0
2251 7 22.816634475022923 29.939627949068914 0.00658084284439359 0 0 0
2252 7 20.742395182272073 33.53238771368092 0.006580842844413565 0 0 0
2248 1 18.668153696496596 34.72999056173255 1.2675170367608823 0 0 0
2256 1 22.816632275162593 34.72999056173255 1.2675170367608815 0 0 0
2263 1 24.890871566805334 31.137230797120576 1.2675170367608255 0 0 0
2259 7 26.965113053688924 29.939627949068917 0.0065808428443927276 0 0 0
2271 1 29.039350145471335 31.137230797120576 1.267517036760824 0 0 0
2260 7 24.890873760938074 33.53238771368092 0.006580842844413358 0 0 0
2268 7 29.039352339604076 33.53238771368092 0.006580842844413718 0 0 0
2264 1 26.96511085382859 34.72999056173255 1.2675170367608823 0 0 0
2267 7 31.113591632354925 29.939627949068917 0.00658084284439251 0 0 0
2279 1 33.18782872413733 31.137230797120573 1.2675170367608237 0 0 0
2276 7 33.18783091827007 33.53238771368092 0.0065808428444135945 0 0 0
2272 1 31.113589432494592 34.72999056173255 1.2675170367608823 0 0 0
2275 7 35.26207021102092 29.939627949068917 0.006580842844389199 0 0 0
2287 1 37.33630730280334 31.137230797120576 1.2675170367608268 0 0 0
2283 7 39.41054878968692 29.939627949068917 0.006580842844393019 0 0 0
2284 7 37.336309496936074 33.53238771368092 0.006580842844413907 0 0 0