LAMMPS data file via write_data, version 29 Aug 2024, timestep = 0, units = metal

2688 atoms
4 atom types

0 99.563485887984 xlo xhi
0 100.597273409136 ylo yhi
0 20.807299721384 zlo zhi

Masses

1 69.723
2 69.723
3 127.6
4 127.6

Atoms # atomic

1443 3 2.074250146969 1.1975508168180014 0 0 0 0
1451 3 6.222728725634994 1.1975508168180014 0 0 0 0
1459 3 10.371207304300995 1.1975508168180014 0 0 0 0
1467 3 14.519685882967003 1.1975508168180014 0 0 0 0
1475 3 18.66816446163299 1.1975508168180014 0 0 0 0
1483 3 22.81664304029899 1.1975508168180014 0 0 0 0
1491 3 26.965121618964993 1.1975508168180014 0 0 0 0
1499 3 31.113600197630994 1.1975508168180014 0 0 0 0
1507 3 35.262078776296995 1.1975508168180014 0 0 0 0
1515 3 39.410557354963 1.1975508168180014 0 0 0 0
1523 3 43.559035933629 1.1975508168180014 0 0 0 0
1531 3 47.707514512295 1.1975508168180014 0 0 0 0
1347 3 51.855993090961 1.1975508168180014 0 -1 0 0
1355 3 56.004471669626994 1.1975508168180014 0 -1 0 0
1363 3 60.152950248292996 1.1975508168180014 0 -1 0 0
1371 3 64.301428826959 1.1975508168180014 0 -1 0 0
1379 3 68.449907405625 1.1975508168180014 0 -1 0 0
1387 3 72.598385984291 1.1975508168180014 0 -1 0 0
1395 3 76.746864562957 1.1975508168180014 0 -1 0 0
1403 3 80.895343141623 1.1975508168180014 0 -1 0 0
1411 3 85.043821720289 1.1975508168180014 0 -1 0 0
1419 3 89.19230029895499 1.1975508168180014 0 -1 0 0
1427 3 93.340778877621 1.1975508168180014 0 -1 0 0
1435 3 97.48925745628699 1.1975508168180014 0 -1 0 0
1447 1 0 2.3951496375460053 1.261635047205 0 0 0
1455 1 4.148478578665994 2.3951496375460053 1.261635047205 0 0 0
1463 1 8.296957157331995 2.3951496375460053 1.261635047205 0 0 0
1471 1 12.445435735997997 2.3951496375460053 1.261635047205 0 0 0
1479 1 16.593914314663998 2.3951496375460053 1.261635047205 0 0 0
1487 1 20.74239289333 2.3951496375460053 1.261635047205 0 0 0
1495 1 24.890871471996 2.3951496375460053 1.261635047205 0 0 0
1503 1 29.039350050662 2.3951496375460053 1.261635047205 0 0 0
1511 1 33.187828629328 2.3951496375460053 1.261635047205 0 0 0
1519 1 37.33630720799399 2.3951496375460053 1.261635047205 0 0 0
1527 1 41.48478578665999 2.3951496375460053 1.261635047205 0 0 0
1535 1 45.63326436532599 2.3951496375460053 1.261635047205 0 0 0
1351 1 49.781742943992 2.3951496375460053 1.261635047205 -1 0 0
1359 1 53.930221522657995 2.3951496375460053 1.261635047205 -1 0 0
1367 1 58.078700101323996 2.3951496375460053 1.261635047205 -1 0 0
1375 1 62.22717867999 2.3951496375460053 1.261635047205 -1 0 0
1383 1 66.37565725865599 2.3951496375460053 1.261635047205 -1 0 0
1391 1 70.52413583732199 2.3951496375460053 1.261635047205 -1 0 0
1399 1 74.672614415988 2.3951496375460053 1.261635047205 -1 0 0
1407 1 78.821092994654 2.3951496375460053 1.261635047205 -1 0 0
1415 1 82.96957157332 2.3951496375460053 1.261635047205 -1 0 0
1423 1 87.118050151986 2.3951496375460053 1.261635047205 -1 0 0
1431 1 91.266528730652 2.3951496375460053 1.261635047205 -1 0 0
1439 1 95.415007309318 2.3951496375460053 1.261635047205 -1 0 0
1444 3 1.0851939997280624e-05 4.790310581430006 0 0 0 0
1448 1 2.0742392836369987 5.987909402158003 1.261635047205 0 0 0
1452 3 4.1484894306059985 4.790310581430006 0 0 0 0
1456 1 6.222717862303 5.987909402158003 1.261635047205 0 0 0
1460 3 8.296968009272 4.790310581430006 0 0 0 0
1464 1 10.371196440968994 5.987909402158003 1.261635047205 0 0 0
1468 3 12.445446587937994 4.790310581430006 0 0 0 0
1472 1 14.519675019634995 5.987909402158003 1.261635047205 0 0 0
1476 3 16.593925166604002 4.790310581430006 0 0 0 0
1480 1 18.668153598300997 5.987909402158003 1.261635047205 0 0 0
1484 3 20.742403745270003 4.790310581430006 0 0 0 0
1488 1 22.816632176966998 5.987909402158003 1.261635047205 0 0 0
1492 3 24.89088232393599 4.790310581430006 0 0 0 0
1496 1 26.965110755633 5.987909402158003 1.261635047205 0 0 0
1500 3 29.03936090260199 4.790310581430006 0 0 0 0
1504 1 31.113589334299 5.987909402158003 1.261635047205 0 0 0
1508 3 33.18783948126799 4.790310581430006 0 0 0 0
1512 1 35.262067912965 5.987909402158003 1.261635047205 0 0 0
1516 3 37.336318059933994 4.790310581430006 0 0 0 0
1520 1 39.410546491631 5.987909402158003 1.261635047205 0 0 0
1524 3 41.484796638599995 4.790310581430006 0 0 0 0
1528 1 43.55902507029699 5.987909402158003 1.261635047205 0 0 0
1532 3 45.633275217266 4.790310581430006 0 0 0 0
1536 1 47.70750364896299 5.987909402158003 1.261635047205 0 0 0
1348 3 49.781753795932 4.790310581430006 0 -1 0 0
1352 1 51.855982227629 5.987909402158003 1.261635047205 -1 0 0
1356 3 53.930232374598 4.790310581430006 0 -1 0 0
1360 1 56.004460806295 5.987909402158003 1.261635047205 -1 0 0
1364 3 58.07871095326399 4.790310581430006 0 -1 0 0
1368 1 60.152939384961 5.987909402158003 1.261635047205 -1 0 0
1372 3 62.227189531929994 4.790310581430006 0 -1 0 0
1376 1 64.30141796362699 5.987909402158003 1.261635047205 -1 0 0
1380 3 66.375668110596 4.790310581430006 0 -1 0 0
1384 1 68.449896542293 5.987909402158003 1.261635047205 -1 0 0
1388 3 70.524146689262 4.790310581430006 0 -1 0 0
1392 1 72.59837512095899 5.987909402158003 1.261635047205 -1 0 0
1396 3 74.672625267928 4.790310581430006 0 -1 0 0
1400 1 76.74685369962499 5.987909402158003 1.261635047205 -1 0 0
1404 3 78.821103846594 4.790310581430006 0 -1 0 0
1408 1 80.895332278291 5.987909402158003 1.261635047205 -1 0 0
1412 3 82.96958242526 4.790310581430006 0 -1 0 0
1416 1 85.043810856957 5.987909402158003 1.261635047205 -1 0 0
1420 3 87.11806100392599 4.790310581430006 0 -1 0 0
1424 1 89.192289435623 5.987909402158003 1.261635047205 -1 0 0
1428 3 91.266539582592 4.790310581430006 0 -1 0 0
1432 1 93.340768014289 5.987909402158003 1.261635047205 -1 0 0
1436 3 95.41501816125799 4.790310581430006 0 -1 0 0
1440 1 97.489246592955 5.987909402158003 1.261635047205 -1 0 0
1635 3 2.074250146969 8.383070346042004 0 0 0 0
1643 3 6.222728725634994 8.383070346042004 0 0 0 0
1651 3 10.371207304300995 8.383070346042004 0 0 0 0
1659 3 14.519685882967003 8.383070346042004 0 0 0 0
1667 3 18.66816446163299 8.383070346042004 0 0 0 0
1675 3 22.81664304029899 8.383070346042004 0 0 0 0
1683 3 26.965121618964993 8.383070346042004 0 0 0 0
1691 3 31.113600197630994 8.383070346042004 0 0 0 0
1699 3 35.262078776296995 8.383070346042004 0 0 0 0
1707 3 39.410557354963 8.383070346042004 0 0 0 0
1715 3 43.559035933629 8.383070346042004 0 0 0 0
1723 3 47.707514512295 8.383070346042004 0 0 0 0
1539 3 51.855993090961 8.383070346042004 0 -1 0 0
1547 3 56.004471669626994 8.383070346042004 0 -1 0 0
1555 3 60.152950248292996 8.383070346042004 0 -1 0 0
1563 3 64.301428826959 8.383070346042004 0 -1 0 0
1571 3 68.449907405625 8.383070346042004 0 -1 0 0
1579 3 72.598385984291 8.383070346042004 0 -1 0 0
1587 3 76.746864562957 8.383070346042004 0 -1 0 0
1595 3 80.895343141623 8.383070346042004 0 -1 0 0
1603 3 85.043821720289 8.383070346042004 0 -1 0 0
1611 3 89.19230029895499 8.383070346042004 0 -1 0 0
1619 3 93.340778877621 8.383070346042004 0 -1 0 0
1627 3 97.48925745628699 8.383070346042004 0 -1 0 0
1639 1 0 9.58066916677 1.261635047205 0 0 0
1647 1 4.148478578665994 9.58066916677 1.261635047205 0 0 0
1655 1 8.296957157331995 9.58066916677 1.261635047205 0 0 0
1663 1 12.445435735997997 9.58066916677 1.261635047205 0 0 0
1671 1 16.593914314663998 9.58066916677 1.261635047205 0 0 0
1679 1 20.74239289333 9.58066916677 1.261635047205 0 0 0
1687 1 24.890871471996 9.58066916677 1.261635047205 0 0 0
1695 1 29.039350050662 9.58066916677 1.261635047205 0 0 0
1703 1 33.187828629328 9.58066916677 1.261635047205 0 0 0
1711 1 37.33630720799399 9.58066916677 1.261635047205 0 0 0
1719 1 41.48478578665999 9.58066916677 1.261635047205 0 0 0
1727 1 45.63326436532599 9.58066916677 1.261635047205 0 0 0
1543 1 49.781742943992 9.58066916677 1.261635047205 -1 0 0
1551 1 53.930221522657995 9.58066916677 1.261635047205 -1 0 0
1559 1 58.078700101323996 9.58066916677 1.261635047205 -1 0 0
1567 1 62.22717867999 9.58066916677 1.261635047205 -1 0 0
1575 1 66.37565725865599 9.58066916677 1.261635047205 -1 0 0
1583 1 70.52413583732199 9.58066916677 1.261635047205 -1 0 0
1591 1 74.672614415988 9.58066916677 1.261635047205 -1 0 0
1599 1 78.821092994654 9.58066916677 1.261635047205 -1 0 0
1607 1 82.96957157332 9.58066916677 1.261635047205 -1 0 0
1615 1 87.118050151986 9.58066916677 1.261635047205 -1 0 0
1623 1 91.266528730652 9.58066916677 1.261635047205 -1 0 0
1631 1 95.415007309318 9.58066916677 1.261635047205 -1 0 0
1636 3 1.0851939997280624e-05 11.975830110654002 0 0 0 0
1644 3 4.1484894306059985 11.975830110654002 0 0 0 0
1652 3 8.296968009272 11.975830110654002 0 0 0 0
1660 3 12.445446587937994 11.975830110654002 0 0 0 0
1668 3 16.593925166604002 11.975830110654002 0 0 0 0
1676 3 20.742403745270003 11.975830110654002 0 0 0 0
1684 3 24.89088232393599 11.975830110654002 0 0 0 0
1692 3 29.03936090260199 11.975830110654002 0 0 0 0
1700 3 33.18783948126799 11.975830110654002 0 0 0 0
1708 3 37.336318059933994 11.975830110654002 0 0 0 0
1716 3 41.484796638599995 11.975830110654002 0 0 0 0
1724 3 45.633275217266 11.975830110654002 0 0 0 0
1540 3 49.781753795932 11.975830110654002 0 -1 0 0
1548 3 53.930232374598 11.975830110654002 0 -1 0 0
1556 3 58.07871095326399 11.975830110654002 0 -1 0 0
1564 3 62.227189531929994 11.975830110654002 0 -1 0 0
1572 3 66.375668110596 11.975830110654002 0 -1 0 0
1580 3 70.524146689262 11.975830110654002 0 -1 0 0
1588 3 74.672625267928 11.975830110654002 0 -1 0 0
1596 3 78.821103846594 11.975830110654002 0 -1 0 0
1604 3 82.96958242526 11.975830110654002 0 -1 0 0
1612 3 87.11806100392599 11.975830110654002 0 -1 0 0
1620 3 91.266539582592 11.975830110654002 0 -1 0 0
1628 3 95.41501816125799 11.975830110654002 0 -1 0 0
1640 1 2.0742392836369987 13.173428931382006 1.261635047205 0 0 0
1648 1 6.222717862303 13.173428931382006 1.261635047205 0 0 0
1656 1 10.371196440968994 13.173428931382006 1.261635047205 0 0 0
1664 1 14.519675019634995 13.173428931382006 1.261635047205 0 0 0
1672 1 18.668153598300997 13.173428931382006 1.261635047205 0 0 0
1680 1 22.816632176966998 13.173428931382006 1.261635047205 0 0 0
1688 1 26.965110755633 13.173428931382006 1.261635047205 0 0 0
1696 1 31.113589334299 13.173428931382006 1.261635047205 0 0 0
1704 1 35.262067912965 13.173428931382006 1.261635047205 0 0 0
1712 1 39.410546491631 13.173428931382006 1.261635047205 0 0 0
1720 1 43.55902507029699 13.173428931382006 1.261635047205 0 0 0
1728 1 47.70750364896299 13.173428931382006 1.261635047205 0 0 0
1544 1 51.855982227629 13.173428931382006 1.261635047205 -1 0 0
1552 1 56.004460806295 13.173428931382006 1.261635047205 -1 0 0
1560 1 60.152939384961 13.173428931382006 1.261635047205 -1 0 0
1568 1 64.30141796362699 13.173428931382006 1.261635047205 -1 0 0
1576 1 68.449896542293 13.173428931382006 1.261635047205 -1 0 0
1584 1 72.59837512095899 13.173428931382006 1.261635047205 -1 0 0
1592 1 76.74685369962499 13.173428931382006 1.261635047205 -1 0 0
1600 1 80.895332278291 13.173428931382006 1.261635047205 -1 0 0
1608 1 85.043810856957 13.173428931382006 1.261635047205 -1 0 0
1616 1 89.192289435623 13.173428931382006 1.261635047205 -1 0 0
1624 1 93.340768014289 13.173428931382006 1.261635047205 -1 0 0
1632 1 97.489246592955 13.173428931382006 1.261635047205 -1 0 0
1831 1 0 16.76618869599401 1.261635047205 0 0 0
1827 3 2.074250146969 15.568589875266007 0 0 0 0
1839 1 4.148478578665994 16.76618869599401 1.261635047205 0 0 0
1835 3 6.222728725634994 15.568589875266007 0 0 0 0
1847 1 8.296957157331995 16.76618869599401 1.261635047205 0 0 0
1843 3 10.371207304300995 15.568589875266007 0 0 0 0
1855 1 12.445435735997997 16.76618869599401 1.261635047205 0 0 0
1851 3 14.519685882967003 15.568589875266007 0 0 0 0
1863 1 16.593914314663998 16.76618869599401 1.261635047205 0 0 0
1859 3 18.66816446163299 15.568589875266007 0 0 0 0
1871 1 20.74239289333 16.76618869599401 1.261635047205 0 0 0
1867 3 22.81664304029899 15.568589875266007 0 0 0 0
1879 1 24.890871471996 16.76618869599401 1.261635047205 0 0 0
1875 3 26.965121618964993 15.568589875266007 0 0 0 0
1887 1 29.039350050662 16.76618869599401 1.261635047205 0 0 0
1883 3 31.113600197630994 15.568589875266007 0 0 0 0
1895 1 33.187828629328 16.76618869599401 1.261635047205 0 0 0
1891 3 35.262078776296995 15.568589875266007 0 0 0 0
1903 1 37.33630720799399 16.76618869599401 1.261635047205 0 0 0
1899 3 39.410557354963 15.568589875266007 0 0 0 0
1911 1 41.48478578665999 16.76618869599401 1.261635047205 0 0 0
1907 3 43.559035933629 15.568589875266007 0 0 0 0
1919 1 45.63326436532599 16.76618869599401 1.261635047205 0 0 0
1915 3 47.707514512295 15.568589875266007 0 0 0 0
1735 1 49.781742943992 16.76618869599401 1.261635047205 -1 0 0
1731 3 51.855993090961 15.568589875266007 0 -1 0 0
1743 1 53.930221522657995 16.76618869599401 1.261635047205 -1 0 0
1739 3 56.004471669626994 15.568589875266007 0 -1 0 0
1751 1 58.078700101323996 16.76618869599401 1.261635047205 -1 0 0
1747 3 60.152950248292996 15.568589875266007 0 -1 0 0
1759 1 62.22717867999 16.76618869599401 1.261635047205 -1 0 0
1755 3 64.301428826959 15.568589875266007 0 -1 0 0
1767 1 66.37565725865599 16.76618869599401 1.261635047205 -1 0 0
1763 3 68.449907405625 15.568589875266007 0 -1 0 0
1775 1 70.52413583732199 16.76618869599401 1.261635047205 -1 0 0
1771 3 72.598385984291 15.568589875266007 0 -1 0 0
1783 1 74.672614415988 16.76618869599401 1.261635047205 -1 0 0
1779 3 76.746864562957 15.568589875266007 0 -1 0 0
1791 1 78.821092994654 16.76618869599401 1.261635047205 -1 0 0
1787 3 80.895343141623 15.568589875266007 0 -1 0 0
1799 1 82.96957157332 16.76618869599401 1.261635047205 -1 0 0
1795 3 85.043821720289 15.568589875266007 0 -1 0 0
1807 1 87.118050151986 16.76618869599401 1.261635047205 -1 0 0
1803 3 89.19230029895499 15.568589875266007 0 -1 0 0
1815 1 91.266528730652 16.76618869599401 1.261635047205 -1 0 0
1811 3 93.340778877621 15.568589875266007 0 -1 0 0
1823 1 95.415007309318 16.76618869599401 1.261635047205 -1 0 0
1819 3 97.48925745628699 15.568589875266007 0 -1 0 0
1828 3 1.0851939997280624e-05 19.161349639878004 0 0 0 0
1832 1 2.0742392836369987 20.35894846060601 1.261635047205 0 0 0
1836 3 4.1484894306059985 19.161349639878004 0 0 0 0
1840 1 6.222717862303 20.35894846060601 1.261635047205 0 0 0
1844 3 8.296968009272 19.161349639878004 0 0 0 0
1848 1 10.371196440968994 20.35894846060601 1.261635047205 0 0 0
1852 3 12.445446587937994 19.161349639878004 0 0 0 0
1856 1 14.519675019634995 20.35894846060601 1.261635047205 0 0 0
1860 3 16.593925166604002 19.161349639878004 0 0 0 0
1864 1 18.668153598300997 20.35894846060601 1.261635047205 0 0 0
1868 3 20.742403745270003 19.161349639878004 0 0 0 0
1872 1 22.816632176966998 20.35894846060601 1.261635047205 0 0 0
1876 3 24.89088232393599 19.161349639878004 0 0 0 0
1880 1 26.965110755633 20.35894846060601 1.261635047205 0 0 0
1884 3 29.03936090260199 19.161349639878004 0 0 0 0
1888 1 31.113589334299 20.35894846060601 1.261635047205 0 0 0
1892 3 33.18783948126799 19.161349639878004 0 0 0 0
1896 1 35.262067912965 20.35894846060601 1.261635047205 0 0 0
1900 3 37.336318059933994 19.161349639878004 0 0 0 0
1904 1 39.410546491631 20.35894846060601 1.261635047205 0 0 0
1908 3 41.484796638599995 19.161349639878004 0 0 0 0
1912 1 43.55902507029699 20.35894846060601 1.261635047205 0 0 0
1916 3 45.633275217266 19.161349639878004 0 0 0 0
1920 1 47.70750364896299 20.35894846060601 1.261635047205 0 0 0
1732 3 49.781753795932 19.161349639878004 0 -1 0 0
1736 1 51.855982227629 20.35894846060601 1.261635047205 -1 0 0
1740 3 53.930232374598 19.161349639878004 0 -1 0 0
1744 1 56.004460806295 20.35894846060601 1.261635047205 -1 0 0
1748 3 58.07871095326399 19.161349639878004 0 -1 0 0
1752 1 60.152939384961 20.35894846060601 1.261635047205 -1 0 0
1756 3 62.227189531929994 19.161349639878004 0 -1 0 0
1760 1 64.30141796362699 20.35894846060601 1.261635047205 -1 0 0
1764 3 66.375668110596 19.161349639878004 0 -1 0 0
1768 1 68.449896542293 20.35894846060601 1.261635047205 -1 0 0
1772 3 70.524146689262 19.161349639878004 0 -1 0 0
1776 1 72.59837512095899 20.35894846060601 1.261635047205 -1 0 0
1780 3 74.672625267928 19.161349639878004 0 -1 0 0
1784 1 76.74685369962499 20.35894846060601 1.261635047205 -1 0 0
1788 3 78.821103846594 19.161349639878004 0 -1 0 0
1792 1 80.895332278291 20.35894846060601 1.261635047205 -1 0 0
1796 3 82.96958242526 19.161349639878004 0 -1 0 0
1800 1 85.043810856957 20.35894846060601 1.261635047205 -1 0 0
1804 3 87.11806100392599 19.161349639878004 0 -1 0 0
1808 1 89.192289435623 20.35894846060601 1.261635047205 -1 0 0
1812 3 91.266539582592 19.161349639878004 0 -1 0 0
1816 1 93.340768014289 20.35894846060601 1.261635047205 -1 0 0
1820 3 95.41501816125799 19.161349639878004 0 -1 0 0
1824 1 97.489246592955 20.35894846060601 1.261635047205 -1 0 0
2019 3 2.074250146969 22.754109404490002 0 0 0 0
2027 3 6.222728725634994 22.754109404490002 0 0 0 0
2035 3 10.371207304300995 22.754109404490002 0 0 0 0
2043 3 14.519685882967003 22.754109404490002 0 0 0 0
2051 3 18.66816446163299 22.754109404490002 0 0 0 0
2059 3 22.81664304029899 22.754109404490002 0 0 0 0
2067 3 26.965121618964993 22.754109404490002 0 0 0 0
2075 3 31.113600197630994 22.754109404490002 0 0 0 0
2083 3 35.262078776296995 22.754109404490002 0 0 0 0
2091 3 39.410557354963 22.754109404490002 0 0 0 0
2099 3 43.559035933629 22.754109404490002 0 0 0 0
2107 3 47.707514512295 22.754109404490002 0 0 0 0
1923 3 51.855993090961 22.754109404490002 0 -1 0 0
1931 3 56.004471669626994 22.754109404490002 0 -1 0 0
1939 3 60.152950248292996 22.754109404490002 0 -1 0 0
1947 3 64.301428826959 22.754109404490002 0 -1 0 0
1955 3 68.449907405625 22.754109404490002 0 -1 0 0
1963 3 72.598385984291 22.754109404490002 0 -1 0 0
1971 3 76.746864562957 22.754109404490002 0 -1 0 0
1979 3 80.895343141623 22.754109404490002 0 -1 0 0
1987 3 85.043821720289 22.754109404490002 0 -1 0 0
1995 3 89.19230029895499 22.754109404490002 0 -1 0 0
2003 3 93.340778877621 22.754109404490002 0 -1 0 0
2011 3 97.48925745628699 22.754109404490002 0 -1 0 0
2023 1 0 23.951708225218006 1.261635047205 0 0 0
2031 1 4.148478578665994 23.951708225218006 1.261635047205 0 0 0
2039 1 8.296957157331995 23.951708225218006 1.261635047205 0 0 0
2047 1 12.445435735997997 23.951708225218006 1.261635047205 0 0 0
2055 1 16.593914314663998 23.951708225218006 1.261635047205 0 0 0
2063 1 20.74239289333 23.951708225218006 1.261635047205 0 0 0
2071 1 24.890871471996 23.951708225218006 1.261635047205 0 0 0
2079 1 29.039350050662 23.951708225218006 1.261635047205 0 0 0
2087 1 33.187828629328 23.951708225218006 1.261635047205 0 0 0
2095 1 37.33630720799399 23.951708225218006 1.261635047205 0 0 0
2103 1 41.48478578665999 23.951708225218006 1.261635047205 0 0 0
2111 1 45.63326436532599 23.951708225218006 1.261635047205 0 0 0
1927 1 49.781742943992 23.951708225218006 1.261635047205 -1 0 0
1935 1 53.930221522657995 23.951708225218006 1.261635047205 -1 0 0
1943 1 58.078700101323996 23.951708225218006 1.261635047205 -1 0 0
1951 1 62.22717867999 23.951708225218006 1.261635047205 -1 0 0
1959 1 66.37565725865599 23.951708225218006 1.261635047205 -1 0 0
1967 1 70.52413583732199 23.951708225218006 1.261635047205 -1 0 0
1975 1 74.672614415988 23.951708225218006 1.261635047205 -1 0 0
1983 1 78.821092994654 23.951708225218006 1.261635047205 -1 0 0
1991 1 82.96957157332 23.951708225218006 1.261635047205 -1 0 0
1999 1 87.118050151986 23.951708225218006 1.261635047205 -1 0 0
2007 1 91.266528730652 23.951708225218006 1.261635047205 -1 0 0
2015 1 95.415007309318 23.951708225218006 1.261635047205 -1 0 0
2020 3 1.0851939997280624e-05 26.346869169102 0 0 0 0
2028 3 4.1484894306059985 26.346869169102 0 0 0 0
2036 3 8.296968009272 26.346869169102 0 0 0 0
2044 3 12.445446587937994 26.346869169102 0 0 0 0
2052 3 16.593925166604002 26.346869169102 0 0 0 0
2060 3 20.742403745270003 26.346869169102 0 0 0 0
2068 3 24.89088232393599 26.346869169102 0 0 0 0
2076 3 29.03936090260199 26.346869169102 0 0 0 0
2084 3 33.18783948126799 26.346869169102 0 0 0 0
2092 3 37.336318059933994 26.346869169102 0 0 0 0
2100 3 41.484796638599995 26.346869169102 0 0 0 0
2108 3 45.633275217266 26.346869169102 0 0 0 0
1924 3 49.781753795932 26.346869169102 0 -1 0 0
1932 3 53.930232374598 26.346869169102 0 -1 0 0
1940 3 58.07871095326399 26.346869169102 0 -1 0 0
1948 3 62.227189531929994 26.346869169102 0 -1 0 0
1956 3 66.375668110596 26.346869169102 0 -1 0 0
1964 3 70.524146689262 26.346869169102 0 -1 0 0
1972 3 74.672625267928 26.346869169102 0 -1 0 0
1980 3 78.821103846594 26.346869169102 0 -1 0 0
1988 3 82.96958242526 26.346869169102 0 -1 0 0
1996 3 87.11806100392599 26.346869169102 0 -1 0 0
2004 3 91.266539582592 26.346869169102 0 -1 0 0
2012 3 95.41501816125799 26.346869169102 0 -1 0 0
2024 1 2.0742392836369987 27.544467989830004 1.261635047205 0 0 0
2032 1 6.222717862303 27.544467989830004 1.261635047205 0 0 0
2040 1 10.371196440968994 27.544467989830004 1.261635047205 0 0 0
2048 1 14.519675019634995 27.544467989830004 1.261635047205 0 0 0
2056 1 18.668153598300997 27.544467989830004 1.261635047205 0 0 0
2064 1 22.816632176966998 27.544467989830004 1.261635047205 0 0 0
2072 1 26.965110755633 27.544467989830004 1.261635047205 0 0 0
2080 1 31.113589334299 27.544467989830004 1.261635047205 0 0 0
2088 1 35.262067912965 27.544467989830004 1.261635047205 0 0 0
2096 1 39.410546491631 27.544467989830004 1.261635047205 0 0 0
2104 1 43.55902507029699 27.544467989830004 1.261635047205 0 0 0
2112 1 47.70750364896299 27.544467989830004 1.261635047205 0 0 0
1928 1 51.855982227629 27.544467989830004 1.261635047205 -1 0 0
1936 1 56.004460806295 27.544467989830004 1.261635047205 -1 0 0
1944 1 60.152939384961 27.544467989830004 1.261635047205 -1 0 0
1952 1 64.30141796362699 27.544467989830004 1.261635047205 -1 0 0
1960 1 68.449896542293 27.544467989830004 1.261635047205 -1 0 0
1968 1 72.59837512095899 27.544467989830004 1.261635047205 -1 0 0
1976 1 76.74685369962499 27.544467989830004 1.261635047205 -1 0 0
1984 1 80.895332278291 27.544467989830004 1.261635047205 -1 0 0
1992 1 85.043810856957 27.544467989830004 1.261635047205 -1 0 0
2000 1 89.192289435623 27.544467989830004 1.261635047205 -1 0 0
2008 1 93.340768014289 27.544467989830004 1.261635047205 -1 0 0
2016 1 97.489246592955 27.544467989830004 1.261635047205 -1 0 0
2215 1 0 31.137227754442 1.261635047205 0 0 0
2211 3 2.074250146969 29.939628933713998 0 0 0 0
2223 1 4.148478578665994 31.137227754442 1.261635047205 0 0 0
2219 3 6.222728725634994 29.939628933713998 0 0 0 0
2231 1 8.296957157331995 31.137227754442 1.261635047205 0 0 0
2227 3 10.371207304300995 29.939628933713998 0 0 0 0
2239 1 12.445435735997997 31.137227754442 1.261635047205 0 0 0
2235 3 14.519685882967003 29.939628933713998 0 0 0 0
2247 1 16.593914314663998 31.137227754442 1.261635047205 0 0 0
2243 3 18.66816446163299 29.939628933713998 0 0 0 0
2255 1 20.74239289333 31.137227754442 1.261635047205 0 0 0
2251 3 22.81664304029899 29.939628933713998 0 0 0 0
2263 1 24.890871471996 31.137227754442 1.261635047205 0 0 0
2259 3 26.965121618964993 29.939628933713998 0 0 0 0
2271 1 29.039350050662 31.137227754442 1.261635047205 0 0 0
2267 3 31.113600197630994 29.939628933713998 0 0 0 0
2279 1 33.187828629328 31.137227754442 1.261635047205 0 0 0
2275 3 35.262078776296995 29.939628933713998 0 0 0 0
2287 1 37.33630720799399 31.137227754442 1.261635047205 0 0 0
2283 3 39.410557354963 29.939628933713998 0 0 0 0
2295 1 41.48478578665999 31.137227754442 1.261635047205 0 0 0
2291 3 43.559035933629 29.939628933713998 0 0 0 0
2303 1 45.63326436532599 31.137227754442 1.261635047205 0 0 0
2299 3 47.707514512295 29.939628933713998 0 0 0 0
2119 1 49.781742943992 31.137227754442 1.261635047205 -1 0 0
2115 3 51.855993090961 29.939628933713998 0 -1 0 0
2127 1 53.930221522657995 31.137227754442 1.261635047205 -1 0 0
2123 3 56.004471669626994 29.939628933713998 0 -1 0 0
2135 1 58.078700101323996 31.137227754442 1.261635047205 -1 0 0
2131 3 60.152950248292996 29.939628933713998 0 -1 0 0
2143 1 62.22717867999 31.137227754442 1.261635047205 -1 0 0
2139 3 64.301428826959 29.939628933713998 0 -1 0 0
2151 1 66.37565725865599 31.137227754442 1.261635047205 -1 0 0
2147 3 68.449907405625 29.939628933713998 0 -1 0 0
2159 1 70.52413583732199 31.137227754442 1.261635047205 -1 0 0
2155 3 72.598385984291 29.939628933713998 0 -1 0 0
2167 1 74.672614415988 31.137227754442 1.261635047205 -1 0 0
2163 3 76.746864562957 29.939628933713998 0 -1 0 0
2175 1 78.821092994654 31.137227754442 1.261635047205 -1 0 0
2171 3 80.895343141623 29.939628933713998 0 -1 0 0
2183 1 82.96957157332 31.137227754442 1.261635047205 -1 0 0
2179 3 85.043821720289 29.939628933713998 0 -1 0 0
2191 1 87.118050151986 31.137227754442 1.261635047205 -1 0 0
2187 3 89.19230029895499 29.939628933713998 0 -1 0 0
2199 1 91.266528730652 31.137227754442 1.261635047205 -1 0 0
2195 3 93.340778877621 29.939628933713998 0 -1 0 0
2207 1 95.415007309318 31.137227754442 1.261635047205 -1 0 0
2203 3 97.48925745628699 29.939628933713998 0 -1 0 0
2212 3 1.0851939997280624e-05 33.53238869832601 0 0 0 0
2220 3 4.1484894306059985 33.53238869832601 0 0 0 0
2228 3 8.296968009272 33.53238869832601 0 0 0 0
2236 3 12.445446587937994 33.53238869832601 0 0 0 0
2244 3 16.593925166604002 33.53238869832601 0 0 0 0
2252 3 20.742403745270003 33.53238869832601 0 0 0 0
2260 3 24.89088232393599 33.53238869832601 0 0 0 0
2268 3 29.03936090260199 33.53238869832601 0 0 0 0
2276 3 33.18783948126799 33.53238869832601 0 0 0 0
2284 3 37.336318059933994 33.53238869832601 0 0 0 0
2292 3 41.484796638599995 33.53238869832601 0 0 0 0
2300 3 45.633275217266 33.53238869832601 0 0 0 0
2116 3 49.781753795932 33.53238869832601 0 -1 0 0
2124 3 53.930232374598 33.53238869832601 0 -1 0 0
2132 3 58.07871095326399 33.53238869832601 0 -1 0 0
2140 3 62.227189531929994 33.53238869832601 0 -1 0 0
2148 3 66.375668110596 33.53238869832601 0 -1 0 0
2156 3 70.524146689262 33.53238869832601 0 -1 0 0
2164 3 74.672625267928 33.53238869832601 0 -1 0 0
2172 3 78.821103846594 33.53238869832601 0 -1 0 0
2180 3 82.96958242526 33.53238869832601 0 -1 0 0
2188 3 87.11806100392599 33.53238869832601 0 -1 0 0
2196 3 91.266539582592 33.53238869832601 0 -1 0 0
2204 3 95.41501816125799 33.53238869832601 0 -1 0 0
2216 1 2.0742392836369987 34.729987519054 1.261635047205 0 0 0
2224 1 6.222717862303 34.729987519054 1.261635047205 0 0 0
2232 1 10.371196440968994 34.729987519054 1.261635047205 0 0 0
2240 1 14.519675019634995 34.729987519054 1.261635047205 0 0 0
2248 1 18.668153598300997 34.729987519054 1.261635047205 0 0 0
2256 1 22.816632176966998 34.729987519054 1.261635047205 0 0 0
2264 1 26.965110755633 34.729987519054 1.261635047205 0 0 0
2272 1 31.113589334299 34.729987519054 1.261635047205 0 0 0
2280 1 35.262067912965 34.729987519054 1.261635047205 0 0 0
2288 1 39.410546491631 34.729987519054 1.261635047205 0 0 0
2296 1 43.55902507029699 34.729987519054 1.261635047205 0 0 0
2304 1 47.70750364896299 34.729987519054 1.261635047205 0 0 0
2120 1 51.855982227629 34.729987519054 1.261635047205 -1 0 0
2128 1 56.004460806295 34.729987519054 1.261635047205 -1 0 0
2136 1 60.152939384961 34.729987519054 1.261635047205 -1 0 0
2144 1 64.30141796362699 34.729987519054 1.261635047205 -1 0 0
2152 1 68.449896542293 34.729987519054 1.261635047205 -1 0 0
2160 1 72.59837512095899 34.729987519054 1.261635047205 -1 0 0
2168 1 76.74685369962499 34.729987519054 1.261635047205 -1 0 0
2176 1 80.895332278291 34.729987519054 1.261635047205 -1 0 0
2184 1 85.043810856957 34.729987519054 1.261635047205 -1 0 0
2192 1 89.192289435623 34.729987519054 1.261635047205 -1 0 0
2200 1 93.340768014289 34.729987519054 1.261635047205 -1 0 0
2208 1 97.489246592955 34.729987519054 1.261635047205 -1 0 0
2403 3 2.074250146969 37.12514846293801 0 0 0 0
2411 3 6.222728725634994 37.12514846293801 0 0 0 0
2419 3 10.371207304300995 37.12514846293801 0 0 0 0
2427 3 14.519685882967003 37.12514846293801 0 0 0 0
2435 3 18.66816446163299 37.12514846293801 0 0 0 0
2443 3 22.81664304029899 37.12514846293801 0 0 0 0
2451 3 26.965121618964993 37.12514846293801 0 0 0 0
2459 3 31.113600197630994 37.12514846293801 0 0 0 0
2467 3 35.262078776296995 37.12514846293801 0 0 0 0
2475 3 39.410557354963 37.12514846293801 0 0 0 0
2483 3 43.559035933629 37.12514846293801 0 0 0 0
2491 3 47.707514512295 37.12514846293801 0 0 0 0
2307 3 51.855993090961 37.12514846293801 0 -1 0 0
2315 3 56.004471669626994 37.12514846293801 0 -1 0 0
2323 3 60.152950248292996 37.12514846293801 0 -1 0 0
2331 3 64.301428826959 37.12514846293801 0 -1 0 0
2339 3 68.449907405625 37.12514846293801 0 -1 0 0
2347 3 72.598385984291 37.12514846293801 0 -1 0 0
2355 3 76.746864562957 37.12514846293801 0 -1 0 0
2363 3 80.895343141623 37.12514846293801 0 -1 0 0
2371 3 85.043821720289 37.12514846293801 0 -1 0 0
2379 3 89.19230029895499 37.12514846293801 0 -1 0 0
2387 3 93.340778877621 37.12514846293801 0 -1 0 0
2395 3 97.48925745628699 37.12514846293801 0 -1 0 0
2407 1 0 38.322747283666 1.261635047205 0 0 0
2415 1 4.148478578665994 38.322747283666 1.261635047205 0 0 0
2423 1 8.296957157331995 38.322747283666 1.261635047205 0 0 0
2431 1 12.445435735997997 38.322747283666 1.261635047205 0 0 0
2439 1 16.593914314663998 38.322747283666 1.261635047205 0 0 0
2447 1 20.74239289333 38.322747283666 1.261635047205 0 0 0
2455 1 24.890871471996 38.322747283666 1.261635047205 0 0 0
2463 1 29.039350050662 38.322747283666 1.261635047205 0 0 0
2471 1 33.187828629328 38.322747283666 1.261635047205 0 0 0
2479 1 37.33630720799399 38.322747283666 1.261635047205 0 0 0
2487 1 41.48478578665999 38.322747283666 1.261635047205 0 0 0
2495 1 45.63326436532599 38.322747283666 1.261635047205 0 0 0
2311 1 49.781742943992 38.322747283666 1.261635047205 -1 0 0
2319 1 53.930221522657995 38.322747283666 1.261635047205 -1 0 0
2327 1 58.078700101323996 38.322747283666 1.261635047205 -1 0 0
2335 1 62.22717867999 38.322747283666 1.261635047205 -1 0 0
2343 1 66.37565725865599 38.322747283666 1.261635047205 -1 0 0
2351 1 70.52413583732199 38.322747283666 1.261635047205 -1 0 0