LAMMPS data file via write_data, version 29 Aug 2024, timestep = 0, units = metal

2340 atoms
3 atom types

0 100.549121888852 xlo xhi
0 100.47472371228 ylo yhi
0 18.02384132308 zlo zhi

Masses

1 44.955908
2 78.95999999999999
3 78.971

Atoms # atomic

1176 1 1.9336369594009994 0 1.4839820862600002 0 0 0
1182 1 5.800910878202998 0 1.4839820862600002 0 0 0
1188 1 9.668184797004997 0 1.4839820862600002 0 0 0
1194 1 13.535458715807003 0 1.4839820862600002 0 0 0
1200 1 17.402732634608995 0 1.4839820862600002 0 0 0
1206 1 21.270006553410994 0 1.4839820862600002 0 0 0
1212 1 25.137280472213007 0 1.4839820862600002 0 0 0
1218 1 29.004554391015006 0 1.4839820862600002 0 0 0
1224 1 32.871828309817005 0 1.4839820862600002 0 0 0
1230 1 36.739102228619004 0 1.4839820862600002 0 0 0
1236 1 40.606376147421 0 1.4839820862600002 0 0 0
1242 1 44.473650066223 0 1.4839820862600002 0 0 0
1248 1 48.340923985025 0 1.4839820862600002 0 0 0
1098 1 52.208197903827 0 1.4839820862600002 -1 0 0
1104 1 56.075471822629 0 1.4839820862600002 -1 0 0
1110 1 59.942745741431 0 1.4839820862600002 -1 0 0
1116 1 63.810019660232996 0 1.4839820862600002 -1 0 0
1122 1 67.677293579035 0 1.4839820862600002 -1 0 0
1128 1 71.544567497837 0 1.4839820862600002 -1 0 0
1134 1 75.41184141663899 0 1.4839820862600002 -1 0 0
1140 1 79.27911533544099 0 1.4839820862600002 -1 0 0
1146 1 83.14638925424299 0 1.4839820862600002 -1 0 0
1152 1 87.01366317304499 0 1.4839820862600002 -1 0 0
1158 1 90.880937091847 0 1.4839820862600002 -1 0 0
1164 1 94.748211010649 0 1.4839820862600002 -1 0 0
1170 1 98.615484929451 0 1.4839820862600002 -1 0 0
1172 3 1.9336369594009994 2.2327716380510054 0 0 0 0
1331 1 0 3.3491574570760037 1.4839820862600002 0 0 0
1337 1 3.867273918801999 3.3491574570760037 1.4839820862600002 0 0 0
1178 3 5.800910878202998 2.2327716380510054 0 0 0 0
1343 1 7.734547837603998 3.3491574570760037 1.4839820862600002 0 0 0
1184 3 9.668184797004997 2.2327716380510054 0 0 0 0
1349 1 11.601821756406004 3.3491574570760037 1.4839820862600002 0 0 0
1190 3 13.535458715807003 2.2327716380510054 0 0 0 0
1355 1 15.469095675207996 3.3491574570760037 1.4839820862600002 0 0 0
1196 3 17.402732634608995 2.2327716380510054 0 0 0 0
1361 1 19.336369594009994 3.3491574570760037 1.4839820862600002 0 0 0
1202 3 21.270006553410994 2.2327716380510054 0 0 0 0
1367 1 23.203643512811993 3.3491574570760037 1.4839820862600002 0 0 0
1208 3 25.137280472213007 2.2327716380510054 0 0 0 0
1373 1 27.070917431614006 3.3491574570760037 1.4839820862600002 0 0 0
1214 3 29.004554391015006 2.2327716380510054 0 0 0 0
1379 1 30.938191350416005 3.3491574570760037 1.4839820862600002 0 0 0
1220 3 32.871828309817005 2.2327716380510054 0 0 0 0
1385 1 34.805465269218004 3.3491574570760037 1.4839820862600002 0 0 0
1226 3 36.739102228619004 2.2327716380510054 0 0 0 0
1391 1 38.67273918802 3.3491574570760037 1.4839820862600002 0 0 0
1232 3 40.606376147421 2.2327716380510054 0 0 0 0
1397 1 42.540013106822 3.3491574570760037 1.4839820862600002 0 0 0
1238 3 44.473650066223 2.2327716380510054 0 0 0 0
1244 3 48.340923985025 2.2327716380510054 0 0 0 0
1403 1 46.407287025624 3.3491574570760037 1.4839820862600002 0 0 0
1253 1 50.274560944426 3.3491574570760037 1.4839820862600002 -1 0 0
1094 3 52.208197903827 2.2327716380510054 0 -1 0 0
1259 1 54.141834863228 3.3491574570760037 1.4839820862600002 -1 0 0
1100 3 56.075471822629 2.2327716380510054 0 -1 0 0
1265 1 58.00910878203 3.3491574570760037 1.4839820862600002 -1 0 0
1106 3 59.942745741431 2.2327716380510054 0 -1 0 0
1271 1 61.876382700831996 3.3491574570760037 1.4839820862600002 -1 0 0
1112 3 63.810019660232996 2.2327716380510054 0 -1 0 0
1118 3 67.677293579035 2.2327716380510054 0 -1 0 0
1277 1 65.74365661963401 3.3491574570760037 1.4839820862600002 -1 0 0
1124 3 71.544567497837 2.2327716380510054 0 -1 0 0
1283 1 69.61093053843601 3.3491574570760037 1.4839820862600002 -1 0 0
1130 3 75.41184141663899 2.2327716380510054 0 -1 0 0
1289 1 73.47820445723801 3.3491574570760037 1.4839820862600002 -1 0 0
1136 3 79.27911533544099 2.2327716380510054 0 -1 0 0
1295 1 77.34547837604 3.3491574570760037 1.4839820862600002 -1 0 0
1142 3 83.14638925424299 2.2327716380510054 0 -1 0 0
1301 1 81.212752294842 3.3491574570760037 1.4839820862600002 -1 0 0
1148 3 87.01366317304499 2.2327716380510054 0 -1 0 0
1307 1 85.080026213644 3.3491574570760037 1.4839820862600002 -1 0 0
1313 1 88.947300132446 3.3491574570760037 1.4839820862600002 -1 0 0
1154 3 90.880937091847 2.2327716380510054 0 -1 0 0
1160 3 94.748211010649 2.2327716380510054 0 -1 0 0
1319 1 92.814574051248 3.3491574570760037 1.4839820862600002 -1 0 0
1325 1 96.68184797005 3.3491574570760037 1.4839820862600002 -1 0 0
1166 3 98.615484929451 2.2327716380510054 0 -1 0 0
1327 3 0 5.581929095127002 0 0 0 0
1333 3 3.867273918801999 5.581929095127002 0 0 0 0
1339 3 7.734547837603998 5.581929095127002 0 0 0 0
1345 3 11.601821756406004 5.581929095127002 0 0 0 0
1351 3 15.469095675207996 5.581929095127002 0 0 0 0
1357 3 19.336369594009994 5.581929095127002 0 0 0 0
1363 3 23.203643512811993 5.581929095127002 0 0 0 0
1369 3 27.070917431614006 5.581929095127002 0 0 0 0
1375 3 30.938191350416005 5.581929095127002 0 0 0 0
1381 3 34.805465269218004 5.581929095127002 0 0 0 0
1387 3 38.67273918802 5.581929095127002 0 0 0 0
1393 3 42.540013106822 5.581929095127002 0 0 0 0
1399 3 46.407287025624 5.581929095127002 0 0 0 0
1249 3 50.274560944426 5.581929095127002 0 -1 0 0
1255 3 54.141834863228 5.581929095127002 0 -1 0 0
1261 3 58.00910878203 5.581929095127002 0 -1 0 0
1267 3 61.876382700831996 5.581929095127002 0 -1 0 0
1273 3 65.74365661963401 5.581929095127002 0 -1 0 0
1279 3 69.61093053843601 5.581929095127002 0 -1 0 0
1285 3 73.47820445723801 5.581929095127002 0 -1 0 0
1291 3 77.34547837604 5.581929095127002 0 -1 0 0
1297 3 81.212752294842 5.581929095127002 0 -1 0 0
1303 3 85.080026213644 5.581929095127002 0 -1 0 0
1309 3 88.947300132446 5.581929095127002 0 -1 0 0
1315 3 92.814574051248 5.581929095127002 0 -1 0 0
1321 3 96.68184797005 5.581929095127002 0 -1 0 0
1332 1 1.9336369594009994 6.698314914152 1.4839820862600002 0 0 0
1338 1 5.800910878202998 6.698314914152 1.4839820862600002 0 0 0
1344 1 9.668184797004997 6.698314914152 1.4839820862600002 0 0 0
1350 1 13.535458715807003 6.698314914152 1.4839820862600002 0 0 0
1356 1 17.402732634608995 6.698314914152 1.4839820862600002 0 0 0
1362 1 21.270006553410994 6.698314914152 1.4839820862600002 0 0 0
1368 1 25.137280472213007 6.698314914152 1.4839820862600002 0 0 0
1374 1 29.004554391015006 6.698314914152 1.4839820862600002 0 0 0
1380 1 32.871828309817005 6.698314914152 1.4839820862600002 0 0 0
1386 1 36.739102228619004 6.698314914152 1.4839820862600002 0 0 0
1392 1 40.606376147421 6.698314914152 1.4839820862600002 0 0 0
1398 1 44.473650066223 6.698314914152 1.4839820862600002 0 0 0
1404 1 48.340923985025 6.698314914152 1.4839820862600002 0 0 0
1254 1 52.208197903827 6.698314914152 1.4839820862600002 -1 0 0
1260 1 56.075471822629 6.698314914152 1.4839820862600002 -1 0 0
1266 1 59.942745741431 6.698314914152 1.4839820862600002 -1 0 0
1272 1 63.810019660232996 6.698314914152 1.4839820862600002 -1 0 0
1278 1 67.677293579035 6.698314914152 1.4839820862600002 -1 0 0
1284 1 71.544567497837 6.698314914152 1.4839820862600002 -1 0 0
1290 1 75.41184141663899 6.698314914152 1.4839820862600002 -1 0 0
1296 1 79.27911533544099 6.698314914152 1.4839820862600002 -1 0 0
1302 1 83.14638925424299 6.698314914152 1.4839820862600002 -1 0 0
1308 1 87.01366317304499 6.698314914152 1.4839820862600002 -1 0 0
1314 1 90.880937091847 6.698314914152 1.4839820862600002 -1 0 0
1320 1 94.748211010649 6.698314914152 1.4839820862600002 -1 0 0
1326 1 98.615484929451 6.698314914152 1.4839820862600002 -1 0 0
1328 3 1.9336369594009994 8.931086552202999 0 0 0 0
1334 3 5.800910878202998 8.931086552202999 0 0 0 0
1340 3 9.668184797004997 8.931086552202999 0 0 0 0
1346 3 13.535458715807003 8.931086552202999 0 0 0 0
1352 3 17.402732634608995 8.931086552202999 0 0 0 0
1358 3 21.270006553410994 8.931086552202999 0 0 0 0
1364 3 25.137280472213007 8.931086552202999 0 0 0 0
1370 3 29.004554391015006 8.931086552202999 0 0 0 0
1376 3 32.871828309817005 8.931086552202999 0 0 0 0
1382 3 36.739102228619004 8.931086552202999 0 0 0 0
1388 3 40.606376147421 8.931086552202999 0 0 0 0
1394 3 44.473650066223 8.931086552202999 0 0 0 0
1400 3 48.340923985025 8.931086552202999 0 0 0 0
1250 3 52.208197903827 8.931086552202999 0 -1 0 0
1256 3 56.075471822629 8.931086552202999 0 -1 0 0
1262 3 59.942745741431 8.931086552202999 0 -1 0 0
1268 3 63.810019660232996 8.931086552202999 0 -1 0 0
1274 3 67.677293579035 8.931086552202999 0 -1 0 0
1280 3 71.544567497837 8.931086552202999 0 -1 0 0
1286 3 75.41184141663899 8.931086552202999 0 -1 0 0
1292 3 79.27911533544099 8.931086552202999 0 -1 0 0
1298 3 83.14638925424299 8.931086552202999 0 -1 0 0
1304 3 87.01366317304499 8.931086552202999 0 -1 0 0
1310 3 90.880937091847 8.931086552202999 0 -1 0 0
1316 3 94.748211010649 8.931086552202999 0 -1 0 0
1322 3 98.615484929451 8.931086552202999 0 -1 0 0
1487 1 0 10.047472371228004 1.4839820862600002 0 0 0
1493 1 3.867273918801999 10.047472371228004 1.4839820862600002 0 0 0
1499 1 7.734547837603998 10.047472371228004 1.4839820862600002 0 0 0
1505 1 11.601821756406004 10.047472371228004 1.4839820862600002 0 0 0
1511 1 15.469095675207996 10.047472371228004 1.4839820862600002 0 0 0
1517 1 19.336369594009994 10.047472371228004 1.4839820862600002 0 0 0
1523 1 23.203643512811993 10.047472371228004 1.4839820862600002 0 0 0
1529 1 27.070917431614006 10.047472371228004 1.4839820862600002 0 0 0
1535 1 30.938191350416005 10.047472371228004 1.4839820862600002 0 0 0
1541 1 34.805465269218004 10.047472371228004 1.4839820862600002 0 0 0
1547 1 38.67273918802 10.047472371228004 1.4839820862600002 0 0 0
1553 1 42.540013106822 10.047472371228004 1.4839820862600002 0 0 0
1559 1 46.407287025624 10.047472371228004 1.4839820862600002 0 0 0
1409 1 50.274560944426 10.047472371228004 1.4839820862600002 -1 0 0
1415 1 54.141834863228 10.047472371228004 1.4839820862600002 -1 0 0
1421 1 58.00910878203 10.047472371228004 1.4839820862600002 -1 0 0
1427 1 61.876382700831996 10.047472371228004 1.4839820862600002 -1 0 0
1433 1 65.74365661963401 10.047472371228004 1.4839820862600002 -1 0 0
1439 1 69.61093053843601 10.047472371228004 1.4839820862600002 -1 0 0
1445 1 73.47820445723801 10.047472371228004 1.4839820862600002 -1 0 0
1451 1 77.34547837604 10.047472371228004 1.4839820862600002 -1 0 0
1457 1 81.212752294842 10.047472371228004 1.4839820862600002 -1 0 0
1463 1 85.080026213644 10.047472371228004 1.4839820862600002 -1 0 0
1469 1 88.947300132446 10.047472371228004 1.4839820862600002 -1 0 0
1475 1 92.814574051248 10.047472371228004 1.4839820862600002 -1 0 0
1481 1 96.68184797005 10.047472371228004 1.4839820862600002 -1 0 0
1483 3 0 12.280244009279002 0 0 0 0
1488 1 1.9336369594009994 13.396629828304 1.4839820862600002 0 0 0
1489 3 3.867273918801999 12.280244009279002 0 0 0 0
1494 1 5.800910878202998 13.396629828304 1.4839820862600002 0 0 0
1495 3 7.734547837603998 12.280244009279002 0 0 0 0
1500 1 9.668184797004997 13.396629828304 1.4839820862600002 0 0 0
1501 3 11.601821756406004 12.280244009279002 0 0 0 0
1507 3 15.469095675207996 12.280244009279002 0 0 0 0
1506 1 13.535458715807003 13.396629828304 1.4839820862600002 0 0 0
1512 1 17.402732634608995 13.396629828304 1.4839820862600002 0 0 0
1513 3 19.336369594009994 12.280244009279002 0 0 0 0
1518 1 21.270006553410994 13.396629828304 1.4839820862600002 0 0 0
1519 3 23.203643512811993 12.280244009279002 0 0 0 0
1524 1 25.137280472213007 13.396629828304 1.4839820862600002 0 0 0
1525 3 27.070917431614006 12.280244009279002 0 0 0 0
1530 1 29.004554391015006 13.396629828304 1.4839820862600002 0 0 0
1531 3 30.938191350416005 12.280244009279002 0 0 0 0
1536 1 32.871828309817005 13.396629828304 1.4839820862600002 0 0 0
1537 3 34.805465269218004 12.280244009279002 0 0 0 0
1542 1 36.739102228619004 13.396629828304 1.4839820862600002 0 0 0
1543 3 38.67273918802 12.280244009279002 0 0 0 0
1548 1 40.606376147421 13.396629828304 1.4839820862600002 0 0 0
1549 3 42.540013106822 12.280244009279002 0 0 0 0
1554 1 44.473650066223 13.396629828304 1.4839820862600002 0 0 0
1555 3 46.407287025624 12.280244009279002 0 0 0 0
1560 1 48.340923985025 13.396629828304 1.4839820862600002 0 0 0
1405 3 50.274560944426 12.280244009279002 0 -1 0 0
1410 1 52.208197903827 13.396629828304 1.4839820862600002 -1 0 0
1411 3 54.141834863228 12.280244009279002 0 -1 0 0
1416 1 56.075471822629 13.396629828304 1.4839820862600002 -1 0 0
1417 3 58.00910878203 12.280244009279002 0 -1 0 0
1422 1 59.942745741431 13.396629828304 1.4839820862600002 -1 0 0
1423 3 61.876382700831996 12.280244009279002 0 -1 0 0
1428 1 63.810019660232996 13.396629828304 1.4839820862600002 -1 0 0
1429 3 65.74365661963401 12.280244009279002 0 -1 0 0
1434 1 67.677293579035 13.396629828304 1.4839820862600002 -1 0 0
1435 3 69.61093053843601 12.280244009279002 0 -1 0 0
1440 1 71.544567497837 13.396629828304 1.4839820862600002 -1 0 0
1441 3 73.47820445723801 12.280244009279002 0 -1 0 0
1446 1 75.41184141663899 13.396629828304 1.4839820862600002 -1 0 0
1447 3 77.34547837604 12.280244009279002 0 -1 0 0
1452 1 79.27911533544099 13.396629828304 1.4839820862600002 -1 0 0
1453 3 81.212752294842 12.280244009279002 0 -1 0 0
1458 1 83.14638925424299 13.396629828304 1.4839820862600002 -1 0 0
1459 3 85.080026213644 12.280244009279002 0 -1 0 0
1464 1 87.01366317304499 13.396629828304 1.4839820862600002 -1 0 0
1465 3 88.947300132446 12.280244009279002 0 -1 0 0
1470 1 90.880937091847 13.396629828304 1.4839820862600002 -1 0 0
1471 3 92.814574051248 12.280244009279002 0 -1 0 0
1476 1 94.748211010649 13.396629828304 1.4839820862600002 -1 0 0
1477 3 96.68184797005 12.280244009279002 0 -1 0 0
1482 1 98.615484929451 13.396629828304 1.4839820862600002 -1 0 0
1484 3 1.9336369594009994 15.629401466355006 0 0 0 0
1643 1 0 16.745787285380004 1.4839820862600002 0 0 0
1649 1 3.867273918801999 16.745787285380004 1.4839820862600002 0 0 0
1490 3 5.800910878202998 15.629401466355006 0 0 0 0
1655 1 7.734547837603998 16.745787285380004 1.4839820862600002 0 0 0
1496 3 9.668184797004997 15.629401466355006 0 0 0 0
1661 1 11.601821756406004 16.745787285380004 1.4839820862600002 0 0 0
1502 3 13.535458715807003 15.629401466355006 0 0 0 0
1667 1 15.469095675207996 16.745787285380004 1.4839820862600002 0 0 0
1508 3 17.402732634608995 15.629401466355006 0 0 0 0
1673 1 19.336369594009994 16.745787285380004 1.4839820862600002 0 0 0
1514 3 21.270006553410994 15.629401466355006 0 0 0 0
1679 1 23.203643512811993 16.745787285380004 1.4839820862600002 0 0 0
1520 3 25.137280472213007 15.629401466355006 0 0 0 0
1685 1 27.070917431614006 16.745787285380004 1.4839820862600002 0 0 0
1526 3 29.004554391015006 15.629401466355006 0 0 0 0
1691 1 30.938191350416005 16.745787285380004 1.4839820862600002 0 0 0
1532 3 32.871828309817005 15.629401466355006 0 0 0 0
1697 1 34.805465269218004 16.745787285380004 1.4839820862600002 0 0 0
1538 3 36.739102228619004 15.629401466355006 0 0 0 0
1703 1 38.67273918802 16.745787285380004 1.4839820862600002 0 0 0
1544 3 40.606376147421 15.629401466355006 0 0 0 0
1709 1 42.540013106822 16.745787285380004 1.4839820862600002 0 0 0
1550 3 44.473650066223 15.629401466355006 0 0 0 0
1556 3 48.340923985025 15.629401466355006 0 0 0 0
1715 1 46.407287025624 16.745787285380004 1.4839820862600002 0 0 0
1565 1 50.274560944426 16.745787285380004 1.4839820862600002 -1 0 0
1406 3 52.208197903827 15.629401466355006 0 -1 0 0
1571 1 54.141834863228 16.745787285380004 1.4839820862600002 -1 0 0
1412 3 56.075471822629 15.629401466355006 0 -1 0 0
1577 1 58.00910878203 16.745787285380004 1.4839820862600002 -1 0 0
1418 3 59.942745741431 15.629401466355006 0 -1 0 0
1583 1 61.876382700831996 16.745787285380004 1.4839820862600002 -1 0 0
1424 3 63.810019660232996 15.629401466355006 0 -1 0 0
1430 3 67.677293579035 15.629401466355006 0 -1 0 0
1589 1 65.74365661963401 16.745787285380004 1.4839820862600002 -1 0 0
1436 3 71.544567497837 15.629401466355006 0 -1 0 0
1595 1 69.61093053843601 16.745787285380004 1.4839820862600002 -1 0 0
1442 3 75.41184141663899 15.629401466355006 0 -1 0 0
1601 1 73.47820445723801 16.745787285380004 1.4839820862600002 -1 0 0
1448 3 79.27911533544099 15.629401466355006 0 -1 0 0
1607 1 77.34547837604 16.745787285380004 1.4839820862600002 -1 0 0
1454 3 83.14638925424299 15.629401466355006 0 -1 0 0
1613 1 81.212752294842 16.745787285380004 1.4839820862600002 -1 0 0
1460 3 87.01366317304499 15.629401466355006 0 -1 0 0
1619 1 85.080026213644 16.745787285380004 1.4839820862600002 -1 0 0
1625 1 88.947300132446 16.745787285380004 1.4839820862600002 -1 0 0
1466 3 90.880937091847 15.629401466355006 0 -1 0 0
1472 3 94.748211010649 15.629401466355006 0 -1 0 0
1631 1 92.814574051248 16.745787285380004 1.4839820862600002 -1 0 0
1637 1 96.68184797005 16.745787285380004 1.4839820862600002 -1 0 0
1478 3 98.615484929451 15.629401466355006 0 -1 0 0
1639 3 0 18.978558923430995 0 0 0 0
1645 3 3.867273918801999 18.978558923430995 0 0 0 0
1651 3 7.734547837603998 18.978558923430995 0 0 0 0
1657 3 11.601821756406004 18.978558923430995 0 0 0 0
1663 3 15.469095675207996 18.978558923430995 0 0 0 0
1669 3 19.336369594009994 18.978558923430995 0 0 0 0
1675 3 23.203643512811993 18.978558923430995 0 0 0 0
1681 3 27.070917431614006 18.978558923430995 0 0 0 0
1687 3 30.938191350416005 18.978558923430995 0 0 0 0
1693 3 34.805465269218004 18.978558923430995 0 0 0 0
1699 3 38.67273918802 18.978558923430995 0 0 0 0
1705 3 42.540013106822 18.978558923430995 0 0 0 0
1711 3 46.407287025624 18.978558923430995 0 0 0 0
1561 3 50.274560944426 18.978558923430995 0 -1 0 0
1567 3 54.141834863228 18.978558923430995 0 -1 0 0
1573 3 58.00910878203 18.978558923430995 0 -1 0 0
1579 3 61.876382700831996 18.978558923430995 0 -1 0 0
1585 3 65.74365661963401 18.978558923430995 0 -1 0 0
1591 3 69.61093053843601 18.978558923430995 0 -1 0 0
1597 3 73.47820445723801 18.978558923430995 0 -1 0 0
1603 3 77.34547837604 18.978558923430995 0 -1 0 0
1609 3 81.212752294842 18.978558923430995 0 -1 0 0
1615 3 85.080026213644 18.978558923430995 0 -1 0 0
1621 3 88.947300132446 18.978558923430995 0 -1 0 0
1627 3 92.814574051248 18.978558923430995 0 -1 0 0
1633 3 96.68184797005 18.978558923430995 0 -1 0 0
1644 1 1.9336369594009994 20.094944742456008 1.4839820862600002 0 0 0
1650 1 5.800910878202998 20.094944742456008 1.4839820862600002 0 0 0
1656 1 9.668184797004997 20.094944742456008 1.4839820862600002 0 0 0
1662 1 13.535458715807003 20.094944742456008 1.4839820862600002 0 0 0
1668 1 17.402732634608995 20.094944742456008 1.4839820862600002 0 0 0
1674 1 21.270006553410994 20.094944742456008 1.4839820862600002 0 0 0
1680 1 25.137280472213007 20.094944742456008 1.4839820862600002 0 0 0
1686 1 29.004554391015006 20.094944742456008 1.4839820862600002 0 0 0
1692 1 32.871828309817005 20.094944742456008 1.4839820862600002 0 0 0
1698 1 36.739102228619004 20.094944742456008 1.4839820862600002 0 0 0
1704 1 40.606376147421 20.094944742456008 1.4839820862600002 0 0 0
1710 1 44.473650066223 20.094944742456008 1.4839820862600002 0 0 0
1716 1 48.340923985025 20.094944742456008 1.4839820862600002 0 0 0
1566 1 52.208197903827 20.094944742456008 1.4839820862600002 -1 0 0
1572 1 56.075471822629 20.094944742456008 1.4839820862600002 -1 0 0
1578 1 59.942745741431 20.094944742456008 1.4839820862600002 -1 0 0
1584 1 63.810019660232996 20.094944742456008 1.4839820862600002 -1 0 0
1590 1 67.677293579035 20.094944742456008 1.4839820862600002 -1 0 0
1596 1 71.544567497837 20.094944742456008 1.4839820862600002 -1 0 0
1602 1 75.41184141663899 20.094944742456008 1.4839820862600002 -1 0 0
1608 1 79.27911533544099 20.094944742456008 1.4839820862600002 -1 0 0
1614 1 83.14638925424299 20.094944742456008 1.4839820862600002 -1 0 0
1620 1 87.01366317304499 20.094944742456008 1.4839820862600002 -1 0 0
1626 1 90.880937091847 20.094944742456008 1.4839820862600002 -1 0 0
1632 1 94.748211010649 20.094944742456008 1.4839820862600002 -1 0 0
1638 1 98.615484929451 20.094944742456008 1.4839820862600002 -1 0 0
1640 3 1.9336369594009994 22.327716380507 0 0 0 0
1646 3 5.800910878202998 22.327716380507 0 0 0 0
1652 3 9.668184797004997 22.327716380507 0 0 0 0
1658 3 13.535458715807003 22.327716380507 0 0 0 0
1664 3 17.402732634608995 22.327716380507 0 0 0 0
1670 3 21.270006553410994 22.327716380507 0 0 0 0
1676 3 25.137280472213007 22.327716380507 0 0 0 0
1682 3 29.004554391015006 22.327716380507 0 0 0 0
1688 3 32.871828309817005 22.327716380507 0 0 0 0
1694 3 36.739102228619004 22.327716380507 0 0 0 0
1700 3 40.606376147421 22.327716380507 0 0 0 0
1706 3 44.473650066223 22.327716380507 0 0 0 0
1712 3 48.340923985025 22.327716380507 0 0 0 0
1562 3 52.208197903827 22.327716380507 0 -1 0 0
1568 3 56.075471822629 22.327716380507 0 -1 0 0
1574 3 59.942745741431 22.327716380507 0 -1 0 0
1580 3 63.810019660232996 22.327716380507 0 -1 0 0
1586 3 67.677293579035 22.327716380507 0 -1 0 0
1592 3 71.544567497837 22.327716380507 0 -1 0 0
1598 3 75.41184141663899 22.327716380507 0 -1 0 0
1604 3 79.27911533544099 22.327716380507 0 -1 0 0
1610 3 83.14638925424299 22.327716380507 0 -1 0 0
1616 3 87.01366317304499 22.327716380507 0 -1 0 0
1622 3 90.880937091847 22.327716380507 0 -1 0 0
1628 3 94.748211010649 22.327716380507 0 -1 0 0
1634 3 98.615484929451 22.327716380507 0 -1 0 0
1799 1 0 23.444102199531997 1.4839820862600002 0 0 0
1805 1 3.867273918801999 23.444102199531997 1.4839820862600002 0 0 0
1811 1 7.734547837603998 23.444102199531997 1.4839820862600002 0 0 0
1817 1 11.601821756406004 23.444102199531997 1.4839820862600002 0 0 0
1823 1 15.469095675207996 23.444102199531997 1.4839820862600002 0 0 0
1829 1 19.336369594009994 23.444102199531997 1.4839820862600002 0 0 0
1835 1 23.203643512811993 23.444102199531997 1.4839820862600002 0 0 0
1841 1 27.070917431614006 23.444102199531997 1.4839820862600002 0 0 0
1847 1 30.938191350416005 23.444102199531997 1.4839820862600002 0 0 0
1853 1 34.805465269218004 23.444102199531997 1.4839820862600002 0 0 0
1859 1 38.67273918802 23.444102199531997 1.4839820862600002 0 0 0
1865 1 42.540013106822 23.444102199531997 1.4839820862600002 0 0 0
1871 1 46.407287025624 23.444102199531997 1.4839820862600002 0 0 0
1721 1 50.274560944426 23.444102199531997 1.4839820862600002 -1 0 0
1727 1 54.141834863228 23.444102199531997 1.4839820862600002 -1 0 0
1733 1 58.00910878203 23.444102199531997 1.4839820862600002 -1 0 0
1739 1 61.876382700831996 23.444102199531997 1.4839820862600002 -1 0 0
1745 1 65.74365661963401 23.444102199531997 1.4839820862600002 -1 0 0
1751 1 69.61093053843601 23.444102199531997 1.4839820862600002 -1 0 0
1757 1 73.47820445723801 23.444102199531997 1.4839820862600002 -1 0 0
1763 1 77.34547837604 23.444102199531997 1.4839820862600002 -1 0 0
1769 1 81.212752294842 23.444102199531997 1.4839820862600002 -1 0 0
1775 1 85.080026213644 23.444102199531997 1.4839820862600002 -1 0 0
1781 1 88.947300132446 23.444102199531997 1.4839820862600002 -1 0 0
1787 1 92.814574051248 23.444102199531997 1.4839820862600002 -1 0 0
1793 1 96.68184797005 23.444102199531997 1.4839820862600002 -1 0 0
1795 3 0 25.676873837583003 0 0 0 0
1800 1 1.9336369594009994 26.793259656608 1.4839820862600002 0 0 0
1801 3 3.867273918801999 25.676873837583003 0 0 0 0
1806 1 5.800910878202998 26.793259656608 1.4839820862600002 0 0 0
1807 3 7.734547837603998 25.676873837583003 0 0 0 0
1812 1 9.668184797004997 26.793259656608 1.4839820862600002 0 0 0
1813 3 11.601821756406004 25.676873837583003 0 0 0 0
1819 3 15.469095675207996 25.676873837583003 0 0 0 0
1818 1 13.535458715807003 26.793259656608 1.4839820862600002 0 0 0
1824 1 17.402732634608995 26.793259656608 1.4839820862600002 0 0 0
1825 3 19.336369594009994 25.676873837583003 0 0 0 0
1830 1 21.270006553410994 26.793259656608 1.4839820862600002 0 0 0
1831 3 23.203643512811993 25.676873837583003 0 0 0 0
1836 1 25.137280472213007 26.793259656608 1.4839820862600002 0 0 0
1837 3 27.070917431614006 25.676873837583003 0 0 0 0
1842 1 29.004554391015006 26.793259656608 1.4839820862600002 0 0 0
1843 3 30.938191350416005 25.676873837583003 0 0 0 0
1848 1 32.871828309817005 26.793259656608 1.4839820862600002 0 0 0
1849 3 34.805465269218004 25.676873837583003 0 0 0 0
1854 1 36.739102228619004 26.793259656608 1.4839820862600002 0 0 0
1855 3 38.67273918802 25.676873837583003 0 0 0 0
1860 1 40.606376147421 26.793259656608 1.4839820862600002 0 0 0
1861 3 42.540013106822 25.676873837583003 0 0 0 0
1866 1 44.473650066223 26.793259656608 1.4839820862600002 0 0 0
1867 3 46.407287025624 25.676873837583003 0 0 0 0
1872 1 48.340923985025 26.793259656608 1.4839820862600002 0 0 0
1717 3 50.274560944426 25.676873837583003 0 -1 0 0
1722 1 52.208197903827 26.793259656608 1.4839820862600002 -1 0 0
1723 3 54.141834863228 25.676873837583003 0 -1 0 0
1728 1 56.075471822629 26.793259656608 1.4839820862600002 -1 0 0
1729 3 58.00910878203 25.676873837583003 0 -1 0 0
1734 1 59.942745741431 26.793259656608 1.4839820862600002 -1 0 0
1735 3 61.876382700831996 25.676873837583003 0 -1 0 0
1740 1 63.810019660232996 26.793259656608 1.4839820862600002 -1 0 0
1741 3 65.74365661963401 25.676873837583003 0 -1 0 0
1746 1 67.677293579035 26.793259656608 1.4839820862600002 -1 0 0
1747 3 69.61093053843601 25.676873837583003 0 -1 0 0
1752 1 71.544567497837 26.793259656608 1.4839820862600002 -1 0 0
1753 3 73.47820445723801 25.676873837583003 0 -1 0 0
1758 1 75.41184141663899 26.793259656608 1.4839820862600002 -1 0 0
1759 3 77.34547837604 25.676873837583003 0 -1 0 0
1764 1 79.27911533544099 26.793259656608 1.4839820862600002 -1 0 0
1765 3 81.212752294842 25.676873837583003 0 -1 0 0
1770 1 83.14638925424299 26.793259656608 1.4839820862600002 -1 0 0
1771 3 85.080026213644 25.676873837583003 0 -1 0 0
1776 1 87.01366317304499 26.793259656608 1.4839820862600002 -1 0 0
1777 3 88.947300132446 25.676873837583003 0 -1 0 0
1782 1 90.880937091847 26.793259656608 1.4839820862600002 -1 0 0
1783 3 92.814574051248 25.676873837583003 0 -1 0 0
1788 1 94.748211010649 26.793259656608 1.4839820862600002 -1 0 0
1789 3 96.68184797005 25.676873837583003 0 -1 0 0
1794 1 98.615484929451 26.793259656608 1.4839820862600002 -1 0 0
1796 3 1.9336369594009994 29.026031294659006 0 0 0 0
1955 1 0 30.142417113684004 1.4839820862600002 0 0 0
1961 1 3.867273918801999 30.142417113684004 1.4839820862600002 0 0 0
1802 3 5.800910878202998 29.026031294659006 0 0 0 0
1967 1 7.734547837603998 30.142417113684004 1.4839820862600002 0 0 0
1808 3 9.668184797004997 29.026031294659006 0 0 0 0
1973 1 11.601821756406004 30.142417113684004 1.4839820862600002 0 0 0
1814 3 13.535458715807003 29.026031294659006 0 0 0 0
1979 1 15.469095675207996 30.142417113684004 1.4839820862600002 0 0 0
1820 3 17.402732634608995 29.026031294659006 0 0 0 0
1985 1 19.336369594009994 30.142417113684004 1.4839820862600002 0 0 0
1826 3 21.270006553410994 29.026031294659006 0 0 0 0
1991 1 23.203643512811993 30.142417113684004 1.4839820862600002 0 0 0
1832 3 25.137280472213007 29.026031294659006 0 0 0 0
1997 1 27.070917431614006 30.142417113684004 1.4839820862600002 0 0 0
1838 3 29.004554391015006 29.026031294659006 0 0 0 0
2003 1 30.938191350416005 30.142417113684004 1.4839820862600002 0 0 0
1844 3 32.871828309817005 29.026031294659006 0 0 0 0
2009 1 34.805465269218004 30.142417113684004 1.4839820862600002 0 0 0
1850 3 36.739102228619004 29.026031294659006 0 0 0 0
2015 1 38.67273918802 30.142417113684004 1.4839820862600002 0 0 0
1856 3 40.606376147421 29.026031294659006 0 0 0 0
2021 1 42.540013106822 30.142417113684004 1.4839820862600002 0 0 0
1862 3 44.473650066223 29.026031294659006 0 0 0 0
1868 3 48.340923985025 29.026031294659006 0 0 0 0
2027 1 46.407287025624 30.142417113684004 1.4839820862600002 0 0 0
1877 1 50.274560944426 30.142417113684004 1.4839820862600002 -1 0 0
1718 3 52.208197903827 29.026031294659006 0 -1 0 0
1883 1 54.141834863228 30.142417113684004 1.4839820862600002 -1 0 0
1724 3 56.075471822629 29.026031294659006 0 -1 0 0
1889 1 58.00910878203 30.142417113684004 1.4839820862600002 -1 0 0
1730 3 59.942745741431 29.026031294659006 0 -1 0 0
1895 1 61.876382700831996 30.142417113684004 1.4839820862600002 -1 0 0
1736 3 63.810019660232996 29.026031294659006 0 -1 0 0
1742 3 67.677293579035 29.026031294659006 0 -1 0 0
1901 1 65.74365661963401 30.142417113684004 1.4839820862600002 -1 0 0
1748 3 71.544567497837 29.026031294659006 0 -1 0 0
1907 1 69.61093053843601 30.142417113684004 1.4839820862600002 -1 0 0
1754 3 75.41184141663899 29.026031294659006 0 -1 0 0
1913 1 73.47820445723801 30.142417113684004 1.4839820862600002 -1 0 0
1760 3 79.27911533544099 29.026031294659006 0 -1 0 0
1919 1 77.34547837604 30.142417113684004 1.4839820862600002 -1 0 0
1766 3 83.14638925424299 29.026031294659006 0 -1 0 0
1925 1 81.212752294842 30.142417113684004 1.4839820862600002 -1 0 0
1772 3 87.01366317304499 29.026031294659006 0 -1 0 0
1931 1 85.080026213644 30.142417113684004 1.4839820862600002 -1 0 0
1937 1 88.947300132446 30.142417113684004 1.4839820862600002 -1 0 0
1778 3 90.880937091847 29.026031294659006 0 -1 0 0
1784 3 94.748211010649 29.026031294659006 0 -1 0 0
1943 1 92.814574051248 30.142417113684004 1.4839820862600002 -1 0 0
1949 1 96.68184797005 30.142417113684004 1.4839820862600002 -1 0 0
1790 3 98.615484929451 29.026031294659006 0 -1 0 0
1951 3 0 32.375188751734996 0 0 0 0
1957 3 3.867273918801999 32.375188751734996 0 0 0 0
1963 3 7.734547837603998 32.375188751734996 0 0 0 0
1969 3 11.601821756406004 32.375188751734996 0 0 0 0
1975 3 15.469095675207996 32.375188751734996 0 0 0 0
1981 3 19.336369594009994 32.375188751734996 0 0 0 0
1987 3 23.203643512811993 32.375188751734996 0 0 0 0
1993 3 27.070917431614006 32.375188751734996 0 0 0 0
1999 3 30.938191350416005 32.375188751734996 0 0 0 0
2005 3 34.805465269218004 32.375188751734996 0 0 0 0
2011 3 38.67273918802 32.375188751734996 0 0 0 0
2017 3 42.540013106822 32.375188751734996 0 0 0 0
2023 3 46.407287025624 32.375188751734996 0 0 0 0