LAMMPS data file via write_data, version 29 Aug 2024, timestep = 2, units = metal

7020 atoms
9 atom types

0 100.549121888852 xlo xhi
0 100.47472371228 ylo yhi
-50 50 zlo zhi

Masses

1 44.955908
2 44.955908
3 44.955908
4 78.971
5 78.971
6 78.971
7 78.971
8 78.971
9 78.971

Atoms # atomic

1172 5 1.9336369594009994 2.2327745145192224 -0.09001214712392273 0 0 0
1331 1 0 3.3485369790372976 1.4849891361919738 0 0 0
1337 1 3.867273918801999 3.3485369790372976 1.4849891361919738 0 0 0
1178 5 5.800910878202998 2.2327745145192224 -0.09001214712392279 0 0 0
1327 5 0 5.581931971595221 -0.09001214712392126 0 0 0
1333 5 3.867273918801999 5.581931971595221 -0.09001214712392126 0 0 0
1343 1 7.734547837603998 3.3485369790372976 1.484989136191974 0 0 0
1184 5 9.668184797004999 2.232774514519223 -0.09001214712392198 0 0 0
1349 1 11.601821756406002 3.3485369790372976 1.484989136191974 0 0 0
1339 5 7.734547837603999 5.581931971595221 -0.09001214712392082 0 0 0
1345 5 11.601821756406 5.581931971595221 -0.09001214712392115 0 0 0
1190 5 13.535458715807 2.232774514519222 -0.09001214712392298 0 0 0
1355 1 15.469095675207997 3.3485369790372976 1.4849891361919736 0 0 0
1196 5 17.402732634608995 2.2327745145192224 -0.09001214712392319 0 0 0
1351 5 15.469095675207997 5.58193197159522 -0.09001214712392214 0 0 0
1361 1 19.336369594009994 3.3485369790372976 1.484989136191974 0 0 0
1202 5 21.270006553410994 2.232774514519223 -0.09001214712392192 0 0 0
1367 1 23.203643512811997 3.3485369790372976 1.4849891361919738 0 0 0
1357 5 19.336369594009994 5.581931971595221 -0.09001214712392133 0 0 0
1363 5 23.203643512811997 5.581931971595222 -0.09001214712391975 0 0 0
1208 5 25.137280472213003 2.2327745145192237 -0.09001214712392103 0 0 0
1373 1 27.070917431614006 3.3485369790372976 1.4849891361919738 0 0 0
1214 5 29.004554391015006 2.2327745145192224 -0.09001214712392284 0 0 0
1369 5 27.070917431614006 5.581931971595221 -0.09001214712392046 0 0 0
1379 1 30.938191350416005 3.3485369790372976 1.4849891361919738 0 0 0
1220 5 32.871828309817005 2.2327745145192224 -0.09001214712392273 0 0 0
1385 1 34.805465269218004 3.3485369790372976 1.4849891361919738 0 0 0
1375 5 30.938191350416005 5.581931971595221 -0.09001214712392126 0 0 0
1381 5 34.805465269218004 5.581931971595221 -0.09001214712392126 0 0 0
1226 5 36.739102228619004 2.2327745145192224 -0.09001214712392273 0 0 0
1391 1 38.67273918802 3.3485369790372976 1.4849891361919738 0 0 0
1232 5 40.606376147421 2.2327745145192224 -0.09001214712392273 0 0 0
1387 5 38.67273918802 5.581931971595221 -0.09001214712392126 0 0 0
1397 1 42.540013106822 3.3485369790372976 1.4849891361919738 0 0 0
1238 5 44.473650066223 2.2327745145192224 -0.09001214712392273 0 0 0
1403 1 46.407287025624 3.3485369790372976 1.4849891361919738 0 0 0
1393 5 42.540013106822 5.581931971595221 -0.09001214712392126 0 0 0
1399 5 46.407287025624 5.581931971595221 -0.09001214712392126 0 0 0
1244 5 48.340923985025 2.2327745145192224 -0.09001214712392273 0 0 0
1253 1 50.274560944426 3.3485369790372976 1.4849891361919738 -1 0 0
1094 5 52.208197903827 2.2327745145192224 -0.09001214712392273 -1 0 0
1249 5 50.274560944426 5.581931971595221 -0.09001214712392124 -1 0 0
1259 1 54.141834863228 3.3485369790372976 1.4849891361919738 -1 0 0
1100 5 56.075471822629 2.2327745145192224 -0.09001214712392273 -1 0 0
1265 1 58.00910878203 3.3485369790372976 1.4849891361919738 -1 0 0
1255 5 54.141834863228 5.581931971595221 -0.09001214712392126 -1 0 0
1261 5 58.00910878203 5.581931971595221 -0.09001214712392126 -1 0 0
1106 5 59.942745741431 2.2327745145192224 -0.09001214712392283 -1 0 0
1271 1 61.876382700831996 3.3485369790372976 1.484989136191974 -1 0 0
1112 5 63.810019660232996 2.2327745145192233 -0.09001214712392243 -1 0 0
1267 5 61.876382700831996 5.581931971595221 -0.09001214712392039 -1 0 0
1118 5 67.677293579035 2.2327745145192224 -0.09001214712392286 -1 0 0
1277 1 65.743656619634 3.3485369790372976 1.4849891361919743 -1 0 0
1283 1 69.610930538436 3.348536979037297 1.484989136191974 -1 0 0
1273 5 65.74365661963401 5.581931971595221 -0.09001214712392043 -1 0 0
1279 5 69.61093053843601 5.581931971595221 -0.09001214712392178 -1 0 0
1124 5 71.544567497837 2.2327745145192224 -0.0900121471239228 -1 0 0
1130 5 75.41184141663899 2.2327745145192224 -0.09001214712392278 -1 0 0
1289 1 73.478204457238 3.348536979037297 1.484989136191974 -1 0 0
1285 5 73.47820445723801 5.581931971595221 -0.09001214712392178 -1 0 0
1136 5 79.27911533544099 2.2327745145192224 -0.09001214712392278 -1 0 0
1295 1 77.34547837603999 3.348536979037297 1.484989136191974 -1 0 0
1301 1 81.21275229484199 3.348536979037297 1.484989136191974 -1 0 0
1291 5 77.34547837604 5.581931971595221 -0.09001214712392178 -1 0 0
1297 5 81.212752294842 5.581931971595221 -0.09001214712392178 -1 0 0
1142 5 83.14638925424299 2.2327745145192224 -0.0900121471239228 -1 0 0
1148 5 87.01366317304499 2.2327745145192233 -0.09001214712392044 -1 0 0
1307 1 85.08002621364399 3.348536979037297 1.4849891361919743 -1 0 0
1303 5 85.080026213644 5.581931971595221 -0.09001214712392186 -1 0 0
1313 1 88.947300132446 3.3485369790372976 1.484989136191974 -1 0 0
1154 5 90.880937091847 2.2327745145192224 -0.09001214712392305 -1 0 0
1319 1 92.814574051248 3.3485369790372976 1.484989136191974 -1 0 0
1309 5 88.947300132446 5.581931971595222 -0.09001214712392079 -1 0 0
1315 5 92.814574051248 5.581931971595221 -0.09001214712392135 -1 0 0
1160 5 94.748211010649 2.2327745145192224 -0.09001214712392273 -1 0 0
1325 1 96.68184797005 3.3485369790372976 1.4849891361919738 -1 0 0
1166 5 98.615484929451 2.2327745145192224 -0.09001214712392273 -1 0 0
1321 5 96.68184797005 5.581931971595221 -0.09001214712392126 -1 0 0
1332 1 1.9336369594009994 6.697694436113295 1.4849891361919725 0 0 0
1338 1 5.800910878202998 6.697694436113295 1.4849891361919725 0 0 0
1328 5 1.9336369594009994 8.931089428671218 -0.0900121471239224 0 0 0
1334 5 5.800910878202998 8.931089428671218 -0.09001214712392247 0 0 0
1487 1 2.9231390408242087e-18 10.046851893189297 1.4849891361919745 0 0 0
1493 1 3.867273918801999 10.046851893189297 1.4849891361919745 0 0 0
1344 1 9.668184797004999 6.697694436113295 1.484989136191972 0 0 0
1340 5 9.668184797004999 8.93108942867122 -0.09001214712392165 0 0 0
1499 1 7.734547837603998 10.046851893189297 1.4849891361919745 0 0 0
1505 1 11.601821756406002 10.046851893189297 1.4849891361919747 0 0 0
1350 1 13.535458715807001 6.697694436113295 1.4849891361919725 0 0 0
1356 1 17.402732634608995 6.697694436113295 1.4849891361919727 0 0 0
1346 5 13.535458715807001 8.931089428671218 -0.09001214712392289 0 0 0
1352 5 17.402732634608995 8.931089428671218 -0.0900121471239229 0 0 0
1511 1 15.469095675207997 10.046851893189297 1.4849891361919743 0 0 0
1362 1 21.270006553410994 6.697694436113295 1.4849891361919727 0 0 0
1358 5 21.270006553410994 8.931089428671218 -0.09001214712392157 0 0 0
1517 1 19.336369594009994 10.046851893189297 1.4849891361919745 0 0 0
1523 1 23.203643512811997 10.046851893189297 1.4849891361919745 0 0 0
1368 1 25.137280472213003 6.697694436113295 1.4849891361919725 0 0 0
1374 1 29.004554391015006 6.697694436113295 1.4849891361919725 0 0 0
1364 5 25.137280472213003 8.93108942867122 -0.09001214712392089 0 0 0
1370 5 29.004554391015006 8.931089428671218 -0.09001214712392251 0 0 0
1529 1 27.070917431614006 10.046851893189297 1.4849891361919745 0 0 0
1380 1 32.871828309817005 6.697694436113295 1.4849891361919725 0 0 0
1376 5 32.871828309817005 8.931089428671218 -0.0900121471239224 0 0 0
1535 1 30.938191350416005 10.046851893189297 1.4849891361919745 0 0 0
1541 1 34.805465269218004 10.046851893189297 1.4849891361919745 0 0 0
1386 1 36.739102228619004 6.697694436113295 1.4849891361919725 0 0 0
1392 1 40.606376147421 6.697694436113295 1.4849891361919725 0 0 0
1382 5 36.739102228619004 8.931089428671218 -0.0900121471239224 0 0 0
1388 5 40.606376147421 8.931089428671218 -0.0900121471239224 0 0 0
1547 1 38.67273918802 10.046851893189297 1.4849891361919745 0 0 0
1398 1 44.473650066223 6.697694436113295 1.4849891361919725 0 0 0
1394 5 44.473650066223 8.931089428671218 -0.0900121471239224 0 0 0
1553 1 42.540013106822 10.046851893189297 1.4849891361919745 0 0 0
1559 1 46.407287025624 10.046851893189297 1.4849891361919745 0 0 0
1404 1 48.340923985025 6.697694436113295 1.4849891361919727 0 0 0
1254 1 52.208197903827 6.697694436113295 1.4849891361919725 -1 0 0
1400 5 48.340923985025 8.931089428671218 -0.0900121471239224 0 0 0
1250 5 52.208197903827 8.931089428671218 -0.0900121471239224 -1 0 0
1409 1 50.274560944426 10.046851893189297 1.4849891361919745 -1 0 0
1260 1 56.075471822629 6.697694436113295 1.4849891361919725 -1 0 0
1256 5 56.075471822629 8.931089428671218 -0.0900121471239224 -1 0 0
1415 1 54.141834863228 10.046851893189297 1.4849891361919745 -1 0 0
1421 1 58.00910878203 10.046851893189297 1.4849891361919745 -1 0 0
1266 1 59.942745741431 6.697694436113295 1.4849891361919727 -1 0 0
1272 1 63.810019660233 6.697694436113295 1.4849891361919725 -1 0 0
1262 5 59.942745741431 8.931089428671218 -0.09001214712392248 -1 0 0
1268 5 63.810019660232996 8.93108942867122 -0.090012147123922 -1 0 0
1427 1 61.876382700831996 10.046851893189297 1.4849891361919745 -1 0 0
1278 1 67.67729357903501 6.697694436113295 1.4849891361919727 -1 0 0
1274 5 67.677293579035 8.931089428671218 -0.09001214712392282 -1 0 0
1433 1 65.743656619634 10.046851893189297 1.4849891361919747 -1 0 0
1439 1 69.610930538436 10.046851893189297 1.4849891361919747 -1 0 0
1284 1 71.54456749783701 6.697694436113295 1.484989136191973 -1 0 0
1290 1 75.411841416639 6.697694436113295 1.484989136191973 -1 0 0
1280 5 71.544567497837 8.931089428671218 -0.09001214712392275 -1 0 0
1286 5 75.41184141663899 8.931089428671218 -0.09001214712392276 -1 0 0
1445 1 73.478204457238 10.046851893189297 1.4849891361919747 -1 0 0
1296 1 79.279115335441 6.697694436113295 1.484989136191973 -1 0 0
1292 5 79.27911533544099 8.931089428671218 -0.09001214712392276 -1 0 0
1451 1 77.34547837603999 10.046851893189297 1.4849891361919747 -1 0 0
1457 1 81.21275229484199 10.046851893189297 1.4849891361919747 -1 0 0
1302 1 83.146389254243 6.697694436113295 1.484989136191973 -1 0 0
1308 1 87.013663173045 6.697694436113295 1.4849891361919727 -1 0 0
1298 5 83.14638925424299 8.931089428671218 -0.09001214712392275 -1 0 0
1304 5 87.01366317304499 8.93108942867122 -0.09001214712392033 -1 0 0
1463 1 85.08002621364399 10.046851893189297 1.4849891361919745 -1 0 0
1314 1 90.880937091847 6.697694436113295 1.4849891361919725 -1 0 0
1310 5 90.880937091847 8.931089428671218 -0.09001214712392272 -1 0 0
1469 1 88.947300132446 10.046851893189297 1.4849891361919745 -1 0 0
1475 1 92.814574051248 10.046851893189297 1.4849891361919745 -1 0 0
1320 1 94.748211010649 6.697694436113295 1.4849891361919725 -1 0 0
1326 1 98.615484929451 6.697694436113295 1.4849891361919727 -1 0 0
1316 5 94.748211010649 8.931089428671218 -0.0900121471239224 -1 0 0
1322 5 98.615484929451 8.931089428671218 -0.0900121471239224 -1 0 0
1481 1 96.68184797005 10.046851893189297 1.4849891361919745 -1 0 0
1483 5 0 12.28024688574722 -0.09001214712392341 0 0 0
1488 1 1.9336369594009994 13.396009350265295 1.4849891361919725 0 0 0
1489 5 3.867273918801999 12.28024688574722 -0.09001214712392341 0 0 0
1494 1 5.800910878202998 13.396009350265295 1.4849891361919725 0 0 0
1484 5 1.9336369594009994 15.629404342823221 -0.09001214712392075 0 0 0
1643 1 0 16.745166807341295 1.4849891361919731 0 0 0
1649 1 3.867273918801999 16.745166807341295 1.4849891361919731 0 0 0
1490 5 5.800910878202998 15.629404342823221 -0.09001214712392078 0 0 0
1495 5 7.734547837603999 12.280246885747221 -0.09001214712392286 0 0 0
1500 1 9.668184797004999 13.396009350265295 1.4849891361919727 0 0 0
1501 5 11.601821756406 12.28024688574722 -0.09001214712392322 0 0 0
1655 1 7.734547837603998 16.745166807341295 1.4849891361919731 0 0 0
1496 5 9.668184797004999 15.629404342823223 -0.09001214712391978 0 0 0
1661 1 11.601821756406002 16.745166807341295 1.4849891361919731 0 0 0
1507 5 15.469095675207997 12.28024688574722 -0.09001214712392447 0 0 0
1506 1 13.535458715807001 13.396009350265295 1.4849891361919727 0 0 0
1512 1 17.402732634608995 13.396009350265295 1.4849891361919727 0 0 0
1502 5 13.535458715807 15.629404342823221 -0.090012147123921 0 0 0
1667 1 15.469095675207997 16.745166807341295 1.4849891361919731 0 0 0
1508 5 17.402732634608995 15.629404342823221 -0.09001214712392126 0 0 0
1513 5 19.336369594009994 12.28024688574722 -0.09001214712392348 0 0 0
1518 1 21.270006553410994 13.396009350265295 1.4849891361919725 0 0 0
1519 5 23.203643512811997 12.280246885747221 -0.09001214712392182 0 0 0
1673 1 19.336369594009994 16.745166807341295 1.4849891361919731 0 0 0
1514 5 21.270006553410994 15.629404342823223 -0.0900121471239199 0 0 0
1679 1 23.203643512811997 16.745166807341295 1.484989136191973 0 0 0
1524 1 25.137280472213003 13.396009350265295 1.4849891361919725 0 0 0
1525 5 27.070917431614006 12.280246885747221 -0.09001214712392246 0 0 0
1530 1 29.004554391015006 13.396009350265295 1.4849891361919727 0 0 0
1520 5 25.137280472213003 15.629404342823223 -0.0900121471239192 0 0 0
1685 1 27.070917431614006 16.745166807341295 1.4849891361919734 0 0 0
1526 5 29.004554391015006 15.629404342823221 -0.09001214712392086 0 0 0
1531 5 30.938191350416005 12.28024688574722 -0.09001214712392341 0 0 0
1536 1 32.871828309817005 13.396009350265295 1.4849891361919725 0 0 0
1537 5 34.805465269218004 12.28024688574722 -0.09001214712392341 0 0 0
1691 1 30.938191350416005 16.745166807341295 1.4849891361919731 0 0 0
1532 5 32.871828309817005 15.629404342823221 -0.09001214712392075 0 0 0
1697 1 34.805465269218004 16.745166807341295 1.4849891361919731 0 0 0
1542 1 36.739102228619004 13.396009350265295 1.4849891361919725 0 0 0
1543 5 38.67273918802 12.28024688574722 -0.09001214712392341 0 0 0
1548 1 40.606376147421 13.396009350265295 1.4849891361919725 0 0 0
1538 5 36.739102228619004 15.629404342823221 -0.09001214712392075 0 0 0
1703 1 38.67273918802 16.745166807341295 1.4849891361919731 0 0 0
1544 5 40.606376147421 15.629404342823221 -0.09001214712392075 0 0 0
1549 5 42.540013106822 12.28024688574722 -0.09001214712392341 0 0 0
1554 1 44.473650066223 13.396009350265295 1.4849891361919725 0 0 0
1555 5 46.407287025624 12.28024688574722 -0.09001214712392341 0 0 0
1709 1 42.540013106822 16.745166807341295 1.4849891361919731 0 0 0
1550 5 44.473650066223 15.629404342823221 -0.09001214712392075 0 0 0
1715 1 46.407287025624 16.745166807341295 1.4849891361919731 0 0 0
1560 1 48.340923985025 13.396009350265295 1.4849891361919725 0 0 0
1405 5 50.274560944426 12.28024688574722 -0.09001214712392341 -1 0 0
1410 1 52.208197903827 13.396009350265295 1.4849891361919725 -1 0 0
1556 5 48.340923985025 15.629404342823221 -0.09001214712392075 0 0 0
1565 1 50.274560944426 16.745166807341295 1.4849891361919731 -1 0 0
1406 5 52.208197903827 15.629404342823221 -0.09001214712392075 -1 0 0
1411 5 54.141834863228 12.28024688574722 -0.09001214712392341 -1 0 0
1416 1 56.075471822629 13.396009350265295 1.4849891361919725 -1 0 0
1417 5 58.00910878203 12.28024688574722 -0.09001214712392341 -1 0 0
1571 1 54.141834863228 16.745166807341295 1.4849891361919731 -1 0 0
1412 5 56.075471822629 15.629404342823221 -0.09001214712392075 -1 0 0
1577 1 58.00910878203 16.745166807341295 1.4849891361919731 -1 0 0
1422 1 59.942745741431 13.396009350265295 1.4849891361919727 -1 0 0
1423 5 61.876382700831996 12.280246885747221 -0.09001214712392239 -1 0 0
1428 1 63.810019660233 13.396009350265295 1.4849891361919727 -1 0 0
1418 5 59.942745741431 15.629404342823221 -0.09001214712392082 -1 0 0
1583 1 61.876382700831996 16.745166807341295 1.4849891361919731 -1 0 0
1424 5 63.810019660232996 15.629404342823223 -0.09001214712391997 -1 0 0
1429 5 65.74365661963401 12.280246885747221 -0.09001214712392239 -1 0 0
1434 1 67.67729357903501 13.396009350265295 1.484989136191973 -1 0 0
1435 5 69.61093053843601 12.28024688574722 -0.09001214712392347 -1 0 0
1430 5 67.677293579035 15.629404342823221 -0.09001214712392083 -1 0 0
1589 1 65.743656619634 16.745166807341295 1.4849891361919734 -1 0 0
1595 1 69.610930538436 16.745166807341295 1.4849891361919731 -1 0 0
1440 1 71.54456749783701 13.396009350265295 1.4849891361919727 -1 0 0
1441 5 73.47820445723801 12.28024688574722 -0.09001214712392347 -1 0 0
1446 1 75.411841416639 13.396009350265295 1.4849891361919727 -1 0 0
1436 5 71.544567497837 15.629404342823221 -0.09001214712392076 -1 0 0
1442 5 75.41184141663899 15.629404342823221 -0.09001214712392076 -1 0 0
1601 1 73.478204457238 16.745166807341295 1.4849891361919731 -1 0 0
1447 5 77.34547837604 12.28024688574722 -0.09001214712392347 -1 0 0
1452 1 79.279115335441 13.396009350265295 1.4849891361919727 -1 0 0
1453 5 81.212752294842 12.28024688574722 -0.09001214712392347 -1 0 0
1448 5 79.27911533544099 15.629404342823221 -0.09001214712392076 -1 0 0
1607 1 77.34547837603999 16.745166807341295 1.4849891361919731 -1 0 0
1613 1 81.21275229484199 16.745166807341295 1.4849891361919731 -1 0 0
1458 1 83.146389254243 13.396009350265295 1.4849891361919727 -1 0 0
1459 5 85.080026213644 12.28024688574722 -0.09001214712392354 -1 0 0
1464 1 87.013663173045 13.396009350265295 1.4849891361919727 -1 0 0
1454 5 83.14638925424299 15.629404342823221 -0.09001214712392076 -1 0 0
1460 5 87.01366317304499 15.629404342823223 -0.09001214712391858 -1 0 0
1619 1 85.08002621364399 16.745166807341295 1.4849891361919731 -1 0 0
1465 5 88.947300132446 12.280246885747221 -0.0900121471239229 -1 0 0
1470 1 90.880937091847 13.396009350265295 1.4849891361919727 -1 0 0
1471 5 92.814574051248 12.28024688574722 -0.0900121471239235 -1 0 0
1625 1 88.947300132446 16.745166807341295 1.484989136191973 -1 0 0
1466 5 90.880937091847 15.629404342823221 -0.09001214712392107 -1 0 0
1631 1 92.814574051248 16.745166807341295 1.4849891361919731 -1 0 0
1476 1 94.748211010649 13.396009350265295 1.4849891361919725 -1 0 0
1477 5 96.68184797005 12.28024688574722 -0.09001214712392341 -1 0 0
1482 1 98.615484929451 13.396009350265295 1.4849891361919725 -1 0 0
1472 5 94.748211010649 15.629404342823221 -0.09001214712392075 -1 0 0
1637 1 96.68184797005 16.745166807341295 1.4849891361919731 -1 0 0
1478 5 98.615484929451 15.629404342823221 -0.09001214712392072 -1 0 0
1639 5 0 18.978561799899218 -0.09001214712392089 0 0 0
1645 5 3.867273918801999 18.978561799899218 -0.09001214712392089 0 0 0
1644 1 1.9336369594009994 20.0943242644173 1.484989136191975 0 0 0
1650 1 5.800910878202998 20.0943242644173 1.484989136191975 0 0 0
1640 5 1.9336369594009994 22.327719256975218 -0.09001214712392477 0 0 0
1646 5 5.800910878202998 22.327719256975218 -0.09001214712392468 0 0 0
1799 1 0 23.443481721493296 1.4849891361919725 0 0 0
1805 1 3.867273918801999 23.443481721493296 1.4849891361919725 0 0 0
1651 5 7.734547837603999 18.978561799899218 -0.0900121471239204 0 0 0
1657 5 11.601821756406 18.978561799899218 -0.09001214712392056 0 0 0
1656 1 9.668184797004999 20.0943242644173 1.4849891361919747 0 0 0
1652 5 9.668184797004999 22.327719256975218 -0.09001214712392384 0 0 0
1811 1 7.734547837603998 23.443481721493296 1.4849891361919725 0 0 0
1817 1 11.601821756406002 23.443481721493296 1.4849891361919725 0 0 0
1663 5 15.469095675207997 18.978561799899218 -0.09001214712392204 0 0 0
1662 1 13.535458715807001 20.0943242644173 1.4849891361919747 0 0 0
1668 1 17.402732634608995 20.0943242644173 1.484989136191975 0 0 0
1658 5 13.535458715807 22.327719256975218 -0.09001214712392505 0 0 0
1664 5 17.402732634608995 22.327719256975218 -0.09001214712392511 0 0 0
1823 1 15.469095675207997 23.443481721493296 1.4849891361919727 0 0 0
1669 5 19.336369594009994 18.978561799899218 -0.09001214712392099 0 0 0
1675 5 23.203643512811997 18.97856179989922 -0.09001214712391925 0 0 0
1674 1 21.270006553410994 20.0943242644173 1.4849891361919751 0 0 0
1670 5 21.270006553410994 22.327719256975218 -0.09001214712392358 0 0 0
1829 1 19.336369594009994 23.443481721493296 1.4849891361919725 0 0 0
1835 1 23.203643512811997 23.443481721493296 1.4849891361919727 0 0 0
1681 5 27.070917431614006 18.978561799899218 -0.0900121471239199 0 0 0
1680 1 25.137280472213003 20.0943242644173 1.484989136191975 0 0 0
1686 1 29.004554391015006 20.0943242644173 1.484989136191975 0 0 0
1676 5 25.137280472213003 22.327719256975218 -0.09001214712392305 0 0 0
1682 5 29.004554391015006 22.327719256975218 -0.09001214712392484 0 0 0
1841 1 27.070917431614006 23.443481721493296 1.4849891361919725 0 0 0
1687 5 30.938191350416005 18.978561799899218 -0.09001214712392087 0 0 0
1693 5 34.805465269218004 18.978561799899218 -0.09001214712392089 0 0 0
1692 1 32.871828309817005 20.0943242644173 1.484989136191975 0 0 0
1688 5 32.871828309817005 22.327719256975218 -0.09001214712392477 0 0 0
1847 1 30.938191350416005 23.443481721493296 1.4849891361919725 0 0 0
1853 1 34.805465269218004 23.443481721493296 1.4849891361919725 0 0 0
1699 5 38.67273918802 18.978561799899218 -0.09001214712392089 0 0 0
1698 1 36.739102228619004 20.0943242644173 1.484989136191975 0 0 0
1704 1 40.606376147421 20.0943242644173 1.484989136191975 0 0 0
1694 5 36.739102228619004 22.327719256975218 -0.09001214712392477 0 0 0
1700 5 40.606376147421 22.327719256975218 -0.09001214712392477 0 0 0
1859 1 38.67273918802 23.443481721493296 1.4849891361919725 0 0 0
1705 5 42.540013106822 18.978561799899218 -0.09001214712392089 0 0 0
1711 5 46.407287025624 18.978561799899218 -0.09001214712392089 0 0 0
1710 1 44.473650066223 20.0943242644173 1.484989136191975 0 0 0
1706 5 44.473650066223 22.327719256975218 -0.09001214712392477 0 0 0
1865 1 42.540013106822 23.443481721493296 1.4849891361919725 0 0 0
1871 1 46.407287025624 23.443481721493296 1.4849891361919725 0 0 0
1561 5 50.274560944426 18.978561799899218 -0.09001214712392089 -1 0 0
1716 1 48.340923985025 20.0943242644173 1.484989136191975 0 0 0
1566 1 52.208197903827 20.0943242644173 1.484989136191975 -1 0 0
1712 5 48.340923985025 22.327719256975218 -0.09001214712392477 0 0 0
1562 5 52.208197903827 22.327719256975218 -0.09001214712392477 -1 0 0
1721 1 50.274560944426 23.443481721493296 1.4849891361919725 -1 0 0
1567 5 54.141834863228 18.978561799899218 -0.09001214712392089 -1 0 0
1573 5 58.00910878203 18.978561799899218 -0.09001214712392087 -1 0 0
1572 1 56.075471822629 20.0943242644173 1.484989136191975 -1 0 0
1568 5 56.075471822629 22.327719256975218 -0.09001214712392477 -1 0 0
1727 1 54.141834863228 23.443481721493296 1.4849891361919725 -1 0 0
1733 1 58.00910878203 23.443481721493296 1.4849891361919725 -1 0 0
1579 5 61.876382700831996 18.978561799899218 -0.0900121471239198 -1 0 0
1578 1 59.942745741431 20.0943242644173 1.484989136191975 -1 0 0
1584 1 63.810019660233 20.0943242644173 1.4849891361919747 -1 0 0
1574 5 59.942745741431 22.327719256975218 -0.09001214712392483 -1 0 0
1580 5 63.810019660232996 22.327719256975218 -0.09001214712392419 -1 0 0
1739 1 61.876382700831996 23.443481721493296 1.4849891361919725 -1 0 0
1585 5 65.74365661963401 18.978561799899218 -0.09001214712392014 -1 0 0
1591 5 69.61093053843601 18.978561799899218 -0.09001214712392125 -1 0 0
1590 1 67.67729357903501 20.0943242644173 1.4849891361919751 -1 0 0
1586 5 67.677293579035 22.327719256975218 -0.09001214712392484 -1 0 0
1745 1 65.743656619634 23.443481721493296 1.4849891361919727 -1 0 0
1751 1 69.610930538436 23.443481721493296 1.484989136191973 -1 0 0
1597 5 73.47820445723801 18.978561799899218 -0.09001214712392125 -1 0 0
1596 1 71.54456749783701 20.0943242644173 1.4849891361919751 -1 0 0
1602 1 75.411841416639 20.0943242644173 1.4849891361919751 -1 0 0
1592 5 71.544567497837 22.327719256975218 -0.09001214712392479 -1 0 0
1598 5 75.41184141663899 22.327719256975218 -0.09001214712392479 -1 0 0
1757 1 73.478204457238 23.443481721493296 1.484989136191973 -1 0 0
1603 5 77.34547837604 18.978561799899218 -0.09001214712392122 -1 0 0
1609 5 81.212752294842 18.978561799899218 -0.09001214712392125 -1 0 0
1608 1 79.279115335441 20.0943242644173 1.4849891361919751 -1 0 0
1604 5 79.27911533544099 22.327719256975218 -0.09001214712392479 -1 0 0
1763 1 77.34547837603999 23.443481721493296 1.484989136191973 -1 0 0
1769 1 81.21275229484199 23.443481721493296 1.484989136191973 -1 0 0
1615 5 85.080026213644 18.978561799899218 -0.09001214712392136 -1 0 0
1614 1 83.146389254243 20.0943242644173 1.4849891361919751 -1 0 0
1620 1 87.013663173045 20.0943242644173 1.4849891361919751 -1 0 0
1610 5 83.14638925424299 22.327719256975218 -0.09001214712392477 -1 0 0
1616 5 87.01366317304499 22.327719256975218 -0.09001214712392233 -1 0 0
1775 1 85.08002621364399 23.443481721493296 1.4849891361919727 -1 0 0
1621 5 88.947300132446 18.97856179989922 -0.09001214712392067 -1 0 0
1627 5 92.814574051248 18.978561799899218 -0.090012147123921 -1 0 0
1626 1 90.880937091847 20.0943242644173 1.484989136191975 -1 0 0
1622 5 90.880937091847 22.327719256975218 -0.09001214712392477 -1 0 0
1781 1 88.947300132446 23.443481721493292 1.4849891361919734 -1 0 0
1787 1 92.814574051248 23.443481721493296 1.4849891361919725 -1 0 0
1633 5 96.68184797005 18.978561799899218 -0.09001214712392089 -1 0 0
1632 1 94.748211010649 20.0943242644173 1.484989136191975 -1 0 0
1638 1 98.615484929451 20.0943242644173 1.484989136191975 -1 0 0
1628 5 94.748211010649 22.327719256975218 -0.09001214712392476 -1 0 0
1634 5 98.615484929451 22.327719256975218 -0.09001214712392476 -1 0 0
1793 1 96.68184797005 23.443481721493296 1.4849891361919725 -1 0 0
1795 5 3.735037487375757e-19 25.676876714051218 -0.09001214712392287 0 0 0
1800 1 1.9336369594009994 26.792639178569296 1.4849891361919734 0 0 0
1801 5 3.867273918801999 25.676876714051218 -0.09001214712392284 0 0 0
1806 1 5.800910878202998 26.792639178569296 1.4849891361919734 0 0 0
1796 5 1.9336369594009994 29.026034171127222 -0.09001214712392007 0 0 0
1802 5 5.800910878202998 29.026034171127222 -0.09001214712392011 0 0 0
1807 5 7.734547837603999 25.676876714051218 -0.0900121471239223 0 0 0
1812 1 9.668184797004999 26.792639178569296 1.4849891361919734 0 0 0
1813 5 11.601821756406 25.676876714051218 -0.09001214712392232 0 0 0
1808 5 9.668184797004999 29.026034171127222 -0.09001214712391907 0 0 0
1819 5 15.469095675207997 25.676876714051218 -0.0900121471239235 0 0 0
1818 1 13.535458715807001 26.792639178569296 1.4849891361919736 0 0 0
1824 1 17.402732634608995 26.792639178569296 1.4849891361919736 0 0 0
1814 5 13.535458715807 29.026034171127222 -0.09001214712392032 0 0 0
1820 5 17.402732634608995 29.026034171127222 -0.09001214712392058 0 0 0
1825 5 19.336369594009994 25.676876714051218 -0.09001214712392287 0 0 0
1830 1 21.270006553410994 26.792639178569296 1.4849891361919736 0 0 0
1831 5 23.203643512811997 25.67687671405122 -0.0900121471239213 0 0 0
1826 5 21.270006553410994 29.026034171127222 -0.09001214712391925 0 0 0
1836 1 25.137280472213003 26.792639178569296 1.4849891361919736 0 0 0
1837 5 27.070917431614006 25.67687671405122 -0.09001214712392172 0 0 0
1842 1 29.004554391015006 26.792639178569296 1.4849891361919734 0 0 0
1832 5 25.137280472213003 29.026034171127222 -0.09001214712391847 0 0 0
1838 5 29.004554391015006 29.026034171127222 -0.09001214712392014 0 0 0
1843 5 30.938191350416005 25.676876714051218 -0.09001214712392284 0 0 0
1848 1 32.871828309817005 26.792639178569296 1.4849891361919734 0 0 0
1849 5 34.805465269218004 25.676876714051218 -0.09001214712392284 0 0 0
1844 5 32.871828309817005 29.026034171127222 -0.09001214712392007 0 0 0
1854 1 36.739102228619004 26.792639178569296 1.4849891361919734 0 0 0
1855 5 38.67273918802 25.676876714051218 -0.09001214712392284 0 0 0
1860 1 40.606376147421 26.792639178569296 1.4849891361919734 0 0 0
1850 5 36.739102228619004 29.026034171127222 -0.09001214712392007 0 0 0
1856 5 40.606376147421 29.026034171127222 -0.09001214712392007 0 0 0
1861 5 42.540013106822 25.676876714051218 -0.09001214712392284 0 0 0
1866 1 44.473650066223 26.792639178569296 1.4849891361919734 0 0 0
1867 5 46.407287025624 25.676876714051218 -0.09001214712392268 0 0 0
1862 5 44.473650066223 29.026034171127222 -0.09001214712392007 0 0 0
1872 1 48.340923985025 26.792639178569296 1.4849891361919731 0 0 0
1717 5 50.274560944426 25.676876714051218 -0.0900121471239227 -1 0 0
1722 1 52.208197903827 26.792639178569296 1.4849891361919734 -1 0 0
1868 5 48.340923985025 29.026034171127222 -0.09001214712391992 0 0 0
1718 5 52.208197903827 29.026034171127222 -0.09001214712392007 -1 0 0
1723 5 54.141834863228 25.676876714051218 -0.09001214712392284 -1 0 0
1728 1 56.075471822629 26.792639178569296 1.4849891361919734 -1 0 0
1729 5 58.00910878203 25.676876714051218 -0.09001214712392284 -1 0 0
1724 5 56.075471822629 29.026034171127222 -0.09001214712392007 -1 0 0
1734 1 59.942745741431 26.792639178569296 1.4849891361919734 -1 0 0
1735 5 61.876382700831996 25.67687671405122 -0.09001214712392165 -1 0 0
1740 1 63.810019660233 26.792639178569296 1.4849891361919734 -1 0 0
1730 5 59.942745741431 29.026034171127222 -0.09001214712392012 -1 0 0
1736 5 63.810019660232996 29.026034171127222 -0.09001214712391944 -1 0 0
1741 5 65.74365661963401 25.67687671405122 -0.09001214712392164 -1 0 0
1746 1 67.67729357903501 26.792639178569296 1.4849891361919734 -1 0 0
1747 5 69.61093053843601 25.676876714051218 -0.09001214712392283 -1 0 0
1742 5 67.677293579035 29.026034171127222 -0.09001214712392012 -1 0 0
1752 1 71.54456749783701 26.792639178569296 1.4849891361919736 -1 0 0
1753 5 73.47820445723801 25.676876714051218 -0.09001214712392283 -1 0 0
1758 1 75.411841416639 26.792639178569296 1.4849891361919736 -1 0 0
1748 5 71.544567497837 29.026034171127222 -0.09001214712392008 -1 0 0
1754 5 75.41184141663899 29.026034171127222 -0.09001214712392008 -1 0 0
1759 5 77.34547837604 25.676876714051218 -0.09001214712392283 -1 0 0
1764 1 79.279115335441 26.792639178569296 1.4849891361919736 -1 0 0
1765 5 81.212752294842 25.676876714051218 -0.09001214712392283 -1 0 0
1760 5 79.27911533544099 29.026034171127222 -0.09001214712392008 -1 0 0
1770 1 83.146389254243 26.792639178569296 1.4849891361919736 -1 0 0
1771 5 85.080026213644 25.676876714051218 -0.09001214712392287 -1 0 0