LAMMPS data file via write_data, version 29 Aug 2024, timestep = 2, units = metal

4680 atoms
6 atom types

0 100.549121888852 xlo xhi
0 100.47472371228 ylo yhi
-50 50 zlo zhi

Masses

1 44.955908
2 44.955908
3 78.971
4 78.971
5 78.971
6 78.971

Atoms # atomic

1172 4 1.9336369594009994 2.2327743023278463 -0.08978537410763787 0 0 0
1331 1 0 3.3486248530077676 1.4848930632959076 0 0 0
1337 1 3.867273918801999 3.3486248530077676 1.4848930632959076 0 0 0
1178 4 5.800910878202998 2.2327743023278463 -0.08978537410763791 0 0 0
1327 4 0 5.581931759403845 -0.08978537410763729 0 0 0
1333 4 3.867273918801999 5.581931759403845 -0.08978537410763729 0 0 0
1343 1 7.734547837603998 3.3486248530077676 1.4848930632959076 0 0 0
1184 4 9.668184797004999 2.232774302327847 -0.0897853741076371 0 0 0
1349 1 11.601821756406002 3.348624853007767 1.4848930632959074 0 0 0
1339 4 7.734547837603999 5.581931759403846 -0.08978537410763698 0 0 0
1345 4 11.601821756406002 5.581931759403846 -0.08978537410763685 0 0 0
1190 4 13.535458715807001 2.2327743023278455 -0.08978537410763864 0 0 0
1355 1 15.469095675207997 3.3486248530077676 1.4848930632959076 0 0 0
1196 4 17.402732634608995 2.232774302327846 -0.08978537410763864 0 0 0
1351 4 15.469095675207997 5.581931759403845 -0.08978537410763823 0 0 0
1361 1 19.336369594009994 3.3486248530077676 1.4848930632959076 0 0 0
1202 4 21.270006553410994 2.2327743023278463 -0.08978537410763734 0 0 0
1367 1 23.203643512811997 3.3486248530077676 1.4848930632959079 0 0 0
1357 4 19.336369594009994 5.581931759403845 -0.08978537410763733 0 0 0
1363 4 23.203643512811997 5.5819317594038464 -0.08978537410763562 0 0 0
1208 4 25.137280472213003 2.2327743023278472 -0.08978537410763628 0 0 0
1373 1 27.070917431614006 3.3486248530077676 1.4848930632959074 0 0 0
1214 4 29.004554391015006 2.2327743023278463 -0.08978537410763796 0 0 0
1369 4 27.070917431614006 5.581931759403845 -0.08978537410763644 0 0 0
1379 1 30.938191350416005 3.3486248530077676 1.4848930632959076 0 0 0
1220 4 32.871828309817005 2.2327743023278463 -0.08978537410763787 0 0 0
1385 1 34.805465269218004 3.3486248530077676 1.4848930632959076 0 0 0
1375 4 30.938191350416005 5.581931759403845 -0.08978537410763728 0 0 0
1381 4 34.805465269218004 5.581931759403845 -0.08978537410763729 0 0 0
1226 4 36.739102228619004 2.2327743023278463 -0.08978537410763787 0 0 0
1391 1 38.67273918802 3.3486248530077676 1.4848930632959076 0 0 0
1232 4 40.606376147421 2.2327743023278463 -0.08978537410763787 0 0 0
1387 4 38.67273918802 5.581931759403845 -0.08978537410763729 0 0 0
1397 1 42.540013106822 3.3486248530077676 1.4848930632959076 0 0 0
1238 4 44.473650066223 2.2327743023278463 -0.08978537410763787 0 0 0
1403 1 46.407287025624 3.3486248530077676 1.4848930632959076 0 0 0
1393 4 42.540013106822 5.581931759403845 -0.08978537410763729 0 0 0
1399 4 46.407287025624 5.581931759403845 -0.08978537410763729 0 0 0
1244 4 48.340923985025 2.2327743023278463 -0.08978537410763787 0 0 0
1253 1 50.274560944426 3.3486248530077676 1.4848930632959076 -1 0 0
1094 4 52.208197903827 2.2327743023278463 -0.08978537410763787 -1 0 0
1249 4 50.274560944426 5.581931759403845 -0.08978537410763728 -1 0 0
1259 1 54.141834863228 3.3486248530077676 1.4848930632959076 -1 0 0
1100 4 56.075471822629 2.2327743023278463 -0.08978537410763787 -1 0 0
1265 1 58.00910878203 3.3486248530077676 1.4848930632959076 -1 0 0
1255 4 54.141834863228 5.581931759403845 -0.08978537410763729 -1 0 0
1261 4 58.00910878203 5.581931759403845 -0.08978537410763728 -1 0 0
1106 4 59.942745741431 2.2327743023278463 -0.08978537410763793 -1 0 0
1271 1 61.876382700831996 3.3486248530077676 1.4848930632959074 -1 0 0
1112 4 63.810019660232996 2.232774302327847 -0.08978537410763715 -1 0 0
1267 4 61.876382700831996 5.581931759403845 -0.08978537410763637 -1 0 0
1118 4 67.677293579035 2.2327743023278463 -0.08978537410763829 -1 0 0
1277 1 65.743656619634 3.348624853007767 1.4848930632959079 -1 0 0
1283 1 69.610930538436 3.3486248530077676 1.4848930632959076 -1 0 0
1273 4 65.74365661963401 5.581931759403845 -0.08978537410763665 -1 0 0
1279 4 69.61093053843601 5.581931759403845 -0.08978537410763726 -1 0 0
1124 4 71.544567497837 2.2327743023278463 -0.08978537410763812 -1 0 0
1130 4 75.41184141663899 2.2327743023278463 -0.08978537410763822 -1 0 0
1289 1 73.478204457238 3.3486248530077676 1.4848930632959076 -1 0 0
1285 4 73.47820445723801 5.581931759403845 -0.08978537410763728 -1 0 0
1136 4 79.27911533544099 2.2327743023278463 -0.08978537410763822 -1 0 0
1295 1 77.34547837603999 3.3486248530077676 1.4848930632959076 -1 0 0
1301 1 81.21275229484199 3.3486248530077676 1.4848930632959076 -1 0 0
1291 4 77.34547837604 5.581931759403845 -0.08978537410763728 -1 0 0
1297 4 81.212752294842 5.581931759403845 -0.08978537410763728 -1 0 0
1142 4 83.14638925424299 2.2327743023278463 -0.08978537410763811 -1 0 0
1148 4 87.01366317304499 2.232774302327847 -0.08978537410763619 -1 0 0
1307 1 85.08002621364399 3.3486248530077676 1.4848930632959076 -1 0 0
1303 4 85.080026213644 5.581931759403845 -0.08978537410763733 -1 0 0
1313 1 88.947300132446 3.3486248530077676 1.4848930632959074 -1 0 0
1154 4 90.880937091847 2.232774302327846 -0.0897853741076383 -1 0 0
1319 1 92.814574051248 3.3486248530077676 1.4848930632959076 -1 0 0
1309 4 88.947300132446 5.581931759403846 -0.08978537410763647 -1 0 0
1315 4 92.814574051248 5.581931759403845 -0.08978537410763733 -1 0 0
1160 4 94.748211010649 2.2327743023278463 -0.08978537410763787 -1 0 0
1325 1 96.68184797005 3.3486248530077676 1.4848930632959076 -1 0 0
1166 4 98.615484929451 2.2327743023278463 -0.08978537410763787 -1 0 0
1321 4 96.68184797005 5.581931759403845 -0.08978537410763729 -1 0 0
1332 1 1.9336369594009994 6.697782310083765 1.4848930632959068 0 0 0
1338 1 5.800910878202998 6.697782310083765 1.4848930632959068 0 0 0
1328 4 1.9336369594009994 8.931089216479842 -0.08978537410763794 0 0 0
1334 4 5.800910878202998 8.931089216479842 -0.08978537410763798 0 0 0
1487 1 0 10.046939767159767 1.4848930632959072 0 0 0
1493 1 3.867273918801999 10.046939767159767 1.4848930632959072 0 0 0
1344 1 9.668184797004999 6.697782310083765 1.4848930632959068 0 0 0
1340 4 9.668184797004999 8.931089216479842 -0.08978537410763697 0 0 0
1499 1 7.734547837603998 10.046939767159767 1.4848930632959074 0 0 0
1505 1 11.601821756406002 10.046939767159767 1.4848930632959076 0 0 0
1350 1 13.535458715807001 6.697782310083765 1.4848930632959065 0 0 0
1356 1 17.402732634608995 6.697782310083765 1.4848930632959065 0 0 0
1346 4 13.535458715807001 8.931089216479842 -0.08978537410763858 0 0 0
1352 4 17.402732634608995 8.931089216479842 -0.08978537410763836 0 0 0
1511 1 15.469095675207997 10.046939767159767 1.484893063295908 0 0 0
1362 1 21.270006553410994 6.697782310083765 1.4848930632959065 0 0 0
1358 4 21.270006553410994 8.931089216479842 -0.08978537410763726 0 0 0
1517 1 19.336369594009994 10.046939767159767 1.4848930632959074 0 0 0
1523 1 23.203643512811997 10.046939767159767 1.484893063295908 0 0 0
1368 1 25.137280472213003 6.697782310083765 1.4848930632959065 0 0 0
1374 1 29.004554391015006 6.697782310083765 1.4848930632959065 0 0 0
1364 4 25.137280472213003 8.931089216479844 -0.08978537410763622 0 0 0
1370 4 29.004554391015006 8.931089216479842 -0.08978537410763805 0 0 0
1529 1 27.070917431614006 10.046939767159767 1.4848930632959076 0 0 0
1380 1 32.871828309817005 6.697782310083765 1.4848930632959068 0 0 0
1376 4 32.871828309817005 8.931089216479842 -0.08978537410763794 0 0 0
1535 1 30.938191350416005 10.046939767159767 1.4848930632959072 0 0 0
1541 1 34.805465269218004 10.046939767159767 1.4848930632959072 0 0 0
1386 1 36.739102228619004 6.697782310083765 1.4848930632959068 0 0 0
1392 1 40.606376147421 6.697782310083765 1.4848930632959068 0 0 0
1382 4 36.739102228619004 8.931089216479842 -0.08978537410763794 0 0 0
1388 4 40.606376147421 8.931089216479842 -0.08978537410763794 0 0 0
1547 1 38.67273918802 10.046939767159767 1.4848930632959072 0 0 0
1398 1 44.473650066223 6.697782310083765 1.4848930632959068 0 0 0
1394 4 44.473650066223 8.931089216479842 -0.08978537410763794 0 0 0
1553 1 42.540013106822 10.046939767159767 1.4848930632959072 0 0 0
1559 1 46.407287025624 10.046939767159767 1.4848930632959072 0 0 0
1404 1 48.340923985025 6.697782310083765 1.4848930632959068 0 0 0
1254 1 52.208197903827 6.697782310083765 1.4848930632959068 -1 0 0
1400 4 48.340923985025 8.931089216479842 -0.08978537410763794 0 0 0
1250 4 52.208197903827 8.931089216479842 -0.08978537410763794 -1 0 0
1409 1 50.274560944426 10.046939767159767 1.4848930632959072 -1 0 0
1260 1 56.075471822629 6.697782310083765 1.4848930632959068 -1 0 0
1256 4 56.075471822629 8.931089216479842 -0.08978537410763794 -1 0 0
1415 1 54.141834863228 10.046939767159767 1.4848930632959072 -1 0 0
1421 1 58.00910878203 10.046939767159767 1.4848930632959072 -1 0 0
1266 1 59.942745741431 6.697782310083765 1.4848930632959065 -1 0 0
1272 1 63.810019660233 6.697782310083765 1.4848930632959068 -1 0 0
1262 4 59.942745741431 8.931089216479842 -0.08978537410763802 -1 0 0
1268 4 63.810019660232996 8.931089216479844 -0.08978537410763718 -1 0 0
1427 1 61.876382700831996 10.046939767159767 1.4848930632959076 -1 0 0
1278 1 67.67729357903501 6.697782310083765 1.4848930632959068 -1 0 0
1274 4 67.677293579035 8.931089216479842 -0.08978537410763802 -1 0 0
1433 1 65.743656619634 10.046939767159767 1.4848930632959076 -1 0 0
1439 1 69.610930538436 10.046939767159767 1.4848930632959072 -1 0 0
1284 1 71.54456749783701 6.697782310083765 1.4848930632959068 -1 0 0
1290 1 75.411841416639 6.697782310083765 1.4848930632959068 -1 0 0
1280 4 71.544567497837 8.931089216479842 -0.08978537410763793 -1 0 0
1286 4 75.41184141663899 8.931089216479842 -0.08978537410763793 -1 0 0
1445 1 73.478204457238 10.046939767159767 1.4848930632959072 -1 0 0
1296 1 79.279115335441 6.697782310083765 1.4848930632959068 -1 0 0
1292 4 79.27911533544099 8.931089216479842 -0.08978537410763793 -1 0 0
1451 1 77.34547837603999 10.046939767159767 1.4848930632959072 -1 0 0
1457 1 81.21275229484199 10.046939767159767 1.4848930632959072 -1 0 0
1302 1 83.146389254243 6.697782310083765 1.4848930632959068 -1 0 0
1308 1 87.013663173045 6.697782310083765 1.4848930632959065 -1 0 0
1298 4 83.14638925424299 8.931089216479842 -0.08978537410763793 -1 0 0
1304 4 87.01366317304499 8.931089216479844 -0.08978537410763601 -1 0 0
1463 1 85.08002621364399 10.046939767159767 1.4848930632959074 -1 0 0
1314 1 90.880937091847 6.697782310083766 1.4848930632959065 -1 0 0
1310 4 90.880937091847 8.931089216479842 -0.08978537410763807 -1 0 0
1469 1 88.947300132446 10.046939767159767 1.4848930632959079 -1 0 0
1475 1 92.814574051248 10.046939767159767 1.4848930632959074 -1 0 0
1320 1 94.748211010649 6.697782310083765 1.4848930632959068 -1 0 0
1326 1 98.615484929451 6.697782310083765 1.4848930632959068 -1 0 0
1316 4 94.748211010649 8.931089216479842 -0.08978537410763794 -1 0 0
1322 4 98.615484929451 8.931089216479842 -0.08978537410763794 -1 0 0
1481 1 96.68184797005 10.046939767159767 1.4848930632959072 -1 0 0
1483 4 0 12.280246673555844 -0.08978537410763891 0 0 0
1488 1 1.9336369594009994 13.396097224235765 1.4848930632959059 0 0 0
1489 4 3.867273918801999 12.280246673555844 -0.08978537410763891 0 0 0
1494 1 5.800910878202998 13.396097224235765 1.4848930632959059 0 0 0
1484 4 1.9336369594009994 15.629404130631846 -0.08978537410763646 0 0 0
1643 1 0 16.745254681311767 1.4848930632959076 0 0 0
1649 1 3.867273918801999 16.745254681311767 1.4848930632959076 0 0 0
1490 4 5.800910878202998 15.629404130631846 -0.08978537410763647 0 0 0
1495 4 7.734547837603999 12.280246673555844 -0.0897853741076386 0 0 0
1500 1 9.668184797004999 13.396097224235765 1.4848930632959063 0 0 0
1501 4 11.601821756406002 12.280246673555844 -0.08978537410763845 0 0 0
1655 1 7.734547837603998 16.745254681311767 1.4848930632959076 0 0 0
1496 4 9.668184797004999 15.629404130631846 -0.08978537410763535 0 0 0
1661 1 11.601821756406002 16.745254681311767 1.4848930632959074 0 0 0
1507 4 15.469095675207997 12.280246673555844 -0.08978537410764009 0 0 0
1506 1 13.535458715807001 13.396097224235765 1.484893063295906 0 0 0
1512 1 17.402732634608995 13.396097224235765 1.4848930632959059 0 0 0
1502 4 13.535458715807001 15.629404130631846 -0.08978537410763685 0 0 0
1667 1 15.469095675207997 16.745254681311767 1.4848930632959072 0 0 0
1508 4 17.402732634608995 15.629404130631846 -0.0897853741076367 0 0 0
1513 4 19.336369594009994 12.280246673555844 -0.08978537410763893 0 0 0
1518 1 21.270006553410994 13.396097224235765 1.4848930632959063 0 0 0
1519 4 23.203643512811997 12.280246673555846 -0.08978537410763736 0 0 0
1673 1 19.336369594009994 16.745254681311767 1.4848930632959076 0 0 0
1514 4 21.270006553410994 15.629404130631846 -0.08978537410763575 0 0 0
1679 1 23.203643512811997 16.745254681311767 1.4848930632959074 0 0 0
1524 1 25.137280472213003 13.396097224235765 1.4848930632959063 0 0 0
1525 4 27.070917431614006 12.280246673555846 -0.08978537410763818 0 0 0
1530 1 29.004554391015006 13.396097224235765 1.4848930632959059 0 0 0
1520 4 25.137280472213003 15.629404130631848 -0.08978537410763449 0 0 0
1685 1 27.070917431614006 16.745254681311767 1.4848930632959072 0 0 0
1526 4 29.004554391015006 15.629404130631846 -0.0897853741076365 0 0 0
1531 4 30.938191350416005 12.280246673555844 -0.08978537410763891 0 0 0
1536 1 32.871828309817005 13.396097224235765 1.4848930632959059 0 0 0
1537 4 34.805465269218004 12.280246673555844 -0.08978537410763891 0 0 0
1691 1 30.938191350416005 16.745254681311767 1.4848930632959076 0 0 0
1532 4 32.871828309817005 15.629404130631846 -0.08978537410763646 0 0 0
1697 1 34.805465269218004 16.745254681311767 1.4848930632959076 0 0 0
1542 1 36.739102228619004 13.396097224235765 1.4848930632959059 0 0 0
1543 4 38.67273918802 12.280246673555844 -0.08978537410763891 0 0 0
1548 1 40.606376147421 13.396097224235765 1.4848930632959059 0 0 0
1538 4 36.739102228619004 15.629404130631846 -0.08978537410763646 0 0 0
1703 1 38.67273918802 16.745254681311767 1.4848930632959076 0 0 0
1544 4 40.606376147421 15.629404130631846 -0.08978537410763646 0 0 0
1549 4 42.540013106822 12.280246673555844 -0.08978537410763891 0 0 0
1554 1 44.473650066223 13.396097224235765 1.4848930632959059 0 0 0
1555 4 46.407287025624 12.280246673555844 -0.08978537410763891 0 0 0
1709 1 42.540013106822 16.745254681311767 1.4848930632959076 0 0 0
1550 4 44.473650066223 15.629404130631846 -0.08978537410763646 0 0 0
1715 1 46.407287025624 16.745254681311767 1.4848930632959076 0 0 0
1560 1 48.340923985025 13.396097224235765 1.4848930632959059 0 0 0
1405 4 50.274560944426 12.280246673555844 -0.08978537410763891 -1 0 0
1410 1 52.208197903827 13.396097224235765 1.4848930632959059 -1 0 0
1556 4 48.340923985025 15.629404130631846 -0.08978537410763646 0 0 0
1565 1 50.274560944426 16.745254681311767 1.4848930632959076 -1 0 0
1406 4 52.208197903827 15.629404130631846 -0.08978537410763646 -1 0 0
1411 4 54.141834863228 12.280246673555844 -0.08978537410763891 -1 0 0
1416 1 56.075471822629 13.396097224235765 1.4848930632959059 -1 0 0
1417 4 58.00910878203 12.280246673555844 -0.08978537410763891 -1 0 0
1571 1 54.141834863228 16.745254681311767 1.4848930632959076 -1 0 0
1412 4 56.075471822629 15.629404130631846 -0.08978537410763646 -1 0 0
1577 1 58.00910878203 16.745254681311767 1.4848930632959076 -1 0 0
1422 1 59.942745741431 13.396097224235765 1.4848930632959059 -1 0 0
1423 4 61.876382700831996 12.280246673555846 -0.08978537410763814 -1 0 0
1428 1 63.810019660233 13.396097224235765 1.4848930632959063 -1 0 0
1418 4 59.942745741431 15.629404130631846 -0.08978537410763648 -1 0 0
1583 1 61.876382700831996 16.745254681311767 1.484893063295907 -1 0 0
1424 4 63.810019660232996 15.629404130631846 -0.08978537410763533 -1 0 0
1429 4 65.74365661963401 12.280246673555846 -0.08978537410763814 -1 0 0
1434 1 67.67729357903501 13.396097224235765 1.484893063295906 -1 0 0
1435 4 69.61093053843601 12.280246673555844 -0.08978537410763889 -1 0 0
1430 4 67.677293579035 15.629404130631846 -0.08978537410763643 -1 0 0
1589 1 65.743656619634 16.745254681311767 1.4848930632959072 -1 0 0
1595 1 69.610930538436 16.745254681311767 1.4848930632959076 -1 0 0
1440 1 71.54456749783701 13.396097224235765 1.4848930632959059 -1 0 0
1441 4 73.47820445723801 12.280246673555844 -0.08978537410763889 -1 0 0
1446 1 75.411841416639 13.396097224235765 1.4848930632959059 -1 0 0
1436 4 71.544567497837 15.629404130631846 -0.0897853741076364 -1 0 0
1442 4 75.41184141663899 15.629404130631846 -0.0897853741076364 -1 0 0
1601 1 73.478204457238 16.745254681311767 1.4848930632959076 -1 0 0
1447 4 77.34547837604 12.280246673555844 -0.08978537410763889 -1 0 0
1452 1 79.279115335441 13.396097224235765 1.4848930632959059 -1 0 0
1453 4 81.212752294842 12.280246673555844 -0.08978537410763889 -1 0 0
1448 4 79.27911533544099 15.629404130631846 -0.0897853741076364 -1 0 0
1607 1 77.34547837603999 16.745254681311767 1.4848930632959076 -1 0 0
1613 1 81.21275229484199 16.745254681311767 1.4848930632959076 -1 0 0
1458 1 83.146389254243 13.396097224235765 1.4848930632959059 -1 0 0
1459 4 85.080026213644 12.280246673555844 -0.08978537410763894 -1 0 0
1464 1 87.013663173045 13.396097224235765 1.484893063295906 -1 0 0
1454 4 83.14638925424299 15.629404130631846 -0.0897853741076364 -1 0 0
1460 4 87.01366317304499 15.629404130631848 -0.08978537410763453 -1 0 0
1619 1 85.08002621364399 16.745254681311767 1.4848930632959076 -1 0 0
1465 4 88.947300132446 12.280246673555844 -0.08978537410763804 -1 0 0
1470 1 90.880937091847 13.396097224235765 1.484893063295906 -1 0 0
1471 4 92.814574051248 12.280246673555844 -0.08978537410763895 -1 0 0
1625 1 88.947300132446 16.745254681311767 1.4848930632959076 -1 0 0
1466 4 90.880937091847 15.629404130631846 -0.08978537410763676 -1 0 0
1631 1 92.814574051248 16.745254681311767 1.4848930632959076 -1 0 0
1476 1 94.748211010649 13.396097224235765 1.4848930632959059 -1 0 0
1477 4 96.68184797005 12.280246673555844 -0.08978537410763891 -1 0 0
1482 1 98.615484929451 13.396097224235765 1.4848930632959059 -1 0 0
1472 4 94.748211010649 15.629404130631846 -0.08978537410763646 -1 0 0
1637 1 96.68184797005 16.745254681311767 1.4848930632959076 -1 0 0
1478 4 98.615484929451 15.629404130631846 -0.08978537410763644 -1 0 0
1639 4 0 18.978561587707844 -0.08978537410763658 0 0 0
1645 4 3.867273918801999 18.978561587707844 -0.08978537410763658 0 0 0
1644 1 1.9336369594009994 20.094412138387767 1.4848930632959083 0 0 0
1650 1 5.800910878202998 20.094412138387767 1.4848930632959083 0 0 0
1640 4 1.9336369594009994 22.327719044783844 -0.08978537410764018 0 0 0
1646 4 5.800910878202998 22.327719044783844 -0.08978537410764022 0 0 0
1799 1 0 23.443569595463764 1.484893063295906 0 0 0
1805 1 3.867273918801999 23.443569595463764 1.484893063295906 0 0 0
1651 4 7.734547837603999 18.978561587707844 -0.08978537410763607 0 0 0
1657 4 11.601821756406002 18.97856158770784 -0.08978537410763612 0 0 0
1656 1 9.668184797004999 20.094412138387767 1.484893063295908 0 0 0
1652 4 9.668184797004999 22.327719044783844 -0.08978537410763957 0 0 0
1811 1 7.734547837603998 23.443569595463764 1.484893063295906 0 0 0
1817 1 11.601821756406002 23.443569595463764 1.4848930632959068 0 0 0
1663 4 15.469095675207997 18.97856158770784 -0.08978537410763753 0 0 0
1662 1 13.535458715807001 20.094412138387767 1.4848930632959079 0 0 0
1668 1 17.402732634608995 20.094412138387767 1.4848930632959083 0 0 0
1658 4 13.535458715807001 22.327719044783844 -0.0897853741076409 0 0 0
1664 4 17.402732634608995 22.327719044783844 -0.08978537410764072 0 0 0
1823 1 15.469095675207997 23.443569595463764 1.484893063295906 0 0 0
1669 4 19.336369594009994 18.97856158770784 -0.08978537410763662 0 0 0
1675 4 23.203643512811997 18.978561587707844 -0.0897853741076348 0 0 0
1674 1 21.270006553410994 20.094412138387767 1.4848930632959079 0 0 0
1670 4 21.270006553410994 22.327719044783844 -0.08978537410763951 0 0 0
1829 1 19.336369594009994 23.443569595463764 1.484893063295906 0 0 0
1835 1 23.203643512811997 23.443569595463764 1.4848930632959065 0 0 0
1681 4 27.070917431614006 18.978561587707844 -0.08978537410763578 0 0 0
1680 1 25.137280472213003 20.094412138387767 1.4848930632959088 0 0 0
1686 1 29.004554391015006 20.094412138387767 1.4848930632959083 0 0 0
1676 4 25.137280472213003 22.327719044783844 -0.08978537410763872 0 0 0
1682 4 29.004554391015006 22.327719044783844 -0.08978537410764026 0 0 0
1841 1 27.070917431614006 23.443569595463764 1.4848930632959059 0 0 0
1687 4 30.938191350416005 18.978561587707844 -0.08978537410763658 0 0 0
1693 4 34.805465269218004 18.978561587707844 -0.08978537410763658 0 0 0
1692 1 32.871828309817005 20.094412138387767 1.4848930632959083 0 0 0
1688 4 32.871828309817005 22.327719044783844 -0.08978537410764018 0 0 0
1847 1 30.938191350416005 23.443569595463764 1.484893063295906 0 0 0
1853 1 34.805465269218004 23.443569595463764 1.484893063295906 0 0 0
1699 4 38.67273918802 18.978561587707844 -0.08978537410763658 0 0 0
1698 1 36.739102228619004 20.094412138387767 1.4848930632959083 0 0 0
1704 1 40.606376147421 20.094412138387767 1.4848930632959083 0 0 0
1694 4 36.739102228619004 22.327719044783844 -0.08978537410764018 0 0 0
1700 4 40.606376147421 22.327719044783844 -0.08978537410764018 0 0 0
1859 1 38.67273918802 23.443569595463764 1.484893063295906 0 0 0
1705 4 42.540013106822 18.978561587707844 -0.08978537410763658 0 0 0
1711 4 46.407287025624 18.978561587707844 -0.08978537410763658 0 0 0
1710 1 44.473650066223 20.094412138387767 1.4848930632959083 0 0 0
1706 4 44.473650066223 22.327719044783844 -0.08978537410764018 0 0 0
1865 1 42.540013106822 23.443569595463764 1.484893063295906 0 0 0
1871 1 46.407287025624 23.443569595463764 1.484893063295906 0 0 0
1561 4 50.274560944426 18.978561587707844 -0.08978537410763658 -1 0 0
1716 1 48.340923985025 20.094412138387767 1.4848930632959083 0 0 0
1566 1 52.208197903827 20.094412138387767 1.4848930632959083 -1 0 0
1712 4 48.340923985025 22.327719044783844 -0.08978537410764018 0 0 0
1562 4 52.208197903827 22.327719044783844 -0.08978537410764018 -1 0 0
1721 1 50.274560944426 23.443569595463764 1.484893063295906 -1 0 0
1567 4 54.141834863228 18.978561587707844 -0.08978537410763658 -1 0 0
1573 4 58.00910878203 18.978561587707844 -0.08978537410763658 -1 0 0
1572 1 56.075471822629 20.094412138387767 1.4848930632959083 -1 0 0
1568 4 56.075471822629 22.327719044783844 -0.08978537410764018 -1 0 0
1727 1 54.141834863228 23.443569595463764 1.484893063295906 -1 0 0
1733 1 58.00910878203 23.443569595463764 1.484893063295906 -1 0 0
1579 4 61.876382700831996 18.978561587707844 -0.08978537410763573 -1 0 0
1578 1 59.942745741431 20.094412138387767 1.4848930632959083 -1 0 0
1584 1 63.810019660233 20.094412138387767 1.484893063295909 -1 0 0
1574 4 59.942745741431 22.327719044783844 -0.08978537410764022 -1 0 0
1580 4 63.810019660232996 22.327719044783844 -0.08978537410763934 -1 0 0
1739 1 61.876382700831996 23.443569595463764 1.4848930632959056 -1 0 0
1585 4 65.74365661963401 18.978561587707844 -0.08978537410763575 -1 0 0
1591 4 69.61093053843601 18.978561587707844 -0.08978537410763665 -1 0 0
1590 1 67.67729357903501 20.094412138387767 1.4848930632959085 -1 0 0
1586 4 67.677293579035 22.327719044783844 -0.0897853741076404 -1 0 0
1745 1 65.743656619634 23.443569595463764 1.4848930632959059 -1 0 0
1751 1 69.610930538436 23.443569595463764 1.484893063295906 -1 0 0
1597 4 73.47820445723801 18.978561587707844 -0.08978537410763665 -1 0 0
1596 1 71.54456749783701 20.094412138387767 1.4848930632959085 -1 0 0
1602 1 75.411841416639 20.094412138387767 1.4848930632959085 -1 0 0
1592 4 71.544567497837 22.327719044783844 -0.08978537410764034 -1 0 0
1598 4 75.41184141663899 22.327719044783844 -0.08978537410764034 -1 0 0
1757 1 73.478204457238 23.443569595463764 1.484893063295906 -1 0 0
1603 4 77.34547837604 18.978561587707844 -0.08978537410763662 -1 0 0
1609 4 81.212752294842 18.978561587707844 -0.08978537410763665 -1 0 0
1608 1 79.279115335441 20.094412138387767 1.4848930632959085 -1 0 0
1604 4 79.27911533544099 22.327719044783844 -0.08978537410764034 -1 0 0
1763 1 77.34547837603999 23.443569595463764 1.484893063295906 -1 0 0
1769 1 81.21275229484199 23.443569595463764 1.484893063295906 -1 0 0
1615 4 85.080026213644 18.97856158770784 -0.08978537410763669 -1 0 0
1614 1 83.146389254243 20.094412138387767 1.4848930632959085 -1 0 0
1620 1 87.013663173045 20.094412138387767 1.484893063295908 -1 0 0
1610 4 83.14638925424299 22.327719044783844 -0.08978537410764034 -1 0 0
1616 4 87.01366317304499 22.327719044783844 -0.08978537410763852 -1 0 0
1775 1 85.08002621364399 23.443569595463764 1.484893063295906 -1 0 0
1621 4 88.947300132446 18.978561587707844 -0.08978537410763565 -1 0 0
1627 4 92.814574051248 18.97856158770784 -0.08978537410763662 -1 0 0
1626 1 90.880937091847 20.094412138387767 1.4848930632959079 -1 0 0
1622 4 90.880937091847 22.327719044783844 -0.08978537410764051 -1 0 0
1781 1 88.947300132446 23.443569595463764 1.4848930632959068 -1 0 0
1787 1 92.814574051248 23.443569595463764 1.484893063295906 -1 0 0
1633 4 96.68184797005 18.978561587707844 -0.08978537410763658 -1 0 0
1632 1 94.748211010649 20.094412138387767 1.4848930632959083 -1 0 0
1638 1 98.615484929451 20.094412138387767 1.4848930632959083 -1 0 0
1628 4 94.748211010649 22.327719044783844 -0.08978537410764018 -1 0 0
1634 4 98.615484929451 22.327719044783844 -0.08978537410764016 -1 0 0
1793 1 96.68184797005 23.443569595463764 1.484893063295906 -1 0 0
1795 4 3.178977416487841e-19 25.676876501859844 -0.08978537410763814 0 0 0
1800 1 1.9336369594009994 26.792727052539764 1.4848930632959072 0 0 0
1801 4 3.867273918801999 25.676876501859844 -0.08978537410763812 0 0 0
1806 1 5.800910878202998 26.792727052539764 1.484893063295907 0 0 0
1796 4 1.9336369594009994 29.026033958935844 -0.08978537410763604 0 0 0
1802 4 5.800910878202998 29.026033958935844 -0.08978537410763605 0 0 0
1807 4 7.734547837603999 25.676876501859844 -0.08978537410763761 0 0 0
1812 1 9.668184797004999 26.792727052539767 1.484893063295907 0 0 0
1813 4 11.601821756406002 25.676876501859844 -0.08978537410763765 0 0 0
1808 4 9.668184797004999 29.026033958935848 -0.0897853741076348 0 0 0
1819 4 15.469095675207997 25.676876501859844 -0.08978537410763925 0 0 0
1818 1 13.535458715807001 26.792727052539767 1.4848930632959072 0 0 0
1824 1 17.402732634608995 26.792727052539764 1.4848930632959072 0 0 0
1814 4 13.535458715807001 29.026033958935844 -0.08978537410763639 0 0 0
1820 4 17.402732634608995 29.026033958935844 -0.08978537410763629 0 0 0
1825 4 19.336369594009994 25.676876501859844 -0.08978537410763815 0 0 0
1830 1 21.270006553410994 26.792727052539764 1.484893063295907 0 0 0
1831 4 23.203643512811997 25.676876501859844 -0.08978537410763635 0 0 0
1826 4 21.270006553410994 29.026033958935848 -0.08978537410763532 0 0 0
1836 1 25.137280472213003 26.792727052539764 1.4848930632959074 0 0 0
1837 4 27.070917431614006 25.676876501859844 -0.08978537410763739 0 0 0
1842 1 29.004554391015006 26.792727052539764 1.484893063295907 0 0 0
1832 4 25.137280472213003 29.026033958935848 -0.08978537410763394 0 0 0
1838 4 29.004554391015006 29.026033958935844 -0.08978537410763608 0 0 0
1843 4 30.938191350416005 25.676876501859844 -0.08978537410763812 0 0 0
1848 1 32.871828309817005 26.792727052539764 1.4848930632959072 0 0 0
1849 4 34.805465269218004 25.676876501859844 -0.08978537410763812 0 0 0
1844 4 32.871828309817005 29.026033958935844 -0.08978537410763604 0 0 0
1854 1 36.739102228619004 26.792727052539764 1.4848930632959072 0 0 0
1855 4 38.67273918802 25.676876501859844 -0.08978537410763812 0 0 0
1860 1 40.606376147421 26.792727052539764 1.4848930632959072 0 0 0
1850 4 36.739102228619004 29.026033958935844 -0.08978537410763604 0 0 0
1856 4 40.606376147421 29.026033958935844 -0.08978537410763604 0 0 0
1861 4 42.540013106822 25.676876501859844 -0.08978537410763812 0 0 0
1866 1 44.473650066223 26.792727052539764 1.4848930632959072 0 0 0
1867 4 46.407287025624 25.676876501859844 -0.08978537410763812 0 0 0
1862 4 44.473650066223 29.026033958935844 -0.08978537410763604 0 0 0
1872 1 48.340923985025 26.792727052539764 1.4848930632959072 0 0 0
1717 4 50.274560944426 25.676876501859844 -0.08978537410763814 -1 0 0
1722 1 52.208197903827 26.792727052539764 1.4848930632959072 -1 0 0
1868 4 48.340923985025 29.026033958935844 -0.08978537410763604 0 0 0
1718 4 52.208197903827 29.026033958935844 -0.08978537410763604 -1 0 0
1723 4 54.141834863228 25.676876501859844 -0.08978537410763812 -1 0 0
1728 1 56.075471822629 26.792727052539764 1.4848930632959072 -1 0 0
1729 4 58.00910878203 25.676876501859844 -0.08978537410763812 -1 0 0
1724 4 56.075471822629 29.026033958935844 -0.08978537410763604 -1 0 0
1734 1 59.942745741431 26.792727052539764 1.484893063295907 -1 0 0
1735 4 61.876382700831996 25.676876501859844 -0.08978537410763733 -1 0 0
1740 1 63.810019660233 26.792727052539764 1.4848930632959079 -1 0 0
1730 4 59.942745741431 29.026033958935844 -0.08978537410763607 -1 0 0
1736 4 63.810019660232996 29.026033958935848 -0.08978537410763476 -1 0 0
1741 4 65.74365661963401 25.676876501859844 -0.08978537410763732 -1 0 0
1746 1 67.67729357903501 26.792727052539764 1.4848930632959072 -1 0 0
1747 4 69.61093053843601 25.676876501859844 -0.0897853741076381 -1 0 0
1742 4 67.677293579035 29.026033958935844 -0.08978537410763601 -1 0 0
1752 1 71.54456749783701 26.792727052539764 1.4848930632959072 -1 0 0
1753 4 73.47820445723801 25.676876501859844 -0.0897853741076381 -1 0 0
1758 1 75.411841416639 26.792727052539764 1.4848930632959072 -1 0 0
1748 4 71.544567497837 29.026033958935844 -0.08978537410763598 -1 0 0
1754 4 75.41184141663899 29.026033958935844 -0.08978537410763598 -1 0 0
1759 4 77.34547837604 25.676876501859844 -0.0897853741076381 -1 0 0
1764 1 79.279115335441 26.792727052539764 1.4848930632959072 -1 0 0
1765 4 81.212752294842 25.676876501859844 -0.0897853741076381 -1 0 0
1760 4 79.27911533544099 29.026033958935844 -0.08978537410763598 -1 0 0
1770 1 83.146389254243 26.792727052539764 1.4848930632959072 -1 0 0