LAMMPS data file via write_data, version 29 Aug 2024, timestep = 2, units = metal

4080 atoms
4 atom types

0 99.31022624571 xlo xhi
0 97.472535955608 ylo yhi
-50 50 zlo zhi

Masses

1 28.085
2 28.085
3 32.06
4 32.06

Atoms # atomic

1022 3 1.6551704374287313 0.9554058285132491 0.005592696092292237 0 0 0
1026 3 4.965511312285734 0.9554058285132485 0.005592696092292938 0 0 0
1143 1 1.6551704374282663 2.8657131430237057 1.3271989601166376 0 0 0
1147 1 4.96551131228527 2.8657131430237066 1.3271989601166367 0 0 0
1145 3 3.3103408748568333 3.82224512132525 0.005592696092292369 0 0 0
1144 1 1.6504040539387478e-13 5.7325524358357045 1.3271989601166376 0 0 0
1148 1 3.3103408748571646 5.7325524358357045 1.3271989601166376 0 0 0
1030 3 8.275852187142734 0.955405828513249 0.005592696092292385 0 0 0
1034 3 11.586193061999731 0.955405828513249 0.005592696092292438 0 0 0
1151 1 8.275852187142268 2.865713143023706 1.3271989601166372 0 0 0
1155 1 11.586193061999266 2.8657131430237057 1.3271989601166374 0 0 0
1149 3 6.620681749713836 3.8222451213252504 0.005592696092291388 0 0 0
1153 3 9.931022624570835 3.82224512132525 0.0055926960922916555 0 0 0
1152 1 6.6206817497141675 5.732552435835704 1.3271989601166383 0 0 0
1156 1 9.931022624571165 5.732552435835704 1.3271989601166383 0 0 0
1038 3 14.896533936856729 0.9554058285132491 0.0055926960922921265 0 0 0
1159 1 14.896533936856267 2.865713143023706 1.3271989601166374 0 0 0
1157 3 13.241363499427832 3.82224512132525 0.00559269609229263 0 0 0
1161 3 16.551704374284835 3.8222451213252495 0.0055926960922922965 0 0 0
1160 1 13.241363499428163 5.732552435835704 1.3271989601166383 0 0 0
1164 1 16.551704374285162 5.7325524358357045 1.3271989601166374 0 0 0
1042 3 18.206874811713732 0.9554058285132487 0.005592696092293016 0 0 0
1046 3 21.517215686570733 0.9554058285132482 0.005592696092293385 0 0 0
1163 1 18.20687481171327 2.8657131430237066 1.3271989601166367 0 0 0
1167 1 21.517215686570268 2.8657131430237066 1.3271989601166363 0 0 0
1165 3 19.862045249141833 3.8222451213252504 0.005592696092290385 0 0 0
1169 3 23.172386123998837 3.8222451213252495 0.005592696092292906 0 0 0
1168 1 19.862045249142167 5.732552435835704 1.3271989601166376 0 0 0
1172 1 23.172386123999168 5.732552435835704 1.3271989601166392 0 0 0
1050 3 24.82755656142773 0.9554058285132496 0.005592696092291485 0 0 0
1054 3 28.13789743628473 0.9554058285132487 0.005592696092293025 0 0 0
1171 1 24.82755656142727 2.8657131430237053 1.327198960116638 0 0 0
1175 1 28.13789743628427 2.8657131430237066 1.3271989601166367 0 0 0
1173 3 26.482726998855835 3.82224512132525 0.005592696092292257 0 0 0
1176 1 26.48272699885616 5.7325524358357045 1.3271989601166372 0 0 0
1058 3 31.448238311141733 0.9554058285132485 0.005592696092293025 0 0 0
1062 3 34.75857918599873 0.9554058285132492 0.005592696092292238 0 0 0
1179 1 31.448238311141267 2.8657131430237066 1.3271989601166367 0 0 0
1183 1 34.75857918599827 2.8657131430237053 1.3271989601166378 0 0 0
1177 3 29.793067873712836 3.8222451213252504 0.005592696092290753 0 0 0
1181 3 33.103408748569834 3.82224512132525 0.005592696092292512 0 0 0
1180 1 29.793067873713166 5.732552435835704 1.3271989601166376 0 0 0
1184 1 33.10340874857017 5.732552435835704 1.3271989601166392 0 0 0
1066 3 38.06892006085573 0.9554058285132486 0.0055926960922930155 0 0 0
1187 1 38.06892006085527 2.8657131430237066 1.3271989601166363 0 0 0
1185 3 36.41374962342683 3.8222451213252495 0.005592696092292574 0 0 0
1189 3 39.724090498283836 3.8222451213252504 0.005592696092289982 0 0 0
1188 1 36.413749623427165 5.7325524358357045 1.3271989601166374 0 0 0
1192 1 39.72409049828417 5.732552435835704 1.3271989601166372 0 0 0
1070 3 41.379260935712736 0.9554058285132487 0.005592696092292668 0 0 0
1074 3 44.68960181056973 0.9554058285132492 0.005592696092292274 0 0 0
1191 1 41.37926093571227 2.865713143023706 1.327198960116637 0 0 0
1195 1 44.68960181056927 2.8657131430237053 1.327198960116638 0 0 0
1193 3 43.03443137314083 3.8222451213252495 0.005592696092293004 0 0 0
1197 3 46.34477224799783 3.8222451213252495 0.0055926960922925715 0 0 0
1196 1 43.03443137314117 5.732552435835704 1.3271989601166394 0 0 0
1200 1 46.344772247998165 5.7325524358357045 1.3271989601166374 0 0 0
1078 3 47.99994268542673 0.9554058285132484 0.0055926960922931 0 0 0
962 3 51.31028356028373 0.955405828513249 0.005592696092292424 -1 0 0
1199 1 47.99994268542627 2.8657131430237066 1.3271989601166363 0 0 0
1083 1 51.31028356028327 2.8657131430237057 1.3271989601166372 -1 0 0
1081 3 49.655113122854836 3.822245121325251 0.0055926960922902365 -1 0 0
1084 1 49.65511312285517 5.732552435835704 1.3271989601166383 -1 0 0
966 3 54.620624435140726 0.955405828513249 0.005592696092292333 -1 0 0
970 3 57.93096530999773 0.9554058285132487 0.005592696092292943 -1 0 0
1087 1 54.62062443514027 2.865713143023706 1.3271989601166372 -1 0 0
1091 1 57.93096530999727 2.865713143023706 1.3271989601166374 -1 0 0
1085 3 52.96545399771183 3.8222451213252495 0.00559269609229267 -1 0 0
1089 3 56.27579487256883 3.82224512132525 0.00559269609229136 -1 0 0
1088 1 52.96545399771217 5.732552435835704 1.3271989601166385 -1 0 0
1092 1 56.275794872569165 5.7325524358357045 1.3271989601166374 -1 0 0
974 3 61.24130618485473 0.9554058285132488 0.005592696092292267 -1 0 0
1095 1 61.24130618485427 2.865713143023706 1.3271989601166367 -1 0 0
1093 3 59.58613574742583 3.8222451213252504 0.0055926960922914985 -1 0 0
1097 3 62.89647662228283 3.8222451213252495 0.00559269609229287 -1 0 0
1096 1 59.58613574742617 5.732552435835704 1.3271989601166385 -1 0 0
1100 1 62.89647662228317 5.732552435835704 1.3271989601166383 -1 0 0
978 3 64.55164705971173 0.9554058285132493 0.0055926960922921595 -1 0 0
982 3 67.86198793456873 0.9554058285132486 0.005592696092292994 -1 0 0
1099 1 64.55164705971127 2.8657131430237057 1.3271989601166378 -1 0 0
1103 1 67.86198793456826 2.8657131430237066 1.3271989601166363 -1 0 0
1101 3 66.20681749713982 3.8222451213252504 0.005592696092290259 -1 0 0
1105 3 69.51715837199683 3.82224512132525 0.005592696092292163 -1 0 0
1104 1 66.20681749714016 5.732552435835704 1.3271989601166372 -1 0 0
1108 1 69.51715837199717 5.7325524358357045 1.3271989601166376 -1 0 0
986 3 71.17232880942574 0.9554058285132483 0.005592696092293451 -1 0 0
990 3 74.48266968428273 0.9554058285132497 0.005592696092291568 -1 0 0
1107 1 71.17232880942527 2.8657131430237066 1.327198960116637 -1 0 0
1111 1 74.48266968428227 2.8657131430237053 1.3271989601166383 -1 0 0
1109 3 72.82749924685383 3.8222451213252495 0.005592696092293018 -1 0 0
1112 1 72.82749924685417 5.732552435835704 1.3271989601166394 -1 0 0
994 3 77.79301055913973 0.9554058285132486 0.005592696092292952 -1 0 0
998 3 81.10335143399674 0.9554058285132497 0.005592696092291558 -1 0 0
1115 1 77.79301055913926 2.8657131430237066 1.3271989601166363 -1 0 0
1119 1 81.10335143399627 2.865713143023705 1.3271989601166387 -1 0 0
1113 3 76.13784012171082 3.8222451213252504 0.005592696092290444 -1 0 0
1117 3 79.44818099656783 3.8222451213252495 0.005592696092292662 -1 0 0
1116 1 76.13784012171116 5.7325524358357045 1.327198960116637 -1 0 0
1120 1 79.44818099656817 5.7325524358357045 1.3271989601166374 -1 0 0
1002 3 84.41369230885373 0.955405828513247 0.0055926960922951146 -1 0 0
1123 1 84.41369230885327 2.865713143023708 1.3271989601166345 -1 0 0
1121 3 82.75852187142482 3.82224512132525 0.0055926960922925584 -1 0 0
1125 3 86.06886274628184 3.8222451213252504 0.005592696092289916 -1 0 0
1124 1 82.75852187142516 5.732552435835703 1.32719896011664 -1 0 0
1128 1 86.06886274628218 5.732552435835704 1.3271989601166374 -1 0 0
1006 3 87.72403318371073 0.95540582851325 0.00559269609229111 -1 0 0
1010 3 91.03437405856774 0.9554058285132496 0.0055926960922915575 -1 0 0
1127 1 87.72403318371026 2.8657131430237053 1.3271989601166383 -1 0 0
1131 1 91.03437405856727 2.865713143023705 1.3271989601166385 -1 0 0
1129 3 89.37920362113883 3.8222451213252495 0.005592696092293185 -1 0 0
1133 3 92.68954449599582 3.82224512132525 0.005592696092292557 -1 0 0
1132 1 89.37920362113917 5.7325524358357045 1.3271989601166367 -1 0 0
1136 1 92.68954449599616 5.732552435835703 1.32719896011664 -1 0 0
1141 3 99.31022624570983 3.8222451213252495 0.0055926960922928325 -1 0 0
1014 3 94.34471493342473 0.955405828513247 0.005592696092295109 -1 0 0
1018 3 97.65505580828173 0.9554058285132497 0.005592696092291242 -1 0 0
1135 1 94.34471493342427 2.865713143023708 1.3271989601166347 -1 0 0
1139 1 97.65505580828126 2.865713143023705 1.327198960116638 -1 0 0
1137 3 95.99988537085284 3.8222451213252504 0.005592696092289915 -1 0 0
1140 1 95.99988537085318 5.732552435835704 1.3271989601166374 -1 0 0
1142 3 1.6551704374287313 6.689084414137248 0.005592696092292619 0 0 0
1146 3 4.965511312285734 6.689084414137247 0.005592696092293292 0 0 0
1263 1 1.6551704374282663 8.599391728647705 1.3271989601166376 0 0 0
1267 1 4.96551131228527 8.599391728647706 1.327198960116637 0 0 0
1265 3 3.3103408748568333 9.555923706949251 0.005592696092293156 0 0 0
1264 1 1.6498686289114576e-13 11.46623102145971 1.3271989601166372 0 0 0
1268 1 3.3103408748571646 11.46623102145971 1.327198960116637 0 0 0
1150 3 8.275852187142734 6.689084414137248 0.0055926960922927935 0 0 0
1154 3 11.586193061999731 6.689084414137248 0.00559269609229282 0 0 0
1271 1 8.275852187142268 8.599391728647705 1.3271989601166374 0 0 0
1275 1 11.586193061999266 8.599391728647705 1.3271989601166376 0 0 0
1269 3 6.620681749713835 9.555923706949251 0.0055926960922922115 0 0 0
1273 3 9.931022624570835 9.555923706949251 0.005592696092292482 0 0 0
1272 1 6.6206817497141675 11.466231021459707 1.3271989601166374 0 0 0
1276 1 9.931022624571165 11.466231021459707 1.3271989601166374 0 0 0
1158 3 14.896533936856729 6.689084414137248 0.005592696092292435 0 0 0
1279 1 14.896533936856267 8.599391728647705 1.3271989601166374 0 0 0
1277 3 13.241363499427832 9.555923706949251 0.005592696092293327 0 0 0
1281 3 16.551704374284835 9.555923706949251 0.005592696092292897 0 0 0
1280 1 13.241363499428163 11.466231021459707 1.3271989601166376 0 0 0
1284 1 16.551704374285162 11.46623102145971 1.3271989601166367 0 0 0
1162 3 18.206874811713732 6.689084414137247 0.005592696092293327 0 0 0
1166 3 21.517215686570733 6.689084414137247 0.005592696092293777 0 0 0
1283 1 18.20687481171327 8.599391728647706 1.327198960116637 0 0 0
1287 1 21.517215686570268 8.599391728647706 1.3271989601166365 0 0 0
1285 3 19.862045249141833 9.555923706949251 0.005592696092291242 0 0 0
1289 3 23.172386123998837 9.55592370694925 0.0055926960922935975 0 0 0
1288 1 19.862045249142167 11.466231021459707 1.3271989601166372 0 0 0
1292 1 23.172386123999168 11.466231021459707 1.3271989601166385 0 0 0
1170 3 24.82755656142773 6.689084414137248 0.005592696092291563 0 0 0
1174 3 28.13789743628473 6.689084414137247 0.0055926960922933295 0 0 0
1291 1 24.82755656142727 8.599391728647703 1.3271989601166383 0 0 0
1295 1 28.13789743628427 8.599391728647706 1.327198960116637 0 0 0
1293 3 26.482726998855835 9.55592370694925 0.005592696092293122 0 0 0
1296 1 26.48272699885616 11.46623102145971 1.3271989601166365 0 0 0
1178 3 31.448238311141733 6.689084414137247 0.005592696092293417 0 0 0
1182 3 34.75857918599873 6.689084414137247 0.005592696092292263 0 0 0
1299 1 31.448238311141267 8.599391728647705 1.327198960116637 0 0 0
1303 1 34.75857918599827 8.599391728647705 1.327198960116638 0 0 0
1297 3 29.793067873712836 9.555923706949251 0.005592696092291614 0 0 0
1301 3 33.103408748569834 9.555923706949251 0.005592696092293275 0 0 0
1300 1 29.793067873713166 11.466231021459707 1.327198960116637 0 0 0
1304 1 33.10340874857017 11.466231021459707 1.3271989601166385 0 0 0
1186 3 38.06892006085573 6.689084414137247 0.005592696092293186 0 0 0
1307 1 38.06892006085527 8.599391728647706 1.3271989601166365 0 0 0
1305 3 36.41374962342683 9.55592370694925 0.005592696092293441 0 0 0
1309 3 39.724090498283836 9.555923706949251 0.0055926960922908445 0 0 0
1308 1 36.413749623427165 11.46623102145971 1.3271989601166367 0 0 0
1312 1 39.72409049828417 11.466231021459707 1.3271989601166365 0 0 0
1190 3 41.379260935712736 6.689084414137248 0.005592696092293059 0 0 0
1194 3 44.68960181056973 6.689084414137247 0.0055926960922923 0 0 0
1311 1 41.37926093571227 8.599391728647705 1.3271989601166372 0 0 0
1315 1 44.68960181056927 8.599391728647705 1.327198960116638 0 0 0
1313 3 43.03443137314083 9.55592370694925 0.005592696092293693 0 0 0
1317 3 46.34477224799783 9.55592370694925 0.0055926960922934345 0 0 0
1316 1 43.03443137314117 11.466231021459707 1.3271989601166387 0 0 0
1320 1 46.344772247998165 11.46623102145971 1.3271989601166367 0 0 0
1198 3 47.99994268542673 6.689084414137247 0.005592696092293441 0 0 0
1082 3 51.31028356028373 6.689084414137248 0.005592696092292835 -1 0 0
1319 1 47.99994268542627 8.599391728647706 1.3271989601166365 0 0 0
1203 1 51.31028356028327 8.599391728647705 1.3271989601166374 -1 0 0
1201 3 49.655113122854836 9.555923706949251 0.005592696092291099 -1 0 0
1204 1 49.65511312285517 11.466231021459707 1.3271989601166376 -1 0 0
1086 3 54.620624435140726 6.689084414137248 0.005592696092292777 -1 0 0
1090 3 57.93096530999773 6.689084414137247 0.0055926960922932974 -1 0 0
1207 1 54.62062443514027 8.599391728647705 1.3271989601166376 -1 0 0
1211 1 57.93096530999727 8.599391728647705 1.3271989601166376 -1 0 0
1205 3 52.96545399771183 9.555923706949251 0.0055926960922934345 -1 0 0
1209 3 56.27579487256883 9.555923706949251 0.005592696092292076 -1 0 0
1208 1 52.96545399771217 11.466231021459707 1.3271989601166378 -1 0 0
1212 1 56.275794872569165 11.466231021459707 1.3271989601166365 -1 0 0
1094 3 61.24130618485473 6.689084414137248 0.00559269609229265 -1 0 0
1215 1 61.24130618485427 8.599391728647705 1.327198960116637 -1 0 0
1213 3 59.58613574742583 9.555923706949251 0.0055926960922924145 -1 0 0
1217 3 62.89647662228283 9.555923706949251 0.005592696092293577 -1 0 0
1216 1 59.58613574742617 11.466231021459707 1.3271989601166376 -1 0 0
1220 1 62.89647662228317 11.466231021459707 1.3271989601166376 -1 0 0
1098 3 64.55164705971173 6.689084414137248 0.005592696092292648 -1 0 0
1102 3 67.86198793456873 6.689084414137247 0.005592696092293167 -1 0 0
1219 1 64.55164705971127 8.599391728647705 1.3271989601166383 -1 0 0
1223 1 67.86198793456826 8.599391728647706 1.3271989601166365 -1 0 0
1221 3 66.20681749713982 9.555923706949251 0.005592696092291054 -1 0 0
1225 3 69.51715837199683 9.555923706949251 0.005592696092293021 -1 0 0
1224 1 66.20681749714016 11.466231021459707 1.3271989601166363 -1 0 0
1228 1 69.51715837199717 11.46623102145971 1.327198960116637 -1 0 0
1106 3 71.17232880942574 6.689084414137247 0.005592696092293691 -1 0 0
1110 3 74.48266968428273 6.689084414137248 0.005592696092291654 -1 0 0
1227 1 71.17232880942527 8.599391728647706 1.327198960116637 -1 0 0
1231 1 74.48266968428227 8.599391728647703 1.3271989601166383 -1 0 0
1229 3 72.82749924685383 9.55592370694925 0.005592696092293676 -1 0 0
1232 1 72.82749924685417 11.466231021459707 1.3271989601166387 -1 0 0
1114 3 77.79301055913973 6.689084414137247 0.005592696092293099 -1 0 0
1118 3 81.10335143399674 6.689084414137248 0.005592696092291663 -1 0 0
1235 1 77.79301055913926 8.599391728647706 1.3271989601166365 -1 0 0
1239 1 81.10335143399627 8.599391728647703 1.3271989601166387 -1 0 0
1233 3 76.13784012171082 9.555923706949251 0.005592696092291299 -1 0 0
1237 3 79.44818099656783 9.55592370694925 0.005592696092293455 -1 0 0
1236 1 76.13784012171116 11.466231021459707 1.327198960116636 -1 0 0
1240 1 79.44818099656817 11.46623102145971 1.3271989601166365 -1 0 0
1122 3 84.41369230885373 6.689084414137246 0.005592696092295309 -1 0 0
1243 1 84.41369230885327 8.599391728647706 1.3271989601166347 -1 0 0
1241 3 82.75852187142482 9.555923706949251 0.005592696092293251 -1 0 0
1245 3 86.06886274628184 9.555923706949251 0.005592696092290889 -1 0 0
1244 1 82.75852187142516 11.466231021459706 1.3271989601166392 -1 0 0
1248 1 86.06886274628218 11.466231021459707 1.3271989601166367 -1 0 0
1126 3 87.72403318371073 6.689084414137249 0.005592696092291137 -1 0 0
1130 3 91.03437405856774 6.689084414137248 0.005592696092291663 -1 0 0
1247 1 87.72403318371026 8.599391728647705 1.3271989601166383 -1 0 0
1251 1 91.03437405856727 8.599391728647703 1.3271989601166387 -1 0 0
1249 3 89.37920362113883 9.55592370694925 0.005592696092293939 -1 0 0
1253 3 92.68954449599582 9.555923706949251 0.005592696092293249 -1 0 0
1252 1 89.37920362113917 11.46623102145971 1.3271989601166363 -1 0 0
1256 1 92.68954449599616 11.466231021459706 1.3271989601166392 -1 0 0
1261 3 99.31022624570983 9.555923706949251 0.005592696092293622 -1 0 0
1134 3 94.34471493342473 6.689084414137246 0.005592696092295307 -1 0 0
1138 3 97.65505580828173 6.689084414137248 0.00559269609229142 -1 0 0
1255 1 94.34471493342427 8.599391728647706 1.3271989601166347 -1 0 0
1259 1 97.65505580828126 8.599391728647703 1.3271989601166383 -1 0 0
1257 3 95.99988537085284 9.555923706949251 0.005592696092290889 -1 0 0
1260 1 95.99988537085318 11.466231021459707 1.3271989601166367 -1 0 0
1262 3 1.6551704374287313 12.422762999761254 0.005592696092292179 0 0 0
1266 3 4.965511312285734 12.422762999761254 0.005592696092292949 0 0 0
1383 1 1.6551704374282663 14.333070314271708 1.3271989601166372 0 0 0
1385 3 3.310340874856833 15.289602292573253 0.0055926960922918255 0 0 0
1387 1 4.96551131228527 14.33307031427171 1.3271989601166365 0 0 0
1384 1 1.6510556090830528e-13 17.199909607083704 1.3271989601166385 0 0 0
1388 1 3.3103408748571646 17.199909607083704 1.3271989601166383 0 0 0
1270 3 8.275852187142734 12.422762999761254 0.005592696092292251 0 0 0
1274 3 11.586193061999731 12.422762999761254 0.005592696092292279 0 0 0
1389 3 6.620681749713836 15.289602292573253 0.005592696092290711 0 0 0
1391 1 8.275852187142268 14.33307031427171 1.327198960116637 0 0 0
1393 3 9.931022624570835 15.289602292573253 0.005592696092291118 0 0 0
1395 1 11.586193061999266 14.333070314271708 1.3271989601166372 0 0 0
1392 1 6.6206817497141675 17.199909607083704 1.327198960116639 0 0 0
1396 1 9.931022624571165 17.199909607083704 1.327198960116639 0 0 0
1278 3 14.896533936856729 12.422762999761254 0.005592696092292143 0 0 0
1397 3 13.241363499427832 15.289602292573253 0.005592696092292062 0 0 0
1399 1 14.896533936856267 14.333070314271708 1.327198960116637 0 0 0
1401 3 16.551704374284835 15.289602292573253 0.0055926960922916425 0 0 0
1400 1 13.241363499428163 17.199909607083704 1.327198960116639 0 0 0
1404 1 16.551704374285162 17.199909607083704 1.3271989601166383 0 0 0
1282 3 18.206874811713732 12.422762999761254 0.0055926960922931075 0 0 0
1286 3 21.517215686570733 12.422762999761252 0.005592696092293446 0 0 0
1403 1 18.20687481171327 14.33307031427171 1.3271989601166365 0 0 0
1405 3 19.862045249141833 15.289602292573253 0.005592696092289635 0 0 0
1407 1 21.517215686570268 14.33307031427171 1.3271989601166363 0 0 0
1409 3 23.172386123998837 15.289602292573253 0.005592696092292222 0 0 0
1408 1 19.862045249142167 17.199909607083704 1.3271989601166385 0 0 0
1412 1 23.172386123999168 17.199909607083704 1.3271989601166398 0 0 0
1290 3 24.82755656142773 12.422762999761254 0.00559269609229163 0 0 0
1294 3 28.13789743628473 12.422762999761254 0.0055926960922931136 0 0 0
1411 1 24.82755656142727 14.333070314271708 1.3271989601166378 0 0 0
1413 3 26.482726998855835 15.289602292573253 0.005592696092291535 0 0 0
1415 1 28.13789743628427 14.33307031427171 1.3271989601166365 0 0 0
1416 1 26.48272699885616 17.199909607083704 1.327198960116638 0 0 0
1298 3 31.448238311141733 12.422762999761252 0.005592696092293159 0 0 0
1302 3 34.75857918599873 12.422762999761254 0.00559269609229224 0 0 0
1417 3 29.793067873712836 15.289602292573253 0.005592696092290083 0 0 0
1419 1 31.448238311141267 14.33307031427171 1.3271989601166365 0 0 0
1421 3 33.103408748569834 15.289602292573253 0.005592696092291903 0 0 0
1423 1 34.75857918599827 14.333070314271708 1.3271989601166376 0 0 0
1420 1 29.793067873713166 17.199909607083704 1.3271989601166385 0 0 0
1424 1 33.10340874857017 17.199909607083704 1.3271989601166398 0 0 0
1306 3 38.06892006085573 12.422762999761254 0.005592696092293105 0 0 0
1425 3 36.41374962342683 15.289602292573251 0.005592696092291774 0 0 0
1427 1 38.06892006085527 14.33307031427171 1.3271989601166363 0 0 0
1429 3 39.724090498283836 15.289602292573253 0.005592696092289233 0 0 0
1428 1 36.413749623427165 17.199909607083704 1.3271989601166383 0 0 0
1432 1 39.72409049828417 17.199909607083704 1.327198960116638 0 0 0
1310 3 41.379260935712736 12.422762999761254 0.005592696092292798 0 0 0
1314 3 44.68960181056973 12.422762999761254 0.005592696092292277 0 0 0
1431 1 41.37926093571227 14.33307031427171 1.327198960116637 0 0 0
1433 3 43.03443137314083 15.289602292573253 0.00559269609229232 0 0 0
1435 1 44.68960181056927 14.333070314271708 1.3271989601166376 0 0 0
1437 3 46.34477224799783 15.289602292573251 0.005592696092291772 0 0 0
1436 1 43.03443137314117 17.199909607083704 1.3271989601166403 0 0 0
1440 1 46.344772247998165 17.199909607083704 1.327198960116638 0 0 0
1318 3 47.99994268542673 12.422762999761252 0.005592696092293115 0 0 0
1202 3 51.31028356028373 12.422762999761254 0.005592696092292284 -1 0 0
1439 1 47.99994268542627 14.33307031427171 1.3271989601166363 0 0 0
1321 3 49.655113122854836 15.289602292573253 0.005592696092289663 -1 0 0
1323 1 51.31028356028327 14.333070314271708 1.3271989601166372 -1 0 0
1324 1 49.65511312285517 17.199909607083704 1.327198960116639 -1 0 0
1206 3 54.620624435140726 12.422762999761254 0.005592696092292405 -1 0 0
1210 3 57.93096530999773 12.422762999761252 0.0055926960922928134 -1 0 0
1325 3 52.96545399771183 15.289602292573253 0.005592696092291988 -1 0 0
1327 1 54.62062443514027 14.33307031427171 1.327198960116637 -1 0 0
1329 3 56.27579487256883 15.289602292573253 0.005592696092290704 -1 0 0
1331 1 57.93096530999727 14.33307031427171 1.3271989601166372 -1 0 0
1328 1 52.96545399771217 17.199909607083704 1.3271989601166394 -1 0 0
1332 1 56.275794872569165 17.199909607083704 1.327198960116638 -1 0 0
1214 3 61.24130618485473 12.422762999761252 0.005592696092292187 -1 0 0
1333 3 59.58613574742583 15.289602292573253 0.005592696092291063 -1 0 0
1335 1 61.24130618485427 14.33307031427171 1.3271989601166365 -1 0 0
1337 3 62.89647662228283 15.289602292573253 0.0055926960922922375 -1 0 0
1336 1 59.58613574742617 17.199909607083704 1.3271989601166392 -1 0 0
1340 1 62.89647662228317 17.199909607083704 1.3271989601166392 -1 0 0
1218 3 64.55164705971173 12.422762999761254 0.0055926960922921005 -1 0 0
1222 3 67.86198793456873 12.422762999761254 0.005592696092293019 -1 0 0
1341 3 66.20681749713982 15.289602292573253 0.0055926960922897204 -1 0 0
1339 1 64.55164705971127 14.333070314271708 1.3271989601166378 -1 0 0
1343 1 67.86198793456826 14.33307031427171 1.327198960116636 -1 0 0
1345 3 69.51715837199683 15.289602292573253 0.005592696092291467 -1 0 0
1344 1 66.20681749714016 17.199909607083704 1.3271989601166378 -1 0 0
1348 1 69.51715837199717 17.199909607083704 1.3271989601166385 -1 0 0
1226 3 71.17232880942574 12.422762999761252 0.0055926960922935125 -1 0 0
1230 3 74.48266968428273 12.422762999761254 0.00559269609229166 -1 0 0
1347 1 71.17232880942527 14.33307031427171 1.3271989601166367 -1 0 0
1349 3 72.82749924685383 15.289602292573253 0.005592696092292421 -1 0 0
1351 1 74.48266968428227 14.333070314271708 1.3271989601166378 -1 0 0
1352 1 72.82749924685417 17.199909607083704 1.3271989601166403 -1 0 0
1234 3 77.79301055913973 12.422762999761254 0.005592696092293033 -1 0 0
1238 3 81.10335143399674 12.422762999761254 0.0055926960922915514 -1 0 0
1353 3 76.13784012171082 15.289602292573253 0.005592696092289841 -1 0 0
1355 1 77.79301055913926 14.33307031427171 1.327198960116636 -1 0 0
1357 3 79.44818099656783 15.289602292573251 0.005592696092291861 -1 0 0
1359 1 81.10335143399627 14.333070314271708 1.3271989601166383 -1 0 0
1356 1 76.13784012171116 17.199909607083704 1.3271989601166376 -1 0 0
1360 1 79.44818099656817 17.199909607083704 1.327198960116638 -1 0 0
1242 3 84.41369230885373 12.42276299976125 0.005592696092295156 -1 0 0
1361 3 82.75852187142482 15.289602292573253 0.005592696092291925 -1 0 0
1363 1 84.41369230885327 14.333070314271712 1.3271989601166343 -1 0 0
1365 3 86.06886274628184 15.289602292573253 0.0055926960922893535 -1 0 0
1364 1 82.75852187142516 17.199909607083704 1.3271989601166407 -1 0 0
1368 1 86.06886274628218 17.199909607083704 1.327198960116638 -1 0 0
1246 3 87.72403318371073 12.422762999761254 0.0055926960922910406 -1 0 0
1250 3 91.03437405856774 12.422762999761254 0.005592696092291542 -1 0 0
1367 1 87.72403318371026 14.333070314271708 1.3271989601166378 -1 0 0
1369 3 89.37920362113883 15.289602292573251 0.00559269609229245 -1 0 0
1371 1 91.03437405856727 14.333070314271708 1.3271989601166383 -1 0 0
1373 3 92.68954449599582 15.289602292573253 0.005592696092291924 -1 0 0
1372 1 89.37920362113917 17.199909607083704 1.3271989601166376 -1 0 0
1376 1 92.68954449599616 17.199909607083704 1.3271989601166407 -1 0 0
1381 3 99.31022624570983 15.289602292573253 0.005592696092292232 -1 0 0
1254 3 94.34471493342473 12.42276299976125 0.005592696092295154 -1 0 0
1258 3 97.65505580828173 12.422762999761254 0.005592696092291247 -1 0 0
1375 1 94.34471493342427 14.333070314271712 1.3271989601166343 -1 0 0
1377 3 95.99988537085284 15.289602292573253 0.005592696092289351 -1 0 0
1379 1 97.65505580828126 14.333070314271708 1.3271989601166378 -1 0 0
1380 1 95.99988537085318 17.199909607083704 1.327198960116638 -1 0 0
1382 3 1.6551704374287313 18.156441585385245 0.005592696092292547 0 0 0
1386 3 4.965511312285734 18.156441585385245 0.005592696092293214 0 0 0
1503 1 1.6551704374282663 20.0667488998957 1.3271989601166376 0 0 0
1507 1 4.96551131228527 20.0667488998957 1.327198960116637 0 0 0
1505 3 3.3103408748568333 21.023280878197248 0.005592696092293088 0 0 0
1504 1 1.6511064399573553e-13 22.933588192707703 1.3271989601166372 0 0 0
1508 1 3.3103408748571646 22.933588192707703 1.327198960116637 0 0 0
1390 3 8.275852187142734 18.156441585385245 0.005592696092292717 0 0 0
1394 3 11.586193061999731 18.156441585385245 0.005592696092292746 0 0 0
1511 1 8.275852187142268 20.0667488998957 1.3271989601166374 0 0 0
1515 1 11.586193061999266 20.0667488998957 1.3271989601166376 0 0 0
1509 3 6.620681749713836 21.023280878197248 0.005592696092292227 0 0 0
1513 3 9.931022624570835 21.023280878197248 0.005592696092292405 0 0 0
1512 1 6.6206817497141675 22.933588192707703 1.3271989601166374 0 0 0
1516 1 9.931022624571165 22.933588192707703 1.3271989601166376 0 0 0
1398 3 14.896533936856729 18.156441585385245 0.005592696092292433 0 0 0
1519 1 14.896533936856267 20.0667488998957 1.3271989601166374 0 0 0
1517 3 13.241363499427832 21.023280878197248 0.005592696092293251 0 0 0
1521 3 16.551704374284835 21.023280878197248 0.005592696092292909 0 0 0
1520 1 13.241363499428163 22.933588192707703 1.3271989601166378 0 0 0
1524 1 16.551704374285162 22.933588192707703 1.3271989601166367 0 0 0
1402 3 18.206874811713732 18.156441585385245 0.0055926960922931 0 0 0
1406 3 21.517215686570733 18.156441585385245 0.0055926960922934536 0 0 0
1523 1 18.20687481171327 20.0667488998957 1.327198960116637 0 0 0
1527 1 21.517215686570268 20.066748899895703 1.3271989601166367 0 0 0
1525 3 19.862045249141833 21.023280878197248 0.0055926960922912435 0 0 0
1529 3 23.172386123998837 21.023280878197248 0.005592696092293668 0 0 0
1528 1 19.862045249142167 22.933588192707703 1.327198960116637 0 0 0
1532 1 23.172386123999168 22.933588192707703 1.3271989601166383 0 0 0
1410 3 24.82755656142773 18.156441585385245 0.0055926960922917605 0 0 0
1414 3 28.13789743628473 18.156441585385245 0.005592696092293104 0 0 0
1531 1 24.82755656142727 20.0667488998957 1.3271989601166383 0 0 0
1535 1 28.13789743628427 20.0667488998957 1.327198960116637 0 0 0
1533 3 26.482726998855835 21.023280878197248 0.005592696092293 0 0 0
1536 1 26.48272699885616 22.933588192707706 1.3271989601166365 0 0 0
1418 3 31.448238311141733 18.156441585385245 0.00559269609229316 0 0 0
1422 3 34.75857918599873 18.156441585385245 0.00559269609229247 0 0 0
1539 1 31.448238311141267 20.0667488998957 1.327198960116637 0 0 0
1543 1 34.75857918599827 20.0667488998957 1.327198960116638 0 0 0
1537 3 29.793067873712836 21.023280878197248 0.0055926960922917015 0 0 0
1541 3 33.103408748569834 21.023280878197248 0.005592696092293345 0 0 0
1540 1 29.793067873713166 22.933588192707703 1.327198960116637 0 0 0
1544 1 33.10340874857017 22.933588192707703 1.3271989601166385 0 0 0
1426 3 38.06892006085573 18.156441585385245 0.005592696092293106 0 0 0
1547 1 38.06892006085527 20.066748899895703 1.3271989601166365 0 0 0
1545 3 36.41374962342683 21.023280878197248 0.005592696092293305 0 0 0
1549 3 39.724090498283836 21.023280878197248 0.005592696092290922 0 0 0
1548 1 36.413749623427165 22.933588192707703 1.3271989601166367 0 0 0
1552 1 39.72409049828417 22.933588192707703 1.3271989601166365 0 0 0
1430 3 41.379260935712736 18.156441585385245 0.005592696092292803 0 0 0
1434 3 44.68960181056973 18.156441585385245 0.005592696092292509 0 0 0
1551 1 41.37926093571227 20.0667488998957 1.3271989601166372 0 0 0
1555 1 44.68960181056927 20.0667488998957 1.327198960116638 0 0 0
1553 3 43.03443137314083 21.023280878197248 0.005592696092293746 0 0 0
1557 3 46.34477224799783 21.023280878197248 0.005592696092293299 0 0 0
1556 1 43.03443137314117 22.933588192707703 1.3271989601166387 0 0 0
1560 1 46.344772247998165 22.933588192707703 1.3271989601166367 0 0 0
1438 3 47.99994268542673 18.156441585385245 0.005592696092293382 0 0 0
1322 3 51.31028356028373 18.156441585385245 0.005592696092292765 -1 0 0
1559 1 47.99994268542627 20.066748899895703 1.3271989601166365 0 0 0
1443 1 51.31028356028327 20.0667488998957 1.3271989601166374 -1 0 0
1441 3 49.655113122854836 21.023280878197248 0.00559269609229118 -1 0 0
1444 1 49.65511312285517 22.933588192707703 1.3271989601166374 -1 0 0
1326 3 54.620624435140726 18.156441585385245 0.005592696092292659 -1 0 0