LAMMPS data file via write_data, version 29 Aug 2024, timestep = 2, units = metal

6120 atoms
6 atom types

0 99.31022624571 xlo xhi
0 97.472535955608 ylo yhi
-50 50 zlo zhi

Masses

1 28.085
2 28.085
3 28.085
4 32.06
5 32.06
6 32.06

Atoms # atomic

1022 4 1.6551704374287375 0.9554175354559452 0.0055500978695494484 0 0 0
1026 4 4.965511312285741 0.9554175354559447 0.005550097869550149 0 0 0
1143 1 1.65517043742826 2.865746071074883 1.3273538293388893 0 0 0
1147 1 4.965511312285264 2.865746071074884 1.3273538293388885 0 0 0
1145 4 3.3103408748568364 3.8222568282679457 0.005550097869549412 0 0 0
1144 1 1.620808336842766e-13 5.732585363886882 1.3273538293388896 0 0 0
1148 1 3.3103408748571614 5.732585363886882 1.3273538293388893 0 0 0
1030 4 8.275852187142739 0.9554175354559452 0.005550097869549509 0 0 0
1034 4 11.586193061999738 0.9554175354559452 0.005550097869549557 0 0 0
1151 1 8.275852187142261 2.865746071074883 1.327353829338889 0 0 0
1155 1 11.586193061999259 2.865746071074883 1.3273538293388893 0 0 0
1149 4 6.620681749713839 3.822256828267946 0.00555009786954852 0 0 0
1153 4 9.931022624570836 3.822256828267946 0.005550097869548676 0 0 0
1152 1 6.620681749714165 5.732585363886881 1.32735382933889 0 0 0
1156 1 9.931022624571161 5.732585363886881 1.32735382933889 0 0 0
1038 4 14.896533936856736 0.9554175354559452 0.005550097869549336 0 0 0
1159 1 14.896533936856262 2.865746071074883 1.3273538293388891 0 0 0
1157 4 13.241363499427836 3.8222568282679457 0.0055500978695496184 0 0 0
1161 4 16.551704374284835 3.8222568282679457 0.0055500978695491605 0 0 0
1160 1 13.241363499428159 5.732585363886881 1.32735382933889 0 0 0
1164 1 16.55170437428516 5.732585363886882 1.3273538293388893 0 0 0
1042 4 18.20687481171374 0.9554175354559448 0.005550097869550109 0 0 0
1046 4 21.51721568657074 0.9554175354559444 0.005550097869550563 0 0 0
1163 1 18.206874811713263 2.8657460710748834 1.3273538293388887 0 0 0
1167 1 21.517215686570264 2.865746071074884 1.3273538293388882 0 0 0
1165 4 19.862045249141836 3.822256828267946 0.005550097869547772 0 0 0
1169 4 23.17238612399884 3.8222568282679457 0.005550097869549542 0 0 0
1168 1 19.862045249142163 5.732585363886881 1.3273538293388898 0 0 0
1172 1 23.172386123999164 5.732585363886881 1.327353829338891 0 0 0
1050 4 24.827556561427738 0.9554175354559457 0.005550097869548522 0 0 0
1054 4 28.13789743628474 0.9554175354559448 0.0055500978695501215 0 0 0
1171 1 24.82755656142726 2.8657460710748826 1.32735382933889 0 0 0
1175 1 28.137897436284263 2.8657460710748834 1.3273538293388887 0 0 0
1173 4 26.48272699885584 3.8222568282679457 0.005550097869549237 0 0 0
1176 1 26.482726998856158 5.732585363886882 1.3273538293388891 0 0 0
1058 4 31.44823831114174 0.9554175354559447 0.005550097869550225 0 0 0
1062 4 34.758579185998734 0.9554175354559453 0.005550097869549178 0 0 0
1179 1 31.448238311141264 2.8657460710748834 1.3273538293388885 0 0 0
1183 1 34.758579185998265 2.8657460710748826 1.3273538293388898 0 0 0
1177 4 29.793067873712836 3.822256828267946 0.0055500978695478135 0 0 0
1181 4 33.10340874856984 3.8222568282679457 0.005550097869549618 0 0 0
1180 1 29.793067873713163 5.732585363886881 1.3273538293388896 0 0 0
1184 1 33.10340874857016 5.732585363886881 1.327353829338891 0 0 0
1066 4 38.06892006085574 0.9554175354559447 0.0055500978695500625 0 0 0
1187 1 38.06892006085527 2.865746071074884 1.3273538293388882 0 0 0
1185 4 36.41374962342684 3.8222568282679457 0.005550097869549537 0 0 0
1189 4 39.72409049828384 3.8222568282679465 0.0055500978695470155 0 0 0
1188 1 36.41374962342716 5.732585363886882 1.3273538293388893 0 0 0
1192 1 39.72409049828416 5.732585363886881 1.3273538293388891 0 0 0
1070 4 41.37926093571274 0.9554175354559449 0.005550097869549948 0 0 0
1074 4 44.689601810569734 0.9554175354559453 0.005550097869549214 0 0 0
1191 1 41.37926093571226 2.8657460710748834 1.327353829338889 0 0 0
1195 1 44.689601810569265 2.8657460710748826 1.3273538293388898 0 0 0
1193 4 43.03443137314084 3.8222568282679457 0.005550097869550002 0 0 0
1197 4 46.34477224799784 3.8222568282679457 0.005550097869549539 0 0 0
1196 1 43.03443137314116 5.73258536388688 1.3273538293388913 0 0 0
1200 1 46.34477224799816 5.732585363886882 1.3273538293388893 0 0 0
1078 4 47.99994268542674 0.9554175354559445 0.005550097869550299 0 0 0
962 4 51.310283560283736 0.9554175354559451 0.005550097869549611 -1 0 0
1199 1 47.99994268542627 2.865746071074884 1.3273538293388882 0 0 0
1083 1 51.31028356028326 2.865746071074883 1.327353829338889 -1 0 0
1081 4 49.65511312285484 3.822256828267947 0.00555009786954739 -1 0 0
1084 1 49.65511312285516 5.732585363886881 1.32735382933889 -1 0 0
966 4 54.62062443514073 0.9554175354559451 0.0055500978695495785 -1 0 0
970 4 57.93096530999774 0.955417535455945 0.005550097869550052 -1 0 0
1087 1 54.620624435140265 2.8657460710748834 1.3273538293388891 -1 0 0
1091 1 57.93096530999726 2.8657460710748834 1.3273538293388891 -1 0 0
1085 4 52.96545399771184 3.8222568282679457 0.0055500978695497 -1 0 0
1089 4 56.27579487256884 3.822256828267946 0.0055500978695484345 -1 0 0
1088 1 52.96545399771216 5.732585363886881 1.3273538293388905 -1 0 0
1092 1 56.27579487256916 5.732585363886882 1.3273538293388891 -1 0 0
974 4 61.241306184854736 0.9554175354559451 0.005550097869549476 -1 0 0
1095 1 61.24130618485426 2.8657460710748834 1.3273538293388887 -1 0 0
1093 4 59.586135747425836 3.822256828267946 0.0055500978695486106 -1 0 0
1097 4 62.89647662228284 3.822256828267945 0.005550097869549872 -1 0 0
1096 1 59.58613574742616 5.732585363886881 1.32735382933889 -1 0 0
1100 1 62.89647662228316 5.732585363886881 1.3273538293388902 -1 0 0
978 4 64.55164705971174 0.9554175354559454 0.005550097869549378 -1 0 0
982 4 67.86198793456875 0.9554175354559447 0.005550097869550038 -1 0 0
1099 1 64.55164705971126 2.8657460710748826 1.3273538293388898 -1 0 0
1103 1 67.86198793456825 2.865746071074884 1.3273538293388882 -1 0 0
1101 4 66.20681749713982 3.822256828267946 0.005550097869547331 -1 0 0
1105 4 69.51715837199683 3.8222568282679457 0.005550097869549301 -1 0 0
1104 1 66.20681749714016 5.732585363886881 1.3273538293388891 -1 0 0
1108 1 69.51715837199717 5.732585363886882 1.3273538293388896 -1 0 0
986 4 71.17232880942575 0.9554175354559444 0.005550097869550491 -1 0 0
990 4 74.48266968428274 0.9554175354559457 0.005550097869548615 -1 0 0
1107 1 71.17232880942525 2.8657460710748834 1.3273538293388887 -1 0 0
1111 1 74.48266968428226 2.8657460710748826 1.32735382933889 -1 0 0
1109 4 72.82749924685383 3.8222568282679457 0.005550097869550095 -1 0 0
1112 1 72.82749924685417 5.732585363886881 1.3273538293388911 -1 0 0
994 4 77.79301055913974 0.9554175354559447 0.005550097869550054 -1 0 0
998 4 81.10335143399674 0.9554175354559458 0.005550097869548592 -1 0 0
1115 1 77.79301055913925 2.865746071074884 1.3273538293388882 -1 0 0
1119 1 81.10335143399625 2.865746071074882 1.3273538293388905 -1 0 0
1113 4 76.13784012171082 3.8222568282679465 0.00555009786954761 -1 0 0
1117 4 79.44818099656783 3.822256828267945 0.0055500978695496115 -1 0 0
1116 1 76.13784012171116 5.732585363886882 1.3273538293388887 -1 0 0
1120 1 79.44818099656817 5.732585363886882 1.3273538293388891 -1 0 0
1002 4 84.41369230885374 0.9554175354559431 0.0055500978695522405 -1 0 0
1123 1 84.41369230885326 2.865746071074885 1.3273538293388865 -1 0 0
1121 4 82.75852187142483 3.822256828267946 0.005550097869549504 -1 0 0
1125 4 86.06886274628184 3.8222568282679465 0.00555009786954702 -1 0 0
1124 1 82.75852187142516 5.73258536388688 1.3273538293388918 -1 0 0
1128 1 86.06886274628216 5.732585363886881 1.3273538293388893 -1 0 0
1006 4 87.72403318371074 0.9554175354559461 0.00555009786954828 -1 0 0
1010 4 91.03437405856774 0.9554175354559458 0.005550097869548525 -1 0 0
1127 1 87.72403318371026 2.8657460710748826 1.32735382933889 -1 0 0
1131 1 91.03437405856725 2.865746071074882 1.3273538293388905 -1 0 0
1129 4 89.37920362113883 3.822256828267945 0.005550097869550194 -1 0 0
1133 4 92.68954449599583 3.822256828267946 0.005550097869549502 -1 0 0
1132 1 89.37920362113917 5.732585363886882 1.3273538293388887 -1 0 0
1136 1 92.68954449599616 5.73258536388688 1.3273538293388918 -1 0 0
1141 4 99.31022624570983 3.8222568282679457 0.0055500978695500365 -1 0 0
1014 4 94.34471493342474 0.9554175354559431 0.005550097869552238 -1 0 0
1018 4 97.65505580828174 0.9554175354559459 0.005550097869548475 -1 0 0
1135 1 94.34471493342426 2.865746071074885 1.3273538293388865 -1 0 0
1139 1 97.65505580828126 2.865746071074882 1.32735382933889 -1 0 0
1137 4 95.99988537085284 3.8222568282679465 0.005550097869547018 -1 0 0
1140 1 95.99988537085316 5.732585363886881 1.3273538293388893 -1 0 0
1142 4 1.6551704374287375 6.6890961210799444 0.005550097869549517 0 0 0
1146 4 4.965511312285741 6.689096121079944 0.00555009786955033 0 0 0
1263 1 1.65517043742826 8.599424656698883 1.3273538293388896 0 0 0
1267 1 4.965511312285264 8.599424656698883 1.327353829338889 0 0 0
1265 4 3.3103408748568364 9.555935413891946 0.005550097869550118 0 0 0
1264 1 1.6202781675711341e-13 11.466263949510886 1.327353829338889 0 0 0
1268 1 3.3103408748571614 11.466263949510886 1.327353829338889 0 0 0
1150 4 8.275852187142739 6.689096121079944 0.005550097869549832 0 0 0
1154 4 11.586193061999738 6.689096121079944 0.005550097869549861 0 0 0
1271 1 8.275852187142261 8.599424656698883 1.3273538293388893 0 0 0
1275 1 11.586193061999259 8.599424656698883 1.3273538293388898 0 0 0
1269 4 6.620681749713839 9.555935413891946 0.0055500978695492715 0 0 0
1273 4 9.931022624570836 9.555935413891946 0.005550097869549448 0 0 0
1272 1 6.620681749714165 11.466263949510886 1.3273538293388893 0 0 0
1276 1 9.931022624571161 11.466263949510886 1.3273538293388893 0 0 0
1158 4 14.896533936856736 6.6890961210799444 0.005550097869549471 0 0 0
1279 1 14.896533936856262 8.599424656698883 1.3273538293388893 0 0 0
1277 4 13.241363499427836 9.555935413891946 0.005550097869550281 0 0 0
1281 4 16.551704374284835 9.555935413891946 0.005550097869549939 0 0 0
1280 1 13.241363499428159 11.466263949510886 1.3273538293388896 0 0 0
1284 1 16.55170437428516 11.466263949510886 1.3273538293388887 0 0 0
1162 4 18.20687481171374 6.689096121079944 0.005550097869550276 0 0 0
1166 4 21.51721568657074 6.689096121079943 0.005550097869550721 0 0 0
1283 1 18.206874811713263 8.599424656698883 1.327353829338889 0 0 0
1287 1 21.517215686570264 8.599424656698883 1.3273538293388885 0 0 0
1285 4 19.862045249141836 9.555935413891946 0.005550097869548757 0 0 0
1289 4 23.17238612399884 9.555935413891946 0.005550097869550198 0 0 0
1288 1 19.862045249142163 11.466263949510886 1.327353829338889 0 0 0
1292 1 23.172386123999164 11.466263949510884 1.32735382933889 0 0 0
1170 4 24.827556561427738 6.6890961210799444 0.005550097869548625 0 0 0
1174 4 28.13789743628474 6.689096121079944 0.00555009786955028 0 0 0
1291 1 24.82755656142726 8.599424656698881 1.3273538293388902 0 0 0
1295 1 28.137897436284263 8.599424656698883 1.327353829338889 0 0 0
1293 4 26.48272699885584 9.555935413891946 0.005550097869550054 0 0 0
1296 1 26.482726998856158 11.466263949510886 1.3273538293388885 0 0 0
1178 4 31.44823831114174 6.689096121079944 0.005550097869550382 0 0 0
1182 4 34.758579185998734 6.689096121079944 0.0055500978695493435 0 0 0
1299 1 31.448238311141264 8.599424656698883 1.3273538293388887 0 0 0
1303 1 34.758579185998265 8.599424656698881 1.32735382933889 0 0 0
1297 4 29.793067873712836 9.555935413891946 0.005550097869548801 0 0 0
1301 4 33.10340874856984 9.555935413891946 0.005550097869550202 0 0 0
1300 1 29.793067873713163 11.466263949510886 1.327353829338889 0 0 0
1304 1 33.10340874857016 11.466263949510884 1.3273538293388902 0 0 0
1186 4 38.06892006085574 6.689096121079944 0.00555009786955021 0 0 0
1307 1 38.06892006085527 8.599424656698883 1.3273538293388885 0 0 0
1305 4 36.41374962342684 9.555935413891946 0.00555009786955042 0 0 0
1309 4 39.72409049828384 9.555935413891946 0.0055500978695480025 0 0 0
1308 1 36.41374962342716 11.466263949510886 1.3273538293388885 0 0 0
1312 1 39.72409049828416 11.466263949510886 1.3273538293388882 0 0 0
1190 4 41.37926093571274 6.689096121079944 0.0055500978695500434 0 0 0
1194 4 44.689601810569734 6.689096121079944 0.005550097869549379 0 0 0
1311 1 41.37926093571226 8.599424656698883 1.3273538293388891 0 0 0
1315 1 44.689601810569265 8.599424656698881 1.32735382933889 0 0 0
1313 4 43.03443137314084 9.555935413891946 0.0055500978695505855 0 0 0
1317 4 46.34477224799784 9.555935413891946 0.005550097869550415 0 0 0
1316 1 43.03443137314116 11.466263949510884 1.3273538293388907 0 0 0
1320 1 46.34477224799816 11.466263949510886 1.3273538293388885 0 0 0
1198 4 47.99994268542674 6.689096121079944 0.0055500978695504 0 0 0
1082 4 51.310283560283736 6.6890961210799444 0.0055500978695497884 -1 0 0
1319 1 47.99994268542627 8.599424656698883 1.3273538293388885 0 0 0
1203 1 51.31028356028326 8.599424656698883 1.3273538293388896 -1 0 0
1201 4 49.65511312285484 9.555935413891946 0.00555009786954819 -1 0 0
1204 1 49.65511312285516 11.466263949510886 1.3273538293388893 -1 0 0
1086 4 54.62062443514073 6.689096121079944 0.0055500978695498535 -1 0 0
1090 4 57.93096530999774 6.689096121079944 0.0055500978695502395 -1 0 0
1207 1 54.620624435140265 8.599424656698883 1.3273538293388893 -1 0 0
1211 1 57.93096530999726 8.599424656698883 1.3273538293388896 -1 0 0
1205 4 52.96545399771184 9.555935413891946 0.005550097869550529 -1 0 0
1209 4 56.27579487256884 9.555935413891946 0.005550097869549283 -1 0 0
1208 1 52.96545399771216 11.466263949510886 1.3273538293388896 -1 0 0
1212 1 56.27579487256916 11.466263949510886 1.3273538293388882 -1 0 0
1094 4 61.241306184854736 6.689096121079944 0.0055500978695496965 -1 0 0
1215 1 61.24130618485426 8.599424656698883 1.327353829338889 -1 0 0
1213 4 59.586135747425836 9.555935413891946 0.005550097869549407 -1 0 0
1217 4 62.89647662228284 9.555935413891946 0.0055500978695505266 -1 0 0
1216 1 59.58613574742616 11.466263949510886 1.3273538293388893 -1 0 0
1220 1 62.89647662228316 11.466263949510886 1.3273538293388896 -1 0 0
1098 4 64.55164705971174 6.6890961210799444 0.005550097869549684 -1 0 0
1102 4 67.86198793456875 6.689096121079944 0.005550097869550204 -1 0 0
1219 1 64.55164705971126 8.599424656698883 1.3273538293388902 -1 0 0
1223 1 67.86198793456825 8.599424656698883 1.3273538293388885 -1 0 0
1221 4 66.20681749713982 9.555935413891946 0.005550097869548131 -1 0 0
1225 4 69.51715837199683 9.555935413891946 0.005550097869549943 -1 0 0
1224 1 66.20681749714016 11.466263949510886 1.3273538293388882 -1 0 0
1228 1 69.51715837199717 11.466263949510886 1.327353829338889 -1 0 0
1106 4 71.17232880942575 6.689096121079943 0.005550097869550623 -1 0 0
1110 4 74.48266968428274 6.6890961210799444 0.005550097869548774 -1 0 0
1227 1 71.17232880942525 8.599424656698883 1.327353829338889 -1 0 0
1231 1 74.48266968428226 8.599424656698881 1.3273538293388902 -1 0 0
1229 4 72.82749924685383 9.555935413891946 0.005550097869550567 -1 0 0
1232 1 72.82749924685417 11.466263949510884 1.3273538293388907 -1 0 0
1114 4 77.79301055913974 6.689096121079944 0.005550097869550134 -1 0 0
1118 4 81.10335143399674 6.6890961210799444 0.00555009786954873 -1 0 0
1235 1 77.79301055913925 8.599424656698883 1.3273538293388885 -1 0 0
1239 1 81.10335143399625 8.599424656698881 1.3273538293388907 -1 0 0
1233 4 76.13784012171082 9.555935413891946 0.0055500978695483425 -1 0 0
1237 4 79.44818099656783 9.555935413891946 0.0055500978695505075 -1 0 0
1236 1 76.13784012171116 11.466263949510886 1.327353829338888 -1 0 0
1240 1 79.44818099656817 11.466263949510886 1.3273538293388885 -1 0 0
1122 4 84.41369230885374 6.689096121079942 0.005550097869552409 -1 0 0
1243 1 84.41369230885326 8.599424656698885 1.3273538293388867 -1 0 0
1241 4 82.75852187142483 9.555935413891946 0.005550097869550227 -1 0 0
1245 4 86.06886274628184 9.555935413891946 0.005550097869547934 -1 0 0
1244 1 82.75852187142516 11.466263949510884 1.327353829338891 -1 0 0
1248 1 86.06886274628216 11.466263949510886 1.3273538293388885 -1 0 0
1126 4 87.72403318371074 6.6890961210799444 0.005550097869548304 -1 0 0
1130 4 91.03437405856774 6.6890961210799444 0.005550097869548724 -1 0 0
1247 1 87.72403318371026 8.599424656698881 1.3273538293388902 -1 0 0
1251 1 91.03437405856725 8.599424656698881 1.3273538293388907 -1 0 0
1249 4 89.37920362113883 9.555935413891945 0.005550097869550791 -1 0 0
1253 4 92.68954449599583 9.555935413891946 0.005550097869550225 -1 0 0
1252 1 89.37920362113917 11.466263949510886 1.327353829338888 -1 0 0
1256 1 92.68954449599616 11.466263949510884 1.327353829338891 -1 0 0
1261 4 99.31022624570983 9.555935413891946 0.0055500978695505925 -1 0 0
1134 4 94.34471493342474 6.689096121079942 0.005550097869552405 -1 0 0
1138 4 97.65505580828174 6.6890961210799444 0.005550097869548394 -1 0 0
1255 1 94.34471493342426 8.599424656698885 1.3273538293388867 -1 0 0
1259 1 97.65505580828126 8.599424656698881 1.3273538293388902 -1 0 0
1257 4 95.99988537085284 9.555935413891946 0.005550097869547932 -1 0 0
1260 1 95.99988537085316 11.466263949510886 1.3273538293388885 -1 0 0
1262 4 1.6551704374287375 12.42277470670395 0.005550097869549233 0 0 0
1266 4 4.965511312285741 12.42277470670395 0.005550097869550059 0 0 0
1383 1 1.65517043742826 14.333103242322887 1.3273538293388891 0 0 0
1385 4 3.3103408748568364 15.289613999515948 0.005550097869548444 0 0 0
1387 1 4.965511312285264 14.333103242322888 1.3273538293388885 0 0 0
1384 1 1.6208795194558855e-13 17.19994253513488 1.3273538293388902 0 0 0
1388 1 3.3103408748571614 17.19994253513488 1.32735382933889 0 0 0
1270 4 8.275852187142739 12.42277470670395 0.0055500978695492845 0 0 0
1274 4 11.586193061999738 12.42277470670395 0.0055500978695493105 0 0 0
1389 4 6.620681749713839 15.289613999515948 0.0055500978695476105 0 0 0
1391 1 8.275852187142261 14.333103242322887 1.3273538293388887 0 0 0
1393 4 9.931022624570836 15.289613999515948 0.005550097869547836 0 0 0
1395 1 11.586193061999259 14.333103242322887 1.3273538293388891 0 0 0
1392 1 6.620681749714165 17.19994253513488 1.3273538293388905 0 0 0
1396 1 9.931022624571161 17.19994253513488 1.3273538293388907 0 0 0
1278 4 14.896533936856736 12.42277470670395 0.005550097869549099 0 0 0
1397 4 13.241363499427836 15.289613999515948 0.005550097869548851 0 0 0
1399 1 14.896533936856262 14.333103242322887 1.327353829338889 0 0 0
1401 4 16.551704374284835 15.289613999515948 0.005550097869548385 0 0 0
1400 1 13.241363499428159 17.19994253513488 1.3273538293388907 0 0 0
1404 1 16.55170437428516 17.19994253513488 1.3273538293388898 0 0 0
1282 4 18.20687481171374 12.42277470670395 0.005550097869550025 0 0 0
1286 4 21.51721568657074 12.422774706703947 0.0055500978695505986 0 0 0
1403 1 18.206874811713263 14.333103242322888 1.3273538293388885 0 0 0
1405 4 19.862045249141836 15.289613999515948 0.005550097869546869 0 0 0
1407 1 21.517215686570264 14.333103242322888 1.327353829338888 0 0 0
1409 4 23.17238612399884 15.289613999515948 0.0055500978695487094 0 0 0
1408 1 19.862045249142163 17.19994253513488 1.3273538293388902 0 0 0
1412 1 23.172386123999164 17.19994253513488 1.3273538293388913 0 0 0
1290 4 24.827556561427738 12.422774706703951 0.005550097869548579 0 0 0
1294 4 28.13789743628474 12.42277470670395 0.00555009786955004 0 0 0
1411 1 24.82755656142726 14.333103242322887 1.32735382933889 0 0 0
1413 4 26.48272699885584 15.289613999515948 0.005550097869548354 0 0 0
1415 1 28.137897436284263 14.333103242322888 1.3273538293388885 0 0 0
1416 1 26.482726998856158 17.19994253513488 1.3273538293388896 0 0 0
1298 4 31.44823831114174 12.42277470670395 0.005550097869550262 0 0 0
1302 4 34.758579185998734 12.42277470670395 0.005550097869549155 0 0 0
1417 4 29.793067873712836 15.289613999515948 0.0055500978695469105 0 0 0
1419 1 31.448238311141264 14.333103242322888 1.3273538293388885 0 0 0
1421 4 33.10340874856984 15.289613999515948 0.005550097869548719 0 0 0
1423 1 34.758579185998265 14.333103242322887 1.3273538293388898 0 0 0
1420 1 29.793067873713163 17.19994253513488 1.32735382933889 0 0 0
1424 1 33.10340874857016 17.19994253513488 1.3273538293388916 0 0 0
1306 4 38.06892006085574 12.42277470670395 0.005550097869550032 0 0 0
1425 4 36.41374962342684 15.289613999515948 0.005550097869548656 0 0 0
1427 1 38.06892006085527 14.333103242322888 1.327353829338888 0 0 0
1429 4 39.72409049828384 15.289613999515948 0.0055500978695461785 0 0 0
1428 1 36.41374962342716 17.19994253513488 1.3273538293388898 0 0 0
1432 1 39.72409049828416 17.19994253513488 1.3273538293388898 0 0 0
1310 4 41.37926093571274 12.42277470670395 0.005550097869549915 0 0 0
1314 4 44.689601810569734 12.42277470670395 0.0055500978695491926 0 0 0
1431 1 41.37926093571226 14.333103242322887 1.3273538293388887 0 0 0
1433 4 43.03443137314084 15.289613999515948 0.005550097869549169 0 0 0
1435 1 44.689601810569265 14.333103242322887 1.3273538293388898 0 0 0
1437 4 46.34477224799784 15.289613999515948 0.005550097869548649 0 0 0
1436 1 43.03443137314116 17.199942535134877 1.3273538293388918 0 0 0
1440 1 46.34477224799816 17.19994253513488 1.3273538293388898 0 0 0
1318 4 47.99994268542674 12.42277470670395 0.005550097869550286 0 0 0
1202 4 51.310283560283736 12.42277470670395 0.005550097869549338 -1 0 0
1439 1 47.99994268542627 14.333103242322888 1.327353829338888 0 0 0
1321 4 49.65511312285484 15.289613999515948 0.00555009786954648 -1 0 0
1323 1 51.31028356028326 14.333103242322887 1.327353829338889 -1 0 0
1324 1 49.65511312285516 17.199942535134877 1.3273538293388907 -1 0 0
1206 4 54.62062443514073 12.42277470670395 0.005550097869549617 -1 0 0
1210 4 57.93096530999774 12.42277470670395 0.005550097869549837 -1 0 0
1325 4 52.96545399771184 15.289613999515948 0.005550097869548783 -1 0 0
1327 1 54.620624435140265 14.333103242322887 1.327353829338889 -1 0 0
1329 4 56.27579487256884 15.289613999515948 0.0055500978695474665 -1 0 0
1331 1 57.93096530999726 14.333103242322887 1.327353829338889 -1 0 0
1328 1 52.96545399771216 17.19994253513488 1.327353829338891 -1 0 0
1332 1 56.27579487256916 17.19994253513488 1.3273538293388898 -1 0 0
1214 4 61.241306184854736 12.42277470670395 0.0055500978695492455 -1 0 0
1333 4 59.586135747425836 15.289613999515948 0.005550097869547775 -1 0 0
1335 1 61.24130618485426 14.333103242322887 1.3273538293388882 -1 0 0
1337 4 62.89647662228284 15.289613999515948 0.005550097869549088 -1 0 0
1336 1 59.58613574742616 17.19994253513488 1.3273538293388907 -1 0 0
1340 1 62.89647662228316 17.19994253513488 1.327353829338891 -1 0 0
1218 4 64.55164705971174 12.42277470670395 0.005550097869549148 -1 0 0
1222 4 67.86198793456875 12.42277470670395 0.005550097869549922 -1 0 0
1341 4 66.20681749713982 15.289613999515948 0.005550097869546501 -1 0 0
1339 1 64.55164705971126 14.333103242322887 1.3273538293388896 -1 0 0
1343 1 67.86198793456825 14.333103242322888 1.327353829338888 -1 0 0
1345 4 69.51715837199683 15.289613999515948 0.005550097869548268 -1 0 0
1344 1 66.20681749714016 17.19994253513488 1.3273538293388896 -1 0 0
1348 1 69.51715837199717 17.19994253513488 1.3273538293388902 -1 0 0
1226 4 71.17232880942575 12.422774706703947 0.00555009786955059 -1 0 0
1230 4 74.48266968428274 12.422774706703951 0.005550097869548492 -1 0 0
1347 1 71.17232880942525 14.333103242322888 1.3273538293388885 -1 0 0
1349 4 72.82749924685383 15.289613999515948 0.005550097869549168 -1 0 0
1351 1 74.48266968428226 14.333103242322887 1.3273538293388898 -1 0 0
1352 1 72.82749924685417 17.19994253513488 1.3273538293388918 -1 0 0
1234 4 77.79301055913974 12.42277470670395 0.005550097869549951 -1 0 0
1238 4 81.10335143399674 12.422774706703951 0.0055500978695485715 -1 0 0
1353 4 76.13784012171082 15.289613999515948 0.005550097869546503 -1 0 0
1355 1 77.79301055913925 14.333103242322888 1.327353829338888 -1 0 0
1357 4 79.44818099656783 15.289613999515948 0.005550097869548726 -1 0 0
1359 1 81.10335143399625 14.333103242322887 1.3273538293388905 -1 0 0
1356 1 76.13784012171116 17.19994253513488 1.3273538293388893 -1 0 0
1360 1 79.44818099656817 17.19994253513488 1.3273538293388898 -1 0 0
1242 4 84.41369230885374 12.422774706703947 0.005550097869552139 -1 0 0
1361 4 82.75852187142483 15.289613999515948 0.005550097869548772 -1 0 0
1363 1 84.41369230885326 14.333103242322888 1.3273538293388862 -1 0 0
1365 4 86.06886274628184 15.289613999515948 0.005550097869546211 -1 0 0
1364 1 82.75852187142516 17.199942535134877 1.3273538293388925 -1 0 0
1368 1 86.06886274628216 17.199942535134877 1.3273538293388898 -1 0 0
1246 4 87.72403318371074 12.422774706703951 0.005550097869548069 -1 0 0
1250 4 91.03437405856774 12.422774706703951 0.005550097869548574 -1 0 0
1367 1 87.72403318371026 14.333103242322887 1.32735382933889 -1 0 0
1369 4 89.37920362113883 15.289613999515947 0.005550097869549254 -1 0 0
1371 1 91.03437405856725 14.333103242322887 1.3273538293388905 -1 0 0
1373 4 92.68954449599583 15.289613999515948 0.005550097869548771 -1 0 0
1372 1 89.37920362113917 17.19994253513488 1.3273538293388893 -1 0 0
1376 1 92.68954449599616 17.199942535134877 1.3273538293388925 -1 0 0
1381 4 99.31022624570983 15.289613999515948 0.0055500978695490035 -1 0 0
1254 4 94.34471493342474 12.422774706703947 0.005550097869552136 -1 0 0
1258 4 97.65505580828174 12.422774706703951 0.005550097869548242 -1 0 0
1375 1 94.34471493342426 14.333103242322888 1.3273538293388862 -1 0 0
1377 4 95.99988537085284 15.289613999515948 0.005550097869546192 -1 0 0
1379 1 97.65505580828126 14.333103242322887 1.3273538293388898 -1 0 0
1380 1 95.99988537085316 17.199942535134877 1.3273538293388898 -1 0 0
1382 4 1.6551704374287375 18.156453292327942 0.005550097869549913 0 0 0
1386 4 4.965511312285741 18.156453292327942 0.005550097869550538 0 0 0
1503 1 1.65517043742826 20.06678182794688 1.3273538293388896 0 0 0
1507 1 4.965511312285264 20.06678182794688 1.327353829338889 0 0 0
1505 4 3.3103408748568364 21.023292585139945 0.005550097869550035 0 0 0
1504 1 1.620833377810316e-13 22.933621120758882 1.3273538293388891 0 0 0
1508 1 3.3103408748571614 22.933621120758882 1.3273538293388887 0 0 0
1390 4 8.275852187142739 18.156453292327942 0.005550097869550045 0 0 0
1394 4 11.586193061999738 18.156453292327942 0.005550097869550073 0 0 0
1511 1 8.275852187142261 20.06678182794688 1.3273538293388893 0 0 0
1515 1 11.586193061999259 20.06678182794688 1.3273538293388896 0 0 0
1509 4 6.620681749713839 21.023292585139945 0.0055500978695492455 0 0 0
1513 4 9.931022624570836 21.023292585139945 0.005550097869549513 0 0 0
1512 1 6.620681749714165 22.933621120758882 1.3273538293388893 0 0 0
1516 1 9.931022624571161 22.933621120758882 1.3273538293388893 0 0 0
1398 4 14.896533936856736 18.156453292327942 0.0055500978695498145 0 0 0
1519 1 14.896533936856262 20.06678182794688 1.3273538293388893 0 0 0
1517 4 13.241363499427836 21.023292585139945 0.005550097869550332 0 0 0
1521 4 16.551704374284835 21.023292585139945 0.005550097869549936 0 0 0
1520 1 13.241363499428159 22.933621120758882 1.3273538293388896 0 0 0
1524 1 16.55170437428516 22.933621120758882 1.3273538293388887 0 0 0
1402 4 18.20687481171374 18.156453292327942 0.00555009786955061 0 0 0
1406 4 21.51721568657074 18.156453292327942 0.00555009786955087 0 0 0
1523 1 18.206874811713263 20.06678182794688 1.327353829338889 0 0 0
1527 1 21.517215686570264 20.06678182794688 1.3273538293388887 0 0 0
1525 4 19.862045249141836 21.023292585139945 0.005550097869548742 0 0 0
1529 4 23.17238612399884 21.023292585139945 0.005550097869550347 0 0 0
1528 1 19.862045249142163 22.933621120758882 1.327353829338889 0 0 0
1532 1 23.172386123999164 22.933621120758882 1.3273538293388902 0 0 0
1410 4 24.827556561427738 18.156453292327942 0.00555009786954916 0 0 0
1414 4 28.13789743628474 18.156453292327942 0.005550097869550614 0 0 0
1531 1 24.82755656142726 20.06678182794688 1.3273538293388902 0 0 0
1535 1 28.137897436284263 20.06678182794688 1.327353829338889 0 0 0
1533 4 26.48272699885584 21.023292585139945 0.005550097869550014 0 0 0
1536 1 26.482726998856158 22.933621120758882 1.3273538293388885 0 0 0
1418 4 31.44823831114174 18.156453292327942 0.005550097869550537 0 0 0
1422 4 34.758579185998734 18.156453292327942 0.005550097869549806 0 0 0
1539 1 31.448238311141264 20.06678182794688 1.327353829338889 0 0 0
1543 1 34.758579185998265 20.06678182794688 1.32735382933889 0 0 0
1537 4 29.793067873712836 21.023292585139945 0.005550097869548787 0 0 0
1541 4 33.10340874856984 21.023292585139945 0.005550097869550269 0 0 0
1540 1 29.793067873713163 22.933621120758882 1.327353829338889 0 0 0
1544 1 33.10340874857016 22.933621120758882 1.3273538293388902 0 0 0
1426 4 38.06892006085574 18.156453292327942 0.005550097869550467 0 0 0
1547 1 38.06892006085527 20.06678182794688 1.3273538293388885 0 0 0
1545 4 36.41374962342684 21.023292585139945 0.005550097869550311 0 0 0
1549 4 39.72409049828384 21.023292585139945 0.005550097869548059 0 0 0
1548 1 36.41374962342716 22.933621120758882 1.3273538293388887 0 0 0
1552 1 39.72409049828416 22.933621120758882 1.3273538293388882 0 0 0
1430 4 41.37926093571274 18.156453292327942 0.0055500978695502 0 0 0
1434 4 44.689601810569734 18.156453292327942 0.00555009786954984 0 0 0
1551 1 41.37926093571226 20.06678182794688 1.3273538293388891 0 0 0
1555 1 44.689601810569265 20.06678182794688 1.32735382933889 0 0 0
1553 4 43.03443137314084 21.023292585139945 0.005550097869550734 0 0 0
1557 4 46.34477224799784 21.023292585139945 0.005550097869550304 0 0 0
1556 1 43.03443137314116 22.933621120758882 1.3273538293388907 0 0 0
1560 1 46.34477224799816 22.933621120758882 1.3273538293388887 0 0 0
1438 4 47.99994268542674 18.156453292327942 0.005550097869550611 0 0 0
1322 4 51.310283560283736 18.156453292327942 0.005550097869550085 -1 0 0
1559 1 47.99994268542627 20.06678182794688 1.3273538293388887 0 0 0
1443 1 51.31028356028326 20.06678182794688 1.3273538293388893 -1 0 0
1441 4 49.65511312285484 21.023292585139945 0.005550097869548234 -1 0 0
1444 1 49.65511312285516 22.933621120758882 1.3273538293388893 -1 0 0
1326 4 54.62062443514073 18.156453292327942 0.005550097869550074 -1 0 0