LAMMPS data file via write_data, version 29 Aug 2024, timestep = 0, units = metal

2958 atoms
3 atom types

0 98.445092055953 xlo xhi
0 99.955252425674 ylo yhi
0 18.806187691475 zlo zhi

Masses

1 186.207
2 127.6
3 127.6

Atoms # atomic

1486 1 3.3946583467565006 0 1.9020331958490004 0 0 0
1492 1 6.7893166935134985 0 1.9020331958490004 0 0 0
1498 1 10.183975040270504 0 1.9020331958490004 0 0 0
1504 1 13.578633387027502 0 1.9020331958490004 0 0 0
1510 1 16.9732917337845 0 1.9020331958490004 0 0 0
1516 1 20.367950080541497 0 1.9020331958490004 0 0 0
1522 1 23.762608427298495 0 1.9020331958490004 0 0 0
1528 1 27.157266774055508 0 1.9020331958490004 0 0 0
1534 1 30.551925120812506 0 1.9020331958490004 0 0 0
1540 1 33.9465834675695 0 1.9020331958490004 0 0 0
1546 1 37.3412418143265 0 1.9020331958490004 0 0 0
1552 1 40.7359001610835 0 1.9020331958490004 0 0 0
1558 1 44.1305585078405 0 1.9020331958490004 0 0 0
1564 1 47.525216854597495 0 1.9020331958490004 0 0 0
1396 1 50.9198752013545 0 1.9020331958490004 -1 0 0
1402 1 54.3145335481115 0 1.9020331958490004 -1 0 0
1408 1 57.709191894868496 0 1.9020331958490004 -1 0 0
1414 1 61.1038502416255 0 1.9020331958490004 -1 0 0
1420 1 64.49850858838249 0 1.9020331958490004 -1 0 0
1426 1 67.8931669351395 0 1.9020331958490004 -1 0 0
1432 1 71.2878252818965 0 1.9020331958490004 -1 0 0
1438 1 74.6824836286535 0 1.9020331958490004 -1 0 0
1444 1 78.0771419754105 0 1.9020331958490004 -1 0 0
1450 1 81.4718003221675 0 1.9020331958490004 -1 0 0
1456 1 84.86645866892451 0 1.9020331958490004 -1 0 0
1462 1 88.26111701568149 0 1.9020331958490004 -1 0 0
1468 1 91.6557753624385 0 1.9020331958490004 -1 0 0
1474 1 95.0504337091955 0 1.9020331958490004 -1 0 0
1480 1 98.4450920559525 0 1.9020331958490004 -1 0 0
1659 1 1.697329173378499 2.9398603654610014 1.9020331958490004 0 0 0
1488 3 3.3946583467565006 1.959906910306998 0 0 0 0
1665 1 5.091987520135504 2.9398603654610014 1.9020331958490004 0 0 0
1494 3 6.7893166935134985 1.959906910306998 0 0 0 0
1671 1 8.486645866892502 2.9398603654610014 1.9020331958490004 0 0 0
1500 3 10.183975040270504 1.959906910306998 0 0 0 0
1677 1 11.8813042136495 2.9398603654610014 1.9020331958490004 0 0 0
1506 3 13.578633387027502 1.959906910306998 0 0 0 0
1683 1 15.275962560406505 2.9398603654610014 1.9020331958490004 0 0 0
1512 3 16.9732917337845 1.959906910306998 0 0 0 0
1689 1 18.670620907163503 2.9398603654610014 1.9020331958490004 0 0 0
1518 3 20.367950080541497 1.959906910306998 0 0 0 0
1695 1 22.0652792539205 2.9398603654610014 1.9020331958490004 0 0 0
1524 3 23.762608427298495 1.959906910306998 0 0 0 0
1701 1 25.4599376006775 2.9398603654610014 1.9020331958490004 0 0 0
1530 3 27.157266774055508 1.959906910306998 0 0 0 0
1707 1 28.854595947434497 2.9398603654610014 1.9020331958490004 0 0 0
1536 3 30.551925120812506 1.959906910306998 0 0 0 0
1713 1 32.249254294191495 2.9398603654610014 1.9020331958490004 0 0 0
1542 3 33.9465834675695 1.959906910306998 0 0 0 0
1719 1 35.64391264094851 2.9398603654610014 1.9020331958490004 0 0 0
1548 3 37.3412418143265 1.959906910306998 0 0 0 0
1725 1 39.038570987705505 2.9398603654610014 1.9020331958490004 0 0 0
1554 3 40.7359001610835 1.959906910306998 0 0 0 0
1731 1 42.4332293344625 2.9398603654610014 1.9020331958490004 0 0 0
1560 3 44.1305585078405 1.959906910306998 0 0 0 0
1737 1 45.8278876812195 2.9398603654610014 1.9020331958490004 0 0 0
1566 3 47.525216854597495 1.959906910306998 0 0 0 0
1569 1 49.2225460279765 2.9398603654610014 1.9020331958490004 -1 0 0
1398 3 50.9198752013545 1.959906910306998 0 -1 0 0
1575 1 52.6172043747335 2.9398603654610014 1.9020331958490004 -1 0 0
1404 3 54.3145335481115 1.959906910306998 0 -1 0 0
1410 3 57.709191894868496 1.959906910306998 0 -1 0 0
1581 1 56.0118627214905 2.9398603654610014 1.9020331958490004 -1 0 0
1587 1 59.4065210682475 2.9398603654610014 1.9020331958490004 -1 0 0
1416 3 61.1038502416255 1.959906910306998 0 -1 0 0
1593 1 62.8011794150045 2.9398603654610014 1.9020331958490004 -1 0 0
1422 3 64.49850858838249 1.959906910306998 0 -1 0 0
1599 1 66.1958377617615 2.9398603654610014 1.9020331958490004 -1 0 0
1428 3 67.8931669351395 1.959906910306998 0 -1 0 0
1434 3 71.2878252818965 1.959906910306998 0 -1 0 0
1605 1 69.5904961085185 2.9398603654610014 1.9020331958490004 -1 0 0
1611 1 72.9851544552755 2.9398603654610014 1.9020331958490004 -1 0 0
1440 3 74.6824836286535 1.959906910306998 0 -1 0 0
1617 1 76.3798128020325 2.9398603654610014 1.9020331958490004 -1 0 0
1446 3 78.0771419754105 1.959906910306998 0 -1 0 0
1623 1 79.7744711487895 2.9398603654610014 1.9020331958490004 -1 0 0
1452 3 81.4718003221675 1.959906910306998 0 -1 0 0
1458 3 84.86645866892451 1.959906910306998 0 -1 0 0
1629 1 83.1691294955465 2.9398603654610014 1.9020331958490004 -1 0 0
1635 1 86.5637878423035 2.9398603654610014 1.9020331958490004 -1 0 0
1464 3 88.26111701568149 1.959906910306998 0 -1 0 0
1641 1 89.9584461890605 2.9398603654610014 1.9020331958490004 -1 0 0
1470 3 91.6557753624385 1.959906910306998 0 -1 0 0
1647 1 93.3531045358175 2.9398603654610014 1.9020331958490004 -1 0 0
1476 3 95.0504337091955 1.959906910306998 0 -1 0 0
1482 3 98.4450920559525 1.959906910306998 0 -1 0 0
1653 1 96.7477628825745 2.9398603654610014 1.9020331958490004 -1 0 0
1661 3 1.697329173378499 4.899767275767999 0 0 0 0
1667 3 5.091987520135504 4.899767275767999 0 0 0 0
1673 3 8.486645866892502 4.899767275767999 0 0 0 0
1679 3 11.8813042136495 4.899767275767999 0 0 0 0
1685 3 15.275962560406505 4.899767275767999 0 0 0 0
1691 3 18.670620907163503 4.899767275767999 0 0 0 0
1697 3 22.0652792539205 4.899767275767999 0 0 0 0
1703 3 25.4599376006775 4.899767275767999 0 0 0 0
1709 3 28.854595947434497 4.899767275767999 0 0 0 0
1715 3 32.249254294191495 4.899767275767999 0 0 0 0
1721 3 35.64391264094851 4.899767275767999 0 0 0 0
1727 3 39.038570987705505 4.899767275767999 0 0 0 0
1733 3 42.4332293344625 4.899767275767999 0 0 0 0
1739 3 45.8278876812195 4.899767275767999 0 0 0 0
1571 3 49.2225460279765 4.899767275767999 0 -1 0 0
1577 3 52.6172043747335 4.899767275767999 0 -1 0 0
1583 3 56.0118627214905 4.899767275767999 0 -1 0 0
1589 3 59.4065210682475 4.899767275767999 0 -1 0 0
1595 3 62.8011794150045 4.899767275767999 0 -1 0 0
1601 3 66.1958377617615 4.899767275767999 0 -1 0 0
1607 3 69.5904961085185 4.899767275767999 0 -1 0 0
1613 3 72.9851544552755 4.899767275767999 0 -1 0 0
1619 3 76.3798128020325 4.899767275767999 0 -1 0 0
1625 3 79.7744711487895 4.899767275767999 0 -1 0 0
1631 3 83.1691294955465 4.899767275767999 0 -1 0 0
1637 3 86.5637878423035 4.899767275767999 0 -1 0 0
1643 3 89.9584461890605 4.899767275767999 0 -1 0 0
1649 3 93.3531045358175 4.899767275767999 0 -1 0 0
1655 3 96.7477628825745 4.899767275767999 0 -1 0 0
1660 1 3.3946583467565006 5.879720730921996 1.9020331958490004 0 0 0
1666 1 6.7893166935134985 5.879720730921996 1.9020331958490004 0 0 0
1672 1 10.183975040270504 5.879720730921996 1.9020331958490004 0 0 0
1678 1 13.578633387027502 5.879720730921996 1.9020331958490004 0 0 0
1684 1 16.9732917337845 5.879720730921996 1.9020331958490004 0 0 0
1690 1 20.367950080541497 5.879720730921996 1.9020331958490004 0 0 0
1696 1 23.762608427298495 5.879720730921996 1.9020331958490004 0 0 0
1702 1 27.157266774055508 5.879720730921996 1.9020331958490004 0 0 0
1708 1 30.551925120812506 5.879720730921996 1.9020331958490004 0 0 0
1714 1 33.9465834675695 5.879720730921996 1.9020331958490004 0 0 0
1720 1 37.3412418143265 5.879720730921996 1.9020331958490004 0 0 0
1726 1 40.7359001610835 5.879720730921996 1.9020331958490004 0 0 0
1732 1 44.1305585078405 5.879720730921996 1.9020331958490004 0 0 0
1738 1 47.525216854597495 5.879720730921996 1.9020331958490004 0 0 0
1570 1 50.9198752013545 5.879720730921996 1.9020331958490004 -1 0 0
1576 1 54.3145335481115 5.879720730921996 1.9020331958490004 -1 0 0
1582 1 57.709191894868496 5.879720730921996 1.9020331958490004 -1 0 0
1588 1 61.1038502416255 5.879720730921996 1.9020331958490004 -1 0 0
1594 1 64.49850858838249 5.879720730921996 1.9020331958490004 -1 0 0
1600 1 67.8931669351395 5.879720730921996 1.9020331958490004 -1 0 0
1606 1 71.2878252818965 5.879720730921996 1.9020331958490004 -1 0 0
1612 1 74.6824836286535 5.879720730921996 1.9020331958490004 -1 0 0
1618 1 78.0771419754105 5.879720730921996 1.9020331958490004 -1 0 0
1624 1 81.4718003221675 5.879720730921996 1.9020331958490004 -1 0 0
1630 1 84.86645866892451 5.879720730921996 1.9020331958490004 -1 0 0
1636 1 88.26111701568149 5.879720730921996 1.9020331958490004 -1 0 0
1642 1 91.6557753624385 5.879720730921996 1.9020331958490004 -1 0 0
1648 1 95.0504337091955 5.879720730921996 1.9020331958490004 -1 0 0
1654 1 98.4450920559525 5.879720730921996 1.9020331958490004 -1 0 0
1833 1 1.697329173378499 8.819581096382997 1.9020331958490004 0 0 0
1662 3 3.3946583467565006 7.839627641229001 0 0 0 0
1839 1 5.091987520135504 8.819581096382997 1.9020331958490004 0 0 0
1668 3 6.7893166935134985 7.839627641229001 0 0 0 0
1845 1 8.486645866892502 8.819581096382997 1.9020331958490004 0 0 0
1674 3 10.183975040270504 7.839627641229001 0 0 0 0
1851 1 11.8813042136495 8.819581096382997 1.9020331958490004 0 0 0
1680 3 13.578633387027502 7.839627641229001 0 0 0 0
1857 1 15.275962560406505 8.819581096382997 1.9020331958490004 0 0 0
1686 3 16.9732917337845 7.839627641229001 0 0 0 0
1863 1 18.670620907163503 8.819581096382997 1.9020331958490004 0 0 0
1692 3 20.367950080541497 7.839627641229001 0 0 0 0
1869 1 22.0652792539205 8.819581096382997 1.9020331958490004 0 0 0
1698 3 23.762608427298495 7.839627641229001 0 0 0 0
1875 1 25.4599376006775 8.819581096382997 1.9020331958490004 0 0 0
1704 3 27.157266774055508 7.839627641229001 0 0 0 0
1881 1 28.854595947434497 8.819581096382997 1.9020331958490004 0 0 0
1710 3 30.551925120812506 7.839627641229001 0 0 0 0
1887 1 32.249254294191495 8.819581096382997 1.9020331958490004 0 0 0
1716 3 33.9465834675695 7.839627641229001 0 0 0 0
1893 1 35.64391264094851 8.819581096382997 1.9020331958490004 0 0 0
1722 3 37.3412418143265 7.839627641229001 0 0 0 0
1899 1 39.038570987705505 8.819581096382997 1.9020331958490004 0 0 0
1728 3 40.7359001610835 7.839627641229001 0 0 0 0
1905 1 42.4332293344625 8.819581096382997 1.9020331958490004 0 0 0
1734 3 44.1305585078405 7.839627641229001 0 0 0 0
1911 1 45.8278876812195 8.819581096382997 1.9020331958490004 0 0 0
1740 3 47.525216854597495 7.839627641229001 0 0 0 0
1743 1 49.2225460279765 8.819581096382997 1.9020331958490004 -1 0 0
1572 3 50.9198752013545 7.839627641229001 0 -1 0 0
1749 1 52.6172043747335 8.819581096382997 1.9020331958490004 -1 0 0
1578 3 54.3145335481115 7.839627641229001 0 -1 0 0
1584 3 57.709191894868496 7.839627641229001 0 -1 0 0
1755 1 56.0118627214905 8.819581096382997 1.9020331958490004 -1 0 0
1761 1 59.4065210682475 8.819581096382997 1.9020331958490004 -1 0 0
1590 3 61.1038502416255 7.839627641229001 0 -1 0 0
1767 1 62.8011794150045 8.819581096382997 1.9020331958490004 -1 0 0
1596 3 64.49850858838249 7.839627641229001 0 -1 0 0
1773 1 66.1958377617615 8.819581096382997 1.9020331958490004 -1 0 0
1602 3 67.8931669351395 7.839627641229001 0 -1 0 0
1608 3 71.2878252818965 7.839627641229001 0 -1 0 0
1779 1 69.5904961085185 8.819581096382997 1.9020331958490004 -1 0 0
1785 1 72.9851544552755 8.819581096382997 1.9020331958490004 -1 0 0
1614 3 74.6824836286535 7.839627641229001 0 -1 0 0
1791 1 76.3798128020325 8.819581096382997 1.9020331958490004 -1 0 0
1620 3 78.0771419754105 7.839627641229001 0 -1 0 0
1797 1 79.7744711487895 8.819581096382997 1.9020331958490004 -1 0 0
1626 3 81.4718003221675 7.839627641229001 0 -1 0 0
1632 3 84.86645866892451 7.839627641229001 0 -1 0 0
1803 1 83.1691294955465 8.819581096382997 1.9020331958490004 -1 0 0
1809 1 86.5637878423035 8.819581096382997 1.9020331958490004 -1 0 0
1638 3 88.26111701568149 7.839627641229001 0 -1 0 0
1815 1 89.9584461890605 8.819581096382997 1.9020331958490004 -1 0 0
1644 3 91.6557753624385 7.839627641229001 0 -1 0 0
1821 1 93.3531045358175 8.819581096382997 1.9020331958490004 -1 0 0
1650 3 95.0504337091955 7.839627641229001 0 -1 0 0
1656 3 98.4450920559525 7.839627641229001 0 -1 0 0
1827 1 96.7477628825745 8.819581096382997 1.9020331958490004 -1 0 0
1835 3 1.697329173378499 10.779488006689995 0 0 0 0
1841 3 5.091987520135504 10.779488006689995 0 0 0 0
1847 3 8.486645866892502 10.779488006689995 0 0 0 0
1853 3 11.8813042136495 10.779488006689995 0 0 0 0
1859 3 15.275962560406505 10.779488006689995 0 0 0 0
1865 3 18.670620907163503 10.779488006689995 0 0 0 0
1871 3 22.0652792539205 10.779488006689995 0 0 0 0
1877 3 25.4599376006775 10.779488006689995 0 0 0 0
1883 3 28.854595947434497 10.779488006689995 0 0 0 0
1889 3 32.249254294191495 10.779488006689995 0 0 0 0
1895 3 35.64391264094851 10.779488006689995 0 0 0 0
1901 3 39.038570987705505 10.779488006689995 0 0 0 0
1907 3 42.4332293344625 10.779488006689995 0 0 0 0
1913 3 45.8278876812195 10.779488006689995 0 0 0 0
1745 3 49.2225460279765 10.779488006689995 0 -1 0 0
1751 3 52.6172043747335 10.779488006689995 0 -1 0 0
1757 3 56.0118627214905 10.779488006689995 0 -1 0 0
1763 3 59.4065210682475 10.779488006689995 0 -1 0 0
1769 3 62.8011794150045 10.779488006689995 0 -1 0 0
1775 3 66.1958377617615 10.779488006689995 0 -1 0 0
1781 3 69.5904961085185 10.779488006689995 0 -1 0 0
1787 3 72.9851544552755 10.779488006689995 0 -1 0 0
1793 3 76.3798128020325 10.779488006689995 0 -1 0 0
1799 3 79.7744711487895 10.779488006689995 0 -1 0 0
1805 3 83.1691294955465 10.779488006689995 0 -1 0 0
1811 3 86.5637878423035 10.779488006689995 0 -1 0 0
1817 3 89.9584461890605 10.779488006689995 0 -1 0 0
1823 3 93.3531045358175 10.779488006689995 0 -1 0 0
1829 3 96.7477628825745 10.779488006689995 0 -1 0 0
1834 1 3.3946583467565006 11.759441461843998 1.9020331958490004 0 0 0
1840 1 6.7893166935134985 11.759441461843998 1.9020331958490004 0 0 0
1846 1 10.183975040270504 11.759441461843998 1.9020331958490004 0 0 0
1852 1 13.578633387027502 11.759441461843998 1.9020331958490004 0 0 0
1858 1 16.9732917337845 11.759441461843998 1.9020331958490004 0 0 0
1864 1 20.367950080541497 11.759441461843998 1.9020331958490004 0 0 0
1870 1 23.762608427298495 11.759441461843998 1.9020331958490004 0 0 0
1876 1 27.157266774055508 11.759441461843998 1.9020331958490004 0 0 0
1882 1 30.551925120812506 11.759441461843998 1.9020331958490004 0 0 0
1888 1 33.9465834675695 11.759441461843998 1.9020331958490004 0 0 0
1894 1 37.3412418143265 11.759441461843998 1.9020331958490004 0 0 0
1900 1 40.7359001610835 11.759441461843998 1.9020331958490004 0 0 0
1906 1 44.1305585078405 11.759441461843998 1.9020331958490004 0 0 0
1912 1 47.525216854597495 11.759441461843998 1.9020331958490004 0 0 0
1744 1 50.9198752013545 11.759441461843998 1.9020331958490004 -1 0 0
1750 1 54.3145335481115 11.759441461843998 1.9020331958490004 -1 0 0
1756 1 57.709191894868496 11.759441461843998 1.9020331958490004 -1 0 0
1762 1 61.1038502416255 11.759441461843998 1.9020331958490004 -1 0 0
1768 1 64.49850858838249 11.759441461843998 1.9020331958490004 -1 0 0
1774 1 67.8931669351395 11.759441461843998 1.9020331958490004 -1 0 0
1780 1 71.2878252818965 11.759441461843998 1.9020331958490004 -1 0 0
1786 1 74.6824836286535 11.759441461843998 1.9020331958490004 -1 0 0
1792 1 78.0771419754105 11.759441461843998 1.9020331958490004 -1 0 0
1798 1 81.4718003221675 11.759441461843998 1.9020331958490004 -1 0 0
1804 1 84.86645866892451 11.759441461843998 1.9020331958490004 -1 0 0
1810 1 88.26111701568149 11.759441461843998 1.9020331958490004 -1 0 0
1816 1 91.6557753624385 11.759441461843998 1.9020331958490004 -1 0 0
1822 1 95.0504337091955 11.759441461843998 1.9020331958490004 -1 0 0
1828 1 98.4450920559525 11.759441461843998 1.9020331958490004 -1 0 0
2007 1 1.697329173378499 14.699301827305 1.9020331958490004 0 0 0
1836 3 3.3946583467565006 13.719348372150996 0 0 0 0
2013 1 5.091987520135504 14.699301827305 1.9020331958490004 0 0 0
1842 3 6.7893166935134985 13.719348372150996 0 0 0 0
2019 1 8.486645866892502 14.699301827305 1.9020331958490004 0 0 0
1848 3 10.183975040270504 13.719348372150996 0 0 0 0
2025 1 11.8813042136495 14.699301827305 1.9020331958490004 0 0 0
1854 3 13.578633387027502 13.719348372150996 0 0 0 0
2031 1 15.275962560406505 14.699301827305 1.9020331958490004 0 0 0
1860 3 16.9732917337845 13.719348372150996 0 0 0 0
2037 1 18.670620907163503 14.699301827305 1.9020331958490004 0 0 0
1866 3 20.367950080541497 13.719348372150996 0 0 0 0
2043 1 22.0652792539205 14.699301827305 1.9020331958490004 0 0 0
1872 3 23.762608427298495 13.719348372150996 0 0 0 0
2049 1 25.4599376006775 14.699301827305 1.9020331958490004 0 0 0
1878 3 27.157266774055508 13.719348372150996 0 0 0 0
2055 1 28.854595947434497 14.699301827305 1.9020331958490004 0 0 0
1884 3 30.551925120812506 13.719348372150996 0 0 0 0
2061 1 32.249254294191495 14.699301827305 1.9020331958490004 0 0 0
1890 3 33.9465834675695 13.719348372150996 0 0 0 0
2067 1 35.64391264094851 14.699301827305 1.9020331958490004 0 0 0
1896 3 37.3412418143265 13.719348372150996 0 0 0 0
2073 1 39.038570987705505 14.699301827305 1.9020331958490004 0 0 0
1902 3 40.7359001610835 13.719348372150996 0 0 0 0
2079 1 42.4332293344625 14.699301827305 1.9020331958490004 0 0 0
1908 3 44.1305585078405 13.719348372150996 0 0 0 0
2085 1 45.8278876812195 14.699301827305 1.9020331958490004 0 0 0
1914 3 47.525216854597495 13.719348372150996 0 0 0 0
1917 1 49.2225460279765 14.699301827305 1.9020331958490004 -1 0 0
1746 3 50.9198752013545 13.719348372150996 0 -1 0 0
1923 1 52.6172043747335 14.699301827305 1.9020331958490004 -1 0 0
1752 3 54.3145335481115 13.719348372150996 0 -1 0 0
1758 3 57.709191894868496 13.719348372150996 0 -1 0 0
1929 1 56.0118627214905 14.699301827305 1.9020331958490004 -1 0 0
1935 1 59.4065210682475 14.699301827305 1.9020331958490004 -1 0 0
1764 3 61.1038502416255 13.719348372150996 0 -1 0 0
1941 1 62.8011794150045 14.699301827305 1.9020331958490004 -1 0 0
1770 3 64.49850858838249 13.719348372150996 0 -1 0 0
1947 1 66.1958377617615 14.699301827305 1.9020331958490004 -1 0 0
1776 3 67.8931669351395 13.719348372150996 0 -1 0 0
1782 3 71.2878252818965 13.719348372150996 0 -1 0 0
1953 1 69.5904961085185 14.699301827305 1.9020331958490004 -1 0 0
1959 1 72.9851544552755 14.699301827305 1.9020331958490004 -1 0 0
1788 3 74.6824836286535 13.719348372150996 0 -1 0 0
1965 1 76.3798128020325 14.699301827305 1.9020331958490004 -1 0 0
1794 3 78.0771419754105 13.719348372150996 0 -1 0 0
1971 1 79.7744711487895 14.699301827305 1.9020331958490004 -1 0 0
1800 3 81.4718003221675 13.719348372150996 0 -1 0 0
1806 3 84.86645866892451 13.719348372150996 0 -1 0 0
1977 1 83.1691294955465 14.699301827305 1.9020331958490004 -1 0 0
1983 1 86.5637878423035 14.699301827305 1.9020331958490004 -1 0 0
1812 3 88.26111701568149 13.719348372150996 0 -1 0 0
1989 1 89.9584461890605 14.699301827305 1.9020331958490004 -1 0 0
1818 3 91.6557753624385 13.719348372150996 0 -1 0 0
1995 1 93.3531045358175 14.699301827305 1.9020331958490004 -1 0 0
1824 3 95.0504337091955 13.719348372150996 0 -1 0 0
1830 3 98.4450920559525 13.719348372150996 0 -1 0 0
2001 1 96.7477628825745 14.699301827305 1.9020331958490004 -1 0 0
2009 3 1.697329173378499 16.659208737611998 0 0 0 0
2015 3 5.091987520135504 16.659208737611998 0 0 0 0
2021 3 8.486645866892502 16.659208737611998 0 0 0 0
2027 3 11.8813042136495 16.659208737611998 0 0 0 0
2033 3 15.275962560406505 16.659208737611998 0 0 0 0
2039 3 18.670620907163503 16.659208737611998 0 0 0 0
2045 3 22.0652792539205 16.659208737611998 0 0 0 0
2051 3 25.4599376006775 16.659208737611998 0 0 0 0
2057 3 28.854595947434497 16.659208737611998 0 0 0 0
2063 3 32.249254294191495 16.659208737611998 0 0 0 0
2069 3 35.64391264094851 16.659208737611998 0 0 0 0
2075 3 39.038570987705505 16.659208737611998 0 0 0 0
2081 3 42.4332293344625 16.659208737611998 0 0 0 0
2087 3 45.8278876812195 16.659208737611998 0 0 0 0
1919 3 49.2225460279765 16.659208737611998 0 -1 0 0
1925 3 52.6172043747335 16.659208737611998 0 -1 0 0
1931 3 56.0118627214905 16.659208737611998 0 -1 0 0
1937 3 59.4065210682475 16.659208737611998 0 -1 0 0
1943 3 62.8011794150045 16.659208737611998 0 -1 0 0
1949 3 66.1958377617615 16.659208737611998 0 -1 0 0
1955 3 69.5904961085185 16.659208737611998 0 -1 0 0
1961 3 72.9851544552755 16.659208737611998 0 -1 0 0
1967 3 76.3798128020325 16.659208737611998 0 -1 0 0
1973 3 79.7744711487895 16.659208737611998 0 -1 0 0
1979 3 83.1691294955465 16.659208737611998 0 -1 0 0
1985 3 86.5637878423035 16.659208737611998 0 -1 0 0
1991 3 89.9584461890605 16.659208737611998 0 -1 0 0
1997 3 93.3531045358175 16.659208737611998 0 -1 0 0
2003 3 96.7477628825745 16.659208737611998 0 -1 0 0
2008 1 3.3946583467565006 17.639162192766 1.9020331958490004 0 0 0
2014 1 6.7893166935134985 17.639162192766 1.9020331958490004 0 0 0
2020 1 10.183975040270504 17.639162192766 1.9020331958490004 0 0 0
2026 1 13.578633387027502 17.639162192766 1.9020331958490004 0 0 0
2032 1 16.9732917337845 17.639162192766 1.9020331958490004 0 0 0
2038 1 20.367950080541497 17.639162192766 1.9020331958490004 0 0 0
2044 1 23.762608427298495 17.639162192766 1.9020331958490004 0 0 0
2050 1 27.157266774055508 17.639162192766 1.9020331958490004 0 0 0
2056 1 30.551925120812506 17.639162192766 1.9020331958490004 0 0 0
2062 1 33.9465834675695 17.639162192766 1.9020331958490004 0 0 0
2068 1 37.3412418143265 17.639162192766 1.9020331958490004 0 0 0
2074 1 40.7359001610835 17.639162192766 1.9020331958490004 0 0 0
2080 1 44.1305585078405 17.639162192766 1.9020331958490004 0 0 0
2086 1 47.525216854597495 17.639162192766 1.9020331958490004 0 0 0
1918 1 50.9198752013545 17.639162192766 1.9020331958490004 -1 0 0
1924 1 54.3145335481115 17.639162192766 1.9020331958490004 -1 0 0
1930 1 57.709191894868496 17.639162192766 1.9020331958490004 -1 0 0
1936 1 61.1038502416255 17.639162192766 1.9020331958490004 -1 0 0
1942 1 64.49850858838249 17.639162192766 1.9020331958490004 -1 0 0
1948 1 67.8931669351395 17.639162192766 1.9020331958490004 -1 0 0
1954 1 71.2878252818965 17.639162192766 1.9020331958490004 -1 0 0
1960 1 74.6824836286535 17.639162192766 1.9020331958490004 -1 0 0
1966 1 78.0771419754105 17.639162192766 1.9020331958490004 -1 0 0
1972 1 81.4718003221675 17.639162192766 1.9020331958490004 -1 0 0
1978 1 84.86645866892451 17.639162192766 1.9020331958490004 -1 0 0
1984 1 88.26111701568149 17.639162192766 1.9020331958490004 -1 0 0
1990 1 91.6557753624385 17.639162192766 1.9020331958490004 -1 0 0
1996 1 95.0504337091955 17.639162192766 1.9020331958490004 -1 0 0
2002 1 98.4450920559525 17.639162192766 1.9020331958490004 -1 0 0
2181 1 1.697329173378499 20.579022558227003 1.9020331958490004 0 0 0
2010 3 3.3946583467565006 19.599069103073 0 0 0 0
2187 1 5.091987520135504 20.579022558227003 1.9020331958490004 0 0 0
2016 3 6.7893166935134985 19.599069103073 0 0 0 0
2193 1 8.486645866892502 20.579022558227003 1.9020331958490004 0 0 0
2022 3 10.183975040270504 19.599069103073 0 0 0 0
2199 1 11.8813042136495 20.579022558227003 1.9020331958490004 0 0 0
2028 3 13.578633387027502 19.599069103073 0 0 0 0
2205 1 15.275962560406505 20.579022558227003 1.9020331958490004 0 0 0
2034 3 16.9732917337845 19.599069103073 0 0 0 0
2211 1 18.670620907163503 20.579022558227003 1.9020331958490004 0 0 0
2040 3 20.367950080541497 19.599069103073 0 0 0 0
2217 1 22.0652792539205 20.579022558227003 1.9020331958490004 0 0 0
2046 3 23.762608427298495 19.599069103073 0 0 0 0
2223 1 25.4599376006775 20.579022558227003 1.9020331958490004 0 0 0
2052 3 27.157266774055508 19.599069103073 0 0 0 0
2229 1 28.854595947434497 20.579022558227003 1.9020331958490004 0 0 0
2058 3 30.551925120812506 19.599069103073 0 0 0 0
2235 1 32.249254294191495 20.579022558227003 1.9020331958490004 0 0 0
2064 3 33.9465834675695 19.599069103073 0 0 0 0
2241 1 35.64391264094851 20.579022558227003 1.9020331958490004 0 0 0
2070 3 37.3412418143265 19.599069103073 0 0 0 0
2247 1 39.038570987705505 20.579022558227003 1.9020331958490004 0 0 0
2076 3 40.7359001610835 19.599069103073 0 0 0 0
2253 1 42.4332293344625 20.579022558227003 1.9020331958490004 0 0 0
2082 3 44.1305585078405 19.599069103073 0 0 0 0
2259 1 45.8278876812195 20.579022558227003 1.9020331958490004 0 0 0
2088 3 47.525216854597495 19.599069103073 0 0 0 0
2091 1 49.2225460279765 20.579022558227003 1.9020331958490004 -1 0 0
1920 3 50.9198752013545 19.599069103073 0 -1 0 0
2097 1 52.6172043747335 20.579022558227003 1.9020331958490004 -1 0 0
1926 3 54.3145335481115 19.599069103073 0 -1 0 0
1932 3 57.709191894868496 19.599069103073 0 -1 0 0
2103 1 56.0118627214905 20.579022558227003 1.9020331958490004 -1 0 0
2109 1 59.4065210682475 20.579022558227003 1.9020331958490004 -1 0 0
1938 3 61.1038502416255 19.599069103073 0 -1 0 0
2115 1 62.8011794150045 20.579022558227003 1.9020331958490004 -1 0 0
1944 3 64.49850858838249 19.599069103073 0 -1 0 0
2121 1 66.1958377617615 20.579022558227003 1.9020331958490004 -1 0 0
1950 3 67.8931669351395 19.599069103073 0 -1 0 0
1956 3 71.2878252818965 19.599069103073 0 -1 0 0
2127 1 69.5904961085185 20.579022558227003 1.9020331958490004 -1 0 0
2133 1 72.9851544552755 20.579022558227003 1.9020331958490004 -1 0 0
1962 3 74.6824836286535 19.599069103073 0 -1 0 0
2139 1 76.3798128020325 20.579022558227003 1.9020331958490004 -1 0 0
1968 3 78.0771419754105 19.599069103073 0 -1 0 0
2145 1 79.7744711487895 20.579022558227003 1.9020331958490004 -1 0 0
1974 3 81.4718003221675 19.599069103073 0 -1 0 0
1980 3 84.86645866892451 19.599069103073 0 -1 0 0
2151 1 83.1691294955465 20.579022558227003 1.9020331958490004 -1 0 0
2157 1 86.5637878423035 20.579022558227003 1.9020331958490004 -1 0 0
1986 3 88.26111701568149 19.599069103073 0 -1 0 0
2163 1 89.9584461890605 20.579022558227003 1.9020331958490004 -1 0 0
1992 3 91.6557753624385 19.599069103073 0 -1 0 0
2169 1 93.3531045358175 20.579022558227003 1.9020331958490004 -1 0 0
1998 3 95.0504337091955 19.599069103073 0 -1 0 0
2004 3 98.4450920559525 19.599069103073 0 -1 0 0
2175 1 96.7477628825745 20.579022558227003 1.9020331958490004 -1 0 0
2183 3 1.697329173378499 22.538929468534 0 0 0 0
2189 3 5.091987520135504 22.538929468534 0 0 0 0
2195 3 8.486645866892502 22.538929468534 0 0 0 0
2201 3 11.8813042136495 22.538929468534 0 0 0 0
2207 3 15.275962560406505 22.538929468534 0 0 0 0
2213 3 18.670620907163503 22.538929468534 0 0 0 0
2219 3 22.0652792539205 22.538929468534 0 0 0 0
2225 3 25.4599376006775 22.538929468534 0 0 0 0
2231 3 28.854595947434497 22.538929468534 0 0 0 0
2237 3 32.249254294191495 22.538929468534 0 0 0 0
2243 3 35.64391264094851 22.538929468534 0 0 0 0
2249 3 39.038570987705505 22.538929468534 0 0 0 0
2255 3 42.4332293344625 22.538929468534 0 0 0 0
2261 3 45.8278876812195 22.538929468534 0 0 0 0
2093 3 49.2225460279765 22.538929468534 0 -1 0 0
2099 3 52.6172043747335 22.538929468534 0 -1 0 0
2105 3 56.0118627214905 22.538929468534 0 -1 0 0
2111 3 59.4065210682475 22.538929468534 0 -1 0 0
2117 3 62.8011794150045 22.538929468534 0 -1 0 0
2123 3 66.1958377617615 22.538929468534 0 -1 0 0
2129 3 69.5904961085185 22.538929468534 0 -1 0 0
2135 3 72.9851544552755 22.538929468534 0 -1 0 0
2141 3 76.3798128020325 22.538929468534 0 -1 0 0
2147 3 79.7744711487895 22.538929468534 0 -1 0 0
2153 3 83.1691294955465 22.538929468534 0 -1 0 0
2159 3 86.5637878423035 22.538929468534 0 -1 0 0
2165 3 89.9584461890605 22.538929468534 0 -1 0 0
2171 3 93.3531045358175 22.538929468534 0 -1 0 0
2177 3 96.7477628825745 22.538929468534 0 -1 0 0
2182 1 3.3946583467565006 23.518882923688004 1.9020331958490004 0 0 0
2188 1 6.7893166935134985 23.518882923688004 1.9020331958490004 0 0 0
2194 1 10.183975040270504 23.518882923688004 1.9020331958490004 0 0 0
2200 1 13.578633387027502 23.518882923688004 1.9020331958490004 0 0 0
2206 1 16.9732917337845 23.518882923688004 1.9020331958490004 0 0 0
2212 1 20.367950080541497 23.518882923688004 1.9020331958490004 0 0 0
2218 1 23.762608427298495 23.518882923688004 1.9020331958490004 0 0 0
2224 1 27.157266774055508 23.518882923688004 1.9020331958490004 0 0 0
2230 1 30.551925120812506 23.518882923688004 1.9020331958490004 0 0 0
2236 1 33.9465834675695 23.518882923688004 1.9020331958490004 0 0 0
2242 1 37.3412418143265 23.518882923688004 1.9020331958490004 0 0 0
2248 1 40.7359001610835 23.518882923688004 1.9020331958490004 0 0 0
2254 1 44.1305585078405 23.518882923688004 1.9020331958490004 0 0 0
2260 1 47.525216854597495 23.518882923688004 1.9020331958490004 0 0 0
2092 1 50.9198752013545 23.518882923688004 1.9020331958490004 -1 0 0
2098 1 54.3145335481115 23.518882923688004 1.9020331958490004 -1 0 0
2104 1 57.709191894868496 23.518882923688004 1.9020331958490004 -1 0 0
2110 1 61.1038502416255 23.518882923688004 1.9020331958490004 -1 0 0
2116 1 64.49850858838249 23.518882923688004 1.9020331958490004 -1 0 0
2122 1 67.8931669351395 23.518882923688004 1.9020331958490004 -1 0 0
2128 1 71.2878252818965 23.518882923688004 1.9020331958490004 -1 0 0
2134 1 74.6824836286535 23.518882923688004 1.9020331958490004 -1 0 0
2140 1 78.0771419754105 23.518882923688004 1.9020331958490004 -1 0 0
2146 1 81.4718003221675 23.518882923688004 1.9020331958490004 -1 0 0
2152 1 84.86645866892451 23.518882923688004 1.9020331958490004 -1 0 0
2158 1 88.26111701568149 23.518882923688004 1.9020331958490004 -1 0 0
2164 1 91.6557753624385 23.518882923688004 1.9020331958490004 -1 0 0
2170 1 95.0504337091955 23.518882923688004 1.9020331958490004 -1 0 0
2176 1 98.4450920559525 23.518882923688004 1.9020331958490004 -1 0 0
2355 1 1.697329173378499 26.45874328914899 1.9020331958490004 0 0 0
2184 3 3.3946583467565006 25.478789833995002 0 0 0 0
2361 1 5.091987520135504 26.45874328914899 1.9020331958490004 0 0 0
2190 3 6.7893166935134985 25.478789833995002 0 0 0 0
2367 1 8.486645866892502 26.45874328914899 1.9020331958490004 0 0 0
2196 3 10.183975040270504 25.478789833995002 0 0 0 0
2373 1 11.8813042136495 26.45874328914899 1.9020331958490004 0 0 0
2202 3 13.578633387027502 25.478789833995002 0 0 0 0
2379 1 15.275962560406505 26.45874328914899 1.9020331958490004 0 0 0