LAMMPS data file via write_data, version 29 Aug 2024, timestep = 3, units = metal

5916 atoms
6 atom types

0 98.445092055953 xlo xhi
0 99.955252425674 ylo yhi
-50 50 zlo zhi

Masses

1 186.207
2 186.207
3 127.6
4 127.6
5 127.6
6 127.6

Atoms # atomic

1659 1 1.6974760576086663 2.9397162129548295 1.9013214338015716 0 0 0
1488 4 3.394676037639323 1.9599009526025073 0.02946974527577341 0 0 0
1665 1 5.092134404365667 2.939716212954829 1.9013214338015714 0 0 0
1661 4 1.6973468642611462 4.899761318063509 0.029469745275774943 0 0 0
1667 4 5.092005211018147 4.899761318063508 0.029469745275774475 0 0 0
1660 1 3.394805230987031 5.879576578415829 1.9013214338015716 0 0 0
1482 4 1.7690882316401257e-05 1.9599009526025075 0.029469745275774714 0 0 0
1654 1 0.00014688423003406115 5.879576578415829 1.9013214338015718 0 0 0
1494 4 6.789334384396323 1.9599009526025073 0.02946974527577402 0 0 0
1671 1 8.486792751122666 2.9397162129548295 1.9013214338015714 0 0 0
1500 4 10.183992731153324 1.9599009526025073 0.029469745275774045 0 0 0
1673 4 8.486663557775147 4.899761318063508 0.02946974527577444 0 0 0
1666 1 6.78946357774403 5.879576578415829 1.9013214338015718 0 0 0
1672 1 10.18412192450103 5.879576578415829 1.9013214338015718 0 0 0
1677 1 11.881451097879667 2.9397162129548287 1.9013214338015711 0 0 0
1506 4 13.578651077910324 1.9599009526025073 0.029469745275773944 0 0 0
1683 1 15.276109444636667 2.9397162129548295 1.9013214338015714 0 0 0
1512 4 16.973309424667324 1.9599009526025077 0.029469745275774333 0 0 0
1679 4 11.881321904532147 4.899761318063508 0.029469745275774457 0 0 0
1685 4 15.275980251289148 4.899761318063508 0.029469745275774575 0 0 0
1678 1 13.578780271258031 5.879576578415829 1.9013214338015716 0 0 0
1684 1 16.97343861801503 5.879576578415829 1.9013214338015718 0 0 0
1689 1 18.670767791393665 2.9397162129548287 1.9013214338015711 0 0 0
1518 4 20.367967771424322 1.9599009526025073 0.029469745275774374 0 0 0
1695 1 22.065426138150666 2.939716212954829 1.9013214338015711 0 0 0
1691 4 18.67063859804615 4.899761318063508 0.02946974527577487 0 0 0
1697 4 22.065296944803148 4.899761318063508 0.029469745275774856 0 0 0
1690 1 20.36809696477203 5.879576578415828 1.9013214338015718 0 0 0
1524 4 23.76262611818132 1.959900952602507 0.029469745275773708 0 0 0
1701 1 25.460084484907664 2.93971621295483 1.9013214338015714 0 0 0
1530 4 27.15728446493833 1.959900952602507 0.02946974527577371 0 0 0
1707 1 28.854742831664666 2.939716212954829 1.9013214338015714 0 0 0
1703 4 25.459955291560146 4.899761318063508 0.029469745275773927 0 0 0
1709 4 28.854613638317144 4.899761318063508 0.029469745275774895 0 0 0
1696 1 23.76275531152903 5.879576578415829 1.9013214338015716 0 0 0
1702 1 27.157413658286032 5.879576578415829 1.9013214338015716 0 0 0
1536 4 30.551942811695326 1.9599009526025075 0.029469745275774267 0 0 0
1713 1 32.249401178421664 2.939716212954829 1.9013214338015714 0 0 0
1542 4 33.946601158452324 1.959900952602507 0.02946974527577351 0 0 0
1715 4 32.249271985074145 4.899761318063508 0.02946974527577426 0 0 0
1708 1 30.55207200504303 5.879576578415829 1.9013214338015718 0 0 0
1714 1 33.946730351800035 5.879576578415829 1.9013214338015718 0 0 0
1719 1 35.64405952517867 2.939716212954829 1.9013214338015714 0 0 0
1548 4 37.34125950520932 1.9599009526025075 0.029469745275774437 0 0 0
1725 1 39.03871787193567 2.939716212954829 1.9013214338015714 0 0 0
1721 4 35.64393033183115 4.899761318063508 0.029469745275774485 0 0 0
1727 4 39.03858867858815 4.899761318063508 0.029469745275774818 0 0 0
1720 1 37.34138869855703 5.879576578415828 1.9013214338015716 0 0 0
1554 4 40.73591785196632 1.9599009526025075 0.029469745275774496 0 0 0
1731 1 42.433376218692665 2.9397162129548287 1.9013214338015714 0 0 0
1560 4 44.13057619872332 1.9599009526025075 0.029469745275774326 0 0 0
1737 1 45.82803456544966 2.9397162129548295 1.9013214338015716 0 0 0
1733 4 42.433247025345146 4.899761318063508 0.02946974527577507 0 0 0
1739 4 45.827905372102144 4.899761318063508 0.02946974527577479 0 0 0
1726 1 40.73604704531403 5.879576578415829 1.901321433801572 0 0 0
1732 1 44.13070539207103 5.879576578415829 1.901321433801572 0 0 0
1566 4 47.52523454548032 1.9599009526025073 0.029469745275774065 0 0 0
1569 1 49.22269291220666 2.9397162129548295 1.9013214338015711 -1 0 0
1398 4 50.91989289223732 1.9599009526025075 0.029469745275774256 -1 0 0
1571 4 49.22256371885914 4.899761318063508 0.029469745275774395 -1 0 0
1738 1 47.52536373882803 5.879576578415829 1.9013214338015716 0 0 0
1570 1 50.92002208558503 5.879576578415829 1.9013214338015718 -1 0 0
1575 1 52.61735125896366 2.939716212954829 1.9013214338015714 -1 0 0
1404 4 54.31455123899432 1.9599009526025073 0.029469745275773503 -1 0 0
1410 4 57.709209585751324 1.9599009526025073 0.02946974527577416 -1 0 0
1581 1 56.012009605720664 2.939716212954829 1.9013214338015714 -1 0 0
1577 4 52.61722206561614 4.899761318063508 0.029469745275774496 -1 0 0
1583 4 56.011880412373145 4.899761318063508 0.029469745275774336 -1 0 0
1576 1 54.31468043234203 5.879576578415829 1.901321433801572 -1 0 0
1582 1 57.70933877909903 5.879576578415829 1.9013214338015718 -1 0 0
1587 1 59.40666795247766 2.939716212954829 1.9013214338015714 -1 0 0
1416 4 61.10386793250832 1.9599009526025075 0.029469745275774336 -1 0 0
1593 1 62.80132629923466 2.9397162129548287 1.9013214338015714 -1 0 0
1589 4 59.40653875913014 4.899761318063508 0.029469745275774756 -1 0 0
1595 4 62.80119710588714 4.899761318063508 0.02946974527577456 -1 0 0
1588 1 61.103997125856026 5.879576578415829 1.9013214338015718 -1 0 0
1422 4 64.49852627926532 1.9599009526025075 0.029469745275773677 -1 0 0
1599 1 66.19598464599167 2.9397162129548295 1.9013214338015711 -1 0 0
1428 4 67.89318462602232 1.9599009526025073 0.029469745275774326 -1 0 0
1601 4 66.19585545264415 4.899761318063507 0.029469745275773982 -1 0 0
1594 1 64.49865547261302 5.879576578415829 1.901321433801572 -1 0 0
1600 1 67.89331381937002 5.879576578415829 1.9013214338015716 -1 0 0
1434 4 71.28784297277932 1.9599009526025082 0.02946974527577351 -1 0 0
1605 1 69.59064299274867 2.939716212954829 1.9013214338015714 -1 0 0
1611 1 72.98530133950567 2.939716212954829 1.9013214338015714 -1 0 0
1440 4 74.68250131953631 1.9599009526025064 0.029469745275773965 -1 0 0
1607 4 69.59051379940115 4.899761318063508 0.029469745275774197 -1 0 0
1613 4 72.98517214615816 4.899761318063508 0.02946974527577429 -1 0 0
1606 1 71.28797216612702 5.879576578415829 1.9013214338015718 -1 0 0
1612 1 74.68263051288403 5.879576578415828 1.901321433801572 -1 0 0
1617 1 76.37995968626267 2.939716212954828 1.901321433801571 -1 0 0
1446 4 78.07715966629331 1.9599009526025073 0.02946974527577392 -1 0 0
1623 1 79.77461803301968 2.9397162129548313 1.9013214338015718 -1 0 0
1619 4 76.37983049291516 4.899761318063507 0.0294697452757745 -1 0 0
1625 4 79.77448883967216 4.899761318063508 0.029469745275774582 -1 0 0
1618 1 78.07728885964103 5.879576578415829 1.9013214338015716 -1 0 0
1452 4 81.47181801305032 1.959900952602507 0.02946974527577371 -1 0 0
1458 4 84.86647635980732 1.9599009526025075 0.029469745275774395 -1 0 0
1629 1 83.16927637977668 2.939716212954828 1.901321433801571 -1 0 0
1635 1 86.56393472653367 2.9397162129548287 1.9013214338015714 -1 0 0
1631 4 83.16914718642916 4.899761318063507 0.029469745275774277 -1 0 0
1637 4 86.56380553318616 4.899761318063509 0.02946974527577553 -1 0 0
1624 1 81.47194720639803 5.879576578415829 1.9013214338015714 -1 0 0
1630 1 84.86660555315503 5.879576578415829 1.901321433801572 -1 0 0
1464 4 88.26113470656432 1.9599009526025075 0.029469745275774412 -1 0 0
1641 1 89.95859307329067 2.9397162129548295 1.9013214338015714 -1 0 0
1470 4 91.65579305332132 1.9599009526025073 0.029469745275774308 -1 0 0
1643 4 89.95846387994315 4.899761318063507 0.029469745275774353 -1 0 0
1636 1 88.26126389991202 5.879576578415829 1.9013214338015718 -1 0 0
1642 1 91.65592224666902 5.879576578415829 1.9013214338015716 -1 0 0
1647 1 93.35325142004767 2.939716212954829 1.9013214338015714 -1 0 0
1476 4 95.05045140007832 1.9599009526025077 0.02946974527577379 -1 0 0
1653 1 96.74790976680467 2.939716212954828 1.9013214338015711 -1 0 0
1649 4 93.35312222670015 4.899761318063508 0.02946974527577456 -1 0 0
1655 4 96.74778057345715 4.899761318063507 0.029469745275774433 -1 0 0
1648 1 95.05058059342602 5.879576578415828 1.9013214338015716 -1 0 0
1833 1 1.6974760576086663 8.81943694387683 1.9013214338015714 0 0 0
1662 4 3.394676037639323 7.839621683524508 0.02946974527577406 0 0 0
1839 1 5.092134404365667 8.819436943876829 1.9013214338015714 0 0 0
1835 4 1.6973468642611462 10.779482048985505 0.029469745275775526 0 0 0
1841 4 5.092005211018147 10.779482048985505 0.029469745275775082 0 0 0
1834 1 3.394805230987031 11.759297309337828 1.901321433801572 0 0 0
1656 4 1.7690882316401257e-05 7.839621683524508 0.029469745275775328 0 0 0
1828 1 0.00014688423003406115 11.759297309337828 1.9013214338015723 0 0 0
1668 4 6.789334384396323 7.839621683524507 0.029469745275774544 0 0 0
1845 1 8.486792751122666 8.819436943876829 1.9013214338015714 0 0 0
1674 4 10.183992731153324 7.839621683524507 0.029469745275774527 0 0 0
1847 4 8.486663557775147 10.779482048985505 0.02946974527577475 0 0 0
1840 1 6.78946357774403 11.759297309337828 1.901321433801572 0 0 0
1846 1 10.184121924501031 11.759297309337828 1.901321433801572 0 0 0
1851 1 11.881451097879667 8.819436943876829 1.9013214338015711 0 0 0
1680 4 13.578651077910324 7.839621683524508 0.02946974527577435 0 0 0
1857 1 15.276109444636667 8.81943694387683 1.9013214338015714 0 0 0
1686 4 16.973309424667324 7.839621683524508 0.029469745275774856 0 0 0
1853 4 11.881321904532147 10.779482048985505 0.029469745275774947 0 0 0
1859 4 15.275980251289148 10.779482048985505 0.029469745275775058 0 0 0
1852 1 13.578780271258031 11.759297309337828 1.901321433801572 0 0 0
1858 1 16.97343861801503 11.759297309337828 1.901321433801572 0 0 0
1863 1 18.670767791393665 8.819436943876829 1.9013214338015711 0 0 0
1692 4 20.367967771424322 7.839621683524507 0.02946974527577495 0 0 0
1869 1 22.065426138150666 8.819436943876829 1.9013214338015711 0 0 0
1865 4 18.67063859804615 10.779482048985505 0.029469745275775276 0 0 0
1871 4 22.065296944803148 10.779482048985505 0.02946974527577525 0 0 0
1864 1 20.36809696477203 11.759297309337828 1.901321433801572 0 0 0
1698 4 23.76262611818132 7.839621683524507 0.029469745275774287 0 0 0
1875 1 25.460084484907664 8.81943694387683 1.9013214338015714 0 0 0
1704 4 27.15728446493833 7.839621683524507 0.029469745275774287 0 0 0
1881 1 28.854742831664666 8.819436943876829 1.9013214338015711 0 0 0
1877 4 25.459955291560146 10.779482048985505 0.029469745275774305 0 0 0
1883 4 28.854613638317144 10.779482048985505 0.02946974527577531 0 0 0
1870 1 23.76275531152903 11.759297309337828 1.9013214338015718 0 0 0
1876 1 27.157413658286032 11.759297309337828 1.9013214338015718 0 0 0
1710 4 30.551942811695326 7.839621683524507 0.029469745275774777 0 0 0
1887 1 32.249401178421664 8.819436943876829 1.9013214338015714 0 0 0
1716 4 33.946601158452324 7.839621683524508 0.029469745275774065 0 0 0
1889 4 32.249271985074145 10.779482048985505 0.029469745275774745 0 0 0
1882 1 30.55207200504303 11.759297309337828 1.901321433801572 0 0 0
1888 1 33.946730351800035 11.759297309337828 1.901321433801572 0 0 0
1893 1 35.64405952517867 8.819436943876829 1.9013214338015714 0 0 0
1722 4 37.34125950520932 7.839621683524507 0.02946974527577482 0 0 0
1899 1 39.03871787193567 8.819436943876829 1.9013214338015716 0 0 0
1895 4 35.64393033183115 10.779482048985505 0.029469745275774964 0 0 0
1901 4 39.03858867858815 10.779482048985505 0.02946974527577539 0 0 0
1894 1 37.34138869855703 11.759297309337828 1.9013214338015718 0 0 0
1728 4 40.73591785196633 7.839621683524508 0.029469745275775016 0 0 0
1905 1 42.433376218692665 8.819436943876829 1.9013214338015711 0 0 0
1734 4 44.13057619872332 7.839621683524508 0.029469745275775002 0 0 0
1911 1 45.82803456544966 8.819436943876829 1.9013214338015714 0 0 0
1907 4 42.433247025345146 10.779482048985505 0.029469745275775474 0 0 0
1913 4 45.827905372102144 10.779482048985505 0.029469745275775255 0 0 0
1900 1 40.73604704531403 11.759297309337828 1.901321433801572 0 0 0
1906 1 44.13070539207103 11.759297309337828 1.9013214338015723 0 0 0
1740 4 47.52523454548032 7.839621683524508 0.02946974527577462 0 0 0
1743 1 49.22269291220666 8.81943694387683 1.9013214338015714 -1 0 0
1572 4 50.91989289223732 7.839621683524508 0.029469745275774784 -1 0 0
1745 4 49.22256371885914 10.779482048985505 0.029469745275774933 -1 0 0
1912 1 47.52536373882803 11.759297309337828 1.901321433801572 0 0 0
1744 1 50.92002208558503 11.759297309337828 1.9013214338015718 -1 0 0
1749 1 52.61735125896366 8.819436943876829 1.9013214338015711 -1 0 0
1578 4 54.31455123899432 7.839621683524507 0.02946974527577401 -1 0 0
1584 4 57.709209585751324 7.839621683524508 0.029469745275774586 -1 0 0
1755 1 56.012009605720664 8.819436943876829 1.9013214338015714 -1 0 0
1751 4 52.61722206561614 10.779482048985505 0.029469745275775085 -1 0 0
1757 4 56.011880412373145 10.779482048985505 0.029469745275774912 -1 0 0
1750 1 54.31468043234203 11.759297309337828 1.901321433801572 -1 0 0
1756 1 57.70933877909903 11.759297309337828 1.9013214338015718 -1 0 0
1761 1 59.40666795247766 8.81943694387683 1.9013214338015714 -1 0 0
1590 4 61.10386793250832 7.839621683524508 0.029469745275775016 -1 0 0
1767 1 62.80132629923466 8.819436943876829 1.9013214338015711 -1 0 0
1763 4 59.40653875913014 10.779482048985505 0.029469745275775245 -1 0 0
1769 4 62.80119710588714 10.779482048985505 0.029469745275774985 -1 0 0
1762 1 61.103997125856026 11.759297309337828 1.901321433801572 -1 0 0
1596 4 64.49852627926532 7.839621683524508 0.0294697452757743 -1 0 0
1773 1 66.19598464599167 8.819436943876829 1.9013214338015714 -1 0 0
1602 4 67.89318462602232 7.839621683524508 0.029469745275774804 -1 0 0
1775 4 66.19585545264415 10.779482048985505 0.029469745275774468 -1 0 0
1768 1 64.49865547261302 11.759297309337828 1.9013214338015723 -1 0 0
1774 1 67.89331381937002 11.759297309337828 1.901321433801572 -1 0 0
1608 4 71.28784297277932 7.839621683524509 0.029469745275774038 -1 0 0
1779 1 69.59064299274867 8.819436943876829 1.9013214338015714 -1 0 0
1785 1 72.98530133950567 8.819436943876829 1.9013214338015716 -1 0 0
1614 4 74.68250131953631 7.839621683524507 0.02946974527577448 -1 0 0
1781 4 69.59051379940115 10.779482048985505 0.029469745275774718 -1 0 0
1787 4 72.98517214615816 10.779482048985505 0.0294697452757748 -1 0 0
1780 1 71.28797216612702 11.759297309337828 1.901321433801572 -1 0 0
1786 1 74.68263051288403 11.759297309337828 1.9013214338015725 -1 0 0
1791 1 76.37995968626267 8.819436943876829 1.901321433801571 -1 0 0
1620 4 78.07715966629331 7.839621683524507 0.029469745275774485 -1 0 0
1797 1 79.77461803301968 8.81943694387683 1.9013214338015718 -1 0 0
1793 4 76.37983049291516 10.779482048985505 0.02946974527577508 -1 0 0
1799 4 79.77448883967216 10.779482048985505 0.029469745275774988 -1 0 0
1792 1 78.07728885964103 11.759297309337828 1.901321433801572 -1 0 0
1626 4 81.47181801305032 7.839621683524507 0.029469745275774284 -1 0 0
1632 4 84.86647635980732 7.839621683524508 0.029469745275774933 -1 0 0
1803 1 83.16927637977668 8.819436943876829 1.901321433801571 -1 0 0
1809 1 86.56393472653367 8.819436943876829 1.9013214338015714 -1 0 0
1805 4 83.16914718642916 10.779482048985505 0.029469745275774735 -1 0 0
1811 4 86.56380553318616 10.779482048985505 0.029469745275775998 -1 0 0
1798 1 81.47194720639803 11.759297309337828 1.9013214338015718 -1 0 0
1804 1 84.86660555315503 11.759297309337828 1.9013214338015723 -1 0 0
1638 4 88.26113470656432 7.839621683524508 0.029469745275775037 -1 0 0
1815 1 89.95859307329067 8.819436943876829 1.9013214338015714 -1 0 0
1644 4 91.65579305332132 7.839621683524508 0.029469745275774784 -1 0 0
1817 4 89.95846387994315 10.779482048985505 0.029469745275774888 -1 0 0
1810 1 88.26126389991202 11.759297309337828 1.901321433801572 -1 0 0
1816 1 91.65592224666902 11.759297309337828 1.901321433801572 -1 0 0
1821 1 93.35325142004767 8.819436943876829 1.9013214338015714 -1 0 0
1650 4 95.05045140007832 7.839621683524508 0.02946974527577431 -1 0 0
1827 1 96.74790976680467 8.819436943876829 1.901321433801571 -1 0 0
1823 4 93.35312222670015 10.779482048985505 0.02946974527577507 -1 0 0
1829 4 96.74778057345715 10.779482048985505 0.029469745275775058 -1 0 0
1822 1 95.05058059342602 11.759297309337827 1.9013214338015718 -1 0 0
2007 1 1.6974760576086663 14.69915767479883 1.9013214338015718 0 0 0
1836 4 3.394676037639323 13.719342414446507 0.029469745275773736 0 0 0
2013 1 5.092134404365667 14.69915767479883 1.9013214338015714 0 0 0
2009 4 1.697346864261146 16.659202779907506 0.029469745275774426 0 0 0
2015 4 5.092005211018147 16.659202779907506 0.029469745275774163 0 0 0
1830 4 1.7690882316401257e-05 13.719342414446507 0.02946974527577501 0 0 0
2008 1 3.394805230987031 17.63901804025983 1.9013214338015714 0 0 0
2002 1 0.00014688423003406115 17.63901804025983 1.9013214338015716 0 0 0
1842 4 6.789334384396323 13.719342414446507 0.029469745275774163 0 0 0
2019 1 8.486792751122666 14.69915767479883 1.9013214338015716 0 0 0
1848 4 10.183992731153326 13.719342414446507 0.029469745275774152 0 0 0
2021 4 8.486663557775147 16.659202779907506 0.029469745275773934 0 0 0
2014 1 6.78946357774403 17.63901804025983 1.9013214338015714 0 0 0
2020 1 10.18412192450103 17.63901804025983 1.9013214338015714 0 0 0
2025 1 11.881451097879667 14.69915767479883 1.9013214338015714 0 0 0
1854 4 13.578651077910324 13.719342414446507 0.029469745275774013 0 0 0
2031 1 15.276109444636667 14.69915767479883 1.9013214338015716 0 0 0
1860 4 16.973309424667324 13.719342414446507 0.029469745275774503 0 0 0
2027 4 11.881321904532147 16.659202779907506 0.02946974527577407 0 0 0
2033 4 15.275980251289148 16.659202779907506 0.029469745275774215 0 0 0
2026 1 13.578780271258031 17.63901804025983 1.9013214338015711 0 0 0
2032 1 16.97343861801503 17.63901804025983 1.9013214338015714 0 0 0
2037 1 18.670767791393665 14.69915767479883 1.9013214338015714 0 0 0
1866 4 20.367967771424322 13.719342414446507 0.029469745275774503 0 0 0
2043 1 22.065426138150666 14.69915767479883 1.9013214338015714 0 0 0
2039 4 18.67063859804615 16.659202779907506 0.029469745275774412 0 0 0
2045 4 22.065296944803148 16.659202779907506 0.029469745275774464 0 0 0
2038 1 20.36809696477203 17.63901804025983 1.9013214338015714 0 0 0
1872 4 23.76262611818132 13.719342414446507 0.02946974527577389 0 0 0
2049 1 25.460084484907664 14.699157674798832 1.9013214338015716 0 0 0
1878 4 27.15728446493833 13.719342414446507 0.029469745275773927 0 0 0
2055 1 28.854742831664666 14.69915767479883 1.9013214338015714 0 0 0
2051 4 25.459955291560146 16.659202779907506 0.029469745275773646 0 0 0
2057 4 28.854613638317144 16.659202779907506 0.029469745275774534 0 0 0
2044 1 23.76275531152903 17.63901804025983 1.9013214338015711 0 0 0
2050 1 27.157413658286032 17.63901804025983 1.9013214338015711 0 0 0
1884 4 30.551942811695326 13.719342414446507 0.029469745275774402 0 0 0
2061 1 32.249401178421664 14.69915767479883 1.9013214338015716 0 0 0
1890 4 33.946601158452324 13.719342414446507 0.029469745275773736 0 0 0
2063 4 32.249271985074145 16.659202779907506 0.029469745275773854 0 0 0
2056 1 30.55207200504303 17.63901804025983 1.9013214338015714 0 0 0
2062 1 33.946730351800035 17.63901804025983 1.9013214338015714 0 0 0
2067 1 35.64405952517867 14.69915767479883 1.9013214338015716 0 0 0
1896 4 37.34125950520932 13.719342414446507 0.029469745275774607 0 0 0
2073 1 39.03871787193567 14.69915767479883 1.9013214338015716 0 0 0
2069 4 35.64393033183115 16.659202779907506 0.029469745275774027 0 0 0
2075 4 39.03858867858815 16.659202779907506 0.02946974527577464 0 0 0
2068 1 37.34138869855703 17.63901804025983 1.9013214338015711 0 0 0
1902 4 40.73591785196632 13.719342414446507 0.02946974527577463 0 0 0
2079 1 42.433376218692665 14.69915767479883 1.9013214338015714 0 0 0
1908 4 44.13057619872332 13.719342414446507 0.02946974527577441 0 0 0
2085 1 45.82803456544966 14.69915767479883 1.9013214338015716 0 0 0
2081 4 42.433247025345146 16.659202779907506 0.02946974527577456 0 0 0
2087 4 45.827905372102144 16.659202779907506 0.029469745275774423 0 0 0
2074 1 40.73604704531403 17.63901804025983 1.9013214338015714 0 0 0
2080 1 44.13070539207103 17.63901804025983 1.9013214338015714 0 0 0
1914 4 47.52523454548032 13.719342414446507 0.029469745275774253 0 0 0
1917 1 49.22269291220666 14.69915767479883 1.9013214338015714 -1 0 0
1746 4 50.91989289223732 13.719342414446507 0.029469745275774478 -1 0 0
1919 4 49.22256371885914 16.659202779907506 0.029469745275774083 -1 0 0
2086 1 47.52536373882803 17.63901804025983 1.9013214338015711 0 0 0
1918 1 50.92002208558503 17.63901804025983 1.9013214338015714 -1 0 0
1923 1 52.61735125896366 14.69915767479883 1.9013214338015714 -1 0 0
1752 4 54.31455123899432 13.719342414446507 0.029469745275773743 -1 0 0
1758 4 57.709209585751324 13.719342414446507 0.029469745275774253 -1 0 0
1929 1 56.012009605720664 14.69915767479883 1.9013214338015714 -1 0 0
1925 4 52.61722206561614 16.659202779907506 0.029469745275774256 -1 0 0
1931 4 56.011880412373145 16.659202779907506 0.029469745275773996 -1 0 0
1924 1 54.31468043234203 17.63901804025983 1.9013214338015714 -1 0 0
1930 1 57.70933877909903 17.63901804025983 1.9013214338015714 -1 0 0
1935 1 59.40666795247766 14.69915767479883 1.9013214338015716 -1 0 0
1764 4 61.10386793250832 13.719342414446507 0.02946974527577452 -1 0 0
1941 1 62.80132629923466 14.69915767479883 1.9013214338015714 -1 0 0
1937 4 59.40653875913014 16.659202779907506 0.029469745275774333 -1 0 0
1943 4 62.80119710588714 16.659202779907506 0.029469745275774156 -1 0 0
1936 1 61.103997125856026 17.63901804025983 1.9013214338015711 -1 0 0
1770 4 64.49852627926532 13.719342414446507 0.029469745275773746 -1 0 0
1947 1 66.19598464599167 14.69915767479883 1.9013214338015714 -1 0 0
1776 4 67.89318462602232 13.719342414446507 0.029469745275774478 -1 0 0
1949 4 66.19585545264415 16.659202779907506 0.029469745275773736 -1 0 0
1942 1 64.49865547261302 17.63901804025983 1.9013214338015716 -1 0 0
1948 1 67.89331381937002 17.63901804025983 1.9013214338015714 -1 0 0
1782 4 71.28784297277932 13.719342414446507 0.02946974527577384 -1 0 0
1953 1 69.59064299274867 14.69915767479883 1.9013214338015714 -1 0 0
1959 1 72.98530133950567 14.69915767479883 1.9013214338015716 -1 0 0
1788 4 74.68250131953631 13.719342414446507 0.02946974527577415 -1 0 0
1955 4 69.59051379940115 16.659202779907506 0.029469745275773906 -1 0 0
1961 4 72.98517214615816 16.659202779907506 0.02946974527577393 -1 0 0
1954 1 71.28797216612702 17.63901804025983 1.9013214338015714 -1 0 0
1960 1 74.68263051288403 17.63901804025983 1.9013214338015718 -1 0 0
1965 1 76.37995968626267 14.69915767479883 1.9013214338015711 -1 0 0
1794 4 78.07715966629331 13.719342414446507 0.029469745275774055 -1 0 0
1971 1 79.77461803301968 14.699157674798833 1.901321433801572 -1 0 0
1967 4 76.37983049291516 16.659202779907506 0.02946974527577425 -1 0 0
1973 4 79.77448883967216 16.659202779907506 0.0294697452757743 -1 0 0
1966 1 78.07728885964103 17.63901804025983 1.9013214338015714 -1 0 0
1800 4 81.47181801305032 13.719342414446507 0.02946974527577388 -1 0 0
1806 4 84.86647635980732 13.719342414446507 0.029469745275774593 -1 0 0
1977 1 83.16927637977668 14.69915767479883 1.9013214338015711 -1 0 0
1983 1 86.56393472653367 14.69915767479883 1.9013214338015716 -1 0 0
1979 4 83.16914718642916 16.659202779907506 0.029469745275773975 -1 0 0
1985 4 86.56380553318616 16.659202779907506 0.029469745275775186 -1 0 0
1972 1 81.47194720639803 17.63901804025983 1.9013214338015711 -1 0 0
1978 1 84.86660555315503 17.63901804025983 1.9013214338015716 -1 0 0
1812 4 88.26113470656432 13.719342414446507 0.029469745275774548 -1 0 0
1989 1 89.95859307329067 14.69915767479883 1.9013214338015716 -1 0 0
1818 4 91.65579305332132 13.719342414446507 0.029469745275774437 -1 0 0
1991 4 89.95846387994315 16.659202779907506 0.029469745275774138 -1 0 0
1984 1 88.26126389991202 17.63901804025983 1.9013214338015714 -1 0 0
1990 1 91.65592224666902 17.63901804025983 1.9013214338015714 -1 0 0
1995 1 93.35325142004767 14.69915767479883 1.9013214338015716 -1 0 0
1824 4 95.05045140007832 13.719342414446507 0.029469745275773996 -1 0 0
2001 1 96.74790976680467 14.69915767479883 1.9013214338015711 -1 0 0
1997 4 93.35312222670015 16.659202779907506 0.029469745275774183 -1 0 0
2003 4 96.74778057345715 16.659202779907506 0.02946974527577401 -1 0 0
1996 1 95.05058059342602 17.63901804025983 1.9013214338015711 -1 0 0
2181 1 1.6974760576086658 20.57887840572083 1.9013214338015716 0 0 0
2010 4 3.394676037639323 19.599063145368508 0.02946974527577376 0 0 0
2187 1 5.092134404365667 20.57887840572083 1.9013214338015714 0 0 0
2183 4 1.6973468642611462 22.53892351082951 0.02946974527577451 0 0 0
2189 4 5.092005211018147 22.53892351082951 0.0294697452757739 0 0 0
2004 4 1.7690882316401257e-05 19.59906314536851 0.02946974527577497 0 0 0
2182 1 3.394805230987031 23.51873877118183 1.9013214338015711 0 0 0
2176 1 0.00014688423003406115 23.51873877118183 1.9013214338015714 0 0 0
2016 4 6.789334384396323 19.599063145368508 0.029469745275774315 0 0 0
2193 1 8.486792751122666 20.57887840572083 1.9013214338015716 0 0 0
2022 4 10.183992731153324 19.599063145368508 0.029469745275774294 0 0 0
2195 4 8.486663557775147 22.53892351082951 0.0294697452757738 0 0 0
2188 1 6.78946357774403 23.51873877118183 1.9013214338015711 0 0 0
2194 1 10.18412192450103 23.51873877118183 1.9013214338015714 0 0 0
2199 1 11.881451097879667 20.57887840572083 1.9013214338015716 0 0 0
2028 4 13.578651077910324 19.599063145368508 0.02946974527577415 0 0 0
2205 1 15.276109444636667 20.57887840572083 1.9013214338015714 0 0 0
2034 4 16.973309424667324 19.599063145368508 0.02946974527577461 0 0 0
2201 4 11.881321904532147 22.53892351082951 0.029469745275773847 0 0 0
2207 4 15.275980251289148 22.53892351082951 0.02946974527577399 0 0 0
2200 1 13.578780271258031 23.51873877118183 1.9013214338015714 0 0 0
2206 1 16.97343861801503 23.51873877118183 1.9013214338015714 0 0 0
2211 1 18.670767791393665 20.57887840572083 1.9013214338015714 0 0 0
2040 4 20.367967771424322 19.599063145368508 0.02946974527577461 0 0 0
2217 1 22.065426138150666 20.57887840572083 1.9013214338015711 0 0 0
2213 4 18.67063859804615 22.53892351082951 0.029469745275774284 0 0 0
2219 4 22.065296944803148 22.53892351082951 0.029469745275774274 0 0 0
2212 1 20.36809696477203 23.51873877118183 1.9013214338015714 0 0 0
2046 4 23.76262611818132 19.599063145368508 0.02946974527577402 0 0 0
2223 1 25.460084484907664 20.578878405720832 1.9013214338015716 0 0 0
2052 4 27.15728446493833 19.599063145368508 0.029469745275773958 0 0 0
2229 1 28.854742831664666 20.57887840572083 1.9013214338015711 0 0 0
2225 4 25.459955291560146 22.53892351082951 0.029469745275773507 0 0 0
2231 4 28.854613638317144 22.53892351082951 0.029469745275774346 0 0 0
2218 1 23.76275531152903 23.51873877118183 1.9013214338015711 0 0 0
2224 1 27.157413658286032 23.51873877118183 1.9013214338015711 0 0 0
2058 4 30.551942811695326 19.599063145368508 0.029469745275774523 0 0 0
2235 1 32.249401178421664 20.57887840572083 1.9013214338015716 0 0 0
2064 4 33.946601158452324 19.599063145368508 0.029469745275773805 0 0 0
2237 4 32.249271985074145 22.53892351082951 0.029469745275773743 0 0 0
2230 1 30.55207200504303 23.51873877118183 1.9013214338015714 0 0 0
2236 1 33.946730351800035 23.51873877118183 1.9013214338015714 0 0 0
2241 1 35.64405952517867 20.57887840572083 1.9013214338015716 0 0 0
2070 4 37.34125950520932 19.599063145368508 0.029469745275774763 0 0 0
2247 1 39.03871787193567 20.57887840572083 1.9013214338015714 0 0 0
2243 4 35.64393033183115 22.53892351082951 0.02946974527577395 0 0 0
2249 4 39.03858867858815 22.53892351082951 0.029469745275774357 0 0 0
2242 1 37.34138869855703 23.51873877118183 1.9013214338015711 0 0 0
2076 4 40.73591785196632 19.599063145368508 0.029469745275774673 0 0 0
2253 1 42.433376218692665 20.57887840572083 1.9013214338015714 0 0 0
2082 4 44.13057619872332 19.599063145368508 0.029469745275774457 0 0 0
2259 1 45.82803456544966 20.57887840572083 1.9013214338015716 0 0 0
2255 4 42.433247025345146 22.53892351082951 0.029469745275774388 0 0 0
2261 4 45.827905372102144 22.53892351082951 0.029469745275774183 0 0 0
2248 1 40.73604704531403 23.51873877118183 1.9013214338015714 0 0 0
2254 1 44.13070539207103 23.51873877118183 1.9013214338015714 0 0 0
2088 4 47.52523454548032 19.599063145368508 0.029469745275774263 0 0 0
2091 1 49.22269291220666 20.578878405720832 1.9013214338015714 -1 0 0
1920 4 50.91989289223732 19.599063145368508 0.02946974527577453 -1 0 0
2093 4 49.22256371885914 22.53892351082951 0.029469745275774072 -1 0 0
2260 1 47.52536373882803 23.51873877118183 1.9013214338015714 0 0 0
2092 1 50.92002208558503 23.51873877118183 1.9013214338015711 -1 0 0
2097 1 52.61735125896366 20.57887840572083 1.9013214338015714 -1 0 0
1926 4 54.31455123899432 19.599063145368508 0.029469745275773753 -1 0 0
1932 4 57.709209585751324 19.599063145368508 0.029469745275774402 -1 0 0
2103 1 56.012009605720664 20.57887840572083 1.9013214338015716 -1 0 0
2099 4 52.61722206561614 22.53892351082951 0.029469745275774045 -1 0 0
2105 4 56.011880412373145 22.53892351082951 0.029469745275773777 -1 0 0
2098 1 54.31468043234203 23.51873877118183 1.9013214338015716 -1 0 0
2104 1 57.70933877909903 23.51873877118183 1.9013214338015711 -1 0 0
2109 1 59.40666795247766 20.57887840572083 1.9013214338015716 -1 0 0
1938 4 61.10386793250832 19.599063145368508 0.029469745275774693 -1 0 0
2115 1 62.80132629923466 20.57887840572083 1.9013214338015714 -1 0 0
2111 4 59.40653875913014 22.53892351082951 0.02946974527577411 -1 0 0
2117 4 62.80119710588714 22.53892351082951 0.029469745275773937 -1 0 0
2110 1 61.103997125856026 23.51873877118183 1.9013214338015714 -1 0 0