LAMMPS data file via write_data, version 29 Aug 2024, timestep = 3, units = metal

8874 atoms
9 atom types

0 98.445092055953 xlo xhi
0 99.955252425674 ylo yhi
-50 50 zlo zhi

Masses

1 186.207
2 186.207
3 186.207
4 127.6
5 127.6
6 127.6
7 127.6
8 127.6
9 127.6

Atoms # atomic

1659 1 1.6974777537825279 2.93971453389927 1.9013305639183233 0 0 0
1488 5 3.394676226704194 1.9599008269935125 0.029488401329176944 0 0 0
1665 1 5.092136100539529 2.93971453389927 1.9013305639183233 0 0 0
1661 5 1.6973470533260155 4.899761192454514 0.029488401329178363 0 0 0
1667 5 5.092005400083018 4.899761192454513 0.029488401329178113 0 0 0
1660 1 3.394806927160894 5.87957489936027 1.9013305639183238 0 0 0
1482 5 1.787994719393282e-05 1.959900826993513 0.029488401329177908 0 0 0
1654 1 0.00014858040388787686 5.87957489936027 1.9013305639183238 0 0 0
1494 5 6.789334573461193 1.9599008269935125 0.029488401329177332 0 0 0
1671 1 8.486794447296527 2.93971453389927 1.9013305639183236 0 0 0
1500 5 10.183992920218195 1.9599008269935123 0.029488401329177263 0 0 0
1673 5 8.486663746840016 4.8997611924545135 0.02948840132917801 0 0 0
1666 1 6.789465273917893 5.87957489936027 1.901330563918324 0 0 0
1672 1 10.184123620674894 5.87957489936027 1.901330563918324 0 0 0
1677 1 11.881452794053526 2.9397145338992696 1.9013305639183236 0 0 0
1506 5 13.578651266975195 1.9599008269935125 0.029488401329177176 0 0 0
1683 1 15.276111140810528 2.93971453389927 1.9013305639183236 0 0 0
1512 5 16.97330961373219 1.9599008269935128 0.029488401329177693 0 0 0
1679 5 11.881322093597015 4.8997611924545135 0.029488401329177995 0 0 0
1685 5 15.275980440354017 4.899761192454513 0.029488401329178265 0 0 0
1678 1 13.578781967431894 5.87957489936027 1.901330563918324 0 0 0
1684 1 16.973440314188892 5.87957489936027 1.901330563918324 0 0 0
1689 1 18.67076948756753 2.939714533899269 1.9013305639183233 0 0 0
1518 5 20.36796796048919 1.9599008269935128 0.02948840132917757 0 0 0
1695 1 22.065427834324527 2.93971453389927 1.9013305639183236 0 0 0
1691 5 18.670638787111017 4.8997611924545135 0.02948840132917834 0 0 0
1697 5 22.065297133868015 4.8997611924545135 0.02948840132917836 0 0 0
1690 1 20.368098660945893 5.87957489936027 1.901330563918324 0 0 0
1524 5 23.76262630724619 1.9599008269935119 0.02948840132917682 0 0 0
1701 1 25.46008618108153 2.9397145338992705 1.9013305639183236 0 0 0
1530 5 27.1572846540032 1.9599008269935125 0.029488401329176968 0 0 0
1707 1 28.854744527838527 2.93971453389927 1.9013305639183233 0 0 0
1703 5 25.459955480625013 4.8997611924545135 0.029488401329177318 0 0 0
1709 5 28.854613827382014 4.8997611924545135 0.02948840132917834 0 0 0
1696 1 23.76275700770289 5.87957489936027 1.9013305639183238 0 0 0
1702 1 27.157415354459896 5.879574899360271 1.9013305639183238 0 0 0
1536 5 30.551943000760197 1.9599008269935128 0.029488401329177728 0 0 0
1713 1 32.249402874595525 2.93971453389927 1.9013305639183236 0 0 0
1542 5 33.9466013475172 1.9599008269935123 0.029488401329176468 0 0 0
1715 5 32.249272174139016 4.8997611924545135 0.02948840132917789 0 0 0
1708 1 30.552073701216894 5.87957489936027 1.901330563918324 0 0 0
1714 1 33.946732047973896 5.87957489936027 1.9013305639183238 0 0 0
1719 1 35.64406122135253 2.93971453389927 1.9013305639183233 0 0 0
1548 5 37.3412596942742 1.9599008269935125 0.029488401329177658 0 0 0
1725 1 39.03871956810953 2.93971453389927 1.9013305639183236 0 0 0
1721 5 35.64393052089602 4.899761192454513 0.029488401329178043 0 0 0
1727 5 39.03858886765302 4.8997611924545135 0.02948840132917858 0 0 0
1720 1 37.341390394730894 5.87957489936027 1.901330563918324 0 0 0
1554 5 40.7359180410312 1.9599008269935128 0.02948840132917774 0 0 0
1731 1 42.433377914866526 2.9397145338992687 1.9013305639183233 0 0 0
1560 5 44.130576387788196 1.9599008269935128 0.029488401329177696 0 0 0
1737 1 45.828036261623524 2.93971453389927 1.9013305639183233 0 0 0
1733 5 42.43324721441002 4.8997611924545135 0.029488401329178397 0 0 0
1739 5 45.827905561167015 4.8997611924545135 0.029488401329178467 0 0 0
1726 1 40.73604874148789 5.87957489936027 1.901330563918324 0 0 0
1732 1 44.13070708824489 5.87957489936027 1.9013305639183242 0 0 0
1566 5 47.525234734545194 1.9599008269935125 0.02948840132917731 0 0 0
1569 1 49.22269460838052 2.939714533899271 1.9013305639183236 -1 0 0
1398 5 50.9198930813022 1.9599008269935125 0.029488401329177332 -1 0 0
1571 5 49.22256390792401 4.8997611924545135 0.02948840132917784 -1 0 0
1738 1 47.52536543500189 5.87957489936027 1.9013305639183238 0 0 0
1570 1 50.92002378175889 5.87957489936027 1.9013305639183238 -1 0 0
1575 1 52.61735295513752 2.9397145338992696 1.9013305639183233 -1 0 0
1404 5 54.3145514280592 1.9599008269935128 0.029488401329177093 -1 0 0
1410 5 57.709209774816195 1.9599008269935123 0.02948840132917746 -1 0 0
1581 1 56.012011301894525 2.93971453389927 1.9013305639183233 -1 0 0
1577 5 52.61722225468101 4.8997611924545135 0.029488401329178123 -1 0 0
1583 5 56.011880601438016 4.899761192454513 0.029488401329178064 -1 0 0
1576 1 54.31468212851589 5.87957489936027 1.901330563918324 -1 0 0
1582 1 57.70934047527289 5.87957489936027 1.901330563918324 -1 0 0
1587 1 59.40666964865152 2.93971453389927 1.9013305639183236 -1 0 0
1416 5 61.10386812157319 1.959900826993513 0.029488401329177953 -1 0 0
1593 1 62.80132799540852 2.9397145338992687 1.9013305639183233 -1 0 0
1589 5 59.40653894819501 4.899761192454513 0.029488401329178064 -1 0 0
1595 5 62.80119729495201 4.8997611924545135 0.029488401329178824 -1 0 0
1588 1 61.103998822029894 5.87957489936027 1.9013305639183242 -1 0 0
1422 5 64.49852646833018 1.9599008269935128 0.02948840132917705 -1 0 0
1599 1 66.19598634216553 2.939714533899271 1.9013305639183236 -1 0 0
1428 5 67.8931848150872 1.9599008269935116 0.02948840132917684 -1 0 0
1601 5 66.19585564170902 4.899761192454513 0.02948840132917716 -1 0 0
1594 1 64.49865716878689 5.87957489936027 1.901330563918324 -1 0 0
1600 1 67.89331551554389 5.87957489936027 1.9013305639183238 -1 0 0
1434 5 71.2878431618442 1.9599008269935132 0.029488401329176975 -1 0 0
1605 1 69.59064468892252 2.93971453389927 1.9013305639183231 -1 0 0
1611 1 72.98530303567952 2.9397145338992696 1.9013305639183231 -1 0 0
1440 5 74.68250150860119 1.9599008269935128 0.02948840132917765 -1 0 0
1607 5 69.59051398846601 4.899761192454513 0.02948840132917784 -1 0 0
1613 5 72.98517233522303 4.899761192454513 0.029488401329177624 -1 0 0
1606 1 71.28797386230089 5.879574899360271 1.9013305639183242 -1 0 0
1612 1 74.68263220905789 5.879574899360269 1.9013305639183238 -1 0 0
1617 1 76.37996138243652 2.939714533899269 1.9013305639183236 -1 0 0
1446 5 78.07715985535819 1.9599008269935128 0.029488401329177655 -1 0 0
1623 1 79.77461972919352 2.9397145338992705 1.9013305639183233 -1 0 0
1619 5 76.37983068198002 4.8997611924545135 0.029488401329178297 -1 0 0
1625 5 79.77448902873702 4.8997611924545135 0.029488401329178553 -1 0 0
1618 1 78.07729055581488 5.87957489936027 1.901330563918324 -1 0 0
1452 5 81.47181820211519 1.9599008269935123 0.02948840132917689 -1 0 0
1458 5 84.8664765488722 1.9599008269935128 0.029488401329177637 -1 0 0
1629 1 83.16927807595052 2.9397145338992705 1.9013305639183238 -1 0 0
1635 1 86.56393642270751 2.9397145338992687 1.9013305639183231 -1 0 0
1631 5 83.16914737549402 4.8997611924545135 0.02948840132917715 -1 0 0
1637 5 86.56380572225102 4.8997611924545135 0.02948840132917974 -1 0 0
1624 1 81.4719489025719 5.879574899360271 1.9013305639183238 -1 0 0
1630 1 84.8666072493289 5.87957489936027 1.9013305639183242 -1 0 0
1464 5 88.26113489562918 1.9599008269935128 0.029488401329177686 -1 0 0
1641 1 89.95859476946451 2.939714533899271 1.9013305639183236 -1 0 0
1470 5 91.6557932423862 1.9599008269935112 0.02948840132917645 -1 0 0
1643 5 89.95846406900802 4.8997611924545135 0.029488401329177336 -1 0 0
1636 1 88.26126559608589 5.87957489936027 1.901330563918324 -1 0 0
1642 1 91.65592394284289 5.87957489936027 1.9013305639183238 -1 0 0
1647 1 93.35325311622152 2.9397145338992696 1.9013305639183231 -1 0 0
1476 5 95.0504515891432 1.9599008269935125 0.029488401329177325 -1 0 0
1653 1 96.74791146297852 2.939714533899269 1.9013305639183233 -1 0 0
1649 5 93.35312241576501 4.8997611924545135 0.02948840132917841 -1 0 0
1655 5 96.74778076252201 4.8997611924545135 0.029488401329178193 -1 0 0
1648 1 95.05058228959989 5.87957489936027 1.901330563918324 -1 0 0
1833 1 1.697477753782528 8.819435264821271 1.9013305639183236 0 0 0
1662 5 3.3946762267041946 7.839621557915514 0.029488401329177693 0 0 0
1839 1 5.092136100539529 8.819435264821271 1.9013305639183231 0 0 0
1835 5 1.6973470533260155 10.779481923376512 0.029488401329178845 0 0 0
1841 5 5.092005400083018 10.779481923376512 0.029488401329178637 0 0 0
1834 1 3.394806927160894 11.759295630282269 1.901330563918324 0 0 0
1656 5 1.787994719393282e-05 7.839621557915514 0.029488401329178713 0 0 0
1828 1 0.00014858040388787686 11.759295630282269 1.9013305639183242 0 0 0
1668 5 6.789334573461193 7.839621557915514 0.029488401329178005 0 0 0
1845 1 8.486794447296527 8.819435264821271 1.9013305639183233 0 0 0
1674 5 10.183992920218195 7.839621557915513 0.029488401329178116 0 0 0
1847 5 8.486663746840016 10.779481923376512 0.02948840132917853 0 0 0
1840 1 6.789465273917893 11.759295630282269 1.9013305639183242 0 0 0
1846 1 10.184123620674894 11.759295630282269 1.9013305639183242 0 0 0
1851 1 11.881452794053526 8.81943526482127 1.9013305639183233 0 0 0
1680 5 13.578651266975195 7.839621557915514 0.02948840132917785 0 0 0
1857 1 15.276111140810528 8.819435264821271 1.9013305639183233 0 0 0
1686 5 16.97330961373219 7.839621557915514 0.02948840132917854 0 0 0
1853 5 11.881322093597015 10.779481923376512 0.02948840132917854 0 0 0
1859 5 15.275980440354017 10.77948192337651 0.02948840132917878 0 0 0
1852 1 13.578781967431894 11.759295630282269 1.901330563918324 0 0 0
1858 1 16.973440314188892 11.759295630282269 1.9013305639183242 0 0 0
1863 1 18.67076948756753 8.81943526482127 1.9013305639183231 0 0 0
1692 5 20.36796796048919 7.839621557915514 0.029488401329178383 0 0 0
1869 1 22.065427834324527 8.819435264821271 1.9013305639183236 0 0 0
1865 5 18.670638787111017 10.77948192337651 0.02948840132917879 0 0 0
1871 5 22.065297133868015 10.779481923376512 0.029488401329178935 0 0 0
1864 1 20.368098660945893 11.759295630282269 1.9013305639183244 0 0 0
1698 5 23.76262630724619 7.839621557915513 0.02948840132917766 0 0 0
1875 1 25.46008618108153 8.819435264821271 1.9013305639183233 0 0 0
1704 5 27.1572846540032 7.839621557915514 0.029488401329177683 0 0 0
1881 1 28.854744527838527 8.819435264821271 1.9013305639183231 0 0 0
1877 5 25.459955480625013 10.779481923376512 0.029488401329177856 0 0 0
1883 5 28.854613827382014 10.779481923376512 0.02948840132917887 0 0 0
1870 1 23.76275700770289 11.759295630282269 1.901330563918324 0 0 0
1876 1 27.157415354459896 11.759295630282269 1.901330563918324 0 0 0
1710 5 30.551943000760197 7.839621557915514 0.029488401329178463 0 0 0
1887 1 32.249402874595525 8.819435264821271 1.9013305639183233 0 0 0
1716 5 33.9466013475172 7.839621557915513 0.0294884013291771 0 0 0
1889 5 32.249272174139016 10.77948192337651 0.02948840132917825 0 0 0
1882 1 30.552073701216894 11.759295630282269 1.9013305639183242 0 0 0
1888 1 33.946732047973896 11.759295630282269 1.901330563918324 0 0 0
1893 1 35.64406122135253 8.819435264821271 1.9013305639183233 0 0 0
1722 5 37.3412596942742 7.839621557915514 0.02948840132917838 0 0 0
1899 1 39.03871956810953 8.819435264821271 1.9013305639183233 0 0 0
1895 5 35.64393052089602 10.779481923376512 0.029488401329178553 0 0 0
1901 5 39.03858886765302 10.779481923376512 0.029488401329179098 0 0 0
1894 1 37.341390394730894 11.759295630282269 1.901330563918324 0 0 0
1728 5 40.7359180410312 7.839621557915514 0.02948840132917854 0 0 0
1905 1 42.433377914866526 8.81943526482127 1.9013305639183231 0 0 0
1734 5 44.130576387788196 7.839621557915514 0.02948840132917854 0 0 0
1911 1 45.828036261623524 8.819435264821271 1.9013305639183233 0 0 0
1907 5 42.43324721441002 10.779481923376512 0.02948840132917898 0 0 0
1913 5 45.827905561167015 10.779481923376512 0.02948840132917908 0 0 0
1900 1 40.73604874148789 11.759295630282269 1.9013305639183242 0 0 0
1906 1 44.13070708824489 11.759295630282269 1.9013305639183244 0 0 0
1740 5 47.525234734545194 7.839621557915514 0.02948840132917819 0 0 0
1743 1 49.22269460838052 8.819435264821271 1.9013305639183236 -1 0 0
1572 5 50.9198930813022 7.839621557915513 0.029488401329178206 -1 0 0
1745 5 49.22256390792401 10.779481923376512 0.029488401329178345 -1 0 0
1912 1 47.52536543500189 11.759295630282269 1.901330563918324 0 0 0
1744 1 50.92002378175889 11.759295630282269 1.901330563918324 -1 0 0
1749 1 52.61735295513752 8.81943526482127 1.9013305639183231 -1 0 0
1578 5 54.3145514280592 7.839621557915513 0.02948840132917779 -1 0 0
1584 5 57.709209774816195 7.839621557915514 0.02948840132917822 -1 0 0
1755 1 56.012011301894525 8.819435264821271 1.9013305639183233 -1 0 0
1751 5 52.61722225468101 10.779481923376512 0.029488401329178564 -1 0 0
1757 5 56.011880601438016 10.779481923376512 0.029488401329178605 -1 0 0
1750 1 54.31468212851589 11.759295630282269 1.9013305639183242 -1 0 0
1756 1 57.70934047527289 11.759295630282269 1.9013305639183242 -1 0 0
1761 1 59.40666964865152 8.819435264821271 1.9013305639183236 -1 0 0
1590 5 61.10386812157319 7.839621557915514 0.02948840132917879 -1 0 0
1767 1 62.80132799540852 8.81943526482127 1.9013305639183233 -1 0 0
1763 5 59.40653894819501 10.77948192337651 0.029488401329178588 -1 0 0
1769 5 62.80119729495201 10.779481923376512 0.029488401329179306 -1 0 0
1762 1 61.103998822029894 11.759295630282269 1.9013305639183244 -1 0 0
1596 5 64.49852646833018 7.839621557915513 0.029488401329177787 -1 0 0
1773 1 66.19598634216553 8.819435264821271 1.9013305639183236 -1 0 0
1602 5 67.8931848150872 7.839621557915513 0.029488401329177575 -1 0 0
1775 5 66.19585564170902 10.77948192337651 0.02948840132917751 -1 0 0
1768 1 64.49865716878689 11.759295630282269 1.9013305639183242 -1 0 0
1774 1 67.89331551554389 11.759295630282269 1.9013305639183238 -1 0 0
1608 5 71.2878431618442 7.839621557915514 0.029488401329177665 -1 0 0
1779 1 69.59064468892252 8.819435264821271 1.9013305639183231 -1 0 0
1785 1 72.98530303567952 8.81943526482127 1.9013305639183231 -1 0 0
1614 5 74.68250150860119 7.839621557915514 0.029488401329178474 -1 0 0
1781 5 69.59051398846601 10.77948192337651 0.029488401329178366 -1 0 0
1787 5 72.98517233522303 10.77948192337651 0.02948840132917814 -1 0 0
1780 1 71.28797386230089 11.759295630282269 1.9013305639183244 -1 0 0
1786 1 74.68263220905789 11.759295630282267 1.9013305639183242 -1 0 0
1791 1 76.37996138243652 8.81943526482127 1.9013305639183236 -1 0 0
1620 5 78.07715985535819 7.839621557915514 0.02948840132917849 -1 0 0
1797 1 79.77461972919352 8.819435264821271 1.9013305639183233 -1 0 0
1793 5 76.37983068198002 10.779481923376512 0.02948840132917881 -1 0 0
1799 5 79.77448902873702 10.779481923376512 0.029488401329179115 -1 0 0
1792 1 78.07729055581488 11.759295630282269 1.9013305639183244 -1 0 0
1626 5 81.47181820211519 7.839621557915513 0.02948840132917773 -1 0 0
1632 5 84.8664765488722 7.839621557915514 0.029488401329178408 -1 0 0
1803 1 83.16927807595052 8.819435264821271 1.9013305639183236 -1 0 0
1809 1 86.56393642270751 8.81943526482127 1.9013305639183231 -1 0 0
1805 5 83.16914737549402 10.77948192337651 0.029488401329177703 -1 0 0
1811 5 86.56380572225102 10.779481923376512 0.029488401329180215 -1 0 0
1798 1 81.4719489025719 11.759295630282269 1.901330563918324 -1 0 0
1804 1 84.8666072493289 11.759295630282269 1.9013305639183244 -1 0 0
1638 5 88.26113489562918 7.839621557915514 0.029488401329178494 -1 0 0
1815 1 89.95859476946451 8.819435264821271 1.9013305639183236 -1 0 0
1644 5 91.6557932423862 7.839621557915512 0.029488401329177245 -1 0 0
1817 5 89.95846406900802 10.77948192337651 0.02948840132917785 -1 0 0
1810 1 88.26126559608589 11.759295630282269 1.9013305639183242 -1 0 0
1816 1 91.65592394284289 11.759295630282269 1.901330563918324 -1 0 0
1821 1 93.35325311622152 8.81943526482127 1.9013305639183231 -1 0 0
1650 5 95.0504515891432 7.839621557915514 0.02948840132917814 -1 0 0
1827 1 96.74791146297852 8.81943526482127 1.9013305639183233 -1 0 0
1823 5 93.35312241576501 10.779481923376512 0.02948840132917889 -1 0 0
1829 5 96.74778076252201 10.779481923376512 0.02948840132917862 -1 0 0
1822 1 95.05058228959989 11.759295630282269 1.9013305639183244 -1 0 0
2007 1 1.6974777537825279 14.699155995743272 1.9013305639183236 0 0 0
1836 5 3.3946762267041946 13.719342288837511 0.029488401329177426 0 0 0
2013 1 5.092136100539529 14.69915599574327 1.9013305639183233 0 0 0
2009 5 1.6973470533260155 16.659202654298515 0.029488401329178005 0 0 0
2015 5 5.092005400083018 16.65920265429851 0.029488401329177884 0 0 0
1830 5 1.787994719393282e-05 13.719342288837513 0.02948840132917828 0 0 0
2008 1 3.394806927160894 17.63901636120427 1.9013305639183233 0 0 0
2002 1 0.00014858040388787686 17.63901636120427 1.9013305639183233 0 0 0
1842 5 6.789334573461193 13.719342288837511 0.029488401329177863 0 0 0
2019 1 8.486794447296527 14.699155995743272 1.9013305639183236 0 0 0
1848 5 10.183992920218195 13.719342288837511 0.02948840132917788 0 0 0
2021 5 8.486663746840016 16.65920265429851 0.029488401329177804 0 0 0
2014 1 6.789465273917893 17.63901636120427 1.9013305639183236 0 0 0
2020 1 10.184123620674894 17.63901636120427 1.9013305639183236 0 0 0
2025 1 11.881452794053526 14.69915599574327 1.9013305639183236 0 0 0
1854 5 13.578651266975195 13.719342288837511 0.029488401329177637 0 0 0
2031 1 15.276111140810528 14.699155995743272 1.9013305639183236 0 0 0
1860 5 16.97330961373219 13.719342288837511 0.029488401329178147 0 0 0
2027 5 11.881322093597015 16.65920265429851 0.02948840132917784 0 0 0
2033 5 15.275980440354017 16.65920265429851 0.029488401329178116 0 0 0
2026 1 13.578781967431894 17.63901636120427 1.9013305639183236 0 0 0
2032 1 16.973440314188892 17.63901636120427 1.9013305639183236 0 0 0
2037 1 18.67076948756753 14.69915599574327 1.9013305639183233 0 0 0
1866 5 20.36796796048919 13.719342288837511 0.029488401329177967 0 0 0
2043 1 22.065427834324527 14.699155995743272 1.9013305639183238 0 0 0
2039 5 18.670638787111017 16.65920265429851 0.02948840132917804 0 0 0
2045 5 22.065297133868015 16.659202654298515 0.02948840132917825 0 0 0
2038 1 20.368098660945893 17.63901636120427 1.9013305639183238 0 0 0
1872 5 23.76262630724619 13.719342288837511 0.02948840132917732 0 0 0
2049 1 25.46008618108153 14.699155995743272 1.9013305639183236 0 0 0
1878 5 27.1572846540032 13.719342288837511 0.029488401329177523 0 0 0
2055 1 28.854744527838527 14.69915599574327 1.9013305639183233 0 0 0
2051 5 25.459955480625013 16.65920265429851 0.029488401329177096 0 0 0
2057 5 28.854613827382014 16.65920265429851 0.029488401329178182 0 0 0
2044 1 23.76275700770289 17.63901636120427 1.9013305639183233 0 0 0
2050 1 27.157415354459896 17.63901636120427 1.9013305639183233 0 0 0
1884 5 30.551943000760197 13.719342288837511 0.0294884013291782 0 0 0
2061 1 32.249402874595525 14.699155995743272 1.9013305639183236 0 0 0
1890 5 33.9466013475172 13.719342288837511 0.0294884013291769 0 0 0
2063 5 32.249272174139016 16.65920265429851 0.029488401329177544 0 0 0
2056 1 30.552073701216894 17.63901636120427 1.9013305639183233 0 0 0
2062 1 33.946732047973896 17.63901636120427 1.9013305639183231 0 0 0
2067 1 35.64406122135253 14.69915599574327 1.9013305639183233 0 0 0
1896 5 37.3412596942742 13.719342288837511 0.029488401329178175 0 0 0
2073 1 39.03871956810953 14.69915599574327 1.9013305639183236 0 0 0
2069 5 35.64393052089602 16.65920265429851 0.029488401329177735 0 0 0
2075 5 39.03858886765302 16.65920265429851 0.029488401329178297 0 0 0
2068 1 37.341390394730894 17.63901636120427 1.9013305639183233 0 0 0
1902 5 40.7359180410312 13.719342288837511 0.029488401329178217 0 0 0
2079 1 42.433377914866526 14.69915599574327 1.9013305639183233 0 0 0
1908 5 44.130576387788196 13.719342288837511 0.02948840132917822 0 0 0
2085 1 45.828036261623524 14.69915599574327 1.9013305639183236 0 0 0
2081 5 42.43324721441002 16.65920265429851 0.02948840132917825 0 0 0
2087 5 45.827905561167015 16.65920265429851 0.029488401329178262 0 0 0
2074 1 40.73604874148789 17.63901636120427 1.9013305639183238 0 0 0
2080 1 44.13070708824489 17.63901636120427 1.9013305639183238 0 0 0
1914 5 47.525234734545194 13.719342288837511 0.029488401329177856 0 0 0
1917 1 49.22269460838052 14.699155995743272 1.9013305639183238 -1 0 0
1746 5 50.9198930813022 13.719342288837511 0.029488401329177794 -1 0 0
1919 5 49.22256390792401 16.65920265429851 0.02948840132917759 -1 0 0
2086 1 47.52536543500189 17.63901636120427 1.9013305639183233 0 0 0
1918 1 50.92002378175889 17.63901636120427 1.9013305639183233 -1 0 0
1923 1 52.61735295513752 14.69915599574327 1.9013305639183233 -1 0 0
1752 5 54.3145514280592 13.719342288837511 0.029488401329177582 -1 0 0
1758 5 57.709209774816195 13.719342288837511 0.029488401329178078 -1 0 0
1929 1 56.012011301894525 14.69915599574327 1.9013305639183236 -1 0 0
1925 5 52.61722225468101 16.65920265429851 0.02948840132917778 -1 0 0
1931 5 56.011880601438016 16.65920265429851 0.029488401329177915 -1 0 0
1924 1 54.31468212851589 17.63901636120427 1.9013305639183238 -1 0 0
1930 1 57.70934047527289 17.63901636120427 1.9013305639183236 -1 0 0
1935 1 59.40666964865152 14.69915599574327 1.9013305639183236 -1 0 0
1764 5 61.10386812157319 13.719342288837511 0.029488401329178505 -1 0 0
1941 1 62.80132799540852 14.69915599574327 1.9013305639183236 -1 0 0
1937 5 59.40653894819501 16.65920265429851 0.02948840132917775 -1 0 0
1943 5 62.80119729495201 16.659202654298515 0.029488401329178487 -1 0 0
1936 1 61.103998822029894 17.63901636120427 1.9013305639183238 -1 0 0
1770 5 64.49852646833018 13.719342288837511 0.029488401329177367 -1 0 0
1947 1 66.19598634216553 14.699155995743272 1.9013305639183238 -1 0 0
1776 5 67.8931848150872 13.719342288837511 0.029488401329177228 -1 0 0
1949 5 66.19585564170902 16.659202654298515 0.029488401329176687 -1 0 0
1942 1 64.49865716878689 17.63901636120427 1.9013305639183233 -1 0 0
1948 1 67.89331551554389 17.63901636120427 1.9013305639183231 -1 0 0
1782 5 71.2878431618442 13.719342288837513 0.029488401329177363 -1 0 0
1953 1 69.59064468892252 14.69915599574327 1.9013305639183231 -1 0 0
1959 1 72.98530303567952 14.69915599574327 1.9013305639183233 -1 0 0
1788 5 74.68250150860119 13.719342288837511 0.029488401329178123 -1 0 0
1955 5 69.59051398846601 16.65920265429851 0.029488401329177457 -1 0 0
1961 5 72.98517233522303 16.65920265429851 0.029488401329177266 -1 0 0
1954 1 71.28797386230089 17.63901636120427 1.9013305639183238 -1 0 0
1960 1 74.68263220905789 17.63901636120427 1.9013305639183233 -1 0 0
1965 1 76.37996138243652 14.69915599574327 1.9013305639183238 -1 0 0
1794 5 78.07715985535819 13.719342288837511 0.02948840132917823 -1 0 0
1971 1 79.77461972919352 14.699155995743272 1.9013305639183236 -1 0 0
1967 5 76.37983068198002 16.65920265429851 0.0294884013291782 -1 0 0
1973 5 79.77448902873702 16.65920265429851 0.029488401329178484 -1 0 0
1966 1 78.07729055581488 17.63901636120427 1.9013305639183236 -1 0 0
1800 5 81.47181820211519 13.719342288837511 0.029488401329177464 -1 0 0
1806 5 84.8664765488722 13.719342288837511 0.029488401329178026 -1 0 0
1977 1 83.16927807595052 14.69915599574327 1.9013305639183238 -1 0 0
1983 1 86.56393642270751 14.69915599574327 1.9013305639183233 -1 0 0
1979 5 83.16914737549402 16.659202654298515 0.029488401329176833 -1 0 0
1985 5 86.56380572225102 16.659202654298515 0.029488401329179376 -1 0 0
1972 1 81.4719489025719 17.63901636120427 1.9013305639183231 -1 0 0
1978 1 84.8666072493289 17.63901636120427 1.9013305639183238 -1 0 0
1812 5 88.26113489562918 13.719342288837513 0.029488401329178095 -1 0 0
1989 1 89.95859476946451 14.699155995743272 1.9013305639183238 -1 0 0
1818 5 91.6557932423862 13.71934228883751 0.029488401329176888 -1 0 0
1991 5 89.95846406900802 16.659202654298515 0.02948840132917692 -1 0 0
1984 1 88.26126559608589 17.63901636120427 1.9013305639183233 -1 0 0
1990 1 91.65592394284289 17.63901636120427 1.9013305639183231 -1 0 0
1995 1 93.35325311622152 14.69915599574327 1.9013305639183233 -1 0 0
1824 5 95.0504515891432 13.719342288837511 0.029488401329177853 -1 0 0
2001 1 96.74791146297852 14.69915599574327 1.9013305639183236 -1 0 0
1997 5 93.35312241576501 16.65920265429851 0.029488401329178023 -1 0 0
2003 5 96.74778076252201 16.65920265429851 0.029488401329177884 -1 0 0
1996 1 95.05058228959989 17.63901636120427 1.9013305639183236 -1 0 0
2181 1 1.6974777537825276 20.57887672666527 1.9013305639183236 0 0 0
2010 5 3.3946762267041946 19.599063019759512 0.02948840132917755 0 0 0
2187 1 5.092136100539529 20.578876726665268 1.9013305639183236 0 0 0
2183 5 1.697347053326016 22.538923385220514 0.029488401329177946 0 0 0
2189 5 5.092005400083018 22.538923385220514 0.029488401329177648 0 0 0
2004 5 1.787994719393282e-05 19.599063019759516 0.029488401329178373 0 0 0
2182 1 3.394806927160894 23.51873709212627 1.9013305639183233 0 0 0
2176 1 0.00014858040388787686 23.51873709212627 1.9013305639183233 0 0 0
2016 5 6.789334573461193 19.599063019759512 0.02948840132917784 0 0 0
2193 1 8.486794447296527 20.578876726665268 1.9013305639183238 0 0 0
2022 5 10.183992920218195 19.599063019759512 0.029488401329177898 0 0 0
2195 5 8.486663746840016 22.538923385220514 0.029488401329177478 0 0 0
2188 1 6.789465273917893 23.51873709212627 1.9013305639183236 0 0 0
2194 1 10.184123620674894 23.51873709212627 1.9013305639183236 0 0 0
2199 1 11.881452794053526 20.578876726665268 1.9013305639183236 0 0 0
2028 5 13.578651266975195 19.599063019759512 0.02948840132917763 0 0 0
2205 1 15.276111140810528 20.578876726665268 1.9013305639183236 0 0 0
2034 5 16.97330961373219 19.599063019759512 0.029488401329178238 0 0 0
2201 5 11.881322093597015 22.538923385220514 0.029488401329177502 0 0 0
2207 5 15.275980440354017 22.538923385220514 0.02948840132917779 0 0 0
2200 1 13.578781967431894 23.51873709212627 1.9013305639183236 0 0 0
2206 1 16.973440314188892 23.51873709212627 1.9013305639183236 0 0 0
2211 1 18.67076948756753 20.578876726665268 1.9013305639183233 0 0 0
2040 5 20.36796796048919 19.599063019759512 0.029488401329178106 0 0 0
2217 1 22.065427834324527 20.57887672666527 1.9013305639183236 0 0 0
2213 5 18.670638787111017 22.538923385220514 0.029488401329177835 0 0 0
2219 5 22.065297133868015 22.538923385220514 0.029488401329177905 0 0 0
2212 1 20.368098660945893 23.51873709212627 1.9013305639183238 0 0 0
2046 5 23.76262630724619 19.599063019759512 0.02948840132917744 0 0 0
2223 1 25.46008618108153 20.57887672666527 1.9013305639183236 0 0 0
2052 5 27.1572846540032 19.599063019759512 0.029488401329177454 0 0 0
2229 1 28.854744527838527 20.578876726665268 1.9013305639183233 0 0 0
2225 5 25.459955480625013 22.538923385220514 0.029488401329176794 0 0 0
2231 5 28.854613827382014 22.538923385220514 0.02948840132917796 0 0 0
2218 1 23.76275700770289 23.51873709212627 1.9013305639183231 0 0 0
2224 1 27.157415354459896 23.51873709212627 1.9013305639183233 0 0 0
2058 5 30.551943000760197 19.599063019759512 0.02948840132917823 0 0 0
2235 1 32.249402874595525 20.578876726665268 1.9013305639183236 0 0 0
2064 5 33.9466013475172 19.599063019759512 0.029488401329176885 0 0 0
2237 5 32.249272174139016 22.538923385220514 0.029488401329177148 0 0 0
2230 1 30.552073701216894 23.51873709212627 1.9013305639183233 0 0 0
2236 1 33.946732047973896 23.51873709212627 1.9013305639183233 0 0 0
2241 1 35.64406122135253 20.578876726665268 1.9013305639183236 0 0 0
2070 5 37.3412596942742 19.599063019759512 0.02948840132917815 0 0 0
2247 1 39.03871956810953 20.578876726665268 1.9013305639183238 0 0 0
2243 5 35.64393052089602 22.538923385220514 0.029488401329177488 0 0 0
2249 5 39.03858886765302 22.538923385220514 0.02948840132917809 0 0 0
2242 1 37.341390394730894 23.51873709212627 1.9013305639183236 0 0 0
2076 5 40.7359180410312 19.599063019759512 0.029488401329178127 0 0 0
2253 1 42.433377914866526 20.578876726665268 1.9013305639183233 0 0 0
2082 5 44.130576387788196 19.599063019759512 0.029488401329178064 0 0 0
2259 1 45.828036261623524 20.578876726665268 1.9013305639183236 0 0 0
2255 5 42.43324721441002 22.538923385220514 0.029488401329177974 0 0 0
2261 5 45.827905561167015 22.538923385220514 0.02948840132917801 0 0 0
2248 1 40.73604874148789 23.51873709212627 1.9013305639183238 0 0 0
2254 1 44.13070708824489 23.51873709212627 1.901330563918324 0 0 0
2088 5 47.525234734545194 19.599063019759512 0.029488401329177814 0 0 0
2091 1 49.22269460838052 20.57887672666527 1.9013305639183238 -1 0 0
1920 5 50.9198930813022 19.599063019759512 0.029488401329177828 -1 0 0
2093 5 49.22256390792401 22.538923385220514 0.029488401329177218 -1 0 0
2260 1 47.52536543500189 23.51873709212627 1.9013305639183233 0 0 0
2092 1 50.92002378175889 23.51873709212627 1.9013305639183233 -1 0 0
2097 1 52.61735295513752 20.578876726665268 1.9013305639183233 -1 0 0
1926 5 54.3145514280592 19.599063019759516 0.02948840132917751 -1 0 0
1932 5 57.709209774816195 19.599063019759512 0.02948840132917797 -1 0 0
2103 1 56.012011301894525 20.578876726665268 1.9013305639183236 -1 0 0
2099 5 52.61722225468101 22.538923385220514 0.029488401329177707 -1 0 0
2105 5 56.011880601438016 22.538923385220514 0.029488401329177717 -1 0 0
2098 1 54.31468212851589 23.51873709212627 1.9013305639183236 -1 0 0
2104 1 57.70934047527289 23.51873709212627 1.9013305639183236 -1 0 0
2109 1 59.40666964865152 20.578876726665268 1.9013305639183236 -1 0 0
1938 5 61.10386812157319 19.599063019759516 0.029488401329178574 -1 0 0
2115 1 62.80132799540852 20.578876726665268 1.9013305639183236 -1 0 0
2111 5 59.40653894819501 22.538923385220514 0.029488401329177606 -1 0 0
2117 5 62.80119729495201 22.538923385220517 0.029488401329178463 -1 0 0
2110 1 61.103998822029894 23.51873709212627 1.9013305639183236 -1 0 0
1944 5 64.49852646833018 19.599063019759516 0.029488401329177613 -1 0 0