LAMMPS data file via write_data, version 29 Aug 2024, timestep = 0, units = metal

2592 atoms
3 atom types

0 99.667240370244 xlo xhi
0 102.298503212704 ylo yhi
0 18.677324117126 zlo zhi

Masses

1 180.94788
2 127.6
3 127.6

Atoms # atomic

1385 1 1.845689636486 0 1.8247708330289996 0 0 0
1391 1 5.537068909458 0 1.8247708330289996 0 0 0
1397 1 9.22844818243 0 1.8247708330289996 0 0 0
1403 1 12.919827455402 0 1.8247708330289996 0 0 0
1409 1 16.611206728374 0 1.8247708330289996 0 0 0
1415 1 20.302586001346 0 1.8247708330289996 0 0 0
1421 1 23.993965274318 0 1.8247708330289996 0 0 0
1427 1 27.68534454729 0 1.8247708330289996 0 0 0
1433 1 31.376723820262 0 1.8247708330289996 0 0 0
1439 1 35.068103093234 0 1.8247708330289996 0 0 0
1445 1 38.759482366206 0 1.8247708330289996 0 0 0
1451 1 42.450861639178 0 1.8247708330289996 0 0 0
1457 1 46.14224091215 0 1.8247708330289996 0 0 0
1301 1 49.833620185122 0 1.8247708330289996 -1 0 0
1307 1 53.524999458094 0 1.8247708330289996 -1 0 0
1313 1 57.216378731066 0 1.8247708330289996 -1 0 0
1319 1 60.907758004038 0 1.8247708330289996 -1 0 0
1325 1 64.59913727701 0 1.8247708330289996 -1 0 0
1331 1 68.290516549982 0 1.8247708330289996 -1 0 0
1337 1 71.981895822954 0 1.8247708330289996 -1 0 0
1343 1 75.673275095926 0 1.8247708330289996 -1 0 0
1349 1 79.364654368898 0 1.8247708330289996 -1 0 0
1355 1 83.05603364187 0 1.8247708330289996 -1 0 0
1361 1 86.747412914842 0 1.8247708330289996 -1 0 0
1367 1 90.438792187814 0 1.8247708330289996 -1 0 0
1373 1 94.130171460786 0 1.8247708330289996 -1 0 0
1379 1 97.821550733758 0 1.8247708330289996 -1 0 0
1383 3 1.845689636486 2.1312188169309962 0 0 0 0
1380 1 0 3.196828225396999 1.8247708330289996 0 0 0
1386 1 3.691379272972 3.196828225396999 1.8247708330289996 0 0 0
1389 3 5.537068909458 2.1312188169309962 0 0 0 0
1392 1 7.382758545944 3.196828225396999 1.8247708330289996 0 0 0
1395 3 9.22844818243 2.1312188169309962 0 0 0 0
1398 1 11.074137818916 3.196828225396999 1.8247708330289996 0 0 0
1401 3 12.919827455402 2.1312188169309962 0 0 0 0
1404 1 14.765517091888 3.196828225396999 1.8247708330289996 0 0 0
1407 3 16.611206728374 2.1312188169309962 0 0 0 0
1410 1 18.45689636486 3.196828225396999 1.8247708330289996 0 0 0
1413 3 20.302586001346 2.1312188169309962 0 0 0 0
1416 1 22.148275637832 3.196828225396999 1.8247708330289996 0 0 0
1419 3 23.993965274318 2.1312188169309962 0 0 0 0
1422 1 25.839654910804 3.196828225396999 1.8247708330289996 0 0 0
1425 3 27.68534454729 2.1312188169309962 0 0 0 0
1428 1 29.531034183776 3.196828225396999 1.8247708330289996 0 0 0
1431 3 31.376723820262 2.1312188169309962 0 0 0 0
1434 1 33.222413456748 3.196828225396999 1.8247708330289996 0 0 0
1437 3 35.068103093234 2.1312188169309962 0 0 0 0
1440 1 36.91379272972 3.196828225396999 1.8247708330289996 0 0 0
1443 3 38.759482366206 2.1312188169309962 0 0 0 0
1446 1 40.605172002692 3.196828225396999 1.8247708330289996 0 0 0
1449 3 42.450861639178 2.1312188169309962 0 0 0 0
1452 1 44.296551275664 3.196828225396999 1.8247708330289996 0 0 0
1455 3 46.14224091215 2.1312188169309962 0 0 0 0
1458 1 47.987930548636 3.196828225396999 1.8247708330289996 0 0 0
1299 3 49.833620185122 2.1312188169309962 0 -1 0 0
1302 1 51.679309821608 3.196828225396999 1.8247708330289996 -1 0 0
1305 3 53.524999458094 2.1312188169309962 0 -1 0 0
1308 1 55.37068909458 3.196828225396999 1.8247708330289996 -1 0 0
1311 3 57.216378731066 2.1312188169309962 0 -1 0 0
1314 1 59.062068367552 3.196828225396999 1.8247708330289996 -1 0 0
1317 3 60.907758004038 2.1312188169309962 0 -1 0 0
1320 1 62.753447640524 3.196828225396999 1.8247708330289996 -1 0 0
1323 3 64.59913727701 2.1312188169309962 0 -1 0 0
1326 1 66.444826913496 3.196828225396999 1.8247708330289996 -1 0 0
1329 3 68.290516549982 2.1312188169309962 0 -1 0 0
1332 1 70.136206186468 3.196828225396999 1.8247708330289996 -1 0 0
1335 3 71.981895822954 2.1312188169309962 0 -1 0 0
1341 3 75.673275095926 2.1312188169309962 0 -1 0 0
1338 1 73.82758545944 3.196828225396999 1.8247708330289996 -1 0 0
1344 1 77.518964732412 3.196828225396999 1.8247708330289996 -1 0 0
1347 3 79.364654368898 2.1312188169309962 0 -1 0 0
1350 1 81.210344005384 3.196828225396999 1.8247708330289996 -1 0 0
1353 3 83.05603364187 2.1312188169309962 0 -1 0 0
1356 1 84.901723278356 3.196828225396999 1.8247708330289996 -1 0 0
1359 3 86.747412914842 2.1312188169309962 0 -1 0 0
1362 1 88.593102551328 3.196828225396999 1.8247708330289996 -1 0 0
1365 3 90.438792187814 2.1312188169309962 0 -1 0 0
1368 1 92.2844818243 3.196828225396999 1.8247708330289996 -1 0 0
1371 3 94.130171460786 2.1312188169309962 0 -1 0 0
1374 1 95.975861097272 3.196828225396999 1.8247708330289996 -1 0 0
1377 3 97.821550733758 2.1312188169309962 0 -1 0 0
1378 3 0 5.328047042327995 0 0 0 0
1384 3 3.691379272972 5.328047042327995 0 0 0 0
1390 3 7.382758545944 5.328047042327995 0 0 0 0
1396 3 11.074137818916 5.328047042327995 0 0 0 0
1402 3 14.765517091888 5.328047042327995 0 0 0 0
1408 3 18.45689636486 5.328047042327995 0 0 0 0
1414 3 22.148275637832 5.328047042327995 0 0 0 0
1420 3 25.839654910804 5.328047042327995 0 0 0 0
1426 3 29.531034183776 5.328047042327995 0 0 0 0
1432 3 33.222413456748 5.328047042327995 0 0 0 0
1438 3 36.91379272972 5.328047042327995 0 0 0 0
1444 3 40.605172002692 5.328047042327995 0 0 0 0
1450 3 44.296551275664 5.328047042327995 0 0 0 0
1456 3 47.987930548636 5.328047042327995 0 0 0 0
1300 3 51.679309821608 5.328047042327995 0 -1 0 0
1306 3 55.37068909458 5.328047042327995 0 -1 0 0
1312 3 59.062068367552 5.328047042327995 0 -1 0 0
1318 3 62.753447640524 5.328047042327995 0 -1 0 0
1324 3 66.444826913496 5.328047042327995 0 -1 0 0
1330 3 70.136206186468 5.328047042327995 0 -1 0 0
1336 3 73.82758545944 5.328047042327995 0 -1 0 0
1342 3 77.518964732412 5.328047042327995 0 -1 0 0
1348 3 81.210344005384 5.328047042327995 0 -1 0 0
1354 3 84.901723278356 5.328047042327995 0 -1 0 0
1360 3 88.593102551328 5.328047042327995 0 -1 0 0
1366 3 92.2844818243 5.328047042327995 0 -1 0 0
1372 3 95.975861097272 5.328047042327995 0 -1 0 0
1547 1 1.845689636486 6.393656450793998 1.8247708330289996 0 0 0
1553 1 5.537068909458 6.393656450793998 1.8247708330289996 0 0 0
1559 1 9.22844818243 6.393656450793998 1.8247708330289996 0 0 0
1565 1 12.919827455402 6.393656450793998 1.8247708330289996 0 0 0
1571 1 16.611206728374 6.393656450793998 1.8247708330289996 0 0 0
1577 1 20.302586001346 6.393656450793998 1.8247708330289996 0 0 0
1583 1 23.993965274318 6.393656450793998 1.8247708330289996 0 0 0
1589 1 27.68534454729 6.393656450793998 1.8247708330289996 0 0 0
1595 1 31.376723820262 6.393656450793998 1.8247708330289996 0 0 0
1601 1 35.068103093234 6.393656450793998 1.8247708330289996 0 0 0
1607 1 38.759482366206 6.393656450793998 1.8247708330289996 0 0 0
1613 1 42.450861639178 6.393656450793998 1.8247708330289996 0 0 0
1619 1 46.14224091215 6.393656450793998 1.8247708330289996 0 0 0
1463 1 49.833620185122 6.393656450793998 1.8247708330289996 -1 0 0
1469 1 53.524999458094 6.393656450793998 1.8247708330289996 -1 0 0
1475 1 57.216378731066 6.393656450793998 1.8247708330289996 -1 0 0
1481 1 60.907758004038 6.393656450793998 1.8247708330289996 -1 0 0
1487 1 64.59913727701 6.393656450793998 1.8247708330289996 -1 0 0
1493 1 68.290516549982 6.393656450793998 1.8247708330289996 -1 0 0
1499 1 71.981895822954 6.393656450793998 1.8247708330289996 -1 0 0
1505 1 75.673275095926 6.393656450793998 1.8247708330289996 -1 0 0
1511 1 79.364654368898 6.393656450793998 1.8247708330289996 -1 0 0
1517 1 83.05603364187 6.393656450793998 1.8247708330289996 -1 0 0
1523 1 86.747412914842 6.393656450793998 1.8247708330289996 -1 0 0
1529 1 90.438792187814 6.393656450793998 1.8247708330289996 -1 0 0
1535 1 94.130171460786 6.393656450793998 1.8247708330289996 -1 0 0
1541 1 97.821550733758 6.393656450793998 1.8247708330289996 -1 0 0
1545 3 1.845689636486 8.524875267724994 0 0 0 0
1542 1 0 9.590484676190997 1.8247708330289996 0 0 0
1548 1 3.691379272972 9.590484676190997 1.8247708330289996 0 0 0
1551 3 5.537068909458 8.524875267724994 0 0 0 0
1554 1 7.382758545944 9.590484676190997 1.8247708330289996 0 0 0
1557 3 9.22844818243 8.524875267724994 0 0 0 0
1560 1 11.074137818916 9.590484676190997 1.8247708330289996 0 0 0
1563 3 12.919827455402 8.524875267724994 0 0 0 0
1566 1 14.765517091888 9.590484676190997 1.8247708330289996 0 0 0
1569 3 16.611206728374 8.524875267724994 0 0 0 0
1572 1 18.45689636486 9.590484676190997 1.8247708330289996 0 0 0
1575 3 20.302586001346 8.524875267724994 0 0 0 0
1578 1 22.148275637832 9.590484676190997 1.8247708330289996 0 0 0
1581 3 23.993965274318 8.524875267724994 0 0 0 0
1584 1 25.839654910804 9.590484676190997 1.8247708330289996 0 0 0
1587 3 27.68534454729 8.524875267724994 0 0 0 0
1590 1 29.531034183776 9.590484676190997 1.8247708330289996 0 0 0
1593 3 31.376723820262 8.524875267724994 0 0 0 0
1596 1 33.222413456748 9.590484676190997 1.8247708330289996 0 0 0
1599 3 35.068103093234 8.524875267724994 0 0 0 0
1602 1 36.91379272972 9.590484676190997 1.8247708330289996 0 0 0
1605 3 38.759482366206 8.524875267724994 0 0 0 0
1608 1 40.605172002692 9.590484676190997 1.8247708330289996 0 0 0
1611 3 42.450861639178 8.524875267724994 0 0 0 0
1614 1 44.296551275664 9.590484676190997 1.8247708330289996 0 0 0
1617 3 46.14224091215 8.524875267724994 0 0 0 0
1620 1 47.987930548636 9.590484676190997 1.8247708330289996 0 0 0
1461 3 49.833620185122 8.524875267724994 0 -1 0 0
1464 1 51.679309821608 9.590484676190997 1.8247708330289996 -1 0 0
1467 3 53.524999458094 8.524875267724994 0 -1 0 0
1470 1 55.37068909458 9.590484676190997 1.8247708330289996 -1 0 0
1473 3 57.216378731066 8.524875267724994 0 -1 0 0
1476 1 59.062068367552 9.590484676190997 1.8247708330289996 -1 0 0
1479 3 60.907758004038 8.524875267724994 0 -1 0 0
1482 1 62.753447640524 9.590484676190997 1.8247708330289996 -1 0 0
1485 3 64.59913727701 8.524875267724994 0 -1 0 0
1488 1 66.444826913496 9.590484676190997 1.8247708330289996 -1 0 0
1491 3 68.290516549982 8.524875267724994 0 -1 0 0
1494 1 70.136206186468 9.590484676190997 1.8247708330289996 -1 0 0
1497 3 71.981895822954 8.524875267724994 0 -1 0 0
1503 3 75.673275095926 8.524875267724994 0 -1 0 0
1500 1 73.82758545944 9.590484676190997 1.8247708330289996 -1 0 0
1506 1 77.518964732412 9.590484676190997 1.8247708330289996 -1 0 0
1509 3 79.364654368898 8.524875267724994 0 -1 0 0
1512 1 81.210344005384 9.590484676190997 1.8247708330289996 -1 0 0
1515 3 83.05603364187 8.524875267724994 0 -1 0 0
1518 1 84.901723278356 9.590484676190997 1.8247708330289996 -1 0 0
1521 3 86.747412914842 8.524875267724994 0 -1 0 0
1524 1 88.593102551328 9.590484676190997 1.8247708330289996 -1 0 0
1527 3 90.438792187814 8.524875267724994 0 -1 0 0
1530 1 92.2844818243 9.590484676190997 1.8247708330289996 -1 0 0
1533 3 94.130171460786 8.524875267724994 0 -1 0 0
1536 1 95.975861097272 9.590484676190997 1.8247708330289996 -1 0 0
1539 3 97.821550733758 8.524875267724994 0 -1 0 0
1540 3 0 11.721703493122 0 0 0 0
1546 3 3.691379272972 11.721703493122 0 0 0 0
1552 3 7.382758545944 11.721703493122 0 0 0 0
1558 3 11.074137818916 11.721703493122 0 0 0 0
1564 3 14.765517091888 11.721703493122 0 0 0 0
1570 3 18.45689636486 11.721703493122 0 0 0 0
1576 3 22.148275637832 11.721703493122 0 0 0 0
1582 3 25.839654910804 11.721703493122 0 0 0 0
1588 3 29.531034183776 11.721703493122 0 0 0 0
1594 3 33.222413456748 11.721703493122 0 0 0 0
1600 3 36.91379272972 11.721703493122 0 0 0 0
1606 3 40.605172002692 11.721703493122 0 0 0 0
1612 3 44.296551275664 11.721703493122 0 0 0 0
1618 3 47.987930548636 11.721703493122 0 0 0 0
1462 3 51.679309821608 11.721703493122 0 -1 0 0
1468 3 55.37068909458 11.721703493122 0 -1 0 0
1474 3 59.062068367552 11.721703493122 0 -1 0 0
1480 3 62.753447640524 11.721703493122 0 -1 0 0
1486 3 66.444826913496 11.721703493122 0 -1 0 0
1492 3 70.136206186468 11.721703493122 0 -1 0 0
1498 3 73.82758545944 11.721703493122 0 -1 0 0
1504 3 77.518964732412 11.721703493122 0 -1 0 0
1510 3 81.210344005384 11.721703493122 0 -1 0 0
1516 3 84.901723278356 11.721703493122 0 -1 0 0
1522 3 88.593102551328 11.721703493122 0 -1 0 0
1528 3 92.2844818243 11.721703493122 0 -1 0 0
1534 3 95.975861097272 11.721703493122 0 -1 0 0
1709 1 1.845689636486 12.787312901587995 1.8247708330289996 0 0 0
1715 1 5.537068909458 12.787312901587995 1.8247708330289996 0 0 0
1721 1 9.22844818243 12.787312901587995 1.8247708330289996 0 0 0
1727 1 12.919827455402 12.787312901587995 1.8247708330289996 0 0 0
1733 1 16.611206728374 12.787312901587995 1.8247708330289996 0 0 0
1739 1 20.302586001346 12.787312901587995 1.8247708330289996 0 0 0
1745 1 23.993965274318 12.787312901587995 1.8247708330289996 0 0 0
1751 1 27.68534454729 12.787312901587995 1.8247708330289996 0 0 0
1757 1 31.376723820262 12.787312901587995 1.8247708330289996 0 0 0
1763 1 35.068103093234 12.787312901587995 1.8247708330289996 0 0 0
1769 1 38.759482366206 12.787312901587995 1.8247708330289996 0 0 0
1775 1 42.450861639178 12.787312901587995 1.8247708330289996 0 0 0
1781 1 46.14224091215 12.787312901587995 1.8247708330289996 0 0 0
1625 1 49.833620185122 12.787312901587995 1.8247708330289996 -1 0 0
1631 1 53.524999458094 12.787312901587995 1.8247708330289996 -1 0 0
1637 1 57.216378731066 12.787312901587995 1.8247708330289996 -1 0 0
1643 1 60.907758004038 12.787312901587995 1.8247708330289996 -1 0 0
1649 1 64.59913727701 12.787312901587995 1.8247708330289996 -1 0 0
1655 1 68.290516549982 12.787312901587995 1.8247708330289996 -1 0 0
1661 1 71.981895822954 12.787312901587995 1.8247708330289996 -1 0 0
1667 1 75.673275095926 12.787312901587995 1.8247708330289996 -1 0 0
1673 1 79.364654368898 12.787312901587995 1.8247708330289996 -1 0 0
1679 1 83.05603364187 12.787312901587995 1.8247708330289996 -1 0 0
1685 1 86.747412914842 12.787312901587995 1.8247708330289996 -1 0 0
1691 1 90.438792187814 12.787312901587995 1.8247708330289996 -1 0 0
1697 1 94.130171460786 12.787312901587995 1.8247708330289996 -1 0 0
1703 1 97.821550733758 12.787312901587995 1.8247708330289996 -1 0 0
1707 3 1.845689636486 14.918531718518999 0 0 0 0
1704 1 0 15.984141126985001 1.8247708330289996 0 0 0
1710 1 3.691379272972 15.984141126985001 1.8247708330289996 0 0 0
1713 3 5.537068909458 14.918531718518999 0 0 0 0
1716 1 7.382758545944 15.984141126985001 1.8247708330289996 0 0 0
1719 3 9.22844818243 14.918531718518999 0 0 0 0
1722 1 11.074137818916 15.984141126985001 1.8247708330289996 0 0 0
1725 3 12.919827455402 14.918531718518999 0 0 0 0
1728 1 14.765517091888 15.984141126985001 1.8247708330289996 0 0 0
1731 3 16.611206728374 14.918531718518999 0 0 0 0
1734 1 18.45689636486 15.984141126985001 1.8247708330289996 0 0 0
1737 3 20.302586001346 14.918531718518999 0 0 0 0
1740 1 22.148275637832 15.984141126985001 1.8247708330289996 0 0 0
1743 3 23.993965274318 14.918531718518999 0 0 0 0
1746 1 25.839654910804 15.984141126985001 1.8247708330289996 0 0 0
1749 3 27.68534454729 14.918531718518999 0 0 0 0
1752 1 29.531034183776 15.984141126985001 1.8247708330289996 0 0 0
1755 3 31.376723820262 14.918531718518999 0 0 0 0
1758 1 33.222413456748 15.984141126985001 1.8247708330289996 0 0 0
1761 3 35.068103093234 14.918531718518999 0 0 0 0
1764 1 36.91379272972 15.984141126985001 1.8247708330289996 0 0 0
1767 3 38.759482366206 14.918531718518999 0 0 0 0
1770 1 40.605172002692 15.984141126985001 1.8247708330289996 0 0 0
1773 3 42.450861639178 14.918531718518999 0 0 0 0
1776 1 44.296551275664 15.984141126985001 1.8247708330289996 0 0 0
1779 3 46.14224091215 14.918531718518999 0 0 0 0
1782 1 47.987930548636 15.984141126985001 1.8247708330289996 0 0 0
1623 3 49.833620185122 14.918531718518999 0 -1 0 0
1626 1 51.679309821608 15.984141126985001 1.8247708330289996 -1 0 0
1629 3 53.524999458094 14.918531718518999 0 -1 0 0
1632 1 55.37068909458 15.984141126985001 1.8247708330289996 -1 0 0
1635 3 57.216378731066 14.918531718518999 0 -1 0 0
1638 1 59.062068367552 15.984141126985001 1.8247708330289996 -1 0 0
1641 3 60.907758004038 14.918531718518999 0 -1 0 0
1644 1 62.753447640524 15.984141126985001 1.8247708330289996 -1 0 0
1647 3 64.59913727701 14.918531718518999 0 -1 0 0
1650 1 66.444826913496 15.984141126985001 1.8247708330289996 -1 0 0
1653 3 68.290516549982 14.918531718518999 0 -1 0 0
1656 1 70.136206186468 15.984141126985001 1.8247708330289996 -1 0 0
1659 3 71.981895822954 14.918531718518999 0 -1 0 0
1665 3 75.673275095926 14.918531718518999 0 -1 0 0
1662 1 73.82758545944 15.984141126985001 1.8247708330289996 -1 0 0
1668 1 77.518964732412 15.984141126985001 1.8247708330289996 -1 0 0
1671 3 79.364654368898 14.918531718518999 0 -1 0 0
1674 1 81.210344005384 15.984141126985001 1.8247708330289996 -1 0 0
1677 3 83.05603364187 14.918531718518999 0 -1 0 0
1680 1 84.901723278356 15.984141126985001 1.8247708330289996 -1 0 0
1683 3 86.747412914842 14.918531718518999 0 -1 0 0
1686 1 88.593102551328 15.984141126985001 1.8247708330289996 -1 0 0
1689 3 90.438792187814 14.918531718518999 0 -1 0 0
1692 1 92.2844818243 15.984141126985001 1.8247708330289996 -1 0 0
1695 3 94.130171460786 14.918531718518999 0 -1 0 0
1698 1 95.975861097272 15.984141126985001 1.8247708330289996 -1 0 0
1701 3 97.821550733758 14.918531718518999 0 -1 0 0
1702 3 0 18.115359943915998 0 0 0 0
1871 1 1.845689636486 19.180969352382 1.8247708330289996 0 0 0
1708 3 3.691379272972 18.115359943915998 0 0 0 0
1877 1 5.537068909458 19.180969352382 1.8247708330289996 0 0 0
1714 3 7.382758545944 18.115359943915998 0 0 0 0
1883 1 9.22844818243 19.180969352382 1.8247708330289996 0 0 0
1720 3 11.074137818916 18.115359943915998 0 0 0 0
1889 1 12.919827455402 19.180969352382 1.8247708330289996 0 0 0
1726 3 14.765517091888 18.115359943915998 0 0 0 0
1895 1 16.611206728374 19.180969352382 1.8247708330289996 0 0 0
1732 3 18.45689636486 18.115359943915998 0 0 0 0
1901 1 20.302586001346 19.180969352382 1.8247708330289996 0 0 0
1738 3 22.148275637832 18.115359943915998 0 0 0 0
1744 3 25.839654910804 18.115359943915998 0 0 0 0
1907 1 23.993965274318 19.180969352382 1.8247708330289996 0 0 0
1913 1 27.68534454729 19.180969352382 1.8247708330289996 0 0 0
1750 3 29.531034183776 18.115359943915998 0 0 0 0
1919 1 31.376723820262 19.180969352382 1.8247708330289996 0 0 0
1756 3 33.222413456748 18.115359943915998 0 0 0 0
1925 1 35.068103093234 19.180969352382 1.8247708330289996 0 0 0
1762 3 36.91379272972 18.115359943915998 0 0 0 0
1931 1 38.759482366206 19.180969352382 1.8247708330289996 0 0 0
1768 3 40.605172002692 18.115359943915998 0 0 0 0
1937 1 42.450861639178 19.180969352382 1.8247708330289996 0 0 0
1774 3 44.296551275664 18.115359943915998 0 0 0 0
1943 1 46.14224091215 19.180969352382 1.8247708330289996 0 0 0
1780 3 47.987930548636 18.115359943915998 0 0 0 0
1624 3 51.679309821608 18.115359943915998 0 -1 0 0
1787 1 49.833620185122 19.180969352382 1.8247708330289996 -1 0 0
1793 1 53.524999458094 19.180969352382 1.8247708330289996 -1 0 0
1630 3 55.37068909458 18.115359943915998 0 -1 0 0
1799 1 57.216378731066 19.180969352382 1.8247708330289996 -1 0 0
1636 3 59.062068367552 18.115359943915998 0 -1 0 0
1805 1 60.907758004038 19.180969352382 1.8247708330289996 -1 0 0
1642 3 62.753447640524 18.115359943915998 0 -1 0 0
1811 1 64.59913727701 19.180969352382 1.8247708330289996 -1 0 0
1648 3 66.444826913496 18.115359943915998 0 -1 0 0
1817 1 68.290516549982 19.180969352382 1.8247708330289996 -1 0 0
1654 3 70.136206186468 18.115359943915998 0 -1 0 0
1823 1 71.981895822954 19.180969352382 1.8247708330289996 -1 0 0
1660 3 73.82758545944 18.115359943915998 0 -1 0 0
1829 1 75.673275095926 19.180969352382 1.8247708330289996 -1 0 0
1666 3 77.518964732412 18.115359943915998 0 -1 0 0
1835 1 79.364654368898 19.180969352382 1.8247708330289996 -1 0 0
1672 3 81.210344005384 18.115359943915998 0 -1 0 0
1841 1 83.05603364187 19.180969352382 1.8247708330289996 -1 0 0
1678 3 84.901723278356 18.115359943915998 0 -1 0 0
1847 1 86.747412914842 19.180969352382 1.8247708330289996 -1 0 0
1684 3 88.593102551328 18.115359943915998 0 -1 0 0
1853 1 90.438792187814 19.180969352382 1.8247708330289996 -1 0 0
1690 3 92.2844818243 18.115359943915998 0 -1 0 0
1859 1 94.130171460786 19.180969352382 1.8247708330289996 -1 0 0
1696 3 95.975861097272 18.115359943915998 0 -1 0 0
1865 1 97.821550733758 19.180969352382 1.8247708330289996 -1 0 0
1869 3 1.845689636486 21.312188169312996 0 0 0 0
1875 3 5.537068909458 21.312188169312996 0 0 0 0
1881 3 9.22844818243 21.312188169312996 0 0 0 0
1887 3 12.919827455402 21.312188169312996 0 0 0 0
1893 3 16.611206728374 21.312188169312996 0 0 0 0
1899 3 20.302586001346 21.312188169312996 0 0 0 0
1905 3 23.993965274318 21.312188169312996 0 0 0 0
1911 3 27.68534454729 21.312188169312996 0 0 0 0
1917 3 31.376723820262 21.312188169312996 0 0 0 0
1923 3 35.068103093234 21.312188169312996 0 0 0 0
1929 3 38.759482366206 21.312188169312996 0 0 0 0
1935 3 42.450861639178 21.312188169312996 0 0 0 0
1941 3 46.14224091215 21.312188169312996 0 0 0 0
1785 3 49.833620185122 21.312188169312996 0 -1 0 0
1791 3 53.524999458094 21.312188169312996 0 -1 0 0
1797 3 57.216378731066 21.312188169312996 0 -1 0 0
1803 3 60.907758004038 21.312188169312996 0 -1 0 0
1809 3 64.59913727701 21.312188169312996 0 -1 0 0
1815 3 68.290516549982 21.312188169312996 0 -1 0 0
1821 3 71.981895822954 21.312188169312996 0 -1 0 0
1827 3 75.673275095926 21.312188169312996 0 -1 0 0
1833 3 79.364654368898 21.312188169312996 0 -1 0 0
1839 3 83.05603364187 21.312188169312996 0 -1 0 0
1845 3 86.747412914842 21.312188169312996 0 -1 0 0
1851 3 90.438792187814 21.312188169312996 0 -1 0 0
1857 3 94.130171460786 21.312188169312996 0 -1 0 0
1863 3 97.821550733758 21.312188169312996 0 -1 0 0
1866 1 0 22.377797577779 1.8247708330289996 0 0 0
1872 1 3.691379272972 22.377797577779 1.8247708330289996 0 0 0
1878 1 7.382758545944 22.377797577779 1.8247708330289996 0 0 0
1884 1 11.074137818916 22.377797577779 1.8247708330289996 0 0 0
1890 1 14.765517091888 22.377797577779 1.8247708330289996 0 0 0
1896 1 18.45689636486 22.377797577779 1.8247708330289996 0 0 0
1902 1 22.148275637832 22.377797577779 1.8247708330289996 0 0 0
1908 1 25.839654910804 22.377797577779 1.8247708330289996 0 0 0
1914 1 29.531034183776 22.377797577779 1.8247708330289996 0 0 0
1920 1 33.222413456748 22.377797577779 1.8247708330289996 0 0 0
1926 1 36.91379272972 22.377797577779 1.8247708330289996 0 0 0
1932 1 40.605172002692 22.377797577779 1.8247708330289996 0 0 0
1938 1 44.296551275664 22.377797577779 1.8247708330289996 0 0 0
1944 1 47.987930548636 22.377797577779 1.8247708330289996 0 0 0
1788 1 51.679309821608 22.377797577779 1.8247708330289996 -1 0 0
1794 1 55.37068909458 22.377797577779 1.8247708330289996 -1 0 0
1800 1 59.062068367552 22.377797577779 1.8247708330289996 -1 0 0
1806 1 62.753447640524 22.377797577779 1.8247708330289996 -1 0 0
1812 1 66.444826913496 22.377797577779 1.8247708330289996 -1 0 0
1818 1 70.136206186468 22.377797577779 1.8247708330289996 -1 0 0
1824 1 73.82758545944 22.377797577779 1.8247708330289996 -1 0 0
1830 1 77.518964732412 22.377797577779 1.8247708330289996 -1 0 0
1836 1 81.210344005384 22.377797577779 1.8247708330289996 -1 0 0
1842 1 84.901723278356 22.377797577779 1.8247708330289996 -1 0 0
1848 1 88.593102551328 22.377797577779 1.8247708330289996 -1 0 0
1854 1 92.2844818243 22.377797577779 1.8247708330289996 -1 0 0
1860 1 95.975861097272 22.377797577779 1.8247708330289996 -1 0 0
1864 3 0 24.509016394709995 0 0 0 0
2033 1 1.845689636486 25.574625803175998 1.8247708330289996 0 0 0
1870 3 3.691379272972 24.509016394709995 0 0 0 0
2039 1 5.537068909458 25.574625803175998 1.8247708330289996 0 0 0
1876 3 7.382758545944 24.509016394709995 0 0 0 0
2045 1 9.22844818243 25.574625803175998 1.8247708330289996 0 0 0
1882 3 11.074137818916 24.509016394709995 0 0 0 0
2051 1 12.919827455402 25.574625803175998 1.8247708330289996 0 0 0
1888 3 14.765517091888 24.509016394709995 0 0 0 0
2057 1 16.611206728374 25.574625803175998 1.8247708330289996 0 0 0
1894 3 18.45689636486 24.509016394709995 0 0 0 0
2063 1 20.302586001346 25.574625803175998 1.8247708330289996 0 0 0
1900 3 22.148275637832 24.509016394709995 0 0 0 0
1906 3 25.839654910804 24.509016394709995 0 0 0 0
2069 1 23.993965274318 25.574625803175998 1.8247708330289996 0 0 0
2075 1 27.68534454729 25.574625803175998 1.8247708330289996 0 0 0
1912 3 29.531034183776 24.509016394709995 0 0 0 0
2081 1 31.376723820262 25.574625803175998 1.8247708330289996 0 0 0
1918 3 33.222413456748 24.509016394709995 0 0 0 0
2087 1 35.068103093234 25.574625803175998 1.8247708330289996 0 0 0
1924 3 36.91379272972 24.509016394709995 0 0 0 0
2093 1 38.759482366206 25.574625803175998 1.8247708330289996 0 0 0
1930 3 40.605172002692 24.509016394709995 0 0 0 0
2099 1 42.450861639178 25.574625803175998 1.8247708330289996 0 0 0
1936 3 44.296551275664 24.509016394709995 0 0 0 0
2105 1 46.14224091215 25.574625803175998 1.8247708330289996 0 0 0
1942 3 47.987930548636 24.509016394709995 0 0 0 0
1786 3 51.679309821608 24.509016394709995 0 -1 0 0
1949 1 49.833620185122 25.574625803175998 1.8247708330289996 -1 0 0
1955 1 53.524999458094 25.574625803175998 1.8247708330289996 -1 0 0
1792 3 55.37068909458 24.509016394709995 0 -1 0 0
1961 1 57.216378731066 25.574625803175998 1.8247708330289996 -1 0 0
1798 3 59.062068367552 24.509016394709995 0 -1 0 0
1967 1 60.907758004038 25.574625803175998 1.8247708330289996 -1 0 0
1804 3 62.753447640524 24.509016394709995 0 -1 0 0
1973 1 64.59913727701 25.574625803175998 1.8247708330289996 -1 0 0
1810 3 66.444826913496 24.509016394709995 0 -1 0 0
1979 1 68.290516549982 25.574625803175998 1.8247708330289996 -1 0 0
1816 3 70.136206186468 24.509016394709995 0 -1 0 0
1985 1 71.981895822954 25.574625803175998 1.8247708330289996 -1 0 0
1822 3 73.82758545944 24.509016394709995 0 -1 0 0
1991 1 75.673275095926 25.574625803175998 1.8247708330289996 -1 0 0
1828 3 77.518964732412 24.509016394709995 0 -1 0 0
1997 1 79.364654368898 25.574625803175998 1.8247708330289996 -1 0 0
1834 3 81.210344005384 24.509016394709995 0 -1 0 0
2003 1 83.05603364187 25.574625803175998 1.8247708330289996 -1 0 0
1840 3 84.901723278356 24.509016394709995 0 -1 0 0
2009 1 86.747412914842 25.574625803175998 1.8247708330289996 -1 0 0
1846 3 88.593102551328 24.509016394709995 0 -1 0 0
2015 1 90.438792187814 25.574625803175998 1.8247708330289996 -1 0 0
1852 3 92.2844818243 24.509016394709995 0 -1 0 0
2021 1 94.130171460786 25.574625803175998 1.8247708330289996 -1 0 0
1858 3 95.975861097272 24.509016394709995 0 -1 0 0
2027 1 97.821550733758 25.574625803175998 1.8247708330289996 -1 0 0
2031 3 1.845689636486 27.705844620106994 0 0 0 0
2037 3 5.537068909458 27.705844620106994 0 0 0 0
2043 3 9.22844818243 27.705844620106994 0 0 0 0
2049 3 12.919827455402 27.705844620106994 0 0 0 0
2055 3 16.611206728374 27.705844620106994 0 0 0 0
2061 3 20.302586001346 27.705844620106994 0 0 0 0
2067 3 23.993965274318 27.705844620106994 0 0 0 0
2073 3 27.68534454729 27.705844620106994 0 0 0 0
2079 3 31.376723820262 27.705844620106994 0 0 0 0
2085 3 35.068103093234 27.705844620106994 0 0 0 0
2091 3 38.759482366206 27.705844620106994 0 0 0 0
2097 3 42.450861639178 27.705844620106994 0 0 0 0
2103 3 46.14224091215 27.705844620106994 0 0 0 0
1947 3 49.833620185122 27.705844620106994 0 -1 0 0
1953 3 53.524999458094 27.705844620106994 0 -1 0 0
1959 3 57.216378731066 27.705844620106994 0 -1 0 0
1965 3 60.907758004038 27.705844620106994 0 -1 0 0
1971 3 64.59913727701 27.705844620106994 0 -1 0 0
1977 3 68.290516549982 27.705844620106994 0 -1 0 0
1983 3 71.981895822954 27.705844620106994 0 -1 0 0
1989 3 75.673275095926 27.705844620106994 0 -1 0 0
1995 3 79.364654368898 27.705844620106994 0 -1 0 0
2001 3 83.05603364187 27.705844620106994 0 -1 0 0
2007 3 86.747412914842 27.705844620106994 0 -1 0 0
2013 3 90.438792187814 27.705844620106994 0 -1 0 0
2019 3 94.130171460786 27.705844620106994 0 -1 0 0
2025 3 97.821550733758 27.705844620106994 0 -1 0 0
2028 1 0 28.771454028572997 1.8247708330289996 0 0 0
2034 1 3.691379272972 28.771454028572997 1.8247708330289996 0 0 0
2040 1 7.382758545944 28.771454028572997 1.8247708330289996 0 0 0
2046 1 11.074137818916 28.771454028572997 1.8247708330289996 0 0 0
2052 1 14.765517091888 28.771454028572997 1.8247708330289996 0 0 0
2058 1 18.45689636486 28.771454028572997 1.8247708330289996 0 0 0
2064 1 22.148275637832 28.771454028572997 1.8247708330289996 0 0 0
2070 1 25.839654910804 28.771454028572997 1.8247708330289996 0 0 0
2076 1 29.531034183776 28.771454028572997 1.8247708330289996 0 0 0
2082 1 33.222413456748 28.771454028572997 1.8247708330289996 0 0 0
2088 1 36.91379272972 28.771454028572997 1.8247708330289996 0 0 0
2094 1 40.605172002692 28.771454028572997 1.8247708330289996 0 0 0
2100 1 44.296551275664 28.771454028572997 1.8247708330289996 0 0 0
2106 1 47.987930548636 28.771454028572997 1.8247708330289996 0 0 0
1950 1 51.679309821608 28.771454028572997 1.8247708330289996 -1 0 0
1956 1 55.37068909458 28.771454028572997 1.8247708330289996 -1 0 0
1962 1 59.062068367552 28.771454028572997 1.8247708330289996 -1 0 0
1968 1 62.753447640524 28.771454028572997 1.8247708330289996 -1 0 0
1974 1 66.444826913496 28.771454028572997 1.8247708330289996 -1 0 0
1980 1 70.136206186468 28.771454028572997 1.8247708330289996 -1 0 0
1986 1 73.82758545944 28.771454028572997 1.8247708330289996 -1 0 0
1992 1 77.518964732412 28.771454028572997 1.8247708330289996 -1 0 0
1998 1 81.210344005384 28.771454028572997 1.8247708330289996 -1 0 0
2004 1 84.901723278356 28.771454028572997 1.8247708330289996 -1 0 0
2010 1 88.593102551328 28.771454028572997 1.8247708330289996 -1 0 0
2016 1 92.2844818243 28.771454028572997 1.8247708330289996 -1 0 0
2022 1 95.975861097272 28.771454028572997 1.8247708330289996 -1 0 0
2026 3 0 30.902672845503993 0 0 0 0
2195 1 1.845689636486 31.968282253969996 1.8247708330289996 0 0 0
2032 3 3.691379272972 30.902672845503993 0 0 0 0
2201 1 5.537068909458 31.968282253969996 1.8247708330289996 0 0 0
2038 3 7.382758545944 30.902672845503993 0 0 0 0
2207 1 9.22844818243 31.968282253969996 1.8247708330289996 0 0 0