LAMMPS data file via write_data, version 29 Aug 2024, timestep = 2, units = metal

7776 atoms
9 atom types

0 99.667240370244 xlo xhi
0 102.298503212704 ylo yhi
-50 50 zlo zhi

Masses

1 180.94788
2 180.94788
3 180.94788
4 127.6
5 127.6
6 127.6
7 127.6
8 127.6
9 127.6

Atoms # atomic

1383 5 1.8456962205059027 2.1312211612662075 0.04045488623314558 0 0 0
1386 1 3.6910687876963926 3.196507561627076 1.822323328901999 0 0 0
1389 5 5.537075493477903 2.1312211612662075 0.04045488623314558 0 0 0
1378 5 6.5840199026674064e-06 5.328049386663206 0.04045488623314583 0 0 0
1384 5 3.6913858569919027 5.328049386663206 0.04045488623314592 0 0 0
1392 1 7.382448060668392 3.196507561627076 1.822323328901999 0 0 0
1395 5 9.228454766449902 2.1312211612662075 0.040454886233145644 0 0 0
1398 1 11.073827333640393 3.196507561627076 1.822323328901999 0 0 0
1390 5 7.382765129963903 5.328049386663206 0.04045488623314598 0 0 0
1396 5 11.074144402935902 5.328049386663206 0.04045488623314595 0 0 0
1401 5 12.919834039421902 2.1312211612662075 0.040454886233145575 0 0 0
1404 1 14.765206606612393 3.196507561627076 1.822323328901999 0 0 0
1407 5 16.611213312393904 2.1312211612662075 0.040454886233145575 0 0 0
1402 5 14.765523675907902 5.328049386663206 0.04045488623314595 0 0 0
1410 1 18.45658587958439 3.196507561627076 1.822323328901999 0 0 0
1413 5 20.302592585365904 2.1312211612662075 0.040454886233145575 0 0 0
1416 1 22.14796515255639 3.196507561627076 1.822323328901999 0 0 0
1408 5 18.456902948879904 5.328049386663206 0.04045488623314595 0 0 0
1414 5 22.148282221851904 5.328049386663206 0.04045488623314595 0 0 0
1419 5 23.993971858337904 2.1312211612662075 0.040454886233145575 0 0 0
1422 1 25.83934442552839 3.196507561627076 1.822323328901999 0 0 0
1425 5 27.685351131309904 2.1312211612662075 0.04045488623314558 0 0 0
1420 5 25.839661494823904 5.328049386663206 0.04045488623314595 0 0 0
1428 1 29.530723698500392 3.196507561627076 1.822323328901999 0 0 0
1431 5 31.376730404281904 2.1312211612662075 0.04045488623314535 0 0 0
1434 1 33.22210297147239 3.196507561627076 1.8223233289019989 0 0 0
1437 5 35.06810967725391 2.1312211612662075 0.040454886233145575 0 0 0
1426 5 29.531040767795904 5.328049386663206 0.040454886233145915 0 0 0
1432 5 33.22242004076791 5.328049386663206 0.040454886233145686 0 0 0
1440 1 36.91348224444439 3.196507561627076 1.822323328901999 0 0 0
1443 5 38.75948895022591 2.1312211612662075 0.04045488623314561 0 0 0
1446 1 40.60486151741639 3.196507561627076 1.822323328901999 0 0 0
1438 5 36.91379931373991 5.328049386663206 0.0404548862331459 0 0 0
1444 5 40.60517858671191 5.328049386663206 0.0404548862331459 0 0 0
1449 5 42.45086822319791 2.1312211612662075 0.04045488623314561 0 0 0
1452 1 44.29624079038839 3.196507561627076 1.822323328901999 0 0 0
1455 5 46.14224749616991 2.1312211612662075 0.04045488623314561 0 0 0
1450 5 44.29655785968391 5.328049386663206 0.0404548862331459 0 0 0
1458 1 47.98762006336039 3.196507561627076 1.822323328901999 0 0 0
1299 5 49.83362676914191 2.1312211612662075 0.04045488623314561 -1 0 0
1302 1 51.67899933633239 3.196507561627076 1.822323328901999 -1 0 0
1456 5 47.98793713265591 5.328049386663206 0.0404548862331459 0 0 0
1300 5 51.67931640562791 5.328049386663206 0.0404548862331459 -1 0 0
1305 5 53.52500604211391 2.1312211612662075 0.04045488623314561 -1 0 0
1308 1 55.37037860930439 3.196507561627076 1.822323328901999 -1 0 0
1311 5 57.21638531508591 2.1312211612662075 0.04045488623314561 -1 0 0
1306 5 55.37069567859991 5.328049386663206 0.0404548862331459 -1 0 0
1314 1 59.06175788227639 3.196507561627076 1.822323328901999 -1 0 0
1317 5 60.90776458805791 2.1312211612662075 0.04045488623314568 -1 0 0
1320 1 62.75313715524839 3.196507561627076 1.8223233289019993 -1 0 0
1312 5 59.06207495157191 5.328049386663206 0.0404548862331459 -1 0 0
1318 5 62.75345422454391 5.328049386663206 0.04045488623314605 -1 0 0
1323 5 64.5991438610299 2.1312211612662075 0.04045488623314573 -1 0 0
1326 1 66.4445164282204 3.196507561627076 1.822323328901999 -1 0 0
1329 5 68.2905231340019 2.1312211612662075 0.040454886233145575 -1 0 0
1332 1 70.1358957011924 3.196507561627076 1.822323328901999 -1 0 0
1324 5 66.4448334975159 5.328049386663206 0.04045488623314602 -1 0 0
1330 5 70.1362127704879 5.328049386663206 0.04045488623314595 -1 0 0
1335 5 71.9819024069739 2.1312211612662075 0.040454886233145575 -1 0 0
1341 5 75.6732816799459 2.1312211612662075 0.040454886233145575 -1 0 0
1338 1 73.8272749741644 3.196507561627076 1.822323328901999 -1 0 0
1336 5 73.8275920434599 5.328049386663206 0.04045488623314595 -1 0 0
1344 1 77.5186542471364 3.196507561627076 1.822323328901999 -1 0 0
1347 5 79.3646609529179 2.1312211612662075 0.040454886233145575 -1 0 0
1350 1 81.2100335201084 3.196507561627076 1.822323328901999 -1 0 0
1342 5 77.5189713164319 5.328049386663206 0.04045488623314595 -1 0 0
1348 5 81.2103505894039 5.328049386663206 0.04045488623314595 -1 0 0
1353 5 83.0560402258899 2.1312211612662075 0.040454886233145575 -1 0 0
1356 1 84.9014127930804 3.196507561627076 1.822323328901999 -1 0 0
1359 5 86.7474194988619 2.1312211612662075 0.040454886233145575 -1 0 0
1354 5 84.9017298623759 5.328049386663206 0.04045488623314595 -1 0 0
1362 1 88.5927920660524 3.196507561627076 1.822323328901999 -1 0 0
1365 5 90.4387987718339 2.1312211612662075 0.040454886233145575 -1 0 0
1368 1 92.2841713390244 3.196507561627076 1.822323328901999 -1 0 0
1360 5 88.5931091353479 5.328049386663206 0.04045488623314595 -1 0 0
1366 5 92.2844884083199 5.328049386663206 0.04045488623314595 -1 0 0
1380 1 99.6669298849684 3.196507561627076 1.8223233289019989 -1 0 0
1371 5 94.1301780448059 2.1312211612662075 0.040454886233145575 -1 0 0
1374 1 95.9755506119964 3.196507561627076 1.822323328901999 -1 0 0
1377 5 97.8215573177779 2.1312211612662075 0.040454886233145686 -1 0 0
1372 5 95.9758676812919 5.328049386663206 0.04045488623314595 -1 0 0
1547 1 1.8453791512103923 6.393335787024077 1.8223233289019993 0 0 0
1553 1 5.536758424182392 6.393335787024077 1.8223233289019993 0 0 0
1545 5 1.8456962205059027 8.524877612060205 0.04045488623314543 0 0 0
1548 1 3.6910687876963926 9.590164012421077 1.8223233289019982 0 0 0
1551 5 5.537075493477903 8.524877612060205 0.04045488623314545 0 0 0
1559 1 9.228137697154393 6.393335787024077 1.8223233289019993 0 0 0
1554 1 7.382448060668392 9.590164012421077 1.8223233289019984 0 0 0
1557 5 9.228454766449902 8.524877612060205 0.0404548862331455 0 0 0
1560 1 11.073827333640393 9.590164012421077 1.8223233289019982 0 0 0
1565 1 12.919516970126393 6.393335787024077 1.8223233289019993 0 0 0
1571 1 16.61089624309839 6.393335787024077 1.8223233289019993 0 0 0
1563 5 12.919834039421902 8.524877612060205 0.04045488623314547 0 0 0
1566 1 14.765206606612393 9.590164012421077 1.8223233289019982 0 0 0
1569 5 16.611213312393904 8.524877612060205 0.04045488623314547 0 0 0
1577 1 20.30227551607039 6.393335787024077 1.8223233289019996 0 0 0
1572 1 18.45658587958439 9.590164012421077 1.8223233289019982 0 0 0
1575 5 20.302592585365904 8.524877612060205 0.04045488623314547 0 0 0
1578 1 22.14796515255639 9.590164012421077 1.8223233289019982 0 0 0
1583 1 23.99365478904239 6.393335787024077 1.8223233289019996 0 0 0
1589 1 27.68503406201439 6.393335787024077 1.8223233289019996 0 0 0
1581 5 23.993971858337904 8.524877612060205 0.04045488623314547 0 0 0
1584 1 25.83934442552839 9.590164012421077 1.8223233289019982 0 0 0
1587 5 27.685351131309904 8.524877612060205 0.04045488623314548 0 0 0
1595 1 31.376413334986392 6.393335787024077 1.8223233289019993 0 0 0
1601 1 35.06779260795839 6.393335787024077 1.8223233289019996 0 0 0
1590 1 29.530723698500392 9.590164012421077 1.8223233289019982 0 0 0
1593 5 31.376730404281904 8.524877612060205 0.040454886233145256 0 0 0
1596 1 33.22210297147239 9.590164012421077 1.822323328901998 0 0 0
1599 5 35.06810967725391 8.524877612060205 0.040454886233145436 0 0 0
1607 1 38.75917188093039 6.393335787024077 1.8223233289019996 0 0 0
1602 1 36.91348224444439 9.590164012421077 1.8223233289019982 0 0 0
1605 5 38.75948895022591 8.524877612060205 0.04045488623314547 0 0 0
1608 1 40.60486151741639 9.590164012421077 1.8223233289019982 0 0 0
1613 1 42.45055115390239 6.393335787024077 1.8223233289019996 0 0 0
1619 1 46.14193042687439 6.393335787024077 1.8223233289019996 0 0 0
1611 5 42.45086822319791 8.524877612060205 0.04045488623314547 0 0 0
1614 1 44.29624079038839 9.590164012421077 1.8223233289019982 0 0 0
1617 5 46.14224749616991 8.524877612060205 0.04045488623314547 0 0 0
1463 1 49.83330969984639 6.393335787024077 1.8223233289019996 -1 0 0
1620 1 47.98762006336039 9.590164012421077 1.8223233289019982 0 0 0
1461 5 49.83362676914191 8.524877612060205 0.04045488623314547 -1 0 0
1464 1 51.67899933633239 9.590164012421077 1.8223233289019982 -1 0 0
1469 1 53.52468897281839 6.393335787024077 1.8223233289019996 -1 0 0
1475 1 57.21606824579039 6.393335787024077 1.8223233289019996 -1 0 0
1467 5 53.52500604211391 8.524877612060205 0.04045488623314547 -1 0 0
1470 1 55.37037860930439 9.590164012421077 1.8223233289019982 -1 0 0
1473 5 57.21638531508591 8.524877612060205 0.04045488623314547 -1 0 0
1481 1 60.90744751876239 6.393335787024077 1.8223233289019996 -1 0 0
1476 1 59.06175788227639 9.590164012421077 1.8223233289019982 -1 0 0
1479 5 60.90776458805791 8.524877612060205 0.04045488623314555 -1 0 0
1482 1 62.75313715524839 9.590164012421077 1.8223233289019987 -1 0 0
1487 1 64.5988267917344 6.393335787024077 1.8223233289019998 -1 0 0
1493 1 68.2902060647064 6.393335787024077 1.8223233289019996 -1 0 0
1485 5 64.5991438610299 8.524877612060205 0.04045488623314562 -1 0 0
1488 1 66.4445164282204 9.590164012421077 1.8223233289019982 -1 0 0
1491 5 68.2905231340019 8.524877612060205 0.04045488623314547 -1 0 0
1494 1 70.1358957011924 9.590164012421077 1.8223233289019982 -1 0 0
1499 1 71.9815853376784 6.393335787024077 1.8223233289019996 -1 0 0
1505 1 75.6729646106504 6.393335787024077 1.8223233289019996 -1 0 0
1497 5 71.9819024069739 8.524877612060205 0.04045488623314547 -1 0 0
1503 5 75.6732816799459 8.524877612060205 0.040454886233145464 -1 0 0
1500 1 73.8272749741644 9.590164012421077 1.8223233289019982 -1 0 0
1511 1 79.3643438836224 6.393335787024077 1.8223233289019996 -1 0 0
1506 1 77.5186542471364 9.590164012421077 1.8223233289019982 -1 0 0
1509 5 79.3646609529179 8.524877612060205 0.04045488623314547 -1 0 0
1512 1 81.2100335201084 9.590164012421077 1.8223233289019982 -1 0 0
1517 1 83.0557231565944 6.393335787024077 1.8223233289019996 -1 0 0
1523 1 86.7471024295664 6.393335787024077 1.8223233289019996 -1 0 0
1515 5 83.0560402258899 8.524877612060205 0.04045488623314547 -1 0 0
1518 1 84.9014127930804 9.590164012421077 1.8223233289019982 -1 0 0
1521 5 86.7474194988619 8.524877612060205 0.04045488623314547 -1 0 0
1529 1 90.4384817025384 6.393335787024077 1.8223233289019996 -1 0 0
1524 1 88.5927920660524 9.590164012421077 1.8223233289019982 -1 0 0
1527 5 90.4387987718339 8.524877612060205 0.04045488623314547 -1 0 0
1530 1 92.2841713390244 9.590164012421077 1.8223233289019982 -1 0 0
1542 1 99.6669298849684 9.590164012421077 1.822323328901998 -1 0 0
1535 1 94.1298609755104 6.393335787024077 1.8223233289019996 -1 0 0
1541 1 97.8212402484824 6.393335787024077 1.8223233289019996 -1 0 0
1533 5 94.1301780448059 8.524877612060205 0.04045488623314547 -1 0 0
1536 1 95.9755506119964 9.590164012421077 1.8223233289019982 -1 0 0
1539 5 97.8215573177779 8.524877612060205 0.04045488623314558 -1 0 0
1540 5 6.584019902681114e-06 11.721705837457208 0.0404548862331449 0 0 0
1546 5 3.6913858569919027 11.721705837457208 0.040454886233145006 0 0 0
1709 1 1.8453791512103923 12.786992237818076 1.8223233289019984 0 0 0
1715 1 5.536758424182392 12.786992237818076 1.8223233289019984 0 0 0
1707 5 1.8456962205059027 14.918534062854208 0.040454886233146435 0 0 0
1710 1 3.6910687876963926 15.983820463215078 1.822323328902 0 0 0
1713 5 5.537075493477903 14.918534062854208 0.040454886233146456 0 0 0
1552 5 7.382765129963903 11.721705837457208 0.040454886233145075 0 0 0
1558 5 11.074144402935902 11.721705837457208 0.040454886233145027 0 0 0
1721 1 9.228137697154393 12.786992237818076 1.8223233289019984 0 0 0
1716 1 7.382448060668392 15.983820463215078 1.822323328902 0 0 0
1719 5 9.228454766449902 14.918534062854208 0.04045488623314654 0 0 0
1722 1 11.073827333640393 15.983820463215077 1.822323328902 0 0 0
1564 5 14.765523675907902 11.721705837457208 0.040454886233145027 0 0 0
1727 1 12.919516970126393 12.786992237818076 1.8223233289019984 0 0 0
1733 1 16.61089624309839 12.786992237818076 1.8223233289019984 0 0 0
1725 5 12.919834039421902 14.918534062854208 0.04045488623314652 0 0 0
1728 1 14.765206606612393 15.983820463215077 1.822323328902 0 0 0
1731 5 16.611213312393904 14.918534062854208 0.04045488623314652 0 0 0
1570 5 18.456902948879904 11.721705837457208 0.040454886233145027 0 0 0
1576 5 22.148282221851904 11.721705837457208 0.040454886233145027 0 0 0
1739 1 20.30227551607039 12.786992237818076 1.8223233289019984 0 0 0
1734 1 18.45658587958439 15.983820463215077 1.822323328902 0 0 0
1737 5 20.302592585365904 14.918534062854208 0.04045488623314652 0 0 0
1740 1 22.14796515255639 15.983820463215077 1.822323328902 0 0 0
1582 5 25.839661494823904 11.721705837457208 0.04045488623314502 0 0 0
1745 1 23.99365478904239 12.786992237818076 1.8223233289019984 0 0 0
1751 1 27.68503406201439 12.786992237818076 1.8223233289019984 0 0 0
1743 5 23.993971858337904 14.918534062854208 0.04045488623314652 0 0 0
1746 1 25.83934442552839 15.983820463215077 1.822323328902 0 0 0
1749 5 27.685351131309904 14.918534062854208 0.040454886233146525 0 0 0
1588 5 29.531040767795904 11.721705837457208 0.040454886233144985 0 0 0
1594 5 33.22242004076791 11.721705837457208 0.04045488623314475 0 0 0
1757 1 31.376413334986392 12.786992237818076 1.8223233289019982 0 0 0
1763 1 35.06779260795839 12.786992237818076 1.8223233289019984 0 0 0
1752 1 29.530723698500392 15.983820463215077 1.822323328902 0 0 0
1755 5 31.376730404281904 14.918534062854208 0.04045488623314625 0 0 0
1758 1 33.22210297147239 15.983820463215078 1.822323328902 0 0 0
1761 5 35.06810967725391 14.918534062854208 0.04045488623314644 0 0 0
1600 5 36.91379931373991 11.721705837457208 0.04045488623314498 0 0 0
1606 5 40.60517858671191 11.721705837457208 0.04045488623314498 0 0 0
1769 1 38.75917188093039 12.786992237818076 1.8223233289019984 0 0 0
1764 1 36.91348224444439 15.983820463215078 1.822323328902 0 0 0
1767 5 38.75948895022591 14.918534062854208 0.04045488623314648 0 0 0
1770 1 40.60486151741639 15.983820463215078 1.822323328902 0 0 0
1612 5 44.29655785968391 11.721705837457208 0.04045488623314498 0 0 0
1775 1 42.45055115390239 12.786992237818076 1.8223233289019984 0 0 0
1781 1 46.14193042687439 12.786992237818076 1.8223233289019984 0 0 0
1773 5 42.45086822319791 14.918534062854208 0.04045488623314648 0 0 0
1776 1 44.29624079038839 15.983820463215078 1.822323328902 0 0 0
1779 5 46.14224749616991 14.918534062854208 0.04045488623314648 0 0 0
1618 5 47.98793713265591 11.721705837457208 0.04045488623314498 0 0 0
1462 5 51.67931640562791 11.721705837457208 0.04045488623314498 -1 0 0
1625 1 49.83330969984639 12.786992237818076 1.8223233289019984 -1 0 0
1782 1 47.98762006336039 15.983820463215078 1.822323328902 0 0 0
1623 5 49.83362676914191 14.918534062854208 0.04045488623314648 -1 0 0
1626 1 51.67899933633239 15.983820463215078 1.822323328902 -1 0 0
1468 5 55.37069567859991 11.721705837457208 0.04045488623314498 -1 0 0
1631 1 53.52468897281839 12.786992237818076 1.8223233289019984 -1 0 0
1637 1 57.21606824579039 12.786992237818076 1.8223233289019984 -1 0 0
1629 5 53.52500604211391 14.918534062854208 0.04045488623314648 -1 0 0
1632 1 55.37037860930439 15.983820463215078 1.822323328902 -1 0 0
1635 5 57.21638531508591 14.918534062854208 0.04045488623314648 -1 0 0
1474 5 59.06207495157191 11.721705837457208 0.04045488623314498 -1 0 0
1480 5 62.75345422454391 11.721705837457208 0.040454886233145124 -1 0 0
1643 1 60.90744751876239 12.786992237818076 1.8223233289019984 -1 0 0
1638 1 59.06175788227639 15.983820463215078 1.822323328902 -1 0 0
1641 5 60.90776458805791 14.918534062854208 0.040454886233146546 -1 0 0
1644 1 62.75313715524839 15.983820463215078 1.8223233289020004 -1 0 0
1486 5 66.4448334975159 11.721705837457208 0.0404548862331451 -1 0 0
1492 5 70.1362127704879 11.721705837457208 0.040454886233145027 -1 0 0
1649 1 64.5988267917344 12.786992237818076 1.8223233289019989 -1 0 0
1655 1 68.2902060647064 12.786992237818076 1.8223233289019984 -1 0 0
1647 5 64.5991438610299 14.918534062854208 0.04045488623314667 -1 0 0
1650 1 66.4445164282204 15.983820463215078 1.822323328902 -1 0 0
1653 5 68.2905231340019 14.918534062854208 0.04045488623314652 -1 0 0
1656 1 70.1358957011924 15.983820463215078 1.822323328902 -1 0 0
1498 5 73.8275920434599 11.721705837457208 0.040454886233145027 -1 0 0
1661 1 71.9815853376784 12.786992237818076 1.8223233289019984 -1 0 0
1667 1 75.6729646106504 12.786992237818076 1.8223233289019984 -1 0 0
1659 5 71.9819024069739 14.918534062854208 0.04045488623314652 -1 0 0
1665 5 75.6732816799459 14.918534062854208 0.04045488623314652 -1 0 0
1662 1 73.8272749741644 15.983820463215078 1.822323328902 -1 0 0
1504 5 77.5189713164319 11.721705837457208 0.040454886233145027 -1 0 0
1510 5 81.2103505894039 11.721705837457208 0.040454886233145027 -1 0 0
1673 1 79.3643438836224 12.786992237818076 1.8223233289019984 -1 0 0
1668 1 77.5186542471364 15.983820463215078 1.822323328902 -1 0 0
1671 5 79.3646609529179 14.918534062854208 0.04045488623314652 -1 0 0
1674 1 81.2100335201084 15.983820463215078 1.822323328902 -1 0 0
1516 5 84.9017298623759 11.721705837457208 0.040454886233145027 -1 0 0
1679 1 83.0557231565944 12.786992237818076 1.8223233289019984 -1 0 0
1685 1 86.7471024295664 12.786992237818076 1.8223233289019984 -1 0 0
1677 5 83.0560402258899 14.918534062854208 0.04045488623314652 -1 0 0
1680 1 84.9014127930804 15.983820463215078 1.822323328902 -1 0 0
1683 5 86.7474194988619 14.918534062854208 0.04045488623314652 -1 0 0
1522 5 88.5931091353479 11.721705837457208 0.040454886233145027 -1 0 0
1528 5 92.2844884083199 11.721705837457208 0.040454886233145027 -1 0 0
1691 1 90.4384817025384 12.786992237818076 1.8223233289019984 -1 0 0
1686 1 88.5927920660524 15.983820463215078 1.822323328902 -1 0 0
1689 5 90.4387987718339 14.918534062854208 0.04045488623314652 -1 0 0
1692 1 92.2841713390244 15.983820463215078 1.822323328902 -1 0 0
1704 1 99.6669298849684 15.983820463215077 1.8223233289019998 -1 0 0
1534 5 95.9758676812919 11.721705837457208 0.040454886233145027 -1 0 0
1697 1 94.1298609755104 12.786992237818076 1.8223233289019984 -1 0 0
1703 1 97.8212402484824 12.786992237818076 1.8223233289019984 -1 0 0
1695 5 94.1301780448059 14.918534062854208 0.04045488623314652 -1 0 0
1698 1 95.9755506119964 15.983820463215078 1.822323328902 -1 0 0
1701 5 97.8215573177779 14.918534062854208 0.04045488623314663 -1 0 0
1702 5 6.584019902666371e-06 18.11536228825121 0.0404548862331458 0 0 0
1871 1 1.8453791512103923 19.18064868861208 1.822323328901999 0 0 0
1708 5 3.6913858569919027 18.11536228825121 0.04045488623314596 0 0 0
1877 1 5.536758424182392 19.18064868861208 1.822323328901999 0 0 0
1869 5 1.8456962205059027 21.312190513648208 0.040454886233145616 0 0 0
1875 5 5.537075493477903 21.312190513648208 0.040454886233145596 0 0 0
1872 1 3.6910687876963926 22.37747691400908 1.822323328901999 0 0 0
1714 5 7.382765129963903 18.11536228825121 0.040454886233146026 0 0 0
1883 1 9.228137697154393 19.18064868861208 1.822323328901999 0 0 0
1720 5 11.074144402935902 18.11536228825121 0.040454886233145956 0 0 0
1881 5 9.228454766449902 21.312190513648208 0.040454886233145686 0 0 0
1878 1 7.382448060668392 22.37747691400908 1.822323328901999 0 0 0
1884 1 11.073827333640393 22.37747691400908 1.8223233289019989 0 0 0
1889 1 12.919516970126393 19.18064868861208 1.822323328901999 0 0 0
1726 5 14.765523675907902 18.11536228825121 0.040454886233145956 0 0 0
1895 1 16.61089624309839 19.18064868861208 1.822323328901999 0 0 0
1887 5 12.919834039421902 21.312190513648208 0.04045488623314562 0 0 0
1893 5 16.611213312393904 21.312190513648208 0.04045488623314562 0 0 0
1890 1 14.765206606612393 22.37747691400908 1.8223233289019989 0 0 0
1732 5 18.456902948879904 18.11536228825121 0.040454886233145956 0 0 0
1901 1 20.30227551607039 19.18064868861208 1.822323328901999 0 0 0
1738 5 22.148282221851904 18.11536228825121 0.040454886233145956 0 0 0
1899 5 20.302592585365904 21.312190513648208 0.04045488623314562 0 0 0
1896 1 18.45658587958439 22.37747691400908 1.8223233289019989 0 0 0
1902 1 22.14796515255639 22.37747691400908 1.8223233289019989 0 0 0
1744 5 25.839661494823904 18.11536228825121 0.040454886233145956 0 0 0
1907 1 23.99365478904239 19.18064868861208 1.822323328901999 0 0 0
1913 1 27.68503406201439 19.18064868861208 1.822323328901999 0 0 0
1905 5 23.993971858337904 21.312190513648208 0.04045488623314562 0 0 0
1911 5 27.685351131309904 21.312190513648208 0.04045488623314563 0 0 0
1908 1 25.83934442552839 22.37747691400908 1.8223233289019989 0 0 0
1750 5 29.531040767795904 18.11536228825121 0.04045488623314592 0 0 0
1919 1 31.376413334986392 19.18064868861208 1.8223233289019989 0 0 0
1756 5 33.22242004076791 18.11536228825121 0.040454886233145686 0 0 0
1925 1 35.06779260795839 19.18064868861208 1.822323328901999 0 0 0
1917 5 31.376730404281904 21.312190513648208 0.040454886233145415 0 0 0
1923 5 35.06810967725391 21.312190513648208 0.04045488623314558 0 0 0
1914 1 29.530723698500392 22.37747691400908 1.8223233289019989 0 0 0
1920 1 33.22210297147239 22.37747691400908 1.8223233289019987 0 0 0
1762 5 36.91379931373991 18.11536228825121 0.04045488623314594 0 0 0
1931 1 38.75917188093039 19.18064868861208 1.822323328901999 0 0 0
1768 5 40.60517858671191 18.11536228825121 0.04045488623314594 0 0 0
1929 5 38.75948895022591 21.312190513648208 0.040454886233145616 0 0 0
1926 1 36.91348224444439 22.37747691400908 1.8223233289019989 0 0 0
1932 1 40.60486151741639 22.37747691400908 1.8223233289019989 0 0 0
1937 1 42.45055115390239 19.18064868861208 1.822323328901999 0 0 0
1774 5 44.29655785968391 18.11536228825121 0.04045488623314594 0 0 0
1943 1 46.14193042687439 19.18064868861208 1.822323328901999 0 0 0
1935 5 42.45086822319791 21.312190513648208 0.040454886233145616 0 0 0
1941 5 46.14224749616991 21.312190513648208 0.040454886233145616 0 0 0
1938 1 44.29624079038839 22.37747691400908 1.8223233289019989 0 0 0
1780 5 47.98793713265591 18.11536228825121 0.04045488623314594 0 0 0
1624 5 51.67931640562791 18.11536228825121 0.04045488623314594 -1 0 0
1787 1 49.83330969984639 19.18064868861208 1.822323328901999 -1 0 0
1785 5 49.83362676914191 21.312190513648208 0.040454886233145616 -1 0 0
1944 1 47.98762006336039 22.37747691400908 1.8223233289019989 0 0 0
1788 1 51.67899933633239 22.37747691400908 1.8223233289019989 -1 0 0
1793 1 53.52468897281839 19.18064868861208 1.822323328901999 -1 0 0
1630 5 55.37069567859991 18.11536228825121 0.04045488623314594 -1 0 0
1799 1 57.21606824579039 19.18064868861208 1.822323328901999 -1 0 0
1791 5 53.52500604211391 21.312190513648208 0.040454886233145616 -1 0 0
1797 5 57.21638531508591 21.312190513648208 0.040454886233145616 -1 0 0
1794 1 55.37037860930439 22.37747691400908 1.8223233289019989 -1 0 0
1636 5 59.06207495157191 18.11536228825121 0.04045488623314594 -1 0 0
1805 1 60.90744751876239 19.18064868861208 1.822323328901999 -1 0 0
1642 5 62.75345422454391 18.11536228825121 0.040454886233146095 -1 0 0
1803 5 60.90776458805791 21.312190513648208 0.04045488623314569 -1 0 0
1800 1 59.06175788227639 22.37747691400908 1.8223233289019989 -1 0 0
1806 1 62.75313715524839 22.37747691400908 1.8223233289019993 -1 0 0
1811 1 64.5988267917344 19.18064868861208 1.8223233289019996 -1 0 0
1648 5 66.4448334975159 18.11536228825121 0.040454886233146026 -1 0 0
1817 1 68.2902060647064 19.18064868861208 1.822323328901999 -1 0 0
1654 5 70.1362127704879 18.11536228825121 0.04045488623314595 -1 0 0
1809 5 64.5991438610299 21.312190513648208 0.040454886233145776 -1 0 0
1815 5 68.2905231340019 21.312190513648208 0.04045488623314562 -1 0 0
1812 1 66.4445164282204 22.37747691400908 1.8223233289019989 -1 0 0
1818 1 70.1358957011924 22.37747691400908 1.8223233289019989 -1 0 0
1823 1 71.9815853376784 19.18064868861208 1.822323328901999 -1 0 0
1660 5 73.8275920434599 18.11536228825121 0.04045488623314595 -1 0 0
1829 1 75.6729646106504 19.18064868861208 1.822323328901999 -1 0 0
1821 5 71.9819024069739 21.312190513648208 0.040454886233145616 -1 0 0
1827 5 75.6732816799459 21.312190513648208 0.04045488623314562 -1 0 0
1824 1 73.8272749741644 22.37747691400908 1.8223233289019989 -1 0 0
1666 5 77.5189713164319 18.11536228825121 0.04045488623314595 -1 0 0
1835 1 79.3643438836224 19.18064868861208 1.822323328901999 -1 0 0
1672 5 81.2103505894039 18.11536228825121 0.04045488623314595 -1 0 0
1833 5 79.3646609529179 21.312190513648208 0.04045488623314562 -1 0 0
1830 1 77.5186542471364 22.37747691400908 1.8223233289019989 -1 0 0
1836 1 81.2100335201084 22.37747691400908 1.8223233289019989 -1 0 0
1841 1 83.0557231565944 19.18064868861208 1.822323328901999 -1 0 0
1678 5 84.9017298623759 18.11536228825121 0.04045488623314595 -1 0 0
1847 1 86.7471024295664 19.18064868861208 1.822323328901999 -1 0 0
1839 5 83.0560402258899 21.312190513648208 0.040454886233145616 -1 0 0
1845 5 86.7474194988619 21.312190513648208 0.04045488623314562 -1 0 0
1842 1 84.9014127930804 22.37747691400908 1.8223233289019989 -1 0 0
1684 5 88.5931091353479 18.11536228825121 0.04045488623314595 -1 0 0
1853 1 90.4384817025384 19.18064868861208 1.822323328901999 -1 0 0
1690 5 92.2844884083199 18.11536228825121 0.04045488623314595 -1 0 0
1851 5 90.4387987718339 21.312190513648208 0.04045488623314562 -1 0 0
1848 1 88.5927920660524 22.37747691400908 1.8223233289019989 -1 0 0
1854 1 92.2841713390244 22.37747691400908 1.8223233289019989 -1 0 0
1866 1 99.6669298849684 22.37747691400908 1.8223233289019987 -1 0 0
1859 1 94.1298609755104 19.18064868861208 1.822323328901999 -1 0 0
1696 5 95.9758676812919 18.11536228825121 0.04045488623314595 -1 0 0
1865 1 97.8212402484824 19.18064868861208 1.822323328901999 -1 0 0
1857 5 94.1301780448059 21.312190513648208 0.040454886233145616 -1 0 0
1863 5 97.8215573177779 21.312190513648208 0.040454886233145734 -1 0 0
1860 1 95.9755506119964 22.37747691400908 1.8223233289019989 -1 0 0
1864 5 6.584019902666667e-06 24.509018739045207 0.04045488623314548 0 0 0
2033 1 1.8453791512103923 25.57430513940608 1.822323328901999 0 0 0
1870 5 3.6913858569919027 24.509018739045207 0.040454886233145644 0 0 0
2039 1 5.536758424182392 25.57430513940608 1.8223233289019989 0 0 0
2031 5 1.8456962205059027 27.705846964442205 0.040454886233145616 0 0 0
2037 5 5.537075493477903 27.705846964442205 0.040454886233145596 0 0 0
1876 5 7.382765129963903 24.509018739045207 0.0404548862331457 0 0 0
2045 1 9.228137697154393 25.57430513940608 1.822323328901999 0 0 0
1882 5 11.074144402935902 24.509018739045207 0.04045488623314562 0 0 0
2043 5 9.228454766449902 27.705846964442205 0.040454886233145686 0 0 0
2051 1 12.919516970126393 25.57430513940608 1.8223233289019989 0 0 0
1888 5 14.765523675907902 24.509018739045207 0.04045488623314562 0 0 0
2057 1 16.61089624309839 25.57430513940608 1.8223233289019989 0 0 0
2049 5 12.919834039421902 27.705846964442205 0.04045488623314562 0 0 0
2055 5 16.611213312393904 27.705846964442205 0.04045488623314562 0 0 0
1894 5 18.456902948879904 24.509018739045207 0.04045488623314562 0 0 0
2063 1 20.30227551607039 25.57430513940608 1.8223233289019989 0 0 0
1900 5 22.148282221851904 24.509018739045207 0.04045488623314562 0 0 0
2061 5 20.302592585365904 27.705846964442205 0.04045488623314562 0 0 0
1906 5 25.839661494823904 24.509018739045207 0.04045488623314562 0 0 0
2069 1 23.99365478904239 25.57430513940608 1.8223233289019989 0 0 0
2075 1 27.68503406201439 25.57430513940608 1.8223233289019989 0 0 0
2067 5 23.993971858337904 27.705846964442205 0.04045488623314562 0 0 0
2073 5 27.685351131309904 27.705846964442205 0.04045488623314563 0 0 0
1912 5 29.531040767795904 24.509018739045207 0.040454886233145596 0 0 0
2081 1 31.376413334986392 25.57430513940608 1.8223233289019989 0 0 0
1918 5 33.22242004076791 24.509018739045207 0.04045488623314536 0 0 0
2087 1 35.06779260795839 25.57430513940608 1.8223233289019989 0 0 0
2079 5 31.376730404281904 27.705846964442205 0.040454886233145415 0 0 0
2085 5 35.06810967725391 27.705846964442205 0.04045488623314558 0 0 0
1924 5 36.91379931373991 24.509018739045207 0.040454886233145616 0 0 0
2093 1 38.75917188093039 25.57430513940608 1.8223233289019989 0 0 0
1930 5 40.60517858671191 24.509018739045207 0.040454886233145616 0 0 0
2091 5 38.75948895022591 27.705846964442205 0.040454886233145616 0 0 0
2099 1 42.45055115390239 25.57430513940608 1.8223233289019989 0 0 0
1936 5 44.29655785968391 24.509018739045207 0.040454886233145616 0 0 0
2105 1 46.14193042687439 25.57430513940608 1.8223233289019989 0 0 0
2097 5 42.45086822319791 27.705846964442205 0.040454886233145616 0 0 0
2103 5 46.14224749616991 27.705846964442205 0.040454886233145616 0 0 0
1942 5 47.98793713265591 24.509018739045207 0.040454886233145616 0 0 0
1786 5 51.67931640562791 24.509018739045207 0.040454886233145616 -1 0 0
1949 1 49.83330969984639 25.57430513940608 1.8223233289019989 -1 0 0
1947 5 49.83362676914191 27.705846964442205 0.040454886233145616 -1 0 0
1955 1 53.52468897281839 25.57430513940608 1.8223233289019989 -1 0 0
1792 5 55.37069567859991 24.509018739045207 0.040454886233145616 -1 0 0
1961 1 57.21606824579039 25.57430513940608 1.8223233289019989 -1 0 0
1953 5 53.52500604211391 27.705846964442205 0.040454886233145616 -1 0 0
1959 5 57.21638531508591 27.705846964442205 0.040454886233145616 -1 0 0
1798 5 59.06207495157191 24.509018739045207 0.040454886233145616 -1 0 0
1967 1 60.90744751876239 25.57430513940608 1.8223233289019989 -1 0 0
1804 5 62.75345422454391 24.509018739045207 0.04045488623314577 -1 0 0