LAMMPS data file via write_data, version 29 Aug 2024, timestep = 2, units = metal

5184 atoms
6 atom types

0 99.667240370244 xlo xhi
0 102.298503212704 ylo yhi
-50 50 zlo zhi

Masses

1 180.94788
2 180.94788
3 127.6
4 127.6
5 127.6
6 127.6

Atoms # atomic

1383 4 1.8456961830879484 2.1312211397551466 0.040645323114902335 0 0 0
1386 1 3.6910833169830632 3.196522512765957 1.8224711737498065 0 0 0
1389 4 5.537075456059949 2.1312211397551466 0.040645323114902265 0 0 0
1378 4 6.546601948200042e-06 5.328049365152145 0.04064532311490263 0 0 0
1384 4 3.691385819573948 5.328049365152145 0.040645323114902564 0 0 0
1392 1 7.382462589955063 3.196522512765957 1.8224711737498065 0 0 0
1395 4 9.228454729031949 2.1312211397551466 0.0406453231149023 0 0 0
1398 1 11.073841862927063 3.196522512765957 1.8224711737498065 0 0 0
1390 4 7.382765092545949 5.328049365152145 0.04064532311490255 0 0 0
1396 4 11.074144365517949 5.328049365152145 0.04064532311490255 0 0 0
1401 4 12.919834002003949 2.1312211397551466 0.0406453231149023 0 0 0
1404 1 14.765221135899063 3.196522512765957 1.8224711737498065 0 0 0
1407 4 16.61121327497595 2.1312211397551466 0.0406453231149024 0 0 0
1402 4 14.765523638489949 5.328049365152145 0.0406453231149026 0 0 0
1410 1 18.456600408871065 3.196522512765957 1.8224711737498065 0 0 0
1413 4 20.30259254794795 2.1312211397551466 0.04064532311490231 0 0 0
1416 1 22.147979681843065 3.196522512765957 1.8224711737498065 0 0 0
1408 4 18.45690291146195 5.328049365152145 0.04064532311490255 0 0 0
1414 4 22.14828218443395 5.328049365152145 0.04064532311490255 0 0 0
1419 4 23.99397182091995 2.1312211397551466 0.04064532311490231 0 0 0
1422 1 25.839358954815065 3.196522512765957 1.8224711737498065 0 0 0
1425 4 27.68535109389195 2.1312211397551466 0.04064532311490231 0 0 0
1420 4 25.83966145740595 5.328049365152145 0.04064532311490255 0 0 0
1428 1 29.530738227787065 3.196522512765957 1.8224711737498065 0 0 0
1431 4 31.37673036686395 2.1312211397551466 0.040645323114902154 0 0 0
1434 1 33.22211750075906 3.196522512765957 1.8224711737498067 0 0 0
1437 4 35.068109639835946 2.1312211397551466 0.04064532311490229 0 0 0
1426 4 29.53104073037795 5.328049365152145 0.04064532311490255 0 0 0
1432 4 33.222420003349946 5.328049365152145 0.040645323114902404 0 0 0
1440 1 36.91349677373106 3.196522512765957 1.8224711737498065 0 0 0
1443 4 38.759488912807946 2.1312211397551466 0.04064532311490229 0 0 0
1446 1 40.60487604670306 3.196522512765957 1.8224711737498065 0 0 0
1438 4 36.913799276321946 5.328049365152145 0.04064532311490254 0 0 0
1444 4 40.605178549293946 5.328049365152145 0.04064532311490254 0 0 0
1449 4 42.450868185779946 2.1312211397551466 0.04064532311490229 0 0 0
1452 1 44.29625531967506 3.196522512765957 1.8224711737498065 0 0 0
1455 4 46.142247458751946 2.1312211397551466 0.04064532311490229 0 0 0
1450 4 44.296557822265946 5.328049365152145 0.04064532311490254 0 0 0
1458 1 47.98763459264706 3.196522512765957 1.8224711737498065 0 0 0
1299 4 49.833626731723946 2.1312211397551466 0.0406453231149023 -1 0 0
1302 1 51.67901386561906 3.196522512765957 1.8224711737498065 -1 0 0
1456 4 47.987937095237946 5.328049365152145 0.04064532311490254 0 0 0
1300 4 51.679316368209946 5.328049365152145 0.04064532311490254 -1 0 0
1305 4 53.525006004695946 2.1312211397551466 0.04064532311490229 -1 0 0
1308 1 55.37039313859106 3.196522512765957 1.8224711737498065 -1 0 0
1311 4 57.216385277667946 2.1312211397551466 0.04064532311490229 -1 0 0
1306 4 55.370695641181946 5.328049365152145 0.04064532311490254 -1 0 0
1314 1 59.06177241156306 3.196522512765957 1.8224711737498065 -1 0 0
1317 4 60.907764550639946 2.1312211397551466 0.04064532311490229 -1 0 0
1320 1 62.75315168453506 3.196522512765957 1.8224711737498065 -1 0 0
1312 4 59.062074914153946 5.328049365152145 0.04064532311490254 -1 0 0
1318 4 62.753454187125946 5.328049365152145 0.04064532311490254 -1 0 0
1323 4 64.59914382361195 2.1312211397551466 0.04064532311490229 -1 0 0
1326 1 66.44453095750707 3.196522512765957 1.8224711737498065 -1 0 0
1329 4 68.29052309658395 2.1312211397551466 0.04064532311490229 -1 0 0
1332 1 70.13591023047907 3.196522512765957 1.8224711737498065 -1 0 0
1324 4 66.44483346009795 5.328049365152145 0.04064532311490254 -1 0 0
1330 4 70.13621273306995 5.328049365152145 0.04064532311490254 -1 0 0
1335 4 71.98190236955595 2.1312211397551466 0.04064532311490229 -1 0 0
1341 4 75.67328164252795 2.1312211397551466 0.04064532311490229 -1 0 0
1338 1 73.82728950345107 3.196522512765957 1.8224711737498065 -1 0 0
1336 4 73.82759200604195 5.328049365152145 0.04064532311490254 -1 0 0
1344 1 77.51866877642307 3.196522512765957 1.8224711737498065 -1 0 0
1347 4 79.36466091549995 2.1312211397551466 0.04064532311490229 -1 0 0
1350 1 81.21004804939507 3.196522512765957 1.8224711737498065 -1 0 0
1342 4 77.51897127901395 5.328049365152145 0.04064532311490254 -1 0 0
1348 4 81.21035055198595 5.328049365152145 0.04064532311490254 -1 0 0
1353 4 83.05604018847195 2.1312211397551466 0.04064532311490229 -1 0 0
1356 1 84.90142732236707 3.196522512765957 1.8224711737498065 -1 0 0
1359 4 86.74741946144395 2.1312211397551466 0.04064532311490229 -1 0 0
1354 4 84.90172982495795 5.328049365152145 0.04064532311490254 -1 0 0
1362 1 88.59280659533907 3.196522512765957 1.8224711737498065 -1 0 0
1365 4 90.43879873441595 2.1312211397551466 0.04064532311490229 -1 0 0
1368 1 92.28418586831107 3.196522512765957 1.8224711737498065 -1 0 0
1360 4 88.59310909792995 5.328049365152145 0.04064532311490254 -1 0 0
1366 4 92.28448837090195 5.328049365152145 0.04064532311490254 -1 0 0
1380 1 99.66694441425507 3.196522512765957 1.8224711737498063 -1 0 0
1371 4 94.13017800738795 2.1312211397551466 0.04064532311490229 -1 0 0
1374 1 95.97556514128307 3.196522512765957 1.8224711737498065 -1 0 0
1377 4 97.82155728035995 2.1312211397551466 0.040645323114902425 -1 0 0
1372 4 95.97586764387395 5.328049365152145 0.04064532311490254 -1 0 0
1547 1 1.8453936804970632 6.393350738162957 1.822471173749807 0 0 0
1553 1 5.536772953469063 6.393350738162957 1.822471173749807 0 0 0
1545 4 1.8456961830879484 8.524877590549146 0.040645323114902016 0 0 0
1548 1 3.6910833169830632 9.590178963559959 1.8224711737498058 0 0 0
1551 4 5.537075456059949 8.524877590549146 0.04064532311490202 0 0 0
1559 1 9.228152226441063 6.393350738162957 1.822471173749807 0 0 0
1554 1 7.382462589955063 9.590178963559959 1.8224711737498058 0 0 0
1557 4 9.228454729031949 8.524877590549146 0.04064532311490204 0 0 0
1560 1 11.073841862927063 9.590178963559959 1.8224711737498058 0 0 0
1565 1 12.919531499413063 6.393350738162957 1.822471173749807 0 0 0
1571 1 16.610910772385065 6.393350738162957 1.8224711737498067 0 0 0
1563 4 12.919834002003949 8.524877590549146 0.04064532311490204 0 0 0
1566 1 14.765221135899063 9.590178963559959 1.8224711737498058 0 0 0
1569 4 16.61121327497595 8.524877590549146 0.040645323114902106 0 0 0
1577 1 20.302290045357065 6.393350738162957 1.822471173749807 0 0 0
1572 1 18.456600408871065 9.590178963559959 1.8224711737498058 0 0 0
1575 4 20.30259254794795 8.524877590549146 0.04064532311490202 0 0 0
1578 1 22.147979681843065 9.590178963559959 1.8224711737498058 0 0 0
1583 1 23.993669318329065 6.393350738162957 1.822471173749807 0 0 0
1589 1 27.685048591301065 6.393350738162957 1.822471173749807 0 0 0
1581 4 23.99397182091995 8.524877590549146 0.04064532311490202 0 0 0
1584 1 25.839358954815065 9.590178963559959 1.8224711737498058 0 0 0
1587 4 27.68535109389195 8.524877590549146 0.04064532311490202 0 0 0
1595 1 31.376427864273065 6.393350738162957 1.822471173749807 0 0 0
1601 1 35.06780713724506 6.393350738162957 1.822471173749807 0 0 0
1590 1 29.530738227787065 9.590178963559959 1.8224711737498058 0 0 0
1593 4 31.37673036686395 8.524877590549146 0.04064532311490187 0 0 0
1596 1 33.22211750075906 9.590178963559959 1.822471173749806 0 0 0
1599 4 35.068109639835946 8.524877590549146 0.04064532311490201 0 0 0
1607 1 38.75918641021706 6.393350738162957 1.822471173749807 0 0 0
1602 1 36.91349677373106 9.590178963559959 1.8224711737498058 0 0 0
1605 4 38.759488912807946 8.524877590549146 0.04064532311490201 0 0 0
1608 1 40.60487604670306 9.590178963559959 1.8224711737498058 0 0 0
1613 1 42.45056568318906 6.393350738162957 1.822471173749807 0 0 0
1619 1 46.14194495616106 6.393350738162957 1.822471173749807 0 0 0
1611 4 42.450868185779946 8.524877590549146 0.04064532311490201 0 0 0
1614 1 44.29625531967506 9.590178963559959 1.8224711737498058 0 0 0
1617 4 46.142247458751946 8.524877590549146 0.04064532311490201 0 0 0
1463 1 49.83332422913306 6.393350738162957 1.822471173749807 -1 0 0
1620 1 47.98763459264706 9.590178963559959 1.8224711737498058 0 0 0
1461 4 49.833626731723946 8.524877590549146 0.04064532311490201 -1 0 0
1464 1 51.67901386561906 9.590178963559959 1.8224711737498058 -1 0 0
1469 1 53.52470350210506 6.393350738162957 1.822471173749807 -1 0 0
1475 1 57.21608277507706 6.393350738162957 1.822471173749807 -1 0 0
1467 4 53.525006004695946 8.524877590549146 0.04064532311490201 -1 0 0
1470 1 55.37039313859106 9.590178963559959 1.8224711737498058 -1 0 0
1473 4 57.216385277667946 8.524877590549146 0.04064532311490201 -1 0 0
1481 1 60.90746204804906 6.393350738162957 1.822471173749807 -1 0 0
1476 1 59.06177241156306 9.590178963559959 1.8224711737498058 -1 0 0
1479 4 60.907764550639946 8.524877590549146 0.04064532311490201 -1 0 0
1482 1 62.75315168453506 9.590178963559959 1.8224711737498058 -1 0 0
1487 1 64.59884132102107 6.393350738162957 1.822471173749807 -1 0 0
1493 1 68.29022059399307 6.393350738162957 1.822471173749807 -1 0 0
1485 4 64.59914382361195 8.524877590549146 0.040645323114902016 -1 0 0
1488 1 66.44453095750707 9.590178963559959 1.8224711737498058 -1 0 0
1491 4 68.29052309658395 8.524877590549146 0.040645323114902016 -1 0 0
1494 1 70.13591023047907 9.590178963559959 1.8224711737498058 -1 0 0
1499 1 71.98159986696507 6.393350738162957 1.822471173749807 -1 0 0
1505 1 75.67297913993707 6.393350738162957 1.822471173749807 -1 0 0
1497 4 71.98190236955595 8.524877590549146 0.04064532311490201 -1 0 0
1503 4 75.67328164252795 8.524877590549146 0.040645323114902 -1 0 0
1500 1 73.82728950345107 9.590178963559959 1.8224711737498058 -1 0 0
1511 1 79.36435841290907 6.393350738162957 1.822471173749807 -1 0 0
1506 1 77.51866877642307 9.590178963559959 1.8224711737498058 -1 0 0
1509 4 79.36466091549995 8.524877590549146 0.04064532311490201 -1 0 0
1512 1 81.21004804939507 9.590178963559959 1.8224711737498058 -1 0 0
1517 1 83.05573768588107 6.393350738162957 1.822471173749807 -1 0 0
1523 1 86.74711695885307 6.393350738162957 1.822471173749807 -1 0 0
1515 4 83.05604018847195 8.524877590549146 0.04064532311490201 -1 0 0
1518 1 84.90142732236707 9.590178963559959 1.8224711737498058 -1 0 0
1521 4 86.74741946144395 8.524877590549146 0.04064532311490201 -1 0 0
1529 1 90.43849623182507 6.393350738162957 1.822471173749807 -1 0 0
1524 1 88.59280659533907 9.590178963559959 1.8224711737498058 -1 0 0
1527 4 90.43879873441595 8.524877590549146 0.04064532311490201 -1 0 0
1530 1 92.28418586831107 9.590178963559959 1.8224711737498058 -1 0 0
1542 1 99.66694441425507 9.590178963559959 1.8224711737498056 -1 0 0
1535 1 94.12987550479707 6.393350738162957 1.822471173749807 -1 0 0
1541 1 97.82125477776907 6.393350738162957 1.8224711737498067 -1 0 0
1533 4 94.13017800738795 8.524877590549146 0.04064532311490201 -1 0 0
1536 1 95.97556514128307 9.590178963559959 1.8224711737498058 -1 0 0
1539 4 97.82155728035995 8.524877590549146 0.04064532311490218 -1 0 0
1540 4 6.546601948194556e-06 11.721705815946148 0.04064532311490174 0 0 0
1546 4 3.691385819573948 11.721705815946146 0.0406453231149016 0 0 0
1709 1 1.8453936804970632 12.787007188956958 1.8224711737498058 0 0 0
1715 1 5.536772953469063 12.787007188956958 1.8224711737498058 0 0 0
1707 4 1.8456961830879484 14.918534041343149 0.04064532311490323 0 0 0
1710 1 3.6910833169830632 15.98383541435396 1.8224711737498076 0 0 0
1713 4 5.537075456059949 14.918534041343149 0.04064532311490317 0 0 0
1552 4 7.382765092545949 11.721705815946146 0.04064532311490163 0 0 0
1558 4 11.074144365517949 11.721705815946146 0.04064532311490163 0 0 0
1721 1 9.228152226441063 12.787007188956958 1.8224711737498058 0 0 0
1716 1 7.382462589955063 15.98383541435396 1.8224711737498078 0 0 0
1719 4 9.228454729031949 14.918534041343149 0.04064532311490319 0 0 0
1722 1 11.073841862927063 15.98383541435396 1.8224711737498078 0 0 0
1564 4 14.765523638489949 11.721705815946148 0.04064532311490172 0 0 0
1727 1 12.919531499413063 12.787007188956958 1.8224711737498058 0 0 0
1733 1 16.610910772385065 12.787007188956958 1.8224711737498058 0 0 0
1725 4 12.919834002003949 14.918534041343149 0.04064532311490319 0 0 0
1728 1 14.765221135899063 15.98383541435396 1.8224711737498076 0 0 0
1731 4 16.61121327497595 14.918534041343149 0.04064532311490328 0 0 0
1570 4 18.45690291146195 11.721705815946148 0.040645323114901655 0 0 0
1576 4 22.14828218443395 11.721705815946148 0.040645323114901655 0 0 0
1739 1 20.302290045357065 12.787007188956958 1.8224711737498058 0 0 0
1734 1 18.456600408871065 15.98383541435396 1.8224711737498076 0 0 0
1737 4 20.30259254794795 14.918534041343149 0.040645323114903195 0 0 0
1740 1 22.147979681843065 15.98383541435396 1.8224711737498078 0 0 0
1582 4 25.83966145740595 11.721705815946148 0.040645323114901655 0 0 0
1745 1 23.993669318329065 12.787007188956958 1.8224711737498058 0 0 0
1751 1 27.685048591301065 12.787007188956958 1.8224711737498058 0 0 0
1743 4 23.99397182091995 14.918534041343149 0.040645323114903195 0 0 0
1746 1 25.839358954815065 15.98383541435396 1.8224711737498078 0 0 0
1749 4 27.68535109389195 14.918534041343149 0.040645323114903195 0 0 0
1588 4 29.53104073037795 11.721705815946148 0.040645323114901655 0 0 0
1594 4 33.222420003349946 11.721705815946146 0.04064532311490151 0 0 0
1757 1 31.376427864273065 12.787007188956958 1.822471173749806 0 0 0
1763 1 35.06780713724506 12.787007188956958 1.8224711737498058 0 0 0
1752 1 29.530738227787065 15.98383541435396 1.8224711737498076 0 0 0
1755 4 31.37673036686395 14.918534041343149 0.040645323114903056 0 0 0
1758 1 33.22211750075906 15.98383541435396 1.8224711737498078 0 0 0
1761 4 35.068109639835946 14.918534041343149 0.040645323114903195 0 0 0
1600 4 36.913799276321946 11.721705815946148 0.040645323114901655 0 0 0
1606 4 40.605178549293946 11.721705815946148 0.040645323114901655 0 0 0
1769 1 38.75918641021706 12.787007188956958 1.8224711737498058 0 0 0
1764 1 36.91349677373106 15.98383541435396 1.8224711737498078 0 0 0
1767 4 38.759488912807946 14.918534041343149 0.040645323114903195 0 0 0
1770 1 40.60487604670306 15.98383541435396 1.8224711737498078 0 0 0
1612 4 44.296557822265946 11.721705815946148 0.040645323114901655 0 0 0
1775 1 42.45056568318906 12.787007188956958 1.8224711737498058 0 0 0
1781 1 46.14194495616106 12.787007188956958 1.8224711737498058 0 0 0
1773 4 42.450868185779946 14.918534041343149 0.040645323114903195 0 0 0
1776 1 44.29625531967506 15.98383541435396 1.8224711737498078 0 0 0
1779 4 46.142247458751946 14.918534041343149 0.040645323114903195 0 0 0
1618 4 47.987937095237946 11.721705815946148 0.040645323114901655 0 0 0
1462 4 51.679316368209946 11.721705815946148 0.040645323114901655 -1 0 0
1625 1 49.83332422913306 12.787007188956958 1.8224711737498058 -1 0 0
1782 1 47.98763459264706 15.98383541435396 1.8224711737498078 0 0 0
1623 4 49.833626731723946 14.918534041343149 0.040645323114903195 -1 0 0
1626 1 51.67901386561906 15.98383541435396 1.8224711737498078 -1 0 0
1468 4 55.370695641181946 11.721705815946148 0.040645323114901655 -1 0 0
1631 1 53.52470350210506 12.787007188956958 1.8224711737498058 -1 0 0
1637 1 57.21608277507706 12.787007188956958 1.8224711737498058 -1 0 0
1629 4 53.525006004695946 14.918534041343149 0.040645323114903195 -1 0 0
1632 1 55.37039313859106 15.98383541435396 1.8224711737498078 -1 0 0
1635 4 57.216385277667946 14.918534041343149 0.040645323114903195 -1 0 0
1474 4 59.062074914153946 11.721705815946148 0.040645323114901655 -1 0 0
1480 4 62.753454187125946 11.721705815946148 0.040645323114901655 -1 0 0
1643 1 60.90746204804906 12.787007188956958 1.8224711737498058 -1 0 0
1638 1 59.06177241156306 15.98383541435396 1.8224711737498078 -1 0 0
1641 4 60.907764550639946 14.918534041343149 0.040645323114903195 -1 0 0
1644 1 62.75315168453506 15.98383541435396 1.8224711737498078 -1 0 0
1486 4 66.44483346009795 11.721705815946148 0.04064532311490166 -1 0 0
1492 4 70.13621273306995 11.721705815946148 0.04064532311490166 -1 0 0
1649 1 64.59884132102107 12.787007188956958 1.8224711737498058 -1 0 0
1655 1 68.29022059399307 12.787007188956958 1.8224711737498058 -1 0 0
1647 4 64.59914382361195 14.918534041343149 0.040645323114903195 -1 0 0
1650 1 66.44453095750707 15.98383541435396 1.8224711737498078 -1 0 0
1653 4 68.29052309658395 14.918534041343149 0.04064532311490319 -1 0 0
1656 1 70.13591023047907 15.98383541435396 1.8224711737498078 -1 0 0
1498 4 73.82759200604195 11.721705815946148 0.04064532311490166 -1 0 0
1661 1 71.98159986696507 12.787007188956958 1.8224711737498058 -1 0 0
1667 1 75.67297913993707 12.787007188956958 1.8224711737498058 -1 0 0
1659 4 71.98190236955595 14.918534041343149 0.04064532311490319 -1 0 0
1665 4 75.67328164252795 14.918534041343149 0.04064532311490319 -1 0 0
1662 1 73.82728950345107 15.98383541435396 1.8224711737498078 -1 0 0
1504 4 77.51897127901395 11.721705815946148 0.04064532311490166 -1 0 0
1510 4 81.21035055198595 11.721705815946148 0.04064532311490166 -1 0 0
1673 1 79.36435841290907 12.787007188956958 1.8224711737498058 -1 0 0
1668 1 77.51866877642307 15.98383541435396 1.8224711737498078 -1 0 0
1671 4 79.36466091549995 14.918534041343149 0.04064532311490319 -1 0 0
1674 1 81.21004804939507 15.98383541435396 1.8224711737498078 -1 0 0
1516 4 84.90172982495795 11.721705815946148 0.04064532311490166 -1 0 0
1679 1 83.05573768588107 12.787007188956958 1.8224711737498058 -1 0 0
1685 1 86.74711695885307 12.787007188956958 1.8224711737498058 -1 0 0
1677 4 83.05604018847195 14.918534041343149 0.04064532311490319 -1 0 0
1680 1 84.90142732236707 15.98383541435396 1.8224711737498078 -1 0 0
1683 4 86.74741946144395 14.918534041343149 0.04064532311490319 -1 0 0
1522 4 88.59310909792995 11.721705815946148 0.04064532311490166 -1 0 0
1528 4 92.28448837090195 11.721705815946148 0.04064532311490166 -1 0 0
1691 1 90.43849623182507 12.787007188956958 1.8224711737498058 -1 0 0
1686 1 88.59280659533907 15.98383541435396 1.8224711737498078 -1 0 0
1689 4 90.43879873441595 14.918534041343149 0.04064532311490319 -1 0 0
1692 1 92.28418586831107 15.98383541435396 1.8224711737498078 -1 0 0
1704 1 99.66694441425507 15.98383541435396 1.8224711737498074 -1 0 0
1534 4 95.97586764387395 11.721705815946148 0.04064532311490166 -1 0 0
1697 1 94.12987550479707 12.787007188956958 1.8224711737498058 -1 0 0
1703 1 97.82125477776907 12.787007188956958 1.8224711737498056 -1 0 0
1695 4 94.13017800738795 14.918534041343149 0.04064532311490319 -1 0 0
1698 1 95.97556514128307 15.98383541435396 1.8224711737498078 -1 0 0
1701 4 97.82155728035995 14.918534041343149 0.04064532311490332 -1 0 0
1702 4 6.546601948155325e-06 18.115362266740146 0.040645323114902626 0 0 0
1871 1 1.8453936804970632 19.18066363975096 1.8224711737498065 0 0 0
1708 4 3.691385819573948 18.115362266740146 0.04064532311490252 0 0 0
1877 1 5.536772953469063 19.18066363975096 1.8224711737498063 0 0 0
1869 4 1.8456961830879484 21.312190492137145 0.04064532311490221 0 0 0
1875 4 5.537075456059949 21.312190492137145 0.04064532311490218 0 0 0
1872 1 3.6910833169830632 22.37749186514796 1.8224711737498065 0 0 0
1714 4 7.382765092545949 18.115362266740146 0.04064532311490255 0 0 0
1883 1 9.228152226441063 19.18066363975096 1.8224711737498063 0 0 0
1720 4 11.074144365517949 18.115362266740146 0.04064532311490255 0 0 0
1881 4 9.228454729031949 21.312190492137145 0.04064532311490221 0 0 0
1878 1 7.382462589955063 22.37749186514796 1.8224711737498065 0 0 0
1884 1 11.073841862927063 22.37749186514796 1.8224711737498065 0 0 0
1889 1 12.919531499413063 19.18066363975096 1.8224711737498063 0 0 0
1726 4 14.765523638489949 18.115362266740146 0.04064532311490264 0 0 0
1895 1 16.610910772385065 19.18066363975096 1.8224711737498063 0 0 0
1887 4 12.919834002003949 21.312190492137145 0.04064532311490221 0 0 0
1893 4 16.61121327497595 21.312190492137145 0.04064532311490229 0 0 0
1890 1 14.765221135899063 22.37749186514796 1.8224711737498063 0 0 0
1732 4 18.45690291146195 18.115362266740146 0.04064532311490256 0 0 0
1901 1 20.302290045357065 19.18066363975096 1.8224711737498063 0 0 0
1738 4 22.14828218443395 18.115362266740146 0.04064532311490256 0 0 0
1899 4 20.30259254794795 21.312190492137145 0.04064532311490221 0 0 0
1896 1 18.456600408871065 22.37749186514796 1.8224711737498063 0 0 0
1902 1 22.147979681843065 22.37749186514796 1.8224711737498063 0 0 0
1744 4 25.83966145740595 18.115362266740146 0.04064532311490255 0 0 0
1907 1 23.993669318329065 19.18066363975096 1.8224711737498063 0 0 0
1913 1 27.685048591301065 19.18066363975096 1.8224711737498063 0 0 0
1905 4 23.99397182091995 21.312190492137145 0.04064532311490221 0 0 0
1911 4 27.68535109389195 21.312190492137145 0.04064532311490221 0 0 0
1908 1 25.839358954815065 22.37749186514796 1.8224711737498063 0 0 0
1750 4 29.53104073037795 18.115362266740146 0.04064532311490256 0 0 0
1919 1 31.376427864273065 19.18066363975096 1.8224711737498065 0 0 0
1756 4 33.222420003349946 18.115362266740146 0.0406453231149024 0 0 0
1925 1 35.06780713724506 19.18066363975096 1.8224711737498065 0 0 0
1917 4 31.37673036686395 21.312190492137145 0.04064532311490206 0 0 0
1923 4 35.068109639835946 21.312190492137145 0.04064532311490224 0 0 0
1914 1 29.530738227787065 22.37749186514796 1.8224711737498063 0 0 0
1920 1 33.22211750075906 22.37749186514796 1.8224711737498065 0 0 0
1762 4 36.913799276321946 18.115362266740146 0.040645323114902585 0 0 0
1931 1 38.75918641021706 19.18066363975096 1.8224711737498065 0 0 0
1768 4 40.605178549293946 18.115362266740146 0.040645323114902585 0 0 0
1929 4 38.759488912807946 21.312190492137145 0.04064532311490224 0 0 0
1926 1 36.91349677373106 22.37749186514796 1.8224711737498065 0 0 0
1932 1 40.60487604670306 22.37749186514796 1.8224711737498065 0 0 0
1937 1 42.45056568318906 19.18066363975096 1.8224711737498063 0 0 0
1774 4 44.296557822265946 18.115362266740146 0.040645323114902585 0 0 0
1943 1 46.14194495616106 19.18066363975096 1.8224711737498065 0 0 0
1935 4 42.450868185779946 21.312190492137145 0.04064532311490224 0 0 0
1941 4 46.142247458751946 21.312190492137145 0.04064532311490224 0 0 0
1938 1 44.29625531967506 22.37749186514796 1.8224711737498065 0 0 0
1780 4 47.987937095237946 18.115362266740146 0.040645323114902585 0 0 0
1624 4 51.679316368209946 18.115362266740146 0.04064532311490258 -1 0 0
1787 1 49.83332422913306 19.18066363975096 1.8224711737498065 -1 0 0
1785 4 49.833626731723946 21.312190492137145 0.04064532311490224 -1 0 0
1944 1 47.98763459264706 22.37749186514796 1.8224711737498065 0 0 0
1788 1 51.67901386561906 22.37749186514796 1.8224711737498065 -1 0 0
1793 1 53.52470350210506 19.18066363975096 1.8224711737498063 -1 0 0
1630 4 55.370695641181946 18.115362266740146 0.040645323114902585 -1 0 0
1799 1 57.21608277507706 19.18066363975096 1.8224711737498065 -1 0 0
1791 4 53.525006004695946 21.312190492137145 0.04064532311490224 -1 0 0
1797 4 57.216385277667946 21.312190492137145 0.04064532311490224 -1 0 0
1794 1 55.37039313859106 22.37749186514796 1.8224711737498065 -1 0 0
1636 4 59.062074914153946 18.115362266740146 0.040645323114902585 -1 0 0
1805 1 60.90746204804906 19.18066363975096 1.8224711737498065 -1 0 0
1642 4 62.753454187125946 18.115362266740146 0.040645323114902585 -1 0 0
1803 4 60.907764550639946 21.312190492137145 0.04064532311490224 -1 0 0
1800 1 59.06177241156306 22.37749186514796 1.8224711737498065 -1 0 0
1806 1 62.75315168453506 22.37749186514796 1.8224711737498065 -1 0 0
1811 1 64.59884132102107 19.18066363975096 1.8224711737498063 -1 0 0
1648 4 66.44483346009795 18.115362266740146 0.040645323114902585 -1 0 0
1817 1 68.29022059399307 19.18066363975096 1.8224711737498065 -1 0 0
1654 4 70.13621273306995 18.115362266740146 0.040645323114902585 -1 0 0
1809 4 64.59914382361195 21.312190492137145 0.04064532311490224 -1 0 0
1815 4 68.29052309658395 21.312190492137145 0.04064532311490224 -1 0 0
1812 1 66.44453095750707 22.37749186514796 1.8224711737498065 -1 0 0
1818 1 70.13591023047907 22.37749186514796 1.8224711737498065 -1 0 0
1823 1 71.98159986696507 19.18066363975096 1.8224711737498063 -1 0 0
1660 4 73.82759200604195 18.115362266740146 0.040645323114902585 -1 0 0
1829 1 75.67297913993707 19.18066363975096 1.8224711737498065 -1 0 0
1821 4 71.98190236955595 21.312190492137145 0.04064532311490224 -1 0 0
1827 4 75.67328164252795 21.312190492137145 0.04064532311490224 -1 0 0
1824 1 73.82728950345107 22.37749186514796 1.8224711737498065 -1 0 0
1666 4 77.51897127901395 18.115362266740146 0.040645323114902585 -1 0 0
1835 1 79.36435841290907 19.18066363975096 1.8224711737498065 -1 0 0
1672 4 81.21035055198595 18.115362266740146 0.040645323114902585 -1 0 0
1833 4 79.36466091549995 21.312190492137145 0.04064532311490224 -1 0 0
1830 1 77.51866877642307 22.37749186514796 1.8224711737498065 -1 0 0
1836 1 81.21004804939507 22.37749186514796 1.8224711737498065 -1 0 0
1841 1 83.05573768588107 19.18066363975096 1.8224711737498063 -1 0 0
1678 4 84.90172982495795 18.115362266740146 0.040645323114902585 -1 0 0
1847 1 86.74711695885307 19.18066363975096 1.8224711737498065 -1 0 0
1839 4 83.05604018847195 21.312190492137145 0.04064532311490224 -1 0 0
1845 4 86.74741946144395 21.312190492137145 0.04064532311490224 -1 0 0
1842 1 84.90142732236707 22.37749186514796 1.8224711737498065 -1 0 0
1684 4 88.59310909792995 18.115362266740146 0.040645323114902585 -1 0 0
1853 1 90.43849623182507 19.18066363975096 1.8224711737498065 -1 0 0
1690 4 92.28448837090195 18.115362266740146 0.040645323114902585 -1 0 0
1851 4 90.43879873441595 21.312190492137145 0.04064532311490224 -1 0 0
1848 1 88.59280659533907 22.37749186514796 1.8224711737498065 -1 0 0
1854 1 92.28418586831107 22.37749186514796 1.8224711737498065 -1 0 0
1866 1 99.66694441425507 22.37749186514796 1.8224711737498063 -1 0 0
1859 1 94.12987550479707 19.18066363975096 1.8224711737498063 -1 0 0
1696 4 95.97586764387395 18.115362266740146 0.040645323114902585 -1 0 0
1865 1 97.82125477776907 19.18066363975096 1.8224711737498063 -1 0 0
1857 4 94.13017800738795 21.312190492137145 0.04064532311490224 -1 0 0
1863 4 97.82155728035995 21.312190492137145 0.04064532311490237 -1 0 0
1860 1 95.97556514128307 22.37749186514796 1.8224711737498065 -1 0 0
1864 4 6.546601948152825e-06 24.509018717534143 0.04064532311490229 0 0 0
2033 1 1.8453936804970632 25.57432009054496 1.8224711737498065 0 0 0
1870 4 3.691385819573948 24.509018717534143 0.04064532311490219 0 0 0
2039 1 5.536772953469063 25.57432009054496 1.8224711737498065 0 0 0
2031 4 1.8456961830879484 27.705846942931142 0.04064532311490221 0 0 0
2037 4 5.537075456059949 27.705846942931142 0.04064532311490218 0 0 0
1876 4 7.382765092545949 24.509018717534143 0.04064532311490222 0 0 0
2045 1 9.228152226441063 25.57432009054496 1.8224711737498065 0 0 0
1882 4 11.074144365517949 24.509018717534143 0.04064532311490222 0 0 0
2043 4 9.228454729031949 27.705846942931142 0.04064532311490221 0 0 0
2051 1 12.919531499413063 25.57432009054496 1.8224711737498065 0 0 0
1888 4 14.765523638489949 24.509018717534143 0.0406453231149023 0 0 0
2057 1 16.610910772385065 25.57432009054496 1.8224711737498063 0 0 0
2049 4 12.919834002003949 27.705846942931142 0.04064532311490221 0 0 0
2055 4 16.61121327497595 27.705846942931142 0.04064532311490229 0 0 0
1894 4 18.45690291146195 24.509018717534143 0.04064532311490222 0 0 0
2063 1 20.302290045357065 25.57432009054496 1.8224711737498063 0 0 0
1900 4 22.14828218443395 24.509018717534143 0.04064532311490222 0 0 0
2061 4 20.30259254794795 27.705846942931142 0.04064532311490221 0 0 0
1906 4 25.83966145740595 24.509018717534143 0.04064532311490221 0 0 0
2069 1 23.993669318329065 25.57432009054496 1.8224711737498063 0 0 0
2075 1 27.685048591301065 25.57432009054496 1.8224711737498063 0 0 0
2067 4 23.99397182091995 27.705846942931142 0.04064532311490221 0 0 0
2073 4 27.68535109389195 27.705846942931142 0.04064532311490221 0 0 0
1912 4 29.53104073037795 24.509018717534143 0.04064532311490222 0 0 0
2081 1 31.376427864273065 25.57432009054496 1.8224711737498065 0 0 0
1918 4 33.222420003349946 24.509018717534143 0.040645323114902064 0 0 0
2087 1 35.06780713724506 25.57432009054496 1.8224711737498065 0 0 0
2079 4 31.37673036686395 27.705846942931142 0.04064532311490206 0 0 0
2085 4 35.068109639835946 27.705846942931142 0.04064532311490224 0 0 0
1924 4 36.913799276321946 24.509018717534143 0.040645323114902245 0 0 0
2093 1 38.75918641021706 25.57432009054496 1.8224711737498065 0 0 0
1930 4 40.605178549293946 24.509018717534143 0.040645323114902245 0 0 0
2091 4 38.759488912807946 27.705846942931142 0.04064532311490224 0 0 0
2099 1 42.45056568318906 25.57432009054496 1.8224711737498065 0 0 0
1936 4 44.296557822265946 24.509018717534143 0.040645323114902245 0 0 0
2105 1 46.14194495616106 25.57432009054496 1.8224711737498065 0 0 0
2097 4 42.450868185779946 27.705846942931142 0.04064532311490224 0 0 0
2103 4 46.142247458751946 27.705846942931142 0.04064532311490224 0 0 0
1942 4 47.987937095237946 24.509018717534143 0.040645323114902245 0 0 0
1786 4 51.679316368209946 24.509018717534143 0.04064532311490224 -1 0 0
1949 1 49.83332422913306 25.57432009054496 1.8224711737498065 -1 0 0
1947 4 49.833626731723946 27.705846942931142 0.04064532311490224 -1 0 0
1955 1 53.52470350210506 25.57432009054496 1.8224711737498065 -1 0 0
1792 4 55.370695641181946 24.509018717534143 0.040645323114902245 -1 0 0
1961 1 57.21608277507706 25.57432009054496 1.8224711737498065 -1 0 0
1953 4 53.525006004695946 27.705846942931142 0.04064532311490224 -1 0 0