LAMMPS data file via write_data, version 29 Aug 2024, timestep = 4, units = metal

9504 atoms
24 atom types

0 101.496 xlo xhi
0 100.122 ylo yhi
-50 116.98290152061483 zlo zhi

Masses

1 12.011
2 12.011
3 12.011
4 12.011
5 12.011
6 12.011
7 12.011
8 12.011
9 12.011
10 12.011
11 12.011
12 12.011
13 78.971
14 78.971
15 78.971
16 78.971
17 78.971
18 78.971
19 78.971
20 78.971
21 78.971
22 78.971
23 78.971
24 78.971

Atoms # atomic

1681 1 0.03314565546858548 1.5169999999999966 0.22748409978841067 0 0 0
1685 3 4.262145655468592 1.516999999999997 0.2274840997884112 0 0 0
1684 14 3.0442291808899635 3.0339999999999985 -0.00463280394795258 0 0 0
1777 1 0.033145655468585986 4.550999999999999 0.22748409978841086 0 0 0
1781 3 4.262145655468592 4.550999999999999 0.2274840997884109 0 0 0
1682 2 2.1477974699685793 3.0339999999999985 1.7958776257621165 0 0 0
1689 1 8.491145655468591 1.5169999999999968 0.22748409978841133 0 0 0
1688 16 7.273229180889962 3.0339999999999985 -0.004632803947952654 0 0 0
1692 14 11.50222918088996 3.0339999999999985 -0.004632803947952716 0 0 0
1785 1 8.491145655468591 4.550999999999999 0.2274840997884109 0 0 0
1686 4 6.37679746996858 3.0339999999999985 1.7958776257621172 0 0 0
1690 2 10.605797469968579 3.033999999999999 1.7958776257621176 0 0 0
1693 3 12.72014565546859 1.516999999999997 0.22748409978841125 0 0 0
1697 1 16.94914565546859 1.5169999999999968 0.22748409978841105 0 0 0
1696 16 15.731229180889962 3.0339999999999985 -0.004632803947952489 0 0 0
1789 3 12.72014565546859 4.550999999999999 0.22748409978841067 0 0 0
1793 1 16.94914565546859 4.550999999999999 0.22748409978841072 0 0 0
1694 4 14.834797469968578 3.033999999999999 1.7958776257621176 0 0 0
1701 3 21.17814565546859 1.516999999999997 0.22748409978841105 0 0 0
1700 14 19.96022918088996 3.0339999999999985 -0.004632803947952427 0 0 0
1797 3 21.17814565546859 4.550999999999999 0.22748409978841078 0 0 0
1602 2 19.063797469968577 0 1.7958776257621167 0 0 0
1606 4 23.292797469968576 0 1.7958776257621167 0 0 0
1698 2 19.063797469968577 3.0339999999999985 1.7958776257621174 0 0 0
1702 4 23.292797469968576 3.0339999999999985 1.7958776257621174 0 0 0
1705 1 25.40714565546859 1.516999999999997 0.22748409978841105 0 0 0
1709 3 29.63614565546859 1.516999999999997 0.2274840997884108 0 0 0
1704 16 24.18922918088996 3.0339999999999985 -0.004632803947952424 0 0 0
1708 14 28.41822918088996 3.033999999999999 -0.004632803947952435 0 0 0
1801 1 25.40714565546859 4.550999999999999 0.22748409978841078 0 0 0
1805 3 29.63614565546859 4.550999999999999 0.2274840997884105 0 0 0
1610 2 27.521797469968575 0 1.7958776257621167 0 0 0
1706 2 27.521797469968575 3.0339999999999985 1.7958776257621174 0 0 0
1713 1 33.86514565546859 1.5169999999999966 0.2274840997884111 0 0 0
1712 16 32.64722918088996 3.0339999999999985 -0.00463280394795281 0 0 0
1809 1 33.86514565546859 4.550999999999999 0.22748409978841092 0 0 0
1710 4 31.750797469968575 3.0339999999999985 1.7958776257621163 0 0 0
1620 14 36.876229180889965 0 -0.0046328039479505674 0 0 0
1717 3 38.094145655468594 1.5169999999999966 0.22748409978841144 0 0 0
1716 14 36.876229180889965 3.0339999999999985 -0.00463280394795072 0 0 0
1720 16 41.105229180889964 3.0339999999999985 -0.004632803947952505 0 0 0
1813 3 38.094145655468594 4.550999999999999 0.22748409978841136 0 0 0
1618 2 35.979797469968574 0 1.7958776257621176 0 0 0
1622 4 40.20879746996858 0 1.7958776257621172 0 0 0
1714 2 35.979797469968574 3.0339999999999985 1.7958776257621174 0 0 0
1718 4 40.20879746996858 3.0339999999999985 1.7958776257621172 0 0 0
1721 1 42.32314565546859 1.5169999999999966 0.2274840997884107 0 0 0
1725 3 46.55214565546859 1.5169999999999966 0.2274840997884108 0 0 0
1724 14 45.33422918088996 3.0339999999999985 -0.004632803947952491 0 0 0
1817 1 42.32314565546859 4.550999999999999 0.2274840997884106 0 0 0
1821 3 46.55214565546859 4.550999999999999 0.22748409978841086 0 0 0
1626 2 44.43779746996858 0 1.7958776257621172 0 0 0
1722 2 44.43779746996858 3.0339999999999985 1.7958776257621172 0 0 0
1632 16 49.56322918088996 0 -0.004632803947953295 0 0 0
1633 1 50.781145655468585 1.516999999999997 0.22748409978841086 -1 0 0
1728 16 49.563229180889955 3.0339999999999985 -0.004632803947953738 0 0 0
1729 1 50.781145655468585 4.551000000000001 0.22748409978841014 -1 0 0
1630 4 48.66679746996858 0 1.7958776257621172 0 0 0
1538 2 52.89579746996857 0 1.7958776257621165 -1 0 0
1726 4 48.66679746996858 3.0339999999999985 1.7958776257621172 0 0 0
1634 2 52.89579746996857 3.033999999999999 1.7958776257621178 -1 0 0
1637 3 55.010145655468584 1.5169999999999977 0.2274840997884109 -1 0 0
1641 1 59.23914565546858 1.516999999999998 0.2274840997884109 -1 0 0
1636 14 53.792229180889954 3.0339999999999985 -0.004632803947952527 -1 0 0
1640 16 58.021229180889954 3.0339999999999985 -0.0046328039479525285 -1 0 0
1733 3 55.010145655468584 4.550999999999999 0.22748409978841005 -1 0 0
1737 1 59.23914565546858 4.550999999999999 0.22748409978841005 -1 0 0
1542 4 57.12479746996857 0 1.7958776257621167 -1 0 0
1638 4 57.12479746996857 3.033999999999999 1.7958776257621178 -1 0 0
1645 3 63.46814565546858 1.5169999999999977 0.2274840997884134 -1 0 0
1644 14 62.25022918088995 3.0339999999999985 -0.004632803947951094 -1 0 0
1741 3 63.46814565546858 4.550999999999999 0.2274840997884127 -1 0 0
1546 2 61.35379746996857 0 1.7958776257621167 -1 0 0
1550 4 65.58279746996858 0 1.7958776257621152 -1 0 0
1642 2 61.35379746996857 3.033999999999999 1.795877625762118 -1 0 0
1646 4 65.58279746996858 3.0339999999999985 1.7958776257621154 -1 0 0
1552 16 66.47922918088996 0 -0.0046328039479523785 -1 0 0
1649 1 67.69714565546859 1.5169999999999966 0.22748409978840983 -1 0 0
1648 16 66.47922918088996 3.0339999999999985 -0.00463280394795255 -1 0 0
1652 14 70.70822918088996 3.0339999999999985 -0.004632803947951669 -1 0 0
1745 1 67.69714565546859 4.550999999999999 0.22748409978840978 -1 0 0
1554 2 69.81179746996858 0 1.7958776257621178 -1 0 0
1650 2 69.81179746996858 3.0339999999999985 1.7958776257621176 -1 0 0
1653 3 71.92614565546859 1.5169999999999966 0.22748409978841277 -1 0 0
1657 1 76.15514565546859 1.5169999999999966 0.22748409978841258 -1 0 0
1656 16 74.93722918088996 3.0339999999999985 -0.004632803947952482 -1 0 0
1749 3 71.92614565546859 4.550999999999999 0.2274840997884127 -1 0 0
1753 1 76.15514565546859 4.550999999999999 0.22748409978841252 -1 0 0
1558 4 74.04079746996858 0 1.7958776257621156 -1 0 0
1654 4 74.04079746996858 3.0339999999999985 1.7958776257621154 -1 0 0
1661 3 80.3841456554686 1.5169999999999966 0.22748409978841305 -1 0 0
1660 14 79.16622918088997 3.0339999999999985 -0.004632803947952063 -1 0 0
1664 16 83.39522918088996 3.0339999999999985 -0.004632803947952184 -1 0 0
1757 3 80.3841456554686 4.550999999999999 0.22748409978841283 -1 0 0
1562 2 78.26979746996858 0 1.7958776257621119 -1 0 0
1566 4 82.49879746996858 0 1.7958776257621174 -1 0 0
1658 2 78.26979746996858 3.033999999999999 1.7958776257621134 -1 0 0
1662 4 82.49879746996858 3.0339999999999985 1.7958776257621172 -1 0 0
1665 1 84.61314565546859 1.5169999999999966 0.22748409978841255 -1 0 0
1669 3 88.8421456554686 1.5169999999999966 0.22748409978841289 -1 0 0
1668 14 87.62422918088997 3.0339999999999985 -0.004632803947951974 -1 0 0
1761 1 84.61314565546859 4.550999999999999 0.22748409978841252 -1 0 0
1765 3 88.8421456554686 4.550999999999999 0.2274840997884128 -1 0 0
1570 2 86.72779746996858 0 1.7958776257621119 -1 0 0
1666 2 86.72779746996858 3.033999999999999 1.7958776257621134 -1 0 0
1673 1 93.07114565546858 1.5169999999999966 0.22748409978841255 -1 0 0
1672 16 91.85322918088995 3.0339999999999985 -0.004632803947952178 -1 0 0
1769 1 93.07114565546858 4.550999999999999 0.22748409978841252 -1 0 0
1574 4 90.95679746996858 0 1.7958776257621172 -1 0 0
1578 2 95.18579746996858 0 1.7958776257621123 -1 0 0
1670 4 90.95679746996858 3.0339999999999985 1.7958776257621172 -1 0 0
1674 2 95.18579746996858 3.033999999999999 1.7958776257621134 -1 0 0
1580 14 96.08222918088997 0 -0.0046328039479516525 -1 0 0
1677 3 97.3001456554686 1.5169999999999968 0.22748409978841286 -1 0 0
1676 14 96.08222918088997 3.0339999999999985 -0.004632803947952117 -1 0 0
1680 16 100.31122918088995 3.0339999999999985 -0.004632803947951838 -1 0 0
1773 3 97.3001456554686 4.550999999999999 0.2274840997884127 -1 0 0
1582 4 99.41479746996858 0 1.7958776257621174 -1 0 0
1678 4 99.41479746996858 3.0339999999999985 1.7958776257621178 -1 0 0
1780 14 3.044229180889963 6.067999999999999 -0.004632803947952896 0 0 0
1873 1 0.03314565546858645 7.584999999999999 0.2274840997884108 0 0 0
1877 3 4.262145655468592 7.584999999999999 0.22748409978841075 0 0 0
1876 14 3.0442291808899635 9.101999999999999 -0.004632803947953023 0 0 0
1969 1 0.033145655468586416 10.618999999999998 0.22748409978841067 0 0 0
1973 3 4.262145655468592 10.618999999999998 0.2274840997884108 0 0 0
1778 2 2.14779746996858 6.068 1.7958776257621165 0 0 0
1874 2 2.14779746996858 9.101999999999999 1.7958776257621165 0 0 0
1784 16 7.273229180889961 6.067999999999999 -0.004632803947952881 0 0 0
1788 14 11.50222918088996 6.067999999999999 -0.004632803947952817 0 0 0
1881 1 8.491145655468591 7.584999999999999 0.22748409978841075 0 0 0
1880 16 7.273229180889961 9.101999999999999 -0.004632803947952867 0 0 0
1884 14 11.50222918088996 9.101999999999999 -0.004632803947952881 0 0 0
1977 1 8.491145655468591 10.618999999999998 0.22748409978841075 0 0 0
1782 4 6.37679746996858 6.068 1.7958776257621176 0 0 0
1786 2 10.605797469968579 6.067999999999999 1.7958776257621176 0 0 0
1878 4 6.37679746996858 9.101999999999999 1.7958776257621176 0 0 0
1882 2 10.605797469968579 9.101999999999999 1.7958776257621174 0 0 0
1792 16 15.73122918088996 6.067999999999999 -0.0046328039479527254 0 0 0
1885 3 12.72014565546859 7.584999999999999 0.22748409978841075 0 0 0
1889 1 16.949145655468588 7.584999999999999 0.2274840997884111 0 0 0
1888 16 15.731229180889958 9.101999999999999 -0.004632803947952962 0 0 0
1981 3 12.72014565546859 10.618999999999998 0.22748409978841072 0 0 0
1985 1 16.949145655468588 10.618999999999998 0.22748409978841133 0 0 0
1790 4 14.834797469968578 6.067999999999999 1.7958776257621176 0 0 0
1886 4 14.834797469968578 9.101999999999999 1.7958776257621172 0 0 0
1796 14 19.96022918088996 6.068 -0.004632803947952798 0 0 0
1893 3 21.17814565546859 7.584999999999999 0.22748409978841083 0 0 0
1892 14 19.96022918088996 9.101999999999999 -0.004632803947952813 0 0 0
1989 3 21.17814565546859 10.618999999999998 0.22748409978841086 0 0 0
1794 2 19.063797469968577 6.068 1.7958776257621172 0 0 0
1798 4 23.292797469968576 6.068 1.7958776257621172 0 0 0
1890 2 19.063797469968577 9.101999999999999 1.795877625762117 0 0 0
1894 4 23.292797469968576 9.101999999999999 1.7958776257621172 0 0 0
1800 16 24.18922918088996 6.068 -0.004632803947952799 0 0 0
1804 14 28.41822918088996 6.068 -0.004632803947952781 0 0 0
1897 1 25.40714565546859 7.584999999999999 0.22748409978841083 0 0 0
1901 3 29.63614565546859 7.584999999999999 0.22748409978841033 0 0 0
1896 16 24.18922918088996 9.101999999999999 -0.004632803947952815 0 0 0
1900 14 28.41822918088996 9.101999999999999 -0.004632803947952822 0 0 0
1993 1 25.40714565546859 10.618999999999998 0.22748409978841086 0 0 0
1997 3 29.63614565546859 10.618999999999998 0.22748409978841055 0 0 0
1802 2 27.521797469968575 6.068 1.7958776257621172 0 0 0
1898 2 27.521797469968575 9.101999999999999 1.7958776257621172 0 0 0
1808 16 32.647229180889966 6.0680000000000005 -0.004632803947953251 0 0 0
1905 1 33.865145655468595 7.584999999999999 0.22748409978840947 0 0 0
1904 16 32.647229180889966 9.101999999999999 -0.004632803947953109 0 0 0
2001 1 33.865145655468595 10.618999999999998 0.22748409978840953 0 0 0
1806 4 31.750797469968578 6.068 1.795877625762117 0 0 0
1902 4 31.750797469968578 9.101999999999999 1.795877625762117 0 0 0
1812 14 36.876229180889965 6.067999999999999 -0.0046328039479509 0 0 0
1816 16 41.105229180889964 6.068 -0.004632803947952683 0 0 0
1909 3 38.094145655468594 7.584999999999999 0.22748409978841144 0 0 0
1908 14 36.876229180889965 9.101999999999999 -0.004632803947950846 0 0 0
1912 16 41.105229180889964 9.101999999999999 -0.004632803947952624 0 0 0
2005 3 38.094145655468594 10.618999999999998 0.22748409978841141 0 0 0
1810 2 35.979797469968574 6.068 1.7958776257621176 0 0 0
1814 4 40.20879746996858 6.067999999999999 1.7958776257621172 0 0 0
1906 2 35.979797469968574 9.101999999999999 1.7958776257621178 0 0 0
1910 4 40.20879746996858 9.101999999999999 1.7958776257621172 0 0 0
1820 14 45.33422918088996 6.068 -0.004632803947952678 0 0 0
1913 1 42.32314565546859 7.584999999999999 0.2274840997884106 0 0 0
1917 3 46.55214565546859 7.584999999999999 0.22748409978841086 0 0 0
1916 14 45.33422918088996 9.101999999999999 -0.0046328039479526205 0 0 0
2009 1 42.32314565546859 10.618999999999998 0.2274840997884106 0 0 0
2013 3 46.55214565546859 10.618999999999998 0.22748409978841086 0 0 0
1818 2 44.43779746996858 6.067999999999999 1.7958776257621172 0 0 0
1914 2 44.43779746996858 9.101999999999999 1.7958776257621172 0 0 0
1824 16 49.563229180889955 6.068 -0.004632803947953781 0 0 0
1825 1 50.781145655468585 7.584999999999999 0.22748409978840972 -1 0 0
1920 16 49.563229180889955 9.101999999999999 -0.004632803947953485 0 0 0
1921 1 50.781145655468585 10.618999999999998 0.22748409978841047 -1 0 0
1822 4 48.66679746996858 6.067999999999999 1.7958776257621178 0 0 0
1730 2 52.89579746996857 6.068 1.7958776257621176 -1 0 0
1918 4 48.66679746996858 9.101999999999999 1.7958776257621178 0 0 0
1826 2 52.89579746996857 9.101999999999997 1.795877625762117 -1 0 0
1732 14 53.792229180889954 6.068 -0.0046328039479527315 -1 0 0
1736 16 58.021229180889954 6.068 -0.004632803947952734 -1 0 0
1829 3 55.010145655468584 7.584999999999999 0.22748409978841036 -1 0 0
1833 1 59.23914565546858 7.584999999999999 0.22748409978841036 -1 0 0
1828 14 53.792229180889954 9.101999999999999 -0.004632803947952525 -1 0 0
1832 16 58.021229180889954 9.101999999999999 -0.004632803947952527 -1 0 0
1925 3 55.010145655468584 10.618999999999998 0.22748409978841083 -1 0 0
1929 1 59.23914565546858 10.618999999999998 0.22748409978841083 -1 0 0
1734 4 57.12479746996857 6.068 1.7958776257621174 -1 0 0
1830 4 57.12479746996857 9.101999999999997 1.795877625762117 -1 0 0
1740 14 62.25022918088995 6.067999999999999 -0.004632803947951517 -1 0 0
1837 3 63.46814565546858 7.584999999999999 0.2274840997884126 -1 0 0
1836 14 62.25022918088995 9.101999999999999 -0.004632803947951479 -1 0 0
1933 3 63.46814565546858 10.618999999999998 0.2274840997884125 -1 0 0
1738 2 61.35379746996857 6.068 1.7958776257621178 -1 0 0
1742 4 65.58279746996858 6.067999999999999 1.7958776257621152 -1 0 0
1834 2 61.35379746996857 9.101999999999997 1.7958776257621174 -1 0 0
1838 4 65.58279746996858 9.101999999999999 1.7958776257621152 -1 0 0
1744 16 66.47922918088996 6.067999999999999 -0.00463280394795291 -1 0 0
1748 14 70.70822918088996 6.067999999999999 -0.004632803947952032 -1 0 0
1841 1 67.69714565546859 7.584999999999999 0.22748409978840983 -1 0 0
1840 16 66.47922918088996 9.101999999999999 -0.00463280394795281 -1 0 0
1844 14 70.70822918088996 9.101999999999999 -0.004632803947951978 -1 0 0
1937 1 67.69714565546859 10.618999999999998 0.22748409978840986 -1 0 0
1746 2 69.81179746996858 6.068 1.7958776257621176 -1 0 0
1842 2 69.81179746996858 9.101999999999999 1.7958776257621176 -1 0 0
1752 16 74.93722918088996 6.068 -0.004632803947952875 -1 0 0
1845 3 71.92614565546859 7.584999999999999 0.22748409978841272 -1 0 0
1849 1 76.15514565546859 7.584999999999999 0.22748409978841236 -1 0 0
1848 16 74.93722918088996 9.101999999999999 -0.004632803947952799 -1 0 0
1941 3 71.92614565546859 10.618999999999998 0.22748409978841272 -1 0 0
1945 1 76.15514565546859 10.618999999999998 0.2274840997884122 -1 0 0
1750 4 74.04079746996858 6.067999999999999 1.7958776257621152 -1 0 0
1846 4 74.04079746996858 9.101999999999999 1.7958776257621152 -1 0 0
1756 14 79.16622918088997 6.068000000000001 -0.004632803947951822 -1 0 0
1760 16 83.39522918088996 6.068 -0.004632803947952577 -1 0 0
1853 3 80.3841456554686 7.584999999999999 0.22748409978840964 -1 0 0
1852 14 79.16622918088997 9.101999999999999 -0.004632803947951502 -1 0 0
1856 16 83.39522918088996 9.101999999999999 -0.0046328039479523265 -1 0 0
1949 3 80.3841456554686 10.618999999999998 0.22748409978840922 -1 0 0
1754 2 78.26979746996858 6.068 1.7958776257621134 -1 0 0
1758 4 82.49879746996858 6.068 1.7958776257621176 -1 0 0
1850 2 78.26979746996858 9.101999999999999 1.7958776257621138 -1 0 0
1854 4 82.49879746996858 9.101999999999999 1.795877625762118 -1 0 0
1764 14 87.62422918088997 6.068000000000001 -0.0046328039479518164 -1 0 0
1857 1 84.61314565546859 7.584999999999999 0.22748409978841233 -1 0 0
1861 3 88.8421456554686 7.584999999999999 0.22748409978840964 -1 0 0
1860 14 87.62422918088997 9.101999999999999 -0.004632803947951498 -1 0 0
1953 1 84.61314565546859 10.618999999999998 0.22748409978841214 -1 0 0
1957 3 88.8421456554686 10.618999999999998 0.22748409978840903 -1 0 0
1762 2 86.72779746996858 6.068 1.7958776257621134 -1 0 0
1858 2 86.72779746996858 9.101999999999999 1.7958776257621138 -1 0 0
1768 16 91.85322918088995 6.068 -0.004632803947952576 -1 0 0
1865 1 93.07114565546858 7.584999999999999 0.22748409978841233 -1 0 0
1864 16 91.85322918088995 9.101999999999999 -0.004632803947952324 -1 0 0
1961 1 93.07114565546858 10.618999999999998 0.22748409978841214 -1 0 0
1766 4 90.95679746996858 6.068 1.7958776257621176 -1 0 0
1770 2 95.18579746996858 6.068 1.7958776257621134 -1 0 0
1862 4 90.95679746996858 9.101999999999999 1.7958776257621178 -1 0 0
1866 2 95.18579746996858 9.101999999999999 1.7958776257621138 -1 0 0
1772 14 96.08222918088997 6.068000000000001 -0.004632803947951853 -1 0 0
1776 16 100.31122918088995 6.068 -0.004632803947951885 -1 0 0
1869 3 97.3001456554686 7.584999999999999 0.22748409978840958 -1 0 0
1868 14 96.08222918088997 9.101999999999999 -0.004632803947951635 -1 0 0
1872 16 100.31122918088995 9.101999999999999 -0.004632803947951708 -1 0 0
1965 3 97.3001456554686 10.618999999999998 0.22748409978840883 -1 0 0
1774 4 99.41479746996858 6.068 1.795877625762118 -1 0 0
1870 4 99.41479746996858 9.101999999999999 1.7958776257621185 -1 0 0
1972 14 3.044229180889963 12.135999999999997 -0.004632803947953096 0 0 0
2065 1 0.03314565546858543 13.652999999999999 0.22748409978841058 0 0 0
2069 3 4.262145655468591 13.652999999999999 0.2274840997884107 0 0 0
2068 14 3.0442291808899626 15.17 -0.0046328039479529804 0 0 0
2161 1 0.03314565546858747 16.686999999999998 0.22748409978841053 0 0 0
2165 3 4.262145655468593 16.686999999999998 0.2274840997884107 0 0 0
1970 2 2.14779746996858 12.135999999999997 1.7958776257621165 0 0 0
2066 2 2.14779746996858 15.169999999999998 1.7958776257621165 0 0 0
1976 16 7.273229180889961 12.135999999999997 -0.004632803947953054 0 0 0
1980 14 11.50222918088996 12.135999999999997 -0.004632803947952915 0 0 0
2073 1 8.49114565546859 13.652999999999999 0.22748409978841086 0 0 0
2072 16 7.273229180889961 15.17 -0.004632803947952923 0 0 0
2076 14 11.50222918088996 15.17 -0.0046328039479528625 0 0 0
2169 1 8.491145655468593 16.686999999999998 0.22748409978841072 0 0 0
1974 4 6.37679746996858 12.135999999999997 1.7958776257621172 0 0 0
1978 2 10.605797469968579 12.135999999999997 1.7958776257621172 0 0 0
2070 4 6.37679746996858 15.169999999999998 1.7958776257621174 0 0 0
2074 2 10.605797469968579 15.169999999999998 1.7958776257621176 0 0 0
1984 16 15.73122918088996 12.135999999999997 -0.0046328039479530195 0 0 0
2077 3 12.720145655468588 13.652999999999999 0.2274840997884107 0 0 0
2081 1 16.949145655468588 13.652999999999999 0.22748409978841072 0 0 0
2080 16 15.73122918088996 15.169999999999998 -0.004632803947953082 0 0 0
2173 3 12.72014565546859 16.686999999999998 0.22748409978841053 0 0 0
2177 1 16.94914565546859 16.686999999999998 0.22748409978841014 0 0 0
1982 4 14.834797469968578 12.136 1.7958776257621172 0 0 0
2078 4 14.834797469968578 15.169999999999998 1.7958776257621176 0 0 0
1988 14 19.96022918088996 12.135999999999997 -0.004632803947952844 0 0 0
2085 3 21.17814565546859 13.652999999999999 0.22748409978841036 0 0 0
2084 14 19.96022918088996 15.169999999999998 -0.004632803947952863 0 0 0
2181 3 21.17814565546859 16.686999999999998 0.22748409978841022 0 0 0
1986 2 19.063797469968577 12.136 1.795877625762117 0 0 0
1990 4 23.292797469968576 12.136 1.7958776257621172 0 0 0
2082 2 19.063797469968577 15.169999999999998 1.7958776257621174 0 0 0
2086 4 23.292797469968576 15.169999999999998 1.7958776257621176 0 0 0
1992 16 24.18922918088996 12.135999999999997 -0.004632803947952845 0 0 0
1996 14 28.41822918088996 12.135999999999997 -0.004632803947952838 0 0 0
2089 1 25.40714565546859 13.652999999999999 0.22748409978841036 0 0 0
2093 3 29.63614565546859 13.652999999999999 0.22748409978841 0 0 0
2088 16 24.18922918088996 15.169999999999998 -0.004632803947952866 0 0 0
2092 14 28.41822918088996 15.169999999999998 -0.004632803947952861 0 0 0
2185 1 25.40714565546859 16.686999999999998 0.22748409978841022 0 0 0
2189 3 29.63614565546859 16.686999999999998 0.2274840997884101 0 0 0
1994 2 27.521797469968575 12.136 1.7958776257621172 0 0 0
2090 2 27.521797469968575 15.169999999999998 1.7958776257621176 0 0 0
2000 16 32.647229180889966 12.135999999999997 -0.00463280394795285 0 0 0
2097 1 33.865145655468595 13.652999999999999 0.22748409978841042 0 0 0
2096 16 32.647229180889966 15.169999999999998 -0.004632803947952327 0 0 0
2193 1 33.865145655468595 16.686999999999998 0.22748409978841008 0 0 0
1998 4 31.750797469968578 12.136 1.795877625762117 0 0 0
2094 4 31.750797469968575 15.169999999999998 1.7958776257621165 0 0 0
2004 14 36.876229180889965 12.135999999999997 -0.004632803947951014 0 0 0
2008 16 41.105229180889964 12.135999999999997 -0.004632803947952651 0 0 0
2101 3 38.094145655468594 13.652999999999999 0.2274840997884112 0 0 0
2100 14 36.876229180889965 15.169999999999998 -0.004632803947951006 0 0 0
2104 16 41.105229180889964 15.169999999999998 -0.004632803947952655 0 0 0
2197 3 38.094145655468594 16.686999999999998 0.22748409978841191 0 0 0
2002 2 35.979797469968574 12.135999999999997 1.795877625762117 0 0 0
2006 4 40.20879746996858 12.135999999999997 1.7958776257621172 0 0 0
2098 2 35.979797469968574 15.17 1.795877625762117 0 0 0
2102 4 40.20879746996858 15.169999999999998 1.7958776257621172 0 0 0
2012 14 45.33422918088996 12.135999999999997 -0.004632803947952643 0 0 0
2105 1 42.32314565546859 13.652999999999999 0.22748409978841044 0 0 0
2109 3 46.55214565546859 13.652999999999999 0.22748409978841042 0 0 0
2108 14 45.33422918088996 15.169999999999998 -0.004632803947952651 0 0 0
2201 1 42.32314565546859 16.686999999999998 0.22748409978841092 0 0 0
2205 3 46.55214565546859 16.686999999999998 0.2274840997884112 0 0 0
2010 2 44.43779746996858 12.135999999999997 1.7958776257621172 0 0 0
2106 2 44.43779746996858 15.169999999999998 1.7958776257621172 0 0 0
2016 16 49.563229180889955 12.135999999999997 -0.004632803947953367 0 0 0
2017 1 50.781145655468585 13.652999999999999 0.22748409978841042 -1 0 0
2112 16 49.563229180889955 15.169999999999998 -0.004632803947953503 0 0 0
2113 1 50.781145655468585 16.686999999999998 0.2274840997884101 -1 0 0
2014 4 48.66679746996858 12.135999999999997 1.795877625762118 0 0 0
1922 2 52.89579746996858 12.135999999999997 1.7958776257621178 -1 0 0
2110 4 48.66679746996858 15.169999999999998 1.7958776257621178 0 0 0
2018 2 52.89579746996858 15.17 1.7958776257621185 -1 0 0
1924 14 53.792229180889954 12.135999999999997 -0.004632803947953072 -1 0 0
1928 16 58.021229180889954 12.135999999999997 -0.004632803947953075 -1 0 0
2021 3 55.010145655468584 13.652999999999999 0.22748409978841053 -1 0 0
2025 1 59.23914565546858 13.652999999999999 0.22748409978841055 -1 0 0
2020 14 53.792229180889954 15.169999999999998 -0.004632803947953265 -1 0 0
2024 16 58.021229180889954 15.169999999999998 -0.004632803947953267 -1 0 0
2117 3 55.010145655468584 16.686999999999998 0.22748409978840978 -1 0 0
2121 1 59.23914565546858 16.686999999999998 0.22748409978840978 -1 0 0
1926 4 57.12479746996858 12.135999999999997 1.7958776257621178 -1 0 0
2022 4 57.12479746996858 15.17 1.7958776257621185 -1 0 0
1932 14 62.25022918088995 12.135999999999997 -0.004632803947952374 -1 0 0
2029 3 63.46814565546858 13.652999999999999 0.2274840997884118 -1 0 0
2028 14 62.25022918088995 15.169999999999998 -0.004632803947952544 -1 0 0
2125 3 63.46814565546858 16.686999999999998 0.2274840997884105 -1 0 0
1930 2 61.353797469968576 12.135999999999997 1.7958776257621183 -1 0 0
1934 4 65.58279746996858 12.135999999999997 1.795877625762115 -1 0 0
2026 2 61.353797469968576 15.17 1.7958776257621187 -1 0 0
2030 4 65.58279746996858 15.17 1.7958776257621165 -1 0 0
1936 16 66.47922918088996 12.135999999999997 -0.004632803947952984 -1 0 0
1940 14 70.70822918088996 12.135999999999997 -0.004632803947951991 -1 0 0
2033 1 67.69714565546859 13.652999999999999 0.2274840997884097 -1 0 0
2032 16 66.47922918088996 15.169999999999998 -0.004632803947952797 -1 0 0
2036 14 70.70822918088996 15.169999999999998 -0.004632803947952349 -1 0 0
2129 1 67.69714565546859 16.686999999999998 0.22748409978841005 -1 0 0
1938 2 69.81179746996858 12.135999999999997 1.7958776257621176 -1 0 0
2034 2 69.81179746996858 15.169999999999998 1.7958776257621174 -1 0 0
1944 16 74.93722918088996 12.135999999999997 -0.0046328039479523 -1 0 0
2037 3 71.92614565546859 13.652999999999999 0.22748409978841255 -1 0 0
2041 1 76.15514565546859 13.652999999999999 0.227484099788414 -1 0 0
2040 16 74.93722918088996 15.169999999999998 -0.004632803947951961 -1 0 0
2133 3 71.92614565546859 16.686999999999998 0.22748409978841108 -1 0 0
2137 1 76.15514565546859 16.686999999999998 0.2274840997884125 -1 0 0
1942 4 74.04079746996858 12.135999999999997 1.7958776257621154 -1 0 0
2038 4 74.04079746996858 15.17 1.795877625762117 -1 0 0
1948 14 79.16622918088997 12.135999999999996 -0.004632803947953716 -1 0 0
1952 16 83.39522918088996 12.135999999999997 -0.004632803947951824 -1 0 0
2045 3 80.3841456554686 13.652999999999999 0.22748409978841144 -1 0 0
2044 14 79.16622918088997 15.170000000000002 -0.0046328039479537125 -1 0 0
2048 16 83.39522918088996 15.169999999999998 -0.004632803947951795 -1 0 0
2141 3 80.3841456554686 16.686999999999998 0.22748409978840975 -1 0 0
1946 2 78.2697974699686 12.135999999999996 1.7958776257621152 -1 0 0
1950 4 82.49879746996858 12.135999999999997 1.7958776257621174 -1 0 0
2042 2 78.2697974699686 15.170000000000002 1.7958776257621152 -1 0 0
2046 4 82.49879746996858 15.169999999999998 1.7958776257621176 -1 0 0
1956 14 87.62422918088997 12.135999999999996 -0.00463280394795372 -1 0 0
2049 1 84.61314565546859 13.652999999999999 0.22748409978841394 -1 0 0
2053 3 88.8421456554686 13.652999999999999 0.22748409978841147 -1 0 0
2052 14 87.62422918088997 15.170000000000002 -0.004632803947953706 -1 0 0
2145 1 84.61314565546859 16.686999999999998 0.22748409978841255 -1 0 0
2149 3 88.8421456554686 16.686999999999998 0.22748409978840975 -1 0 0
1954 2 86.72779746996859 12.135999999999996 1.7958776257621152 -1 0 0
2050 2 86.72779746996859 15.170000000000002 1.7958776257621152 -1 0 0
1960 16 91.85322918088995 12.135999999999997 -0.004632803947951821 -1 0 0
2057 1 93.07114565546858 13.652999999999999 0.22748409978841394 -1 0 0
2056 16 91.85322918088995 15.169999999999998 -0.0046328039479517965 -1 0 0
2153 1 93.07114565546858 16.686999999999998 0.22748409978841255 -1 0 0
1958 4 90.95679746996858 12.135999999999997 1.7958776257621174 -1 0 0
1962 2 95.18579746996859 12.135999999999996 1.7958776257621152 -1 0 0
2054 4 90.95679746996858 15.169999999999998 1.7958776257621176 -1 0 0
2058 2 95.18579746996859 15.170000000000002 1.7958776257621152 -1 0 0
1964 14 96.08222918088997 12.135999999999997 -0.0046328039479532354 -1 0 0
1968 16 100.31122918088995 12.135999999999997 -0.00463280394795189 -1 0 0
2061 3 97.3001456554686 13.652999999999999 0.2274840997884087 -1 0 0
2060 14 96.08222918088997 15.169999999999998 -0.0046328039479532354 -1 0 0
2064 16 100.31122918088995 15.17 -0.004632803947951958 -1 0 0
2157 3 97.3001456554686 16.686999999999998 0.22748409978840936 -1 0 0
1966 4 99.41479746996858 12.135999999999997 1.7958776257621183 -1 0 0
2062 4 99.41479746996858 15.169999999999998 1.7958776257621183 -1 0 0
2164 14 3.044229180889964 18.203999999999997 -0.004632803947952633 0 0 0
2257 1 0.03314565546858605 19.721 0.22748409978841008 0 0 0
2261 3 4.262145655468591 19.721 0.22748409978841075 0 0 0
2260 14 3.0442291808899613 21.238 -0.00463280394795362 0 0 0
2353 1 0.033145655468586055 22.755 0.22748409978841008 0 0 0
2357 3 4.262145655468591 22.755 0.22748409978841075 0 0 0
2162 2 2.147797469968579 18.203999999999997 1.7958776257621165 0 0 0
2258 2 2.147797469968581 21.238 1.7958776257621165 0 0 0
2168 16 7.273229180889963 18.203999999999997 -0.004632803947952694 0 0 0
2172 14 11.502229180889962 18.203999999999997 -0.004632803947952589 0 0 0
2265 1 8.49114565546859 19.721 0.22748409978841086 0 0 0
2264 16 7.27322918088996 21.238 -0.004632803947953654 0 0 0
2268 14 11.502229180889959 21.238 -0.004632803947953467 0 0 0
2361 1 8.49114565546859 22.755 0.22748409978841086 0 0 0
2166 4 6.376797469968579 18.203999999999997 1.7958776257621172 0 0 0
2170 2 10.605797469968579 18.203999999999997 1.7958776257621176 0 0 0
2262 4 6.376797469968581 21.238 1.7958776257621172 0 0 0
2266 2 10.60579746996858 21.238 1.795877625762117 0 0 0
2176 16 15.731229180889962 18.203999999999997 -0.004632803947952726 0 0 0
2269 3 12.720145655468588 19.721 0.22748409978841094 0 0 0
2273 1 16.949145655468588 19.721 0.22748409978841022 0 0 0
2272 16 15.73122918088996 21.238 -0.004632803947953391 0 0 0
2365 3 12.720145655468588 22.755 0.22748409978841094 0 0 0
2369 1 16.949145655468588 22.755 0.22748409978841022 0 0 0
2174 4 14.834797469968578 18.203999999999997 1.7958776257621176 0 0 0
2270 4 14.83479746996858 21.238 1.7958776257621172 0 0 0