LAMMPS data file via write_data, version 29 Aug 2024, timestep = 4, units = metal

6336 atoms
16 atom types

0 101.496 xlo xhi
0 100.122 ylo yhi
-50 110.99145076030742 zlo zhi

Masses

1 12.011
2 12.011
3 12.011
4 12.011
5 12.011
6 12.011
7 12.011
8 12.011
9 78.971
10 78.971
11 78.971
12 78.971
13 78.971
14 78.971
15 78.971
16 78.971

Atoms # atomic

1681 1 0.03298561810054087 1.5169999999999961 0.22745545283227878 0 0 0
1685 3 4.261985618100549 1.5169999999999968 0.22745545283227933 0 0 0
1684 10 3.0444058271501353 3.0339999999999985 -0.004569130852823375 0 0 0
1777 1 0.03298561810054105 4.550999999999999 0.22745545283227867 0 0 0
1781 3 4.261985618100549 4.550999999999999 0.22745545283227905 0 0 0
1689 1 8.490985618100549 1.5169999999999968 0.22745545283227928 0 0 0
1688 12 7.273405827150135 3.0339999999999985 -0.0045691308528231205 0 0 0
1692 10 11.502405827150135 3.0339999999999985 -0.004569130852823155 0 0 0
1785 1 8.490985618100549 4.550999999999999 0.22745545283227897 0 0 0
1693 3 12.719985618100548 1.516999999999997 0.22745545283227922 0 0 0
1697 1 16.948985618100547 1.516999999999997 0.22745545283227903 0 0 0
1696 12 15.731405827150134 3.0339999999999985 -0.0045691308528233165 0 0 0
1789 3 12.719985618100548 4.550999999999999 0.2274554528322788 0 0 0
1793 1 16.948985618100547 4.550999999999999 0.22745545283227836 0 0 0
1701 3 21.177985618100546 1.5169999999999966 0.22745545283227914 0 0 0
1700 10 19.960405827150133 3.0339999999999985 -0.004569130852823061 0 0 0
1797 3 21.177985618100546 4.551 0.22745545283227867 0 0 0
1705 1 25.406985618100546 1.5169999999999966 0.22745545283227914 0 0 0
1709 3 29.635985618100545 1.5169999999999964 0.22745545283227891 0 0 0
1704 12 24.189405827150132 3.0339999999999985 -0.004569130852823072 0 0 0
1708 10 28.41840582715013 3.0339999999999985 -0.004569130852823037 0 0 0
1801 1 25.406985618100546 4.551 0.22745545283227867 0 0 0
1805 3 29.635985618100545 4.551 0.2274554528322785 0 0 0
1616 12 32.64740582715014 0 -0.0045691308528226435 0 0 0
1713 1 33.864985618100555 1.5169999999999968 0.22745545283228044 0 0 0
1712 12 32.64740582715014 3.0339999999999985 -0.00456913085282247 0 0 0
1809 1 33.864985618100555 4.550999999999999 0.22745545283228016 0 0 0
1717 3 38.093985618100554 1.5169999999999968 0.22745545283228194 0 0 0
1716 10 36.87640582715014 3.0339999999999985 -0.004569130852821073 0 0 0
1720 12 41.105405827150136 3.0339999999999985 -0.004569130852823689 0 0 0
1813 3 38.093985618100554 4.550999999999999 0.22745545283228155 0 0 0
1721 1 42.32298561810055 1.5169999999999968 0.22745545283228094 0 0 0
1725 3 46.55198561810055 1.5169999999999968 0.2274554528322812 0 0 0
1724 10 45.334405827150135 3.0339999999999985 -0.004569130852823671 0 0 0
1817 1 42.32298561810055 4.550999999999999 0.22745545283228055 0 0 0
1821 3 46.55198561810055 4.550999999999999 0.22745545283228086 0 0 0
1632 12 49.563405827150135 0 -0.004569130852823625 0 0 0
1633 1 50.780985618100544 1.516999999999997 0.22745545283227858 -1 0 0
1728 12 49.563405827150135 3.0339999999999985 -0.00456913085282451 0 0 0
1729 1 50.780985618100544 4.550999999999999 0.22745545283227822 -1 0 0
1637 3 55.00998561810054 1.5169999999999966 0.2274554528322796 -1 0 0
1641 1 59.23898561810054 1.5169999999999966 0.2274554528322796 -1 0 0
1636 10 53.79240582715013 3.0339999999999985 -0.004569130852822729 -1 0 0
1640 12 58.021405827150126 3.0339999999999985 -0.004569130852822731 -1 0 0
1733 3 55.00998561810054 4.550999999999999 0.2274554528322791 -1 0 0
1737 1 59.23898561810054 4.550999999999999 0.2274554528322791 -1 0 0
1548 10 62.250405827150125 0 -0.004569130852821869 -1 0 0
1645 3 63.46798561810054 1.5169999999999968 0.22745545283228 -1 0 0
1644 10 62.250405827150125 3.0339999999999985 -0.004569130852821987 -1 0 0
1741 3 63.46798561810054 4.550999999999999 0.227455452832281 -1 0 0
1552 12 66.47940582715013 0 -0.004569130852823069 -1 0 0
1649 1 67.69698561810054 1.5169999999999968 0.22745545283227725 -1 0 0
1556 10 70.70840582715013 0 -0.0045691308528208 -1 0 0
1648 12 66.47940582715013 3.033999999999998 -0.004569130852824502 -1 0 0
1652 10 70.70840582715013 3.0339999999999985 -0.0045691308528209495 -1 0 0
1745 1 67.69698561810054 4.550999999999999 0.2274554528322766 -1 0 0
1653 3 71.92598561810054 1.5169999999999966 0.22745545283227886 -1 0 0
1657 1 76.15498561810054 1.5169999999999964 0.2274554528322777 -1 0 0
1656 12 74.93740582715013 3.0339999999999985 -0.0045691308528227415 -1 0 0
1749 3 71.92598561810054 4.550999999999999 0.22745545283227864 -1 0 0
1753 1 76.15498561810054 4.550999999999999 0.22745545283227772 -1 0 0
1564 10 79.16640582715013 0 -0.004569130852823197 -1 0 0
1661 3 80.38398561810055 1.5169999999999966 0.22745545283228177 -1 0 0
1660 10 79.16640582715013 3.0339999999999985 -0.004569130852823366 -1 0 0
1664 12 83.39540582715013 3.0339999999999985 -0.0045691308528227614 -1 0 0
1757 3 80.38398561810055 4.550999999999999 0.2274554528322817 -1 0 0
1665 1 84.61298561810054 1.5169999999999966 0.22745545283227767 -1 0 0
1572 10 87.62440582715013 0 -0.004569130852823188 -1 0 0
1669 3 88.84198561810055 1.5169999999999966 0.22745545283228177 -1 0 0
1668 10 87.62440582715013 3.0339999999999985 -0.004569130852823362 -1 0 0
1761 1 84.61298561810054 4.550999999999999 0.22745545283227772 -1 0 0
1765 3 88.84198561810055 4.550999999999999 0.2274554528322817 -1 0 0
1673 1 93.07098561810054 1.5169999999999966 0.22745545283227786 -1 0 0
1672 12 91.85340582715013 3.0339999999999985 -0.004569130852822768 -1 0 0
1769 1 93.07098561810054 4.550999999999999 0.22745545283227772 -1 0 0
1580 10 96.08240582715014 0 -0.00456913085282247 -1 0 0
1677 3 97.29998561810055 1.5169999999999966 0.2274554528322787 -1 0 0
1676 10 96.08240582715014 3.033999999999996 -0.004569130852822927 -1 0 0
1680 12 100.31140582715012 3.0339999999999985 -0.004569130852823311 -1 0 0
1773 3 97.29998561810055 4.550999999999999 0.22745545283228194 -1 0 0
1780 10 3.0444058271501344 6.067999999999999 -0.004569130852823671 0 0 0
1873 1 0.03298561810054155 7.584999999999999 0.2274554528322786 0 0 0
1877 3 4.261985618100549 7.584999999999998 0.22745545283227891 0 0 0
1876 10 3.044405827150135 9.101999999999999 -0.0045691308528237285 0 0 0
1969 1 0.0329856181005417 10.618999999999998 0.22745545283227844 0 0 0
1973 3 4.261985618100549 10.618999999999998 0.22745545283227908 0 0 0
1784 12 7.273405827150134 6.067999999999999 -0.004569130852823411 0 0 0
1788 10 11.502405827150133 6.067999999999999 -0.004569130852823493 0 0 0
1881 1 8.490985618100549 7.584999999999998 0.22745545283227875 0 0 0
1880 12 7.2734058271501345 9.101999999999999 -0.004569130852823314 0 0 0
1884 10 11.502405827150135 9.101999999999999 -0.004569130852823315 0 0 0
1977 1 8.490985618100549 10.618999999999998 0.22745545283227878 0 0 0
1792 12 15.731405827150132 6.067999999999999 -0.0045691308528235716 0 0 0
1885 3 12.719985618100548 7.584999999999998 0.22745545283227864 0 0 0
1889 1 16.948985618100547 7.584999999999998 0.22745545283227905 0 0 0
1888 12 15.731405827150134 9.101999999999999 -0.0045691308528232975 0 0 0
1981 3 12.719985618100548 10.618999999999998 0.2274554528322787 0 0 0
1985 1 16.948985618100547 10.618999999999998 0.22745545283227903 0 0 0
1796 10 19.96040582715013 6.067999999999999 -0.004569130852823242 0 0 0
1893 3 21.177985618100546 7.584999999999999 0.22745545283227903 0 0 0
1892 10 19.960405827150133 9.101999999999999 -0.0045691308528232446 0 0 0
1989 3 21.177985618100546 10.618999999999998 0.22745545283227903 0 0 0
1800 12 24.18940582715013 6.067999999999999 -0.004569130852823244 0 0 0
1804 10 28.418405827150128 6.067999999999999 -0.004569130852823334 0 0 0
1897 1 25.406985618100546 7.584999999999999 0.22745545283227903 0 0 0
1901 3 29.635985618100545 7.584999999999999 0.2274554528322787 0 0 0
1896 12 24.189405827150132 9.101999999999999 -0.004569130852823244 0 0 0
1900 10 28.41840582715013 9.101999999999999 -0.004569130852823149 0 0 0
1993 1 25.406985618100546 10.618999999999998 0.22745545283227903 0 0 0
1997 3 29.635985618100545 10.618999999999998 0.227455452832279 0 0 0
1808 12 32.64740582715014 6.068 -0.0045691308528230815 0 0 0
1905 1 33.86498561810055 7.585 0.22745545283227928 0 0 0
1904 12 32.64740582715013 9.101999999999999 -0.00456913085282345 0 0 0
2001 1 33.86498561810055 10.618999999999998 0.22745545283227836 0 0 0
1812 10 36.87640582715014 6.067999999999999 -0.00456913085282196 0 0 0
1816 12 41.105405827150136 6.067999999999999 -0.0045691308528239575 0 0 0
1909 3 38.093985618100554 7.584999999999999 0.2274554528322813 0 0 0
1908 10 36.87640582715014 9.101999999999999 -0.004569130852822205 0 0 0
1912 12 41.105405827150136 9.101999999999999 -0.00456913085282391 0 0 0
2005 3 38.093985618100554 10.618999999999998 0.22745545283228127 0 0 0
1820 10 45.334405827150135 6.067999999999999 -0.004569130852823959 0 0 0
1913 1 42.32298561810055 7.584999999999999 0.22745545283228055 0 0 0
1917 3 46.55198561810055 7.584999999999999 0.22745545283228083 0 0 0
1916 10 45.334405827150135 9.101999999999999 -0.004569130852823915 0 0 0
2009 1 42.32298561810055 10.618999999999998 0.2274554528322806 0 0 0
2013 3 46.55198561810055 10.618999999999998 0.22745545283228089 0 0 0
1824 12 49.563405827150135 6.067999999999999 -0.004569130852824825 0 0 0
1825 1 50.780985618100544 7.584999999999999 0.2274554528322781 -1 0 0
1920 12 49.563405827150135 9.101999999999999 -0.004569130852824672 0 0 0
1921 1 50.780985618100544 10.618999999999998 0.22745545283227822 -1 0 0
1732 10 53.79240582715013 6.068 -0.004569130852823582 -1 0 0
1736 12 58.021405827150126 6.068 -0.004569130852823586 -1 0 0
1829 3 55.00998561810054 7.584999999999999 0.2274554528322788 -1 0 0
1833 1 59.23898561810054 7.584999999999999 0.2274554528322788 -1 0 0
1828 10 53.79240582715013 9.101999999999999 -0.00456913085282361 -1 0 0
1832 12 58.021405827150126 9.101999999999999 -0.004569130852823603 -1 0 0
1925 3 55.00998561810054 10.618999999999998 0.22745545283227897 -1 0 0
1929 1 59.23898561810054 10.618999999999998 0.2274554528322788 -1 0 0
1740 10 62.25040582715013 6.067999999999999 -0.004569130852822759 -1 0 0
1837 3 63.46798561810054 7.584999999999999 0.2274554528322807 -1 0 0
1836 10 62.25040582715013 9.101999999999999 -0.00456913085282273 -1 0 0
1933 3 63.46798561810054 10.618999999999998 0.22745545283228072 -1 0 0
1744 12 66.47940582715013 6.067999999999997 -0.004569130852825035 -1 0 0
1748 10 70.70840582715013 6.068 -0.004569130852821253 -1 0 0
1841 1 67.69698561810054 7.584999999999999 0.22745545283228027 -1 0 0
1840 12 66.47940582715013 9.101999999999999 -0.004569130852825105 -1 0 0
1844 10 70.70840582715013 9.101999999999999 -0.004569130852821464 -1 0 0
1937 1 67.69698561810054 10.618999999999998 0.2274554528322805 -1 0 0
1752 12 74.93740582715013 6.067999999999999 -0.004569130852822862 -1 0 0
1845 3 71.92598561810054 7.584999999999999 0.22745545283227867 -1 0 0
1849 1 76.15498561810054 7.584999999999999 0.2274554528322779 -1 0 0
1848 12 74.93740582715013 9.101999999999999 -0.004569130852822815 -1 0 0
1941 3 71.92598561810054 10.618999999999998 0.2274554528322788 -1 0 0
1945 1 76.15498561810054 10.618999999999998 0.2274554528322778 -1 0 0
1756 10 79.16640582715013 6.067999999999999 -0.00456913085282364 -1 0 0
1760 12 83.39540582715013 6.067999999999999 -0.004569130852822886 -1 0 0
1853 3 80.38398561810055 7.584999999999999 0.2274554528322817 -1 0 0
1852 10 79.16640582715013 9.101999999999999 -0.004569130852823597 -1 0 0
1856 12 83.39540582715013 9.101999999999999 -0.004569130852822843 -1 0 0
1949 3 80.38398561810055 10.618999999999998 0.22745545283228177 -1 0 0
1764 10 87.62440582715013 6.067999999999999 -0.004569130852823641 -1 0 0
1857 1 84.61298561810054 7.584999999999999 0.2274554528322779 -1 0 0
1861 3 88.84198561810055 7.584999999999999 0.2274554528322817 -1 0 0
1860 10 87.62440582715013 9.101999999999999 -0.004569130852823598 -1 0 0
1953 1 84.61298561810054 10.618999999999998 0.2274554528322778 -1 0 0
1957 3 88.84198561810055 10.618999999999998 0.22745545283228172 -1 0 0
1768 12 91.85340582715013 6.067999999999999 -0.00456913085282288 -1 0 0
1865 1 93.07098561810054 7.584999999999999 0.2274554528322779 -1 0 0
1864 12 91.85340582715013 9.101999999999999 -0.004569130852822838 -1 0 0
1961 1 93.07098561810054 10.618999999999998 0.2274554528322778 -1 0 0
1772 10 96.08240582715013 6.067999999999999 -0.004569130852823451 -1 0 0
1776 12 100.31140582715012 6.067999999999999 -0.004569130852823748 -1 0 0
1869 3 97.29998561810055 7.584999999999999 0.22745545283228222 -1 0 0
1868 10 96.08240582715013 9.101999999999999 -0.004569130852823377 -1 0 0
1872 12 100.31140582715012 9.101999999999999 -0.0045691308528234996 -1 0 0
1965 3 97.29998561810055 10.618999999999998 0.22745545283228216 -1 0 0
1972 10 3.0444058271501344 12.135999999999997 -0.004569130852823816 0 0 0
2065 1 0.03298561810054065 13.652999999999999 0.22745545283227858 0 0 0
2069 3 4.261985618100548 13.652999999999999 0.2274554528322789 0 0 0
2068 10 3.0444058271501344 15.169999999999998 -0.0045691308528236375 0 0 0
2161 1 0.032985618100542326 16.686999999999998 0.2274554528322784 0 0 0
2165 3 4.2619856181005495 16.686999999999998 0.22745545283227916 0 0 0
1976 12 7.273405827150134 12.135999999999997 -0.004569130852823638 0 0 0
1980 10 11.502405827150133 12.135999999999997 -0.004569130852823461 0 0 0
2073 1 8.490985618100547 13.652999999999999 0.22745545283227922 0 0 0
2072 12 7.2734058271501345 15.17 -0.004569130852823516 0 0 0
2076 10 11.502405827150133 15.17 -0.004569130852823625 0 0 0
2169 1 8.49098561810055 16.686999999999998 0.22745545283227878 0 0 0
1984 12 15.731405827150134 12.135999999999997 -0.004569130852823246 0 0 0
2077 3 12.719985618100546 13.652999999999999 0.22745545283227891 0 0 0
2081 1 16.948985618100547 13.652999999999999 0.22745545283227894 0 0 0
2080 12 15.731405827150132 15.169999999999998 -0.004569130852823525 0 0 0
2173 3 12.719985618100548 16.686999999999998 0.2274554528322787 0 0 0
2177 1 16.948985618100547 16.686999999999998 0.2274554528322789 0 0 0
1988 10 19.960405827150133 12.135999999999997 -0.0045691308528235785 0 0 0
2085 3 21.177985618100546 13.652999999999999 0.22745545283227855 0 0 0
2084 10 19.960405827150133 15.169999999999998 -0.004569130852823594 0 0 0
2181 3 21.177985618100546 16.686999999999998 0.22745545283227886 0 0 0
1992 12 24.189405827150132 12.135999999999997 -0.004569130852823574 0 0 0
1996 10 28.41840582715013 12.135999999999997 -0.004569130852823577 0 0 0
2089 1 25.406985618100546 13.652999999999999 0.2274554528322789 0 0 0
2093 3 29.635985618100545 13.652999999999999 0.2274554528322786 0 0 0
2088 12 24.189405827150132 15.169999999999998 -0.004569130852823587 0 0 0
2092 10 28.41840582715013 15.169999999999998 -0.004569130852823605 0 0 0
2185 1 25.406985618100546 16.686999999999998 0.22745545283227891 0 0 0
2189 3 29.635985618100545 16.686999999999998 0.2274554528322788 0 0 0
2000 12 32.64740582715013 12.136 -0.004569130852823183 0 0 0
2097 1 33.86498561810055 13.652999999999999 0.22745545283227886 0 0 0
2096 12 32.64740582715014 15.17 -0.004569130852823296 0 0 0
2193 1 33.864985618100555 16.686999999999998 0.2274554528322803 0 0 0
2004 10 36.87640582715014 12.135999999999997 -0.004569130852822237 0 0 0
2008 12 41.105405827150136 12.135999999999997 -0.004569130852823929 0 0 0
2101 3 38.093985618100554 13.652999999999999 0.22745545283228094 0 0 0
2100 10 36.87640582715014 15.169999999999998 -0.004569130852822391 0 0 0
2104 12 41.105405827150136 15.169999999999998 -0.004569130852824036 0 0 0
2197 3 38.093985618100554 16.686999999999998 0.2274554528322807 0 0 0
2012 10 45.334405827150135 12.135999999999997 -0.004569130852823927 0 0 0
2105 1 42.32298561810055 13.652999999999999 0.22745545283228025 0 0 0
2109 3 46.55198561810055 13.652999999999999 0.22745545283228055 0 0 0
2108 10 45.334405827150135 15.169999999999998 -0.004569130852824022 0 0 0
2201 1 42.32298561810055 16.686999999999998 0.2274554528322798 0 0 0
2205 3 46.55198561810055 16.686999999999998 0.22745545283227994 0 0 0
2016 12 49.563405827150135 12.135999999999997 -0.004569130852824641 0 0 0
2017 1 50.780985618100544 13.652999999999999 0.22745545283227814 -1 0 0
2112 12 49.56340582715013 15.169999999999998 -0.004569130852823869 0 0 0
2113 1 50.780985618100544 16.686999999999998 0.22745545283227897 -1 0 0
1924 10 53.792405827150134 12.135999999999997 -0.004569130852823599 -1 0 0
1928 12 58.02140582715013 12.135999999999997 -0.0045691308528235915 -1 0 0
2021 3 55.00998561810054 13.652999999999999 0.22745545283227855 -1 0 0
2025 1 59.23898561810054 13.652999999999999 0.22745545283227855 -1 0 0
2020 10 53.79240582715013 15.169999999999998 -0.004569130852823592 -1 0 0
2024 12 58.021405827150126 15.169999999999998 -0.004569130852823595 -1 0 0
2117 3 55.00998561810054 16.686999999999998 0.2274554528322795 -1 0 0
2121 1 59.23898561810054 16.686999999999998 0.2274554528322795 -1 0 0
1932 10 62.25040582715013 12.135999999999997 -0.004569130852822661 -1 0 0
2029 3 63.46798561810054 13.652999999999999 0.2274554528322807 -1 0 0
2028 10 62.25040582715013 15.169999999999998 -0.004569130852822773 -1 0 0
2125 3 63.46798561810054 16.686999999999998 0.22745545283228116 -1 0 0
1936 12 66.47940582715013 12.135999999999997 -0.004569130852825148 -1 0 0
1940 10 70.70840582715013 12.135999999999996 -0.0045691308528218065 -1 0 0
2033 1 67.69698561810054 13.652999999999999 0.22745545283227997 -1 0 0
2032 12 66.47940582715013 15.17 -0.00456913085282493 -1 0 0
2036 10 70.70840582715013 15.17 -0.004569130852821656 -1 0 0
2129 1 67.69698561810054 16.686999999999998 0.2274554528322772 -1 0 0
1944 12 74.93740582715013 12.135999999999997 -0.004569130852823008 -1 0 0
2037 3 71.92598561810054 13.652999999999999 0.22745545283228163 -1 0 0
2041 1 76.15498561810054 13.652999999999999 0.2274554528322772 -1 0 0
2040 12 74.93740582715013 15.169999999999998 -0.004569130852823018 -1 0 0
2133 3 71.92598561810054 16.686999999999998 0.227455452832279 -1 0 0
2137 1 76.15498561810054 16.686999999999998 0.22745545283227822 -1 0 0
1948 10 79.16640582715013 12.135999999999997 -0.004569130852823646 -1 0 0
1952 12 83.39540582715013 12.135999999999997 -0.0045691308528228594 -1 0 0
2045 3 80.38398561810055 13.652999999999999 0.22745545283228108 -1 0 0
2044 10 79.16640582715014 15.17 -0.004569130852823348 -1 0 0
2048 12 83.39540582715013 15.169999999999998 -0.004569130852822794 -1 0 0
2141 3 80.38398561810055 16.686999999999998 0.22745545283227864 -1 0 0
1956 10 87.62440582715013 12.135999999999997 -0.004569130852823646 -1 0 0
2049 1 84.61298561810054 13.652999999999999 0.22745545283227722 -1 0 0
2053 3 88.84198561810055 13.652999999999999 0.22745545283228116 -1 0 0
2052 10 87.62440582715014 15.17 -0.00456913085282335 -1 0 0
2145 1 84.61298561810054 16.686999999999998 0.22745545283227825 -1 0 0
2149 3 88.84198561810055 16.686999999999998 0.22745545283227836 -1 0 0
1960 12 91.85340582715013 12.135999999999997 -0.004569130852822858 -1 0 0
2057 1 93.07098561810054 13.652999999999999 0.22745545283227722 -1 0 0
2056 12 91.85340582715013 15.169999999999998 -0.00456913085282279 -1 0 0
2153 1 93.07098561810054 16.686999999999998 0.22745545283227825 -1 0 0
1964 10 96.08240582715013 12.135999999999997 -0.004569130852823411 -1 0 0
1968 12 100.31140582715012 12.135999999999997 -0.004569130852823428 -1 0 0
2061 3 97.29998561810055 13.652999999999999 0.2274554528322815 -1 0 0
2060 10 96.08240582715014 15.17 -0.004569130852823092 -1 0 0
2064 12 100.31140582715012 15.169999999999998 -0.004569130852823247 -1 0 0
2157 3 97.29998561810055 16.686999999999998 0.2274554528322791 -1 0 0
2164 10 3.0444058271501357 18.203999999999997 -0.0045691308528233235 0 0 0
2257 1 0.03298561810054087 19.721 0.2274554528322786 0 0 0
2261 3 4.261985618100548 19.721 0.2274554528322789 0 0 0
2260 10 3.0444058271501335 21.238 -0.004569130852824005 0 0 0
2353 1 0.03298561810054087 22.755 0.2274554528322786 0 0 0
2357 3 4.261985618100548 22.755 0.2274554528322789 0 0 0
2168 12 7.273405827150135 18.203999999999997 -0.004569130852823045 0 0 0
2172 10 11.502405827150135 18.203999999999997 -0.004569130852823081 0 0 0
2265 1 8.490985618100547 19.721 0.22745545283227944 0 0 0
2264 12 7.273405827150133 21.238 -0.004569130852823939 0 0 0
2268 10 11.502405827150131 21.238 -0.004569130852823853 0 0 0
2361 1 8.490985618100547 22.755 0.22745545283227944 0 0 0
2176 12 15.731405827150134 18.203999999999997 -0.004569130852823041 0 0 0
2269 3 12.719985618100546 19.721 0.22745545283227916 0 0 0
2273 1 16.948985618100547 19.721 0.22745545283227875 0 0 0
2272 12 15.731405827150132 21.238 -0.004569130852823842 0 0 0
2365 3 12.719985618100546 22.755 0.22745545283227916 0 0 0
2369 1 16.948985618100547 22.755 0.22745545283227875 0 0 0
2180 10 19.960405827150133 18.203999999999997 -0.004569130852822872 0 0 0
2277 3 21.177985618100546 19.721 0.22745545283227891 0 0 0
2276 10 19.960405827150133 21.238 -0.0045691308528237615 0 0 0
2373 3 21.177985618100546 22.755 0.22745545283227891 0 0 0
2184 12 24.189405827150132 18.203999999999997 -0.0045691308528230425 0 0 0
2188 10 28.41840582715013 18.203999999999997 -0.004569130852822902 0 0 0
2281 1 25.406985618100546 19.721 0.22745545283227894 0 0 0
2285 3 29.635985618100545 19.721 0.22745545283227883 0 0 0
2280 12 24.189405827150132 21.238 -0.004569130852823764 0 0 0
2284 10 28.41840582715013 21.238 -0.004569130852823783 0 0 0
2377 1 25.406985618100546 22.755 0.22745545283227894 0 0 0
2381 3 29.635985618100545 22.755 0.22745545283227883 0 0 0
2192 12 32.64740582715014 18.203999999999997 -0.004569130852822719 0 0 0
2289 1 33.86498561810055 19.721 0.2274554528322793 0 0 0
2288 12 32.64740582715013 21.238 -0.004569130852823721 0 0 0
2385 1 33.86498561810055 22.755 0.2274554528322793 0 0 0
2196 10 36.87640582715014 18.203999999999997 -0.004569130852821452 0 0 0
2200 12 41.105405827150136 18.203999999999997 -0.0045691308528231075 0 0 0
2293 3 38.09398561810055 19.721 0.2274554528322808 0 0 0
2292 10 36.87640582715013 21.238 -0.004569130852822508 0 0 0
2296 12 41.105405827150136 21.238 -0.004569130852824349 0 0 0
2389 3 38.09398561810055 22.755 0.22745545283228077 0 0 0
2204 10 45.334405827150135 18.203999999999997 -0.004569130852823096 0 0 0
2297 1 42.322985618100546 19.721 0.22745545283227997 0 0 0
2301 3 46.551985618100545 19.721 0.22745545283227997 0 0 0
2300 10 45.334405827150135 21.238 -0.004569130852824351 0 0 0
2393 1 42.322985618100546 22.755 0.22745545283227964 0 0 0
2397 3 46.551985618100545 22.755 0.22745545283227966 0 0 0
2208 12 49.563405827150135 18.203999999999997 -0.004569130852823463 0 0 0
2209 1 50.780985618100544 19.721 0.22745545283227814 -1 0 0
2304 12 49.563405827150135 21.238 -0.004569130852825122 0 0 0
2305 1 50.780985618100544 22.755 0.22745545283227786 -1 0 0
2116 10 53.79240582715013 18.203999999999997 -0.0045691308528227476 -1 0 0
2120 12 58.021405827150126 18.203999999999997 -0.004569130852822752 -1 0 0
2213 3 55.00998561810054 19.721 0.2274554528322787 -1 0 0
2217 1 59.23898561810054 19.721 0.2274554528322787 -1 0 0
2212 10 53.79240582715013 21.238 -0.004569130852823889 -1 0 0
2216 12 58.021405827150126 21.238 -0.004569130852823891 -1 0 0
2309 3 55.00998561810054 22.755 0.2274554528322787 -1 0 0
2313 1 59.23898561810054 22.755 0.2274554528322787 -1 0 0
2124 10 62.250405827150125 18.203999999999997 -0.004569130852821627 -1 0 0
2221 3 63.46798561810054 19.721 0.2274554528322809 -1 0 0
2220 10 62.250405827150125 21.238 -0.0045691308528227675 -1 0 0
2317 3 63.46798561810054 22.755 0.2274554528322809 -1 0 0
2128 12 66.47940582715013 18.203999999999997 -0.004569130852824499 -1 0 0
2132 10 70.70840582715013 18.203999999999994 -0.004569130852821174 -1 0 0
2225 1 67.69698561810054 19.721 0.22745545283228008 -1 0 0
2224 12 66.47940582715013 21.238 -0.004569130852825359 -1 0 0
2228 10 70.70840582715012 21.238 -0.004569130852822399 -1 0 0
2321 1 67.69698561810054 22.755 0.22745545283228008 -1 0 0
2136 12 74.93740582715013 18.203999999999997 -0.004569130852822444 -1 0 0
2229 3 71.92598561810054 19.721 0.22745545283228172 -1 0 0
2233 1 76.15498561810054 19.721 0.2274554528322777 -1 0 0
2232 12 74.93740582715013 21.238 -0.004569130852823199 -1 0 0
2325 3 71.92598561810054 22.755 0.22745545283228172 -1 0 0
2329 1 76.15498561810054 22.755 0.22745545283227772 -1 0 0
2140 10 79.16640582715014 18.203999999999997 -0.004569130852823409 -1 0 0
2144 12 83.39540582715013 18.203999999999997 -0.004569130852822382 -1 0 0
2237 3 80.38398561810055 19.721 0.2274554528322806 -1 0 0
2236 10 79.16640582715014 21.238 -0.004569130852825454 -1 0 0
2240 12 83.39540582715013 21.238 -0.004569130852823014 -1 0 0
2333 3 80.38398561810055 22.755 0.2274554528322806 -1 0 0
2148 10 87.62440582715014 18.203999999999997 -0.004569130852823402 -1 0 0
2241 1 84.61298561810054 19.721 0.22745545283227772 -1 0 0
2245 3 88.84198561810055 19.721 0.2274554528322806 -1 0 0
2244 10 87.62440582715014 21.238 -0.004569130852825451 -1 0 0
2337 1 84.61298561810054 22.755 0.22745545283227772 -1 0 0
2341 3 88.84198561810055 22.755 0.2274554528322806 -1 0 0
2152 12 91.85340582715013 18.203999999999997 -0.004569130852822376 -1 0 0
2249 1 93.07098561810054 19.721 0.22745545283227772 -1 0 0
2248 12 91.85340582715013 21.238 -0.004569130852823013 -1 0 0
2345 1 93.07098561810054 22.755 0.22745545283227772 -1 0 0
2156 10 96.08240582715014 18.203999999999997 -0.004569130852823166 -1 0 0
2160 12 100.31140582715012 18.203999999999997 -0.004569130852823105 -1 0 0
2253 3 97.29998561810055 19.721 0.22745545283228108 -1 0 0
2252 10 96.08240582715014 21.238 -0.004569130852825189 -1 0 0
2256 12 100.31140582715012 21.238 -0.004569130852823844 -1 0 0
2349 3 97.29998561810055 22.755 0.2274554528322811 -1 0 0
2356 10 3.0444058271501357 24.272000000000002 -0.004569130852823321 0 0 0
2449 1 0.03298561810054272 25.789 0.22745545283227833 0 0 0
2453 3 4.2619856181005495 25.789 0.22745545283227878 0 0 0
2452 10 3.0444058271501335 27.305999999999997 -0.004569130852824007 0 0 0
2545 1 0.03298561810054067 28.823 0.22745545283227872 0 0 0
2549 3 4.261985618100548 28.822999999999997 0.22745545283227894 0 0 0
2360 12 7.273405827150135 24.272000000000002 -0.004569130852822994 0 0 0
2364 10 11.502405827150135 24.272000000000002 -0.004569130852823041 0 0 0
2457 1 8.49098561810055 25.789 0.22745545283227872 0 0 0
2456 12 7.273405827150134 27.305999999999997 -0.004569130852823785 0 0 0
2460 10 11.502405827150133 27.305999999999997 -0.004569130852823872 0 0 0
2553 1 8.490985618100547 28.822999999999997 0.22745545283227941 0 0 0
2368 12 15.731405827150134 24.272000000000002 -0.004569130852823033 0 0 0
2461 3 12.719985618100548 25.789 0.22745545283227894 0 0 0
2465 1 16.948985618100547 25.789 0.22745545283227867 0 0 0
2464 12 15.731405827150132 27.305999999999997 -0.004569130852823838 0 0 0
2557 3 12.719985618100546 28.822999999999997 0.227455452832279 0 0 0
2561 1 16.948985618100547 28.822999999999997 0.22745545283227883 0 0 0
2372 10 19.960405827150133 24.272000000000002 -0.004569130852822866 0 0 0
2469 3 21.177985618100546 25.789 0.22745545283227894 0 0 0
2468 10 19.96040582715013 27.305999999999997 -0.004569130852823889 0 0 0
2565 3 21.177985618100546 28.822999999999997 0.22745545283227891 0 0 0
2376 12 24.189405827150132 24.272000000000002 -0.004569130852822857 0 0 0
2380 10 28.41840582715013 24.272000000000002 -0.004569130852822876 0 0 0
2473 1 25.406985618100546 25.789 0.22745545283227897 0 0 0
2477 3 29.635985618100545 25.789 0.227455452832279 0 0 0
2472 12 24.18940582715013 27.305999999999997 -0.0045691308528238855 0 0 0
2476 10 28.418405827150128 27.305999999999997 -0.004569130852823892 0 0 0
2569 1 25.406985618100546 28.822999999999997 0.22745545283227891 0 0 0
2573 3 29.635985618100545 28.822999999999997 0.22745545283227883 0 0 0
2384 12 32.64740582715014 24.272000000000002 -0.004569130852822715 0 0 0
2481 1 33.86498561810055 25.789 0.22745545283227964 0 0 0
2480 12 32.64740582715013 27.305999999999997 -0.004569130852823572 0 0 0
2577 1 33.86498561810055 28.822999999999997 0.22745545283227928 0 0 0
2388 10 36.87640582715014 24.272000000000002 -0.004569130852821109 0 0 0
2392 12 41.105405827150136 24.272000000000002 -0.004569130852823454 0 0 0
2485 3 38.093985618100554 25.789 0.22745545283228127 0 0 0
2484 10 36.87640582715013 27.305999999999997 -0.0045691308528223035 0 0 0
2488 12 41.10540582715013 27.305999999999997 -0.004569130852824226 0 0 0
2581 3 38.09398561810055 28.822999999999997 0.22745545283228077 0 0 0
2396 10 45.334405827150135 24.272000000000002 -0.004569130852823635 0 0 0
2489 1 42.32298561810055 25.789 0.2274554528322801 0 0 0
2493 3 46.55198561810055 25.789 0.22745545283228014 0 0 0
2492 10 45.33440582715013 27.305999999999997 -0.00456913085282422 0 0 0
2585 1 42.322985618100546 28.822999999999997 0.22745545283227991 0 0 0
2589 3 46.551985618100545 28.822999999999997 0.22745545283227991 0 0 0
2400 12 49.563405827150135 24.272000000000002 -0.004569130852824509 0 0 0
2401 1 50.780985618100544 25.789 0.22745545283227867 -1 0 0
2496 12 49.56340582715013 27.305999999999997 -0.0045691308528251 0 0 0
2497 1 50.780985618100544 28.822999999999997 0.22745545283227814 -1 0 0
2308 10 53.79240582715013 24.272000000000002 -0.004569130852822537 -1 0 0
2312 12 58.021405827150126 24.272000000000002 -0.004569130852822539 -1 0 0
2405 3 55.00998561810054 25.789 0.2274554528322795 -1 0 0
2409 1 59.23898561810054 25.789 0.2274554528322795 -1 0 0
2404 10 53.79240582715013 27.305999999999997 -0.004569130852823931 -1 0 0
2408 12 58.021405827150126 27.305999999999997 -0.004569130852823934 -1 0 0
2501 3 55.00998561810054 28.822999999999997 0.22745545283227886 -1 0 0
2505 1 59.23898561810054 28.822999999999997 0.22745545283227886 -1 0 0
2316 10 62.250405827150125 24.272000000000002 -0.0045691308528216165 -1 0 0
2413 3 63.46798561810054 25.789 0.2274554528322812 -1 0 0
2412 10 62.25040582715013 27.306 -0.004569130852822954 -1 0 0
2509 3 63.46798561810054 28.823 0.2274554528322808 -1 0 0
2320 12 66.47940582715013 24.272000000000002 -0.004569130852824483 -1 0 0
2324 10 70.70840582715013 24.272000000000006 -0.004569130852821141 -1 0 0