LAMMPS structure data file for MoS2 with 1 layers

3060 atoms
12 atom types

0.0 97.82349797684107 xlo xhi
0.0 99.6678051 ylo yhi
-20 16.771478275 zlo zhi

Masses 

1 95.95 #Mo
2 95.95 #Mo
3 95.95 #Mo
4 95.95 #Mo
5 78.971 #Se
6 78.971 #Se
7 78.971 #Se
8 78.971 #Se
9 78.971 #Se
10 78.971 #Se
11 78.971 #Se
12 78.971 #Se

Atoms

1 5 0.1 0.1 0.0
2 1 1.059053901733736 1.761130085 1.6611300850000001
3 6 0.1 0.1 3.3222601700000003
4 7 2.977161705201208 1.761130085 0.0
5 2 3.936215606934944 0.1 1.6611300850000001
6 8 2.977161705201208 1.761130085 3.3222601700000003
7 9 0.1 3.42226017 0.0
8 3 1.059053901733736 5.083390254999999 1.6611300850000001
9 10 0.1 3.42226017 3.3222601700000003
10 11 2.977161705201208 5.083390254999999 0.0
11 4 3.936215606934944 3.42226017 1.6611300850000001
12 12 2.977161705201208 5.083390254999999 3.3222601700000003
13 5 0.1 6.744520339999999 0.0
14 1 1.059053901733736 8.405650425 1.6611300850000001
15 6 0.1 6.744520339999999 3.3222601700000003
16 7 2.977161705201208 8.405650425 0.0
17 2 3.936215606934944 6.744520339999999 1.6611300850000001
18 8 2.977161705201208 8.405650425 3.3222601700000003
19 9 0.1 10.06678051 0.0
20 3 1.059053901733736 11.727910594999999 1.6611300850000001
21 10 0.1 10.06678051 3.3222601700000003
22 11 2.977161705201208 11.727910594999999 0.0
23 4 3.936215606934944 10.06678051 1.6611300850000001
24 12 2.977161705201208 11.727910594999999 3.3222601700000003
25 5 0.1 13.389040679999999 0.0
26 1 1.059053901733736 15.050170764999999 1.6611300850000001
27 6 0.1 13.389040679999999 3.3222601700000003
28 7 2.977161705201208 15.050170764999999 0.0
29 2 3.936215606934944 13.389040679999999 1.6611300850000001
30 8 2.977161705201208 15.050170764999999 3.3222601700000003
31 9 0.1 16.71130085 0.0
32 3 1.059053901733736 18.372430935 1.6611300850000001
33 10 0.1 16.71130085 3.3222601700000003
34 11 2.977161705201208 18.372430935 0.0
35 4 3.936215606934944 16.71130085 1.6611300850000001
36 12 2.977161705201208 18.372430935 3.3222601700000003
37 5 0.1 20.03356102 0.0
38 1 1.059053901733736 21.694691105 1.6611300850000001
39 6 0.1 20.03356102 3.3222601700000003
40 7 2.977161705201208 21.694691105 0.0
41 2 3.936215606934944 20.03356102 1.6611300850000001
42 8 2.977161705201208 21.694691105 3.3222601700000003
43 9 0.1 23.35582119 0.0
44 3 1.059053901733736 25.016951275 1.6611300850000001
45 10 0.1 23.35582119 3.3222601700000003
46 11 2.977161705201208 25.016951275 0.0
47 4 3.936215606934944 23.35582119 1.6611300850000001
48 12 2.977161705201208 25.016951275 3.3222601700000003
49 5 0.1 26.67808136 0.0
50 1 1.059053901733736 28.339211445 1.6611300850000001
51 6 0.1 26.67808136 3.3222601700000003
52 7 2.977161705201208 28.339211445 0.0
53 2 3.936215606934944 26.67808136 1.6611300850000001
54 8 2.977161705201208 28.339211445 3.3222601700000003
55 9 0.1 30.00034153 0.0
56 3 1.059053901733736 31.661471615 1.6611300850000001
57 10 0.1 30.00034153 3.3222601700000003
58 11 2.977161705201208 31.661471615 0.0
59 4 3.936215606934944 30.00034153 1.6611300850000001
60 12 2.977161705201208 31.661471615 3.3222601700000003
61 5 0.1 33.3226017 0.0
62 1 1.059053901733736 34.983731784999996 1.6611300850000001
63 6 0.1 33.3226017 3.3222601700000003
64 7 2.977161705201208 34.983731784999996 0.0
65 2 3.936215606934944 33.3226017 1.6611300850000001
66 8 2.977161705201208 34.983731784999996 3.3222601700000003
67 9 0.1 36.64486187 0.0
68 3 1.059053901733736 38.305991955 1.6611300850000001
69 10 0.1 36.64486187 3.3222601700000003
70 11 2.977161705201208 38.305991955 0.0
71 4 3.936215606934944 36.64486187 1.6611300850000001
72 12 2.977161705201208 38.305991955 3.3222601700000003
73 5 0.1 39.96712204 0.0
74 1 1.059053901733736 41.628252124999996 1.6611300850000001
75 6 0.1 39.96712204 3.3222601700000003
76 7 2.977161705201208 41.628252124999996 0.0
77 2 3.936215606934944 39.96712204 1.6611300850000001
78 8 2.977161705201208 41.628252124999996 3.3222601700000003
79 9 0.1 43.28938221 0.0
80 3 1.059053901733736 44.950512295 1.6611300850000001
81 10 0.1 43.28938221 3.3222601700000003
82 11 2.977161705201208 44.950512295 0.0
83 4 3.936215606934944 43.28938221 1.6611300850000001
84 12 2.977161705201208 44.950512295 3.3222601700000003
85 5 0.1 46.61164238 0.0
86 1 1.059053901733736 48.272772464999996 1.6611300850000001
87 6 0.1 46.61164238 3.3222601700000003
88 7 2.977161705201208 48.272772464999996 0.0
89 2 3.936215606934944 46.61164238 1.6611300850000001
90 8 2.977161705201208 48.272772464999996 3.3222601700000003
91 9 0.1 49.93390255 0.0
92 3 1.059053901733736 51.595032635 1.6611300850000001
93 10 0.1 49.93390255 3.3222601700000003
94 11 2.977161705201208 51.595032635 0.0
95 4 3.936215606934944 49.93390255 1.6611300850000001
96 12 2.977161705201208 51.595032635 3.3222601700000003
97 5 0.1 53.25616272 0.0
98 1 1.059053901733736 54.917292804999995 1.6611300850000001
99 6 0.1 53.25616272 3.3222601700000003
100 7 2.977161705201208 54.917292804999995 0.0
101 2 3.936215606934944 53.25616272 1.6611300850000001
102 8 2.977161705201208 54.917292804999995 3.3222601700000003
103 9 0.1 56.57842289 0.0
104 3 1.059053901733736 58.239552975 1.6611300850000001
105 10 0.1 56.57842289 3.3222601700000003
106 11 2.977161705201208 58.239552975 0.0
107 4 3.936215606934944 56.57842289 1.6611300850000001
108 12 2.977161705201208 58.239552975 3.3222601700000003
109 5 0.1 59.90068306 0.0
110 1 1.059053901733736 61.561813144999995 1.6611300850000001
111 6 0.1 59.90068306 3.3222601700000003
112 7 2.977161705201208 61.561813144999995 0.0
113 2 3.936215606934944 59.90068306 1.6611300850000001
114 8 2.977161705201208 61.561813144999995 3.3222601700000003
115 9 0.1 63.22294323 0.0
116 3 1.059053901733736 64.884073315 1.6611300850000001
117 10 0.1 63.22294323 3.3222601700000003
118 11 2.977161705201208 64.884073315 0.0
119 4 3.936215606934944 63.22294323 1.6611300850000001
120 12 2.977161705201208 64.884073315 3.3222601700000003
121 5 0.1 66.54520339999999 0.0
122 1 1.059053901733736 68.20633348499999 1.6611300850000001
123 6 0.1 66.54520339999999 3.3222601700000003
124 7 2.977161705201208 68.20633348499999 0.0
125 2 3.936215606934944 66.54520339999999 1.6611300850000001
126 8 2.977161705201208 68.20633348499999 3.3222601700000003
127 9 0.1 69.86746356999998 0.0
128 3 1.059053901733736 71.528593655 1.6611300850000001
129 10 0.1 69.86746356999998 3.3222601700000003
130 11 2.977161705201208 71.528593655 0.0
131 4 3.936215606934944 69.86746356999998 1.6611300850000001
132 12 2.977161705201208 71.528593655 3.3222601700000003
133 5 0.1 73.18972373999999 0.0
134 1 1.059053901733736 74.85085382499999 1.6611300850000001
135 6 0.1 73.18972373999999 3.3222601700000003
136 7 2.977161705201208 74.85085382499999 0.0
137 2 3.936215606934944 73.18972373999999 1.6611300850000001
138 8 2.977161705201208 74.85085382499999 3.3222601700000003
139 9 0.1 76.51198391 0.0
140 3 1.059053901733736 78.173113995 1.6611300850000001
141 10 0.1 76.51198391 3.3222601700000003
142 11 2.977161705201208 78.173113995 0.0
143 4 3.936215606934944 76.51198391 1.6611300850000001
144 12 2.977161705201208 78.173113995 3.3222601700000003
145 5 0.1 79.83424407999999 0.0
146 1 1.059053901733736 81.49537416499999 1.6611300850000001
147 6 0.1 79.83424407999999 3.3222601700000003
148 7 2.977161705201208 81.49537416499999 0.0
149 2 3.936215606934944 79.83424407999999 1.6611300850000001
150 8 2.977161705201208 81.49537416499999 3.3222601700000003
151 9 0.1 83.15650424999998 0.0
152 3 1.059053901733736 84.817634335 1.6611300850000001
153 10 0.1 83.15650424999998 3.3222601700000003
154 11 2.977161705201208 84.817634335 0.0
155 4 3.936215606934944 83.15650424999998 1.6611300850000001
156 12 2.977161705201208 84.817634335 3.3222601700000003
157 5 0.1 86.47876441999999 0.0
158 1 1.059053901733736 88.13989450499999 1.6611300850000001
159 6 0.1 86.47876441999999 3.3222601700000003
160 7 2.977161705201208 88.13989450499999 0.0
161 2 3.936215606934944 86.47876441999999 1.6611300850000001
162 8 2.977161705201208 88.13989450499999 3.3222601700000003
163 9 0.1 89.80102459 0.0
164 3 1.059053901733736 91.462154675 1.6611300850000001
165 10 0.1 89.80102459 3.3222601700000003
166 11 2.977161705201208 91.462154675 0.0
167 4 3.936215606934944 89.80102459 1.6611300850000001
168 12 2.977161705201208 91.462154675 3.3222601700000003
169 5 0.1 93.12328475999999 0.0
170 1 1.059053901733736 94.78441484499999 1.6611300850000001
171 6 0.1 93.12328475999999 3.3222601700000003
172 7 2.977161705201208 94.78441484499999 0.0
173 2 3.936215606934944 93.12328475999999 1.6611300850000001
174 8 2.977161705201208 94.78441484499999 3.3222601700000003
175 9 0.1 96.44554492999998 0.0
176 3 1.059053901733736 98.106675015 1.6611300850000001
177 10 0.1 96.44554492999998 3.3222601700000003
178 11 2.977161705201208 98.106675015 0.0
179 4 3.936215606934944 96.44554492999998 1.6611300850000001
180 12 2.977161705201208 98.106675015 3.3222601700000003
181 5 5.854323410402415 0.1 0.0
182 1 6.813377312136151 1.761130085 1.6611300850000001
183 6 5.854323410402415 0.1 3.3222601700000003
184 7 8.731485115603624 1.761130085 0.0
185 2 9.69053901733736 0.1 1.6611300850000001
186 8 8.731485115603624 1.761130085 3.3222601700000003
187 9 5.854323410402415 3.42226017 0.0
188 3 6.813377312136151 5.083390254999999 1.6611300850000001
189 10 5.854323410402415 3.42226017 3.3222601700000003
190 11 8.731485115603624 5.083390254999999 0.0
191 4 9.69053901733736 3.42226017 1.6611300850000001
192 12 8.731485115603624 5.083390254999999 3.3222601700000003
193 5 5.854323410402415 6.744520339999999 0.0
194 1 6.813377312136151 8.405650425 1.6611300850000001
195 6 5.854323410402415 6.744520339999999 3.3222601700000003
196 7 8.731485115603624 8.405650425 0.0
197 2 9.69053901733736 6.744520339999999 1.6611300850000001
198 8 8.731485115603624 8.405650425 3.3222601700000003
199 9 5.854323410402415 10.06678051 0.0
200 3 6.813377312136151 11.727910594999999 1.6611300850000001
201 10 5.854323410402415 10.06678051 3.3222601700000003
202 11 8.731485115603624 11.727910594999999 0.0
203 4 9.69053901733736 10.06678051 1.6611300850000001
204 12 8.731485115603624 11.727910594999999 3.3222601700000003
205 5 5.854323410402415 13.389040679999999 0.0
206 1 6.813377312136151 15.050170764999999 1.6611300850000001
207 6 5.854323410402415 13.389040679999999 3.3222601700000003
208 7 8.731485115603624 15.050170764999999 0.0
209 2 9.69053901733736 13.389040679999999 1.6611300850000001
210 8 8.731485115603624 15.050170764999999 3.3222601700000003
211 9 5.854323410402415 16.71130085 0.0
212 3 6.813377312136151 18.372430935 1.6611300850000001
213 10 5.854323410402415 16.71130085 3.3222601700000003
214 11 8.731485115603624 18.372430935 0.0
215 4 9.69053901733736 16.71130085 1.6611300850000001
216 12 8.731485115603624 18.372430935 3.3222601700000003
217 5 5.854323410402415 20.03356102 0.0
218 1 6.813377312136151 21.694691105 1.6611300850000001
219 6 5.854323410402415 20.03356102 3.3222601700000003
220 7 8.731485115603624 21.694691105 0.0
221 2 9.69053901733736 20.03356102 1.6611300850000001
222 8 8.731485115603624 21.694691105 3.3222601700000003
223 9 5.854323410402415 23.35582119 0.0
224 3 6.813377312136151 25.016951275 1.6611300850000001
225 10 5.854323410402415 23.35582119 3.3222601700000003
226 11 8.731485115603624 25.016951275 0.0
227 4 9.69053901733736 23.35582119 1.6611300850000001
228 12 8.731485115603624 25.016951275 3.3222601700000003
229 5 5.854323410402415 26.67808136 0.0
230 1 6.813377312136151 28.339211445 1.6611300850000001
231 6 5.854323410402415 26.67808136 3.3222601700000003
232 7 8.731485115603624 28.339211445 0.0
233 2 9.69053901733736 26.67808136 1.6611300850000001
234 8 8.731485115603624 28.339211445 3.3222601700000003
235 9 5.854323410402415 30.00034153 0.0
236 3 6.813377312136151 31.661471615 1.6611300850000001
237 10 5.854323410402415 30.00034153 3.3222601700000003
238 11 8.731485115603624 31.661471615 0.0
239 4 9.69053901733736 30.00034153 1.6611300850000001
240 12 8.731485115603624 31.661471615 3.3222601700000003
241 5 5.854323410402415 33.3226017 0.0
242 1 6.813377312136151 34.983731784999996 1.6611300850000001
243 6 5.854323410402415 33.3226017 3.3222601700000003
244 7 8.731485115603624 34.983731784999996 0.0
245 2 9.69053901733736 33.3226017 1.6611300850000001
246 8 8.731485115603624 34.983731784999996 3.3222601700000003
247 9 5.854323410402415 36.64486187 0.0
248 3 6.813377312136151 38.305991955 1.6611300850000001
249 10 5.854323410402415 36.64486187 3.3222601700000003
250 11 8.731485115603624 38.305991955 0.0
251 4 9.69053901733736 36.64486187 1.6611300850000001
252 12 8.731485115603624 38.305991955 3.3222601700000003
253 5 5.854323410402415 39.96712204 0.0
254 1 6.813377312136151 41.628252124999996 1.6611300850000001
255 6 5.854323410402415 39.96712204 3.3222601700000003
256 7 8.731485115603624 41.628252124999996 0.0
257 2 9.69053901733736 39.96712204 1.6611300850000001
258 8 8.731485115603624 41.628252124999996 3.3222601700000003
259 9 5.854323410402415 43.28938221 0.0
260 3 6.813377312136151 44.950512295 1.6611300850000001
261 10 5.854323410402415 43.28938221 3.3222601700000003
262 11 8.731485115603624 44.950512295 0.0
263 4 9.69053901733736 43.28938221 1.6611300850000001
264 12 8.731485115603624 44.950512295 3.3222601700000003
265 5 5.854323410402415 46.61164238 0.0
266 1 6.813377312136151 48.272772464999996 1.6611300850000001
267 6 5.854323410402415 46.61164238 3.3222601700000003
268 7 8.731485115603624 48.272772464999996 0.0
269 2 9.69053901733736 46.61164238 1.6611300850000001
270 8 8.731485115603624 48.272772464999996 3.3222601700000003
271 9 5.854323410402415 49.93390255 0.0
272 3 6.813377312136151 51.595032635 1.6611300850000001
273 10 5.854323410402415 49.93390255 3.3222601700000003
274 11 8.731485115603624 51.595032635 0.0
275 4 9.69053901733736 49.93390255 1.6611300850000001
276 12 8.731485115603624 51.595032635 3.3222601700000003
277 5 5.854323410402415 53.25616272 0.0
278 1 6.813377312136151 54.917292804999995 1.6611300850000001
279 6 5.854323410402415 53.25616272 3.3222601700000003
280 7 8.731485115603624 54.917292804999995 0.0
281 2 9.69053901733736 53.25616272 1.6611300850000001
282 8 8.731485115603624 54.917292804999995 3.3222601700000003
283 9 5.854323410402415 56.57842289 0.0
284 3 6.813377312136151 58.239552975 1.6611300850000001
285 10 5.854323410402415 56.57842289 3.3222601700000003
286 11 8.731485115603624 58.239552975 0.0
287 4 9.69053901733736 56.57842289 1.6611300850000001
288 12 8.731485115603624 58.239552975 3.3222601700000003
289 5 5.854323410402415 59.90068306 0.0
290 1 6.813377312136151 61.561813144999995 1.6611300850000001
291 6 5.854323410402415 59.90068306 3.3222601700000003
292 7 8.731485115603624 61.561813144999995 0.0
293 2 9.69053901733736 59.90068306 1.6611300850000001
294 8 8.731485115603624 61.561813144999995 3.3222601700000003
295 9 5.854323410402415 63.22294323 0.0
296 3 6.813377312136151 64.884073315 1.6611300850000001
297 10 5.854323410402415 63.22294323 3.3222601700000003
298 11 8.731485115603624 64.884073315 0.0
299 4 9.69053901733736 63.22294323 1.6611300850000001
300 12 8.731485115603624 64.884073315 3.3222601700000003
301 5 5.854323410402415 66.54520339999999 0.0
302 1 6.813377312136151 68.20633348499999 1.6611300850000001
303 6 5.854323410402415 66.54520339999999 3.3222601700000003
304 7 8.731485115603624 68.20633348499999 0.0
305 2 9.69053901733736 66.54520339999999 1.6611300850000001
306 8 8.731485115603624 68.20633348499999 3.3222601700000003
307 9 5.854323410402415 69.86746356999998 0.0
308 3 6.813377312136151 71.528593655 1.6611300850000001
309 10 5.854323410402415 69.86746356999998 3.3222601700000003
310 11 8.731485115603624 71.528593655 0.0
311 4 9.69053901733736 69.86746356999998 1.6611300850000001
312 12 8.731485115603624 71.528593655 3.3222601700000003
313 5 5.854323410402415 73.18972373999999 0.0
314 1 6.813377312136151 74.85085382499999 1.6611300850000001
315 6 5.854323410402415 73.18972373999999 3.3222601700000003
316 7 8.731485115603624 74.85085382499999 0.0
317 2 9.69053901733736 73.18972373999999 1.6611300850000001
318 8 8.731485115603624 74.85085382499999 3.3222601700000003
319 9 5.854323410402415 76.51198391 0.0
320 3 6.813377312136151 78.173113995 1.6611300850000001
321 10 5.854323410402415 76.51198391 3.3222601700000003
322 11 8.731485115603624 78.173113995 0.0
323 4 9.69053901733736 76.51198391 1.6611300850000001
324 12 8.731485115603624 78.173113995 3.3222601700000003
325 5 5.854323410402415 79.83424407999999 0.0
326 1 6.813377312136151 81.49537416499999 1.6611300850000001
327 6 5.854323410402415 79.83424407999999 3.3222601700000003
328 7 8.731485115603624 81.49537416499999 0.0
329 2 9.69053901733736 79.83424407999999 1.6611300850000001
330 8 8.731485115603624 81.49537416499999 3.3222601700000003
331 9 5.854323410402415 83.15650424999998 0.0
332 3 6.813377312136151 84.817634335 1.6611300850000001
333 10 5.854323410402415 83.15650424999998 3.3222601700000003
334 11 8.731485115603624 84.817634335 0.0
335 4 9.69053901733736 83.15650424999998 1.6611300850000001
336 12 8.731485115603624 84.817634335 3.3222601700000003
337 5 5.854323410402415 86.47876441999999 0.0
338 1 6.813377312136151 88.13989450499999 1.6611300850000001
339 6 5.854323410402415 86.47876441999999 3.3222601700000003
340 7 8.731485115603624 88.13989450499999 0.0
341 2 9.69053901733736 86.47876441999999 1.6611300850000001
342 8 8.731485115603624 88.13989450499999 3.3222601700000003
343 9 5.854323410402415 89.80102459 0.0
344 3 6.813377312136151 91.462154675 1.6611300850000001
345 10 5.854323410402415 89.80102459 3.3222601700000003
346 11 8.731485115603624 91.462154675 0.0
347 4 9.69053901733736 89.80102459 1.6611300850000001
348 12 8.731485115603624 91.462154675 3.3222601700000003
349 5 5.854323410402415 93.12328475999999 0.0
350 1 6.813377312136151 94.78441484499999 1.6611300850000001
351 6 5.854323410402415 93.12328475999999 3.3222601700000003
352 7 8.731485115603624 94.78441484499999 0.0
353 2 9.69053901733736 93.12328475999999 1.6611300850000001
354 8 8.731485115603624 94.78441484499999 3.3222601700000003
355 9 5.854323410402415 96.44554492999998 0.0
356 3 6.813377312136151 98.106675015 1.6611300850000001
357 10 5.854323410402415 96.44554492999998 3.3222601700000003
358 11 8.731485115603624 98.106675015 0.0
359 4 9.69053901733736 96.44554492999998 1.6611300850000001
360 12 8.731485115603624 98.106675015 3.3222601700000003
361 5 11.60864682080483 0.1 0.0
362 1 12.567700722538566 1.761130085 1.6611300850000001
363 6 11.60864682080483 0.1 3.3222601700000003
364 7 14.485808526006037 1.761130085 0.0
365 2 15.444862427739775 0.1 1.6611300850000001
366 8 14.485808526006037 1.761130085 3.3222601700000003
367 9 11.60864682080483 3.42226017 0.0
368 3 12.567700722538566 5.083390254999999 1.6611300850000001
369 10 11.60864682080483 3.42226017 3.3222601700000003
370 11 14.485808526006037 5.083390254999999 0.0
371 4 15.444862427739775 3.42226017 1.6611300850000001
372 12 14.485808526006037 5.083390254999999 3.3222601700000003
373 5 11.60864682080483 6.744520339999999 0.0
374 1 12.567700722538566 8.405650425 1.6611300850000001
375 6 11.60864682080483 6.744520339999999 3.3222601700000003
376 7 14.485808526006037 8.405650425 0.0
377 2 15.444862427739775 6.744520339999999 1.6611300850000001
378 8 14.485808526006037 8.405650425 3.3222601700000003
379 9 11.60864682080483 10.06678051 0.0
380 3 12.567700722538566 11.727910594999999 1.6611300850000001
381 10 11.60864682080483 10.06678051 3.3222601700000003
382 11 14.485808526006037 11.727910594999999 0.0
383 4 15.444862427739775 10.06678051 1.6611300850000001
384 12 14.485808526006037 11.727910594999999 3.3222601700000003
385 5 11.60864682080483 13.389040679999999 0.0
386 1 12.567700722538566 15.050170764999999 1.6611300850000001
387 6 11.60864682080483 13.389040679999999 3.3222601700000003
388 7 14.485808526006037 15.050170764999999 0.0
389 2 15.444862427739775 13.389040679999999 1.6611300850000001
390 8 14.485808526006037 15.050170764999999 3.3222601700000003
391 9 11.60864682080483 16.71130085 0.0
392 3 12.567700722538566 18.372430935 1.6611300850000001
393 10 11.60864682080483 16.71130085 3.3222601700000003
394 11 14.485808526006037 18.372430935 0.0
395 4 15.444862427739775 16.71130085 1.6611300850000001
396 12 14.485808526006037 18.372430935 3.3222601700000003
397 5 11.60864682080483 20.03356102 0.0
398 1 12.567700722538566 21.694691105 1.6611300850000001
399 6 11.60864682080483 20.03356102 3.3222601700000003
400 7 14.485808526006037 21.694691105 0.0
401 2 15.444862427739775 20.03356102 1.6611300850000001
402 8 14.485808526006037 21.694691105 3.3222601700000003
403 9 11.60864682080483 23.35582119 0.0
404 3 12.567700722538566 25.016951275 1.6611300850000001
405 10 11.60864682080483 23.35582119 3.3222601700000003
406 11 14.485808526006037 25.016951275 0.0
407 4 15.444862427739775 23.35582119 1.6611300850000001
408 12 14.485808526006037 25.016951275 3.3222601700000003
409 5 11.60864682080483 26.67808136 0.0
410 1 12.567700722538566 28.339211445 1.6611300850000001
411 6 11.60864682080483 26.67808136 3.3222601700000003
412 7 14.485808526006037 28.339211445 0.0
413 2 15.444862427739775 26.67808136 1.6611300850000001
414 8 14.485808526006037 28.339211445 3.3222601700000003
415 9 11.60864682080483 30.00034153 0.0
416 3 12.567700722538566 31.661471615 1.6611300850000001
417 10 11.60864682080483 30.00034153 3.3222601700000003
418 11 14.485808526006037 31.661471615 0.0
419 4 15.444862427739775 30.00034153 1.6611300850000001
420 12 14.485808526006037 31.661471615 3.3222601700000003
421 5 11.60864682080483 33.3226017 0.0
422 1 12.567700722538566 34.983731784999996 1.6611300850000001
423 6 11.60864682080483 33.3226017 3.3222601700000003
424 7 14.485808526006037 34.983731784999996 0.0
425 2 15.444862427739775 33.3226017 1.6611300850000001
426 8 14.485808526006037 34.983731784999996 3.3222601700000003
427 9 11.60864682080483 36.64486187 0.0
428 3 12.567700722538566 38.305991955 1.6611300850000001
429 10 11.60864682080483 36.64486187 3.3222601700000003
430 11 14.485808526006037 38.305991955 0.0
431 4 15.444862427739775 36.64486187 1.6611300850000001
432 12 14.485808526006037 38.305991955 3.3222601700000003
433 5 11.60864682080483 39.96712204 0.0
434 1 12.567700722538566 41.628252124999996 1.6611300850000001
435 6 11.60864682080483 39.96712204 3.3222601700000003
436 7 14.485808526006037 41.628252124999996 0.0
437 2 15.444862427739775 39.96712204 1.6611300850000001
438 8 14.485808526006037 41.628252124999996 3.3222601700000003
439 9 11.60864682080483 43.28938221 0.0
440 3 12.567700722538566 44.950512295 1.6611300850000001
441 10 11.60864682080483 43.28938221 3.3222601700000003
442 11 14.485808526006037 44.950512295 0.0
443 4 15.444862427739775 43.28938221 1.6611300850000001
444 12 14.485808526006037 44.950512295 3.3222601700000003
445 5 11.60864682080483 46.61164238 0.0
446 1 12.567700722538566 48.272772464999996 1.6611300850000001
447 6 11.60864682080483 46.61164238 3.3222601700000003
448 7 14.485808526006037 48.272772464999996 0.0
449 2 15.444862427739775 46.61164238 1.6611300850000001
450 8 14.485808526006037 48.272772464999996 3.3222601700000003
451 9 11.60864682080483 49.93390255 0.0
452 3 12.567700722538566 51.595032635 1.6611300850000001
453 10 11.60864682080483 49.93390255 3.3222601700000003
454 11 14.485808526006037 51.595032635 0.0
455 4 15.444862427739775 49.93390255 1.6611300850000001
456 12 14.485808526006037 51.595032635 3.3222601700000003
457 5 11.60864682080483 53.25616272 0.0
458 1 12.567700722538566 54.917292804999995 1.6611300850000001
459 6 11.60864682080483 53.25616272 3.3222601700000003
460 7 14.485808526006037 54.917292804999995 0.0
461 2 15.444862427739775 53.25616272 1.6611300850000001
462 8 14.485808526006037 54.917292804999995 3.3222601700000003
463 9 11.60864682080483 56.57842289 0.0
464 3 12.567700722538566 58.239552975 1.6611300850000001
465 10 11.60864682080483 56.57842289 3.3222601700000003
466 11 14.485808526006037 58.239552975 0.0
467 4 15.444862427739775 56.57842289 1.6611300850000001
468 12 14.485808526006037 58.239552975 3.3222601700000003
469 5 11.60864682080483 59.90068306 0.0
470 1 12.567700722538566 61.561813144999995 1.6611300850000001
471 6 11.60864682080483 59.90068306 3.3222601700000003
472 7 14.485808526006037 61.561813144999995 0.0
473 2 15.444862427739775 59.90068306 1.6611300850000001
474 8 14.485808526006037 61.561813144999995 3.3222601700000003
475 9 11.60864682080483 63.22294323 0.0
476 3 12.567700722538566 64.884073315 1.6611300850000001
477 10 11.60864682080483 63.22294323 3.3222601700000003
478 11 14.485808526006037 64.884073315 0.0
479 4 15.444862427739775 63.22294323 1.6611300850000001
480 12 14.485808526006037 64.884073315 3.3222601700000003
481 5 11.60864682080483 66.54520339999999 0.0
482 1 12.567700722538566 68.20633348499999 1.6611300850000001
483 6 11.60864682080483 66.54520339999999 3.3222601700000003
484 7 14.485808526006037 68.20633348499999 0.0
485 2 15.444862427739775 66.54520339999999 1.6611300850000001
486 8 14.485808526006037 68.20633348499999 3.3222601700000003
487 9 11.60864682080483 69.86746356999998 0.0
488 3 12.567700722538566 71.528593655 1.6611300850000001
489 10 11.60864682080483 69.86746356999998 3.3222601700000003
490 11 14.485808526006037 71.528593655 0.0
491 4 15.444862427739775 69.86746356999998 1.6611300850000001
492 12 14.485808526006037 71.528593655 3.3222601700000003
493 5 11.60864682080483 73.18972373999999 0.0
494 1 12.567700722538566 74.85085382499999 1.6611300850000001
495 6 11.60864682080483 73.18972373999999 3.3222601700000003
496 7 14.485808526006037 74.85085382499999 0.0
497 2 15.444862427739775 73.18972373999999 1.6611300850000001
498 8 14.485808526006037 74.85085382499999 3.3222601700000003
499 9 11.60864682080483 76.51198391 0.0
500 3 12.567700722538566 78.173113995 1.6611300850000001
501 10 11.60864682080483 76.51198391 3.3222601700000003
502 11 14.485808526006037 78.173113995 0.0
503 4 15.444862427739775 76.51198391 1.6611300850000001
504 12 14.485808526006037 78.173113995 3.3222601700000003
505 5 11.60864682080483 79.83424407999999 0.0
506 1 12.567700722538566 81.49537416499999 1.6611300850000001
507 6 11.60864682080483 79.83424407999999 3.3222601700000003
508 7 14.485808526006037 81.49537416499999 0.0
509 2 15.444862427739775 79.83424407999999 1.6611300850000001
510 8 14.485808526006037 81.49537416499999 3.3222601700000003
511 9 11.60864682080483 83.15650424999998 0.0
512 3 12.567700722538566 84.817634335 1.6611300850000001
513 10 11.60864682080483 83.15650424999998 3.3222601700000003
514 11 14.485808526006037 84.817634335 0.0
515 4 15.444862427739775 83.15650424999998 1.6611300850000001
516 12 14.485808526006037 84.817634335 3.3222601700000003
517 5 11.60864682080483 86.47876441999999 0.0
518 1 12.567700722538566 88.13989450499999 1.6611300850000001
519 6 11.60864682080483 86.47876441999999 3.3222601700000003
520 7 14.485808526006037 88.13989450499999 0.0
521 2 15.444862427739775 86.47876441999999 1.6611300850000001
522 8 14.485808526006037 88.13989450499999 3.3222601700000003
523 9 11.60864682080483 89.80102459 0.0
524 3 12.567700722538566 91.462154675 1.6611300850000001
525 10 11.60864682080483 89.80102459 3.3222601700000003
526 11 14.485808526006037 91.462154675 0.0
527 4 15.444862427739775 89.80102459 1.6611300850000001
528 12 14.485808526006037 91.462154675 3.3222601700000003
529 5 11.60864682080483 93.12328475999999 0.0
530 1 12.567700722538566 94.78441484499999 1.6611300850000001
531 6 11.60864682080483 93.12328475999999 3.3222601700000003
532 7 14.485808526006037 94.78441484499999 0.0
533 2 15.444862427739775 93.12328475999999 1.6611300850000001
534 8 14.485808526006037 94.78441484499999 3.3222601700000003
535 9 11.60864682080483 96.44554492999998 0.0
536 3 12.567700722538566 98.106675015 1.6611300850000001
537 10 11.60864682080483 96.44554492999998 3.3222601700000003
538 11 14.485808526006037 98.106675015 0.0
539 4 15.444862427739775 96.44554492999998 1.6611300850000001
540 12 14.485808526006037 98.106675015 3.3222601700000003
541 5 17.36297023120725 0.1 0.0
542 1 18.322024132940985 1.761130085 1.6611300850000001
543 6 17.36297023120725 0.1 3.3222601700000003
544 7 20.240131936408456 1.761130085 0.0
545 2 21.199185838142192 0.1 1.6611300850000001
546 8 20.240131936408456 1.761130085 3.3222601700000003
547 9 17.36297023120725 3.42226017 0.0
548 3 18.322024132940985 5.083390254999999 1.6611300850000001
549 10 17.36297023120725 3.42226017 3.3222601700000003
550 11 20.240131936408456 5.083390254999999 0.0
551 4 21.199185838142192 3.42226017 1.6611300850000001
552 12 20.240131936408456 5.083390254999999 3.3222601700000003
553 5 17.36297023120725 6.744520339999999 0.0
554 1 18.322024132940985 8.405650425 1.6611300850000001
555 6 17.36297023120725 6.744520339999999 3.3222601700000003
556 7 20.240131936408456 8.405650425 0.0
557 2 21.199185838142192 6.744520339999999 1.6611300850000001
558 8 20.240131936408456 8.405650425 3.3222601700000003
559 9 17.36297023120725 10.06678051 0.0
560 3 18.322024132940985 11.727910594999999 1.6611300850000001
561 10 17.36297023120725 10.06678051 3.3222601700000003
562 11 20.240131936408456 11.727910594999999 0.0
563 4 21.199185838142192 10.06678051 1.6611300850000001
564 12 20.240131936408456 11.727910594999999 3.3222601700000003
565 5 17.36297023120725 13.389040679999999 0.0
566 1 18.322024132940985 15.050170764999999 1.6611300850000001
567 6 17.36297023120725 13.389040679999999 3.3222601700000003
568 7 20.240131936408456 15.050170764999999 0.0
569 2 21.199185838142192 13.389040679999999 1.6611300850000001
570 8 20.240131936408456 15.050170764999999 3.3222601700000003
571 9 17.36297023120725 16.71130085 0.0
572 3 18.322024132940985 18.372430935 1.6611300850000001
573 10 17.36297023120725 16.71130085 3.3222601700000003
574 11 20.240131936408456 18.372430935 0.0
575 4 21.199185838142192 16.71130085 1.6611300850000001
576 12 20.240131936408456 18.372430935 3.3222601700000003
577 5 17.36297023120725 20.03356102 0.0
578 1 18.322024132940985 21.694691105 1.6611300850000001