LAMMPS structure data file for MoS2 with 3 layers

9180 atoms
12 atom types

0.0 97.82349797684107 xlo xhi
0.0 99.6678051 ylo yhi
-20 30.314434825 zlo zhi

Masses 

1 95.95 #Mo
2 95.95 #Mo
3 95.95 #Mo
4 95.95 #Mo
5 78.971 #Se
6 78.971 #Se
7 78.971 #Se
8 78.971 #Se
9 78.971 #Se
10 78.971 #Se
11 78.971 #Se
12 78.971 #Se

Atoms

1 5 0.1 0.1 0.0
2 1 1.059053901733736 1.761130085 1.6611300850000001
3 6 0.1 0.1 3.3222601700000003
4 7 2.977161705201208 1.761130085 0.0
5 2 3.936215606934944 0.1 1.6611300850000001
6 8 2.977161705201208 1.761130085 3.3222601700000003
7 9 0.1 3.42226017 0.0
8 3 1.059053901733736 5.083390254999999 1.6611300850000001
9 10 0.1 3.42226017 3.3222601700000003
10 11 2.977161705201208 5.083390254999999 0.0
11 4 3.936215606934944 3.42226017 1.6611300850000001
12 12 2.977161705201208 5.083390254999999 3.3222601700000003
13 5 1.059053901733736 1.761130085 6.771478275
14 1 0.1 0.1 8.43260836
15 6 1.059053901733736 1.761130085 10.093738445
16 7 3.936215606934944 0.1 6.771478275
17 2 2.977161705201208 1.761130085 8.43260836
18 8 3.936215606934944 0.1 10.093738445
19 9 1.059053901733736 5.083390254999999 6.771478275
20 3 0.1 3.42226017 8.43260836
21 10 1.059053901733736 5.083390254999999 10.093738445
22 11 3.936215606934944 3.42226017 6.771478275
23 4 2.977161705201208 5.083390254999999 8.43260836
24 12 3.936215606934944 3.42226017 10.093738445
25 5 0.1 0.1 13.54295655
26 1 1.059053901733736 1.761130085 15.204086635
27 6 0.1 0.1 16.86521672
28 7 2.977161705201208 1.761130085 13.54295655
29 2 3.936215606934944 0.1 15.204086635
30 8 2.977161705201208 1.761130085 16.86521672
31 9 0.1 3.42226017 13.54295655
32 3 1.059053901733736 5.083390254999999 15.204086635
33 10 0.1 3.42226017 16.86521672
34 11 2.977161705201208 5.083390254999999 13.54295655
35 4 3.936215606934944 3.42226017 15.204086635
36 12 2.977161705201208 5.083390254999999 16.86521672
37 5 0.1 6.744520339999999 0.0
38 1 1.059053901733736 8.405650425 1.6611300850000001
39 6 0.1 6.744520339999999 3.3222601700000003
40 7 2.977161705201208 8.405650425 0.0
41 2 3.936215606934944 6.744520339999999 1.6611300850000001
42 8 2.977161705201208 8.405650425 3.3222601700000003
43 9 0.1 10.06678051 0.0
44 3 1.059053901733736 11.727910594999999 1.6611300850000001
45 10 0.1 10.06678051 3.3222601700000003
46 11 2.977161705201208 11.727910594999999 0.0
47 4 3.936215606934944 10.06678051 1.6611300850000001
48 12 2.977161705201208 11.727910594999999 3.3222601700000003
49 5 1.059053901733736 8.405650425 6.771478275
50 1 0.1 6.744520339999999 8.43260836
51 6 1.059053901733736 8.405650425 10.093738445
52 7 3.936215606934944 6.744520339999999 6.771478275
53 2 2.977161705201208 8.405650425 8.43260836
54 8 3.936215606934944 6.744520339999999 10.093738445
55 9 1.059053901733736 11.727910594999999 6.771478275
56 3 0.1 10.06678051 8.43260836
57 10 1.059053901733736 11.727910594999999 10.093738445
58 11 3.936215606934944 10.06678051 6.771478275
59 4 2.977161705201208 11.727910594999999 8.43260836
60 12 3.936215606934944 10.06678051 10.093738445
61 5 0.1 6.744520339999999 13.54295655
62 1 1.059053901733736 8.405650425 15.204086635
63 6 0.1 6.744520339999999 16.86521672
64 7 2.977161705201208 8.405650425 13.54295655
65 2 3.936215606934944 6.744520339999999 15.204086635
66 8 2.977161705201208 8.405650425 16.86521672
67 9 0.1 10.06678051 13.54295655
68 3 1.059053901733736 11.727910594999999 15.204086635
69 10 0.1 10.06678051 16.86521672
70 11 2.977161705201208 11.727910594999999 13.54295655
71 4 3.936215606934944 10.06678051 15.204086635
72 12 2.977161705201208 11.727910594999999 16.86521672
73 5 0.1 13.389040679999999 0.0
74 1 1.059053901733736 15.050170764999999 1.6611300850000001
75 6 0.1 13.389040679999999 3.3222601700000003
76 7 2.977161705201208 15.050170764999999 0.0
77 2 3.936215606934944 13.389040679999999 1.6611300850000001
78 8 2.977161705201208 15.050170764999999 3.3222601700000003
79 9 0.1 16.71130085 0.0
80 3 1.059053901733736 18.372430935 1.6611300850000001
81 10 0.1 16.71130085 3.3222601700000003
82 11 2.977161705201208 18.372430935 0.0
83 4 3.936215606934944 16.71130085 1.6611300850000001
84 12 2.977161705201208 18.372430935 3.3222601700000003
85 5 1.059053901733736 15.050170764999999 6.771478275
86 1 0.1 13.389040679999999 8.43260836
87 6 1.059053901733736 15.050170764999999 10.093738445
88 7 3.936215606934944 13.389040679999999 6.771478275
89 2 2.977161705201208 15.050170764999999 8.43260836
90 8 3.936215606934944 13.389040679999999 10.093738445
91 9 1.059053901733736 18.372430935 6.771478275
92 3 0.1 16.71130085 8.43260836
93 10 1.059053901733736 18.372430935 10.093738445
94 11 3.936215606934944 16.71130085 6.771478275
95 4 2.977161705201208 18.372430935 8.43260836
96 12 3.936215606934944 16.71130085 10.093738445
97 5 0.1 13.389040679999999 13.54295655
98 1 1.059053901733736 15.050170764999999 15.204086635
99 6 0.1 13.389040679999999 16.86521672
100 7 2.977161705201208 15.050170764999999 13.54295655
101 2 3.936215606934944 13.389040679999999 15.204086635
102 8 2.977161705201208 15.050170764999999 16.86521672
103 9 0.1 16.71130085 13.54295655
104 3 1.059053901733736 18.372430935 15.204086635
105 10 0.1 16.71130085 16.86521672
106 11 2.977161705201208 18.372430935 13.54295655
107 4 3.936215606934944 16.71130085 15.204086635
108 12 2.977161705201208 18.372430935 16.86521672
109 5 0.1 20.03356102 0.0
110 1 1.059053901733736 21.694691105 1.6611300850000001
111 6 0.1 20.03356102 3.3222601700000003
112 7 2.977161705201208 21.694691105 0.0
113 2 3.936215606934944 20.03356102 1.6611300850000001
114 8 2.977161705201208 21.694691105 3.3222601700000003
115 9 0.1 23.35582119 0.0
116 3 1.059053901733736 25.016951275 1.6611300850000001
117 10 0.1 23.35582119 3.3222601700000003
118 11 2.977161705201208 25.016951275 0.0
119 4 3.936215606934944 23.35582119 1.6611300850000001
120 12 2.977161705201208 25.016951275 3.3222601700000003
121 5 1.059053901733736 21.694691105 6.771478275
122 1 0.1 20.03356102 8.43260836
123 6 1.059053901733736 21.694691105 10.093738445
124 7 3.936215606934944 20.03356102 6.771478275
125 2 2.977161705201208 21.694691105 8.43260836
126 8 3.936215606934944 20.03356102 10.093738445
127 9 1.059053901733736 25.016951275 6.771478275
128 3 0.1 23.35582119 8.43260836
129 10 1.059053901733736 25.016951275 10.093738445
130 11 3.936215606934944 23.35582119 6.771478275
131 4 2.977161705201208 25.016951275 8.43260836
132 12 3.936215606934944 23.35582119 10.093738445
133 5 0.1 20.03356102 13.54295655
134 1 1.059053901733736 21.694691105 15.204086635
135 6 0.1 20.03356102 16.86521672
136 7 2.977161705201208 21.694691105 13.54295655
137 2 3.936215606934944 20.03356102 15.204086635
138 8 2.977161705201208 21.694691105 16.86521672
139 9 0.1 23.35582119 13.54295655
140 3 1.059053901733736 25.016951275 15.204086635
141 10 0.1 23.35582119 16.86521672
142 11 2.977161705201208 25.016951275 13.54295655
143 4 3.936215606934944 23.35582119 15.204086635
144 12 2.977161705201208 25.016951275 16.86521672
145 5 0.1 26.67808136 0.0
146 1 1.059053901733736 28.339211445 1.6611300850000001
147 6 0.1 26.67808136 3.3222601700000003
148 7 2.977161705201208 28.339211445 0.0
149 2 3.936215606934944 26.67808136 1.6611300850000001
150 8 2.977161705201208 28.339211445 3.3222601700000003
151 9 0.1 30.00034153 0.0
152 3 1.059053901733736 31.661471615 1.6611300850000001
153 10 0.1 30.00034153 3.3222601700000003
154 11 2.977161705201208 31.661471615 0.0
155 4 3.936215606934944 30.00034153 1.6611300850000001
156 12 2.977161705201208 31.661471615 3.3222601700000003
157 5 1.059053901733736 28.339211445 6.771478275
158 1 0.1 26.67808136 8.43260836
159 6 1.059053901733736 28.339211445 10.093738445
160 7 3.936215606934944 26.67808136 6.771478275
161 2 2.977161705201208 28.339211445 8.43260836
162 8 3.936215606934944 26.67808136 10.093738445
163 9 1.059053901733736 31.661471615 6.771478275
164 3 0.1 30.00034153 8.43260836
165 10 1.059053901733736 31.661471615 10.093738445
166 11 3.936215606934944 30.00034153 6.771478275
167 4 2.977161705201208 31.661471615 8.43260836
168 12 3.936215606934944 30.00034153 10.093738445
169 5 0.1 26.67808136 13.54295655
170 1 1.059053901733736 28.339211445 15.204086635
171 6 0.1 26.67808136 16.86521672
172 7 2.977161705201208 28.339211445 13.54295655
173 2 3.936215606934944 26.67808136 15.204086635
174 8 2.977161705201208 28.339211445 16.86521672
175 9 0.1 30.00034153 13.54295655
176 3 1.059053901733736 31.661471615 15.204086635
177 10 0.1 30.00034153 16.86521672
178 11 2.977161705201208 31.661471615 13.54295655
179 4 3.936215606934944 30.00034153 15.204086635
180 12 2.977161705201208 31.661471615 16.86521672
181 5 0.1 33.3226017 0.0
182 1 1.059053901733736 34.983731784999996 1.6611300850000001
183 6 0.1 33.3226017 3.3222601700000003
184 7 2.977161705201208 34.983731784999996 0.0
185 2 3.936215606934944 33.3226017 1.6611300850000001
186 8 2.977161705201208 34.983731784999996 3.3222601700000003
187 9 0.1 36.64486187 0.0
188 3 1.059053901733736 38.305991955 1.6611300850000001
189 10 0.1 36.64486187 3.3222601700000003
190 11 2.977161705201208 38.305991955 0.0
191 4 3.936215606934944 36.64486187 1.6611300850000001
192 12 2.977161705201208 38.305991955 3.3222601700000003
193 5 1.059053901733736 34.983731784999996 6.771478275
194 1 0.1 33.3226017 8.43260836
195 6 1.059053901733736 34.983731784999996 10.093738445
196 7 3.936215606934944 33.3226017 6.771478275
197 2 2.977161705201208 34.983731784999996 8.43260836
198 8 3.936215606934944 33.3226017 10.093738445
199 9 1.059053901733736 38.305991955 6.771478275
200 3 0.1 36.64486187 8.43260836
201 10 1.059053901733736 38.305991955 10.093738445
202 11 3.936215606934944 36.64486187 6.771478275
203 4 2.977161705201208 38.305991955 8.43260836
204 12 3.936215606934944 36.64486187 10.093738445
205 5 0.1 33.3226017 13.54295655
206 1 1.059053901733736 34.983731784999996 15.204086635
207 6 0.1 33.3226017 16.86521672
208 7 2.977161705201208 34.983731784999996 13.54295655
209 2 3.936215606934944 33.3226017 15.204086635
210 8 2.977161705201208 34.983731784999996 16.86521672
211 9 0.1 36.64486187 13.54295655
212 3 1.059053901733736 38.305991955 15.204086635
213 10 0.1 36.64486187 16.86521672
214 11 2.977161705201208 38.305991955 13.54295655
215 4 3.936215606934944 36.64486187 15.204086635
216 12 2.977161705201208 38.305991955 16.86521672
217 5 0.1 39.96712204 0.0
218 1 1.059053901733736 41.628252124999996 1.6611300850000001
219 6 0.1 39.96712204 3.3222601700000003
220 7 2.977161705201208 41.628252124999996 0.0
221 2 3.936215606934944 39.96712204 1.6611300850000001
222 8 2.977161705201208 41.628252124999996 3.3222601700000003
223 9 0.1 43.28938221 0.0
224 3 1.059053901733736 44.950512295 1.6611300850000001
225 10 0.1 43.28938221 3.3222601700000003
226 11 2.977161705201208 44.950512295 0.0
227 4 3.936215606934944 43.28938221 1.6611300850000001
228 12 2.977161705201208 44.950512295 3.3222601700000003
229 5 1.059053901733736 41.628252124999996 6.771478275
230 1 0.1 39.96712204 8.43260836
231 6 1.059053901733736 41.628252124999996 10.093738445
232 7 3.936215606934944 39.96712204 6.771478275
233 2 2.977161705201208 41.628252124999996 8.43260836
234 8 3.936215606934944 39.96712204 10.093738445
235 9 1.059053901733736 44.950512295 6.771478275
236 3 0.1 43.28938221 8.43260836
237 10 1.059053901733736 44.950512295 10.093738445
238 11 3.936215606934944 43.28938221 6.771478275
239 4 2.977161705201208 44.950512295 8.43260836
240 12 3.936215606934944 43.28938221 10.093738445
241 5 0.1 39.96712204 13.54295655
242 1 1.059053901733736 41.628252124999996 15.204086635
243 6 0.1 39.96712204 16.86521672
244 7 2.977161705201208 41.628252124999996 13.54295655
245 2 3.936215606934944 39.96712204 15.204086635
246 8 2.977161705201208 41.628252124999996 16.86521672
247 9 0.1 43.28938221 13.54295655
248 3 1.059053901733736 44.950512295 15.204086635
249 10 0.1 43.28938221 16.86521672
250 11 2.977161705201208 44.950512295 13.54295655
251 4 3.936215606934944 43.28938221 15.204086635
252 12 2.977161705201208 44.950512295 16.86521672
253 5 0.1 46.61164238 0.0
254 1 1.059053901733736 48.272772464999996 1.6611300850000001
255 6 0.1 46.61164238 3.3222601700000003
256 7 2.977161705201208 48.272772464999996 0.0
257 2 3.936215606934944 46.61164238 1.6611300850000001
258 8 2.977161705201208 48.272772464999996 3.3222601700000003
259 9 0.1 49.93390255 0.0
260 3 1.059053901733736 51.595032635 1.6611300850000001
261 10 0.1 49.93390255 3.3222601700000003
262 11 2.977161705201208 51.595032635 0.0
263 4 3.936215606934944 49.93390255 1.6611300850000001
264 12 2.977161705201208 51.595032635 3.3222601700000003
265 5 1.059053901733736 48.272772464999996 6.771478275
266 1 0.1 46.61164238 8.43260836
267 6 1.059053901733736 48.272772464999996 10.093738445
268 7 3.936215606934944 46.61164238 6.771478275
269 2 2.977161705201208 48.272772464999996 8.43260836
270 8 3.936215606934944 46.61164238 10.093738445
271 9 1.059053901733736 51.595032635 6.771478275
272 3 0.1 49.93390255 8.43260836
273 10 1.059053901733736 51.595032635 10.093738445
274 11 3.936215606934944 49.93390255 6.771478275
275 4 2.977161705201208 51.595032635 8.43260836
276 12 3.936215606934944 49.93390255 10.093738445
277 5 0.1 46.61164238 13.54295655
278 1 1.059053901733736 48.272772464999996 15.204086635
279 6 0.1 46.61164238 16.86521672
280 7 2.977161705201208 48.272772464999996 13.54295655
281 2 3.936215606934944 46.61164238 15.204086635
282 8 2.977161705201208 48.272772464999996 16.86521672
283 9 0.1 49.93390255 13.54295655
284 3 1.059053901733736 51.595032635 15.204086635
285 10 0.1 49.93390255 16.86521672
286 11 2.977161705201208 51.595032635 13.54295655
287 4 3.936215606934944 49.93390255 15.204086635
288 12 2.977161705201208 51.595032635 16.86521672
289 5 0.1 53.25616272 0.0
290 1 1.059053901733736 54.917292804999995 1.6611300850000001
291 6 0.1 53.25616272 3.3222601700000003
292 7 2.977161705201208 54.917292804999995 0.0
293 2 3.936215606934944 53.25616272 1.6611300850000001
294 8 2.977161705201208 54.917292804999995 3.3222601700000003
295 9 0.1 56.57842289 0.0
296 3 1.059053901733736 58.239552975 1.6611300850000001
297 10 0.1 56.57842289 3.3222601700000003
298 11 2.977161705201208 58.239552975 0.0
299 4 3.936215606934944 56.57842289 1.6611300850000001
300 12 2.977161705201208 58.239552975 3.3222601700000003
301 5 1.059053901733736 54.917292804999995 6.771478275
302 1 0.1 53.25616272 8.43260836
303 6 1.059053901733736 54.917292804999995 10.093738445
304 7 3.936215606934944 53.25616272 6.771478275
305 2 2.977161705201208 54.917292804999995 8.43260836
306 8 3.936215606934944 53.25616272 10.093738445
307 9 1.059053901733736 58.239552975 6.771478275
308 3 0.1 56.57842289 8.43260836
309 10 1.059053901733736 58.239552975 10.093738445
310 11 3.936215606934944 56.57842289 6.771478275
311 4 2.977161705201208 58.239552975 8.43260836
312 12 3.936215606934944 56.57842289 10.093738445
313 5 0.1 53.25616272 13.54295655
314 1 1.059053901733736 54.917292804999995 15.204086635
315 6 0.1 53.25616272 16.86521672
316 7 2.977161705201208 54.917292804999995 13.54295655
317 2 3.936215606934944 53.25616272 15.204086635
318 8 2.977161705201208 54.917292804999995 16.86521672
319 9 0.1 56.57842289 13.54295655
320 3 1.059053901733736 58.239552975 15.204086635
321 10 0.1 56.57842289 16.86521672
322 11 2.977161705201208 58.239552975 13.54295655
323 4 3.936215606934944 56.57842289 15.204086635
324 12 2.977161705201208 58.239552975 16.86521672
325 5 0.1 59.90068306 0.0
326 1 1.059053901733736 61.561813144999995 1.6611300850000001
327 6 0.1 59.90068306 3.3222601700000003
328 7 2.977161705201208 61.561813144999995 0.0
329 2 3.936215606934944 59.90068306 1.6611300850000001
330 8 2.977161705201208 61.561813144999995 3.3222601700000003
331 9 0.1 63.22294323 0.0
332 3 1.059053901733736 64.884073315 1.6611300850000001
333 10 0.1 63.22294323 3.3222601700000003
334 11 2.977161705201208 64.884073315 0.0
335 4 3.936215606934944 63.22294323 1.6611300850000001
336 12 2.977161705201208 64.884073315 3.3222601700000003
337 5 1.059053901733736 61.561813144999995 6.771478275
338 1 0.1 59.90068306 8.43260836
339 6 1.059053901733736 61.561813144999995 10.093738445
340 7 3.936215606934944 59.90068306 6.771478275
341 2 2.977161705201208 61.561813144999995 8.43260836
342 8 3.936215606934944 59.90068306 10.093738445
343 9 1.059053901733736 64.884073315 6.771478275
344 3 0.1 63.22294323 8.43260836
345 10 1.059053901733736 64.884073315 10.093738445
346 11 3.936215606934944 63.22294323 6.771478275
347 4 2.977161705201208 64.884073315 8.43260836
348 12 3.936215606934944 63.22294323 10.093738445
349 5 0.1 59.90068306 13.54295655
350 1 1.059053901733736 61.561813144999995 15.204086635
351 6 0.1 59.90068306 16.86521672
352 7 2.977161705201208 61.561813144999995 13.54295655
353 2 3.936215606934944 59.90068306 15.204086635
354 8 2.977161705201208 61.561813144999995 16.86521672
355 9 0.1 63.22294323 13.54295655
356 3 1.059053901733736 64.884073315 15.204086635
357 10 0.1 63.22294323 16.86521672
358 11 2.977161705201208 64.884073315 13.54295655
359 4 3.936215606934944 63.22294323 15.204086635
360 12 2.977161705201208 64.884073315 16.86521672
361 5 0.1 66.54520339999999 0.0
362 1 1.059053901733736 68.20633348499999 1.6611300850000001
363 6 0.1 66.54520339999999 3.3222601700000003
364 7 2.977161705201208 68.20633348499999 0.0
365 2 3.936215606934944 66.54520339999999 1.6611300850000001
366 8 2.977161705201208 68.20633348499999 3.3222601700000003
367 9 0.1 69.86746356999998 0.0
368 3 1.059053901733736 71.528593655 1.6611300850000001
369 10 0.1 69.86746356999998 3.3222601700000003
370 11 2.977161705201208 71.528593655 0.0
371 4 3.936215606934944 69.86746356999998 1.6611300850000001
372 12 2.977161705201208 71.528593655 3.3222601700000003
373 5 1.059053901733736 68.20633348499999 6.771478275
374 1 0.1 66.54520339999999 8.43260836
375 6 1.059053901733736 68.20633348499999 10.093738445
376 7 3.936215606934944 66.54520339999999 6.771478275
377 2 2.977161705201208 68.20633348499999 8.43260836
378 8 3.936215606934944 66.54520339999999 10.093738445
379 9 1.059053901733736 71.528593655 6.771478275
380 3 0.1 69.86746356999998 8.43260836
381 10 1.059053901733736 71.528593655 10.093738445
382 11 3.936215606934944 69.86746356999998 6.771478275
383 4 2.977161705201208 71.528593655 8.43260836
384 12 3.936215606934944 69.86746356999998 10.093738445
385 5 0.1 66.54520339999999 13.54295655
386 1 1.059053901733736 68.20633348499999 15.204086635
387 6 0.1 66.54520339999999 16.86521672
388 7 2.977161705201208 68.20633348499999 13.54295655
389 2 3.936215606934944 66.54520339999999 15.204086635
390 8 2.977161705201208 68.20633348499999 16.86521672
391 9 0.1 69.86746356999998 13.54295655
392 3 1.059053901733736 71.528593655 15.204086635
393 10 0.1 69.86746356999998 16.86521672
394 11 2.977161705201208 71.528593655 13.54295655
395 4 3.936215606934944 69.86746356999998 15.204086635
396 12 2.977161705201208 71.528593655 16.86521672
397 5 0.1 73.18972373999999 0.0
398 1 1.059053901733736 74.85085382499999 1.6611300850000001
399 6 0.1 73.18972373999999 3.3222601700000003
400 7 2.977161705201208 74.85085382499999 0.0
401 2 3.936215606934944 73.18972373999999 1.6611300850000001
402 8 2.977161705201208 74.85085382499999 3.3222601700000003
403 9 0.1 76.51198391 0.0
404 3 1.059053901733736 78.173113995 1.6611300850000001
405 10 0.1 76.51198391 3.3222601700000003
406 11 2.977161705201208 78.173113995 0.0
407 4 3.936215606934944 76.51198391 1.6611300850000001
408 12 2.977161705201208 78.173113995 3.3222601700000003
409 5 1.059053901733736 74.85085382499999 6.771478275
410 1 0.1 73.18972373999999 8.43260836
411 6 1.059053901733736 74.85085382499999 10.093738445
412 7 3.936215606934944 73.18972373999999 6.771478275
413 2 2.977161705201208 74.85085382499999 8.43260836
414 8 3.936215606934944 73.18972373999999 10.093738445
415 9 1.059053901733736 78.173113995 6.771478275
416 3 0.1 76.51198391 8.43260836
417 10 1.059053901733736 78.173113995 10.093738445
418 11 3.936215606934944 76.51198391 6.771478275
419 4 2.977161705201208 78.173113995 8.43260836
420 12 3.936215606934944 76.51198391 10.093738445
421 5 0.1 73.18972373999999 13.54295655
422 1 1.059053901733736 74.85085382499999 15.204086635
423 6 0.1 73.18972373999999 16.86521672
424 7 2.977161705201208 74.85085382499999 13.54295655
425 2 3.936215606934944 73.18972373999999 15.204086635
426 8 2.977161705201208 74.85085382499999 16.86521672
427 9 0.1 76.51198391 13.54295655
428 3 1.059053901733736 78.173113995 15.204086635
429 10 0.1 76.51198391 16.86521672
430 11 2.977161705201208 78.173113995 13.54295655
431 4 3.936215606934944 76.51198391 15.204086635
432 12 2.977161705201208 78.173113995 16.86521672
433 5 0.1 79.83424407999999 0.0
434 1 1.059053901733736 81.49537416499999 1.6611300850000001
435 6 0.1 79.83424407999999 3.3222601700000003
436 7 2.977161705201208 81.49537416499999 0.0
437 2 3.936215606934944 79.83424407999999 1.6611300850000001
438 8 2.977161705201208 81.49537416499999 3.3222601700000003
439 9 0.1 83.15650424999998 0.0
440 3 1.059053901733736 84.817634335 1.6611300850000001
441 10 0.1 83.15650424999998 3.3222601700000003
442 11 2.977161705201208 84.817634335 0.0
443 4 3.936215606934944 83.15650424999998 1.6611300850000001
444 12 2.977161705201208 84.817634335 3.3222601700000003
445 5 1.059053901733736 81.49537416499999 6.771478275
446 1 0.1 79.83424407999999 8.43260836
447 6 1.059053901733736 81.49537416499999 10.093738445
448 7 3.936215606934944 79.83424407999999 6.771478275
449 2 2.977161705201208 81.49537416499999 8.43260836
450 8 3.936215606934944 79.83424407999999 10.093738445
451 9 1.059053901733736 84.817634335 6.771478275
452 3 0.1 83.15650424999998 8.43260836
453 10 1.059053901733736 84.817634335 10.093738445
454 11 3.936215606934944 83.15650424999998 6.771478275
455 4 2.977161705201208 84.817634335 8.43260836
456 12 3.936215606934944 83.15650424999998 10.093738445
457 5 0.1 79.83424407999999 13.54295655
458 1 1.059053901733736 81.49537416499999 15.204086635
459 6 0.1 79.83424407999999 16.86521672
460 7 2.977161705201208 81.49537416499999 13.54295655
461 2 3.936215606934944 79.83424407999999 15.204086635
462 8 2.977161705201208 81.49537416499999 16.86521672
463 9 0.1 83.15650424999998 13.54295655
464 3 1.059053901733736 84.817634335 15.204086635
465 10 0.1 83.15650424999998 16.86521672
466 11 2.977161705201208 84.817634335 13.54295655
467 4 3.936215606934944 83.15650424999998 15.204086635
468 12 2.977161705201208 84.817634335 16.86521672
469 5 0.1 86.47876441999999 0.0
470 1 1.059053901733736 88.13989450499999 1.6611300850000001
471 6 0.1 86.47876441999999 3.3222601700000003
472 7 2.977161705201208 88.13989450499999 0.0
473 2 3.936215606934944 86.47876441999999 1.6611300850000001
474 8 2.977161705201208 88.13989450499999 3.3222601700000003
475 9 0.1 89.80102459 0.0
476 3 1.059053901733736 91.462154675 1.6611300850000001
477 10 0.1 89.80102459 3.3222601700000003
478 11 2.977161705201208 91.462154675 0.0
479 4 3.936215606934944 89.80102459 1.6611300850000001
480 12 2.977161705201208 91.462154675 3.3222601700000003
481 5 1.059053901733736 88.13989450499999 6.771478275
482 1 0.1 86.47876441999999 8.43260836
483 6 1.059053901733736 88.13989450499999 10.093738445
484 7 3.936215606934944 86.47876441999999 6.771478275
485 2 2.977161705201208 88.13989450499999 8.43260836
486 8 3.936215606934944 86.47876441999999 10.093738445
487 9 1.059053901733736 91.462154675 6.771478275
488 3 0.1 89.80102459 8.43260836
489 10 1.059053901733736 91.462154675 10.093738445
490 11 3.936215606934944 89.80102459 6.771478275
491 4 2.977161705201208 91.462154675 8.43260836
492 12 3.936215606934944 89.80102459 10.093738445
493 5 0.1 86.47876441999999 13.54295655
494 1 1.059053901733736 88.13989450499999 15.204086635
495 6 0.1 86.47876441999999 16.86521672
496 7 2.977161705201208 88.13989450499999 13.54295655
497 2 3.936215606934944 86.47876441999999 15.204086635
498 8 2.977161705201208 88.13989450499999 16.86521672
499 9 0.1 89.80102459 13.54295655
500 3 1.059053901733736 91.462154675 15.204086635
501 10 0.1 89.80102459 16.86521672
502 11 2.977161705201208 91.462154675 13.54295655
503 4 3.936215606934944 89.80102459 15.204086635
504 12 2.977161705201208 91.462154675 16.86521672
505 5 0.1 93.12328475999999 0.0
506 1 1.059053901733736 94.78441484499999 1.6611300850000001
507 6 0.1 93.12328475999999 3.3222601700000003
508 7 2.977161705201208 94.78441484499999 0.0
509 2 3.936215606934944 93.12328475999999 1.6611300850000001
510 8 2.977161705201208 94.78441484499999 3.3222601700000003
511 9 0.1 96.44554492999998 0.0
512 3 1.059053901733736 98.106675015 1.6611300850000001
513 10 0.1 96.44554492999998 3.3222601700000003
514 11 2.977161705201208 98.106675015 0.0
515 4 3.936215606934944 96.44554492999998 1.6611300850000001
516 12 2.977161705201208 98.106675015 3.3222601700000003
517 5 1.059053901733736 94.78441484499999 6.771478275
518 1 0.1 93.12328475999999 8.43260836
519 6 1.059053901733736 94.78441484499999 10.093738445
520 7 3.936215606934944 93.12328475999999 6.771478275
521 2 2.977161705201208 94.78441484499999 8.43260836
522 8 3.936215606934944 93.12328475999999 10.093738445
523 9 1.059053901733736 98.106675015 6.771478275
524 3 0.1 96.44554492999998 8.43260836
525 10 1.059053901733736 98.106675015 10.093738445
526 11 3.936215606934944 96.44554492999998 6.771478275
527 4 2.977161705201208 98.106675015 8.43260836
528 12 3.936215606934944 96.44554492999998 10.093738445
529 5 0.1 93.12328475999999 13.54295655
530 1 1.059053901733736 94.78441484499999 15.204086635
531 6 0.1 93.12328475999999 16.86521672
532 7 2.977161705201208 94.78441484499999 13.54295655
533 2 3.936215606934944 93.12328475999999 15.204086635
534 8 2.977161705201208 94.78441484499999 16.86521672
535 9 0.1 96.44554492999998 13.54295655
536 3 1.059053901733736 98.106675015 15.204086635
537 10 0.1 96.44554492999998 16.86521672
538 11 2.977161705201208 98.106675015 13.54295655
539 4 3.936215606934944 96.44554492999998 15.204086635
540 12 2.977161705201208 98.106675015 16.86521672
541 5 5.854323410402415 0.1 0.0
542 1 6.813377312136151 1.761130085 1.6611300850000001
543 6 5.854323410402415 0.1 3.3222601700000003
544 7 8.731485115603624 1.761130085 0.0
545 2 9.69053901733736 0.1 1.6611300850000001
546 8 8.731485115603624 1.761130085 3.3222601700000003
547 9 5.854323410402415 3.42226017 0.0
548 3 6.813377312136151 5.083390254999999 1.6611300850000001
549 10 5.854323410402415 3.42226017 3.3222601700000003
550 11 8.731485115603624 5.083390254999999 0.0
551 4 9.69053901733736 3.42226017 1.6611300850000001
552 12 8.731485115603624 5.083390254999999 3.3222601700000003
553 5 6.813377312136151 1.761130085 6.771478275
554 1 5.854323410402415 0.1 8.43260836
555 6 6.813377312136151 1.761130085 10.093738445
556 7 9.69053901733736 0.1 6.771478275
557 2 8.731485115603624 1.761130085 8.43260836
558 8 9.69053901733736 0.1 10.093738445
559 9 6.813377312136151 5.083390254999999 6.771478275
560 3 5.854323410402415 3.42226017 8.43260836
561 10 6.813377312136151 5.083390254999999 10.093738445
562 11 9.69053901733736 3.42226017 6.771478275
563 4 8.731485115603624 5.083390254999999 8.43260836
564 12 9.69053901733736 3.42226017 10.093738445
565 5 5.854323410402415 0.1 13.54295655
566 1 6.813377312136151 1.761130085 15.204086635
567 6 5.854323410402415 0.1 16.86521672
568 7 8.731485115603624 1.761130085 13.54295655
569 2 9.69053901733736 0.1 15.204086635
570 8 8.731485115603624 1.761130085 16.86521672
571 9 5.854323410402415 3.42226017 13.54295655
572 3 6.813377312136151 5.083390254999999 15.204086635
573 10 5.854323410402415 3.42226017 16.86521672
574 11 8.731485115603624 5.083390254999999 13.54295655
575 4 9.69053901733736 3.42226017 15.204086635
576 12 8.731485115603624 5.083390254999999 16.86521672
577 5 5.854323410402415 6.744520339999999 0.0
578 1 6.813377312136151 8.405650425 1.6611300850000001
579 6 5.854323410402415 6.744520339999999 3.3222601700000003
580 7 8.731485115603624 8.405650425 0.0
581 2 9.69053901733736 6.744520339999999 1.6611300850000001
582 8 8.731485115603624 8.405650425 3.3222601700000003
583 9 5.854323410402415 10.06678051 0.0
584 3 6.813377312136151 11.727910594999999 1.6611300850000001
585 10 5.854323410402415 10.06678051 3.3222601700000003
586 11 8.731485115603624 11.727910594999999 0.0
587 4 9.69053901733736 10.06678051 1.6611300850000001
588 12 8.731485115603624 11.727910594999999 3.3222601700000003
589 5 6.813377312136151 8.405650425 6.771478275
590 1 5.854323410402415 6.744520339999999 8.43260836
591 6 6.813377312136151 8.405650425 10.093738445
592 7 9.69053901733736 6.744520339999999 6.771478275
593 2 8.731485115603624 8.405650425 8.43260836
594 8 9.69053901733736 6.744520339999999 10.093738445
595 9 6.813377312136151 11.727910594999999 6.771478275
596 3 5.854323410402415 10.06678051 8.43260836
597 10 6.813377312136151 11.727910594999999 10.093738445
598 11 9.69053901733736 10.06678051 6.771478275
599 4 8.731485115603624 11.727910594999999 8.43260836
600 12 9.69053901733736 10.06678051 10.093738445
601 5 5.854323410402415 6.744520339999999 13.54295655
602 1 6.813377312136151 8.405650425 15.204086635
603 6 5.854323410402415 6.744520339999999 16.86521672
604 7 8.731485115603624 8.405650425 13.54295655
605 2 9.69053901733736 6.744520339999999 15.204086635
606 8 8.731485115603624 8.405650425 16.86521672
607 9 5.854323410402415 10.06678051 13.54295655
608 3 6.813377312136151 11.727910594999999 15.204086635
609 10 5.854323410402415 10.06678051 16.86521672
610 11 8.731485115603624 11.727910594999999 13.54295655
611 4 9.69053901733736 10.06678051 15.204086635
612 12 8.731485115603624 11.727910594999999 16.86521672
613 5 5.854323410402415 13.389040679999999 0.0
614 1 6.813377312136151 15.050170764999999 1.6611300850000001
615 6 5.854323410402415 13.389040679999999 3.3222601700000003
616 7 8.731485115603624 15.050170764999999 0.0
617 2 9.69053901733736 13.389040679999999 1.6611300850000001
618 8 8.731485115603624 15.050170764999999 3.3222601700000003
619 9 5.854323410402415 16.71130085 0.0
620 3 6.813377312136151 18.372430935 1.6611300850000001