LAMMPS structure data file for MoS2 with 2 layers

6120 atoms
12 atom types

0.0 97.82349797684107 xlo xhi
0.0 99.6678051 ylo yhi
-20 23.54295655 zlo zhi

Masses 

1 95.95 #Mo
2 95.95 #Mo
3 95.95 #Mo
4 95.95 #Mo
5 78.971 #Se
6 78.971 #Se
7 78.971 #Se
8 78.971 #Se
9 78.971 #Se
10 78.971 #Se
11 78.971 #Se
12 78.971 #Se

Atoms

1 5 0.1 0.1 0.0
2 1 1.059053901733736 1.761130085 1.6611300850000001
3 6 0.1 0.1 3.3222601700000003
4 7 2.977161705201208 1.761130085 0.0
5 2 3.936215606934944 0.1 1.6611300850000001
6 8 2.977161705201208 1.761130085 3.3222601700000003
7 9 0.1 3.42226017 0.0
8 3 1.059053901733736 5.083390254999999 1.6611300850000001
9 10 0.1 3.42226017 3.3222601700000003
10 11 2.977161705201208 5.083390254999999 0.0
11 4 3.936215606934944 3.42226017 1.6611300850000001
12 12 2.977161705201208 5.083390254999999 3.3222601700000003
13 5 1.059053901733736 1.761130085 6.771478275
14 1 0.1 0.1 8.43260836
15 6 1.059053901733736 1.761130085 10.093738445
16 7 3.936215606934944 0.1 6.771478275
17 2 2.977161705201208 1.761130085 8.43260836
18 8 3.936215606934944 0.1 10.093738445
19 9 1.059053901733736 5.083390254999999 6.771478275
20 3 0.1 3.42226017 8.43260836
21 10 1.059053901733736 5.083390254999999 10.093738445
22 11 3.936215606934944 3.42226017 6.771478275
23 4 2.977161705201208 5.083390254999999 8.43260836
24 12 3.936215606934944 3.42226017 10.093738445
25 5 0.1 6.744520339999999 0.0
26 1 1.059053901733736 8.405650425 1.6611300850000001
27 6 0.1 6.744520339999999 3.3222601700000003
28 7 2.977161705201208 8.405650425 0.0
29 2 3.936215606934944 6.744520339999999 1.6611300850000001
30 8 2.977161705201208 8.405650425 3.3222601700000003
31 9 0.1 10.06678051 0.0
32 3 1.059053901733736 11.727910594999999 1.6611300850000001
33 10 0.1 10.06678051 3.3222601700000003
34 11 2.977161705201208 11.727910594999999 0.0
35 4 3.936215606934944 10.06678051 1.6611300850000001
36 12 2.977161705201208 11.727910594999999 3.3222601700000003
37 5 1.059053901733736 8.405650425 6.771478275
38 1 0.1 6.744520339999999 8.43260836
39 6 1.059053901733736 8.405650425 10.093738445
40 7 3.936215606934944 6.744520339999999 6.771478275
41 2 2.977161705201208 8.405650425 8.43260836
42 8 3.936215606934944 6.744520339999999 10.093738445
43 9 1.059053901733736 11.727910594999999 6.771478275
44 3 0.1 10.06678051 8.43260836
45 10 1.059053901733736 11.727910594999999 10.093738445
46 11 3.936215606934944 10.06678051 6.771478275
47 4 2.977161705201208 11.727910594999999 8.43260836
48 12 3.936215606934944 10.06678051 10.093738445
49 5 0.1 13.389040679999999 0.0
50 1 1.059053901733736 15.050170764999999 1.6611300850000001
51 6 0.1 13.389040679999999 3.3222601700000003
52 7 2.977161705201208 15.050170764999999 0.0
53 2 3.936215606934944 13.389040679999999 1.6611300850000001
54 8 2.977161705201208 15.050170764999999 3.3222601700000003
55 9 0.1 16.71130085 0.0
56 3 1.059053901733736 18.372430935 1.6611300850000001
57 10 0.1 16.71130085 3.3222601700000003
58 11 2.977161705201208 18.372430935 0.0
59 4 3.936215606934944 16.71130085 1.6611300850000001
60 12 2.977161705201208 18.372430935 3.3222601700000003
61 5 1.059053901733736 15.050170764999999 6.771478275
62 1 0.1 13.389040679999999 8.43260836
63 6 1.059053901733736 15.050170764999999 10.093738445
64 7 3.936215606934944 13.389040679999999 6.771478275
65 2 2.977161705201208 15.050170764999999 8.43260836
66 8 3.936215606934944 13.389040679999999 10.093738445
67 9 1.059053901733736 18.372430935 6.771478275
68 3 0.1 16.71130085 8.43260836
69 10 1.059053901733736 18.372430935 10.093738445
70 11 3.936215606934944 16.71130085 6.771478275
71 4 2.977161705201208 18.372430935 8.43260836
72 12 3.936215606934944 16.71130085 10.093738445
73 5 0.1 20.03356102 0.0
74 1 1.059053901733736 21.694691105 1.6611300850000001
75 6 0.1 20.03356102 3.3222601700000003
76 7 2.977161705201208 21.694691105 0.0
77 2 3.936215606934944 20.03356102 1.6611300850000001
78 8 2.977161705201208 21.694691105 3.3222601700000003
79 9 0.1 23.35582119 0.0
80 3 1.059053901733736 25.016951275 1.6611300850000001
81 10 0.1 23.35582119 3.3222601700000003
82 11 2.977161705201208 25.016951275 0.0
83 4 3.936215606934944 23.35582119 1.6611300850000001
84 12 2.977161705201208 25.016951275 3.3222601700000003
85 5 1.059053901733736 21.694691105 6.771478275
86 1 0.1 20.03356102 8.43260836
87 6 1.059053901733736 21.694691105 10.093738445
88 7 3.936215606934944 20.03356102 6.771478275
89 2 2.977161705201208 21.694691105 8.43260836
90 8 3.936215606934944 20.03356102 10.093738445
91 9 1.059053901733736 25.016951275 6.771478275
92 3 0.1 23.35582119 8.43260836
93 10 1.059053901733736 25.016951275 10.093738445
94 11 3.936215606934944 23.35582119 6.771478275
95 4 2.977161705201208 25.016951275 8.43260836
96 12 3.936215606934944 23.35582119 10.093738445
97 5 0.1 26.67808136 0.0
98 1 1.059053901733736 28.339211445 1.6611300850000001
99 6 0.1 26.67808136 3.3222601700000003
100 7 2.977161705201208 28.339211445 0.0
101 2 3.936215606934944 26.67808136 1.6611300850000001
102 8 2.977161705201208 28.339211445 3.3222601700000003
103 9 0.1 30.00034153 0.0
104 3 1.059053901733736 31.661471615 1.6611300850000001
105 10 0.1 30.00034153 3.3222601700000003
106 11 2.977161705201208 31.661471615 0.0
107 4 3.936215606934944 30.00034153 1.6611300850000001
108 12 2.977161705201208 31.661471615 3.3222601700000003
109 5 1.059053901733736 28.339211445 6.771478275
110 1 0.1 26.67808136 8.43260836
111 6 1.059053901733736 28.339211445 10.093738445
112 7 3.936215606934944 26.67808136 6.771478275
113 2 2.977161705201208 28.339211445 8.43260836
114 8 3.936215606934944 26.67808136 10.093738445
115 9 1.059053901733736 31.661471615 6.771478275
116 3 0.1 30.00034153 8.43260836
117 10 1.059053901733736 31.661471615 10.093738445
118 11 3.936215606934944 30.00034153 6.771478275
119 4 2.977161705201208 31.661471615 8.43260836
120 12 3.936215606934944 30.00034153 10.093738445
121 5 0.1 33.3226017 0.0
122 1 1.059053901733736 34.983731784999996 1.6611300850000001
123 6 0.1 33.3226017 3.3222601700000003
124 7 2.977161705201208 34.983731784999996 0.0
125 2 3.936215606934944 33.3226017 1.6611300850000001
126 8 2.977161705201208 34.983731784999996 3.3222601700000003
127 9 0.1 36.64486187 0.0
128 3 1.059053901733736 38.305991955 1.6611300850000001
129 10 0.1 36.64486187 3.3222601700000003
130 11 2.977161705201208 38.305991955 0.0
131 4 3.936215606934944 36.64486187 1.6611300850000001
132 12 2.977161705201208 38.305991955 3.3222601700000003
133 5 1.059053901733736 34.983731784999996 6.771478275
134 1 0.1 33.3226017 8.43260836
135 6 1.059053901733736 34.983731784999996 10.093738445
136 7 3.936215606934944 33.3226017 6.771478275
137 2 2.977161705201208 34.983731784999996 8.43260836
138 8 3.936215606934944 33.3226017 10.093738445
139 9 1.059053901733736 38.305991955 6.771478275
140 3 0.1 36.64486187 8.43260836
141 10 1.059053901733736 38.305991955 10.093738445
142 11 3.936215606934944 36.64486187 6.771478275
143 4 2.977161705201208 38.305991955 8.43260836
144 12 3.936215606934944 36.64486187 10.093738445
145 5 0.1 39.96712204 0.0
146 1 1.059053901733736 41.628252124999996 1.6611300850000001
147 6 0.1 39.96712204 3.3222601700000003
148 7 2.977161705201208 41.628252124999996 0.0
149 2 3.936215606934944 39.96712204 1.6611300850000001
150 8 2.977161705201208 41.628252124999996 3.3222601700000003
151 9 0.1 43.28938221 0.0
152 3 1.059053901733736 44.950512295 1.6611300850000001
153 10 0.1 43.28938221 3.3222601700000003
154 11 2.977161705201208 44.950512295 0.0
155 4 3.936215606934944 43.28938221 1.6611300850000001
156 12 2.977161705201208 44.950512295 3.3222601700000003
157 5 1.059053901733736 41.628252124999996 6.771478275
158 1 0.1 39.96712204 8.43260836
159 6 1.059053901733736 41.628252124999996 10.093738445
160 7 3.936215606934944 39.96712204 6.771478275
161 2 2.977161705201208 41.628252124999996 8.43260836
162 8 3.936215606934944 39.96712204 10.093738445
163 9 1.059053901733736 44.950512295 6.771478275
164 3 0.1 43.28938221 8.43260836
165 10 1.059053901733736 44.950512295 10.093738445
166 11 3.936215606934944 43.28938221 6.771478275
167 4 2.977161705201208 44.950512295 8.43260836
168 12 3.936215606934944 43.28938221 10.093738445
169 5 0.1 46.61164238 0.0
170 1 1.059053901733736 48.272772464999996 1.6611300850000001
171 6 0.1 46.61164238 3.3222601700000003
172 7 2.977161705201208 48.272772464999996 0.0
173 2 3.936215606934944 46.61164238 1.6611300850000001
174 8 2.977161705201208 48.272772464999996 3.3222601700000003
175 9 0.1 49.93390255 0.0
176 3 1.059053901733736 51.595032635 1.6611300850000001
177 10 0.1 49.93390255 3.3222601700000003
178 11 2.977161705201208 51.595032635 0.0
179 4 3.936215606934944 49.93390255 1.6611300850000001
180 12 2.977161705201208 51.595032635 3.3222601700000003
181 5 1.059053901733736 48.272772464999996 6.771478275
182 1 0.1 46.61164238 8.43260836
183 6 1.059053901733736 48.272772464999996 10.093738445
184 7 3.936215606934944 46.61164238 6.771478275
185 2 2.977161705201208 48.272772464999996 8.43260836
186 8 3.936215606934944 46.61164238 10.093738445
187 9 1.059053901733736 51.595032635 6.771478275
188 3 0.1 49.93390255 8.43260836
189 10 1.059053901733736 51.595032635 10.093738445
190 11 3.936215606934944 49.93390255 6.771478275
191 4 2.977161705201208 51.595032635 8.43260836
192 12 3.936215606934944 49.93390255 10.093738445
193 5 0.1 53.25616272 0.0
194 1 1.059053901733736 54.917292804999995 1.6611300850000001
195 6 0.1 53.25616272 3.3222601700000003
196 7 2.977161705201208 54.917292804999995 0.0
197 2 3.936215606934944 53.25616272 1.6611300850000001
198 8 2.977161705201208 54.917292804999995 3.3222601700000003
199 9 0.1 56.57842289 0.0
200 3 1.059053901733736 58.239552975 1.6611300850000001
201 10 0.1 56.57842289 3.3222601700000003
202 11 2.977161705201208 58.239552975 0.0
203 4 3.936215606934944 56.57842289 1.6611300850000001
204 12 2.977161705201208 58.239552975 3.3222601700000003
205 5 1.059053901733736 54.917292804999995 6.771478275
206 1 0.1 53.25616272 8.43260836
207 6 1.059053901733736 54.917292804999995 10.093738445
208 7 3.936215606934944 53.25616272 6.771478275
209 2 2.977161705201208 54.917292804999995 8.43260836
210 8 3.936215606934944 53.25616272 10.093738445
211 9 1.059053901733736 58.239552975 6.771478275
212 3 0.1 56.57842289 8.43260836
213 10 1.059053901733736 58.239552975 10.093738445
214 11 3.936215606934944 56.57842289 6.771478275
215 4 2.977161705201208 58.239552975 8.43260836
216 12 3.936215606934944 56.57842289 10.093738445
217 5 0.1 59.90068306 0.0
218 1 1.059053901733736 61.561813144999995 1.6611300850000001
219 6 0.1 59.90068306 3.3222601700000003
220 7 2.977161705201208 61.561813144999995 0.0
221 2 3.936215606934944 59.90068306 1.6611300850000001
222 8 2.977161705201208 61.561813144999995 3.3222601700000003
223 9 0.1 63.22294323 0.0
224 3 1.059053901733736 64.884073315 1.6611300850000001
225 10 0.1 63.22294323 3.3222601700000003
226 11 2.977161705201208 64.884073315 0.0
227 4 3.936215606934944 63.22294323 1.6611300850000001
228 12 2.977161705201208 64.884073315 3.3222601700000003
229 5 1.059053901733736 61.561813144999995 6.771478275
230 1 0.1 59.90068306 8.43260836
231 6 1.059053901733736 61.561813144999995 10.093738445
232 7 3.936215606934944 59.90068306 6.771478275
233 2 2.977161705201208 61.561813144999995 8.43260836
234 8 3.936215606934944 59.90068306 10.093738445
235 9 1.059053901733736 64.884073315 6.771478275
236 3 0.1 63.22294323 8.43260836
237 10 1.059053901733736 64.884073315 10.093738445
238 11 3.936215606934944 63.22294323 6.771478275
239 4 2.977161705201208 64.884073315 8.43260836
240 12 3.936215606934944 63.22294323 10.093738445
241 5 0.1 66.54520339999999 0.0
242 1 1.059053901733736 68.20633348499999 1.6611300850000001
243 6 0.1 66.54520339999999 3.3222601700000003
244 7 2.977161705201208 68.20633348499999 0.0
245 2 3.936215606934944 66.54520339999999 1.6611300850000001
246 8 2.977161705201208 68.20633348499999 3.3222601700000003
247 9 0.1 69.86746356999998 0.0
248 3 1.059053901733736 71.528593655 1.6611300850000001
249 10 0.1 69.86746356999998 3.3222601700000003
250 11 2.977161705201208 71.528593655 0.0
251 4 3.936215606934944 69.86746356999998 1.6611300850000001
252 12 2.977161705201208 71.528593655 3.3222601700000003
253 5 1.059053901733736 68.20633348499999 6.771478275
254 1 0.1 66.54520339999999 8.43260836
255 6 1.059053901733736 68.20633348499999 10.093738445
256 7 3.936215606934944 66.54520339999999 6.771478275
257 2 2.977161705201208 68.20633348499999 8.43260836
258 8 3.936215606934944 66.54520339999999 10.093738445
259 9 1.059053901733736 71.528593655 6.771478275
260 3 0.1 69.86746356999998 8.43260836
261 10 1.059053901733736 71.528593655 10.093738445
262 11 3.936215606934944 69.86746356999998 6.771478275
263 4 2.977161705201208 71.528593655 8.43260836
264 12 3.936215606934944 69.86746356999998 10.093738445
265 5 0.1 73.18972373999999 0.0
266 1 1.059053901733736 74.85085382499999 1.6611300850000001
267 6 0.1 73.18972373999999 3.3222601700000003
268 7 2.977161705201208 74.85085382499999 0.0
269 2 3.936215606934944 73.18972373999999 1.6611300850000001
270 8 2.977161705201208 74.85085382499999 3.3222601700000003
271 9 0.1 76.51198391 0.0
272 3 1.059053901733736 78.173113995 1.6611300850000001
273 10 0.1 76.51198391 3.3222601700000003
274 11 2.977161705201208 78.173113995 0.0
275 4 3.936215606934944 76.51198391 1.6611300850000001
276 12 2.977161705201208 78.173113995 3.3222601700000003
277 5 1.059053901733736 74.85085382499999 6.771478275
278 1 0.1 73.18972373999999 8.43260836
279 6 1.059053901733736 74.85085382499999 10.093738445
280 7 3.936215606934944 73.18972373999999 6.771478275
281 2 2.977161705201208 74.85085382499999 8.43260836
282 8 3.936215606934944 73.18972373999999 10.093738445
283 9 1.059053901733736 78.173113995 6.771478275
284 3 0.1 76.51198391 8.43260836
285 10 1.059053901733736 78.173113995 10.093738445
286 11 3.936215606934944 76.51198391 6.771478275
287 4 2.977161705201208 78.173113995 8.43260836
288 12 3.936215606934944 76.51198391 10.093738445
289 5 0.1 79.83424407999999 0.0
290 1 1.059053901733736 81.49537416499999 1.6611300850000001
291 6 0.1 79.83424407999999 3.3222601700000003
292 7 2.977161705201208 81.49537416499999 0.0
293 2 3.936215606934944 79.83424407999999 1.6611300850000001
294 8 2.977161705201208 81.49537416499999 3.3222601700000003
295 9 0.1 83.15650424999998 0.0
296 3 1.059053901733736 84.817634335 1.6611300850000001
297 10 0.1 83.15650424999998 3.3222601700000003
298 11 2.977161705201208 84.817634335 0.0
299 4 3.936215606934944 83.15650424999998 1.6611300850000001
300 12 2.977161705201208 84.817634335 3.3222601700000003
301 5 1.059053901733736 81.49537416499999 6.771478275
302 1 0.1 79.83424407999999 8.43260836
303 6 1.059053901733736 81.49537416499999 10.093738445
304 7 3.936215606934944 79.83424407999999 6.771478275
305 2 2.977161705201208 81.49537416499999 8.43260836
306 8 3.936215606934944 79.83424407999999 10.093738445
307 9 1.059053901733736 84.817634335 6.771478275
308 3 0.1 83.15650424999998 8.43260836
309 10 1.059053901733736 84.817634335 10.093738445
310 11 3.936215606934944 83.15650424999998 6.771478275
311 4 2.977161705201208 84.817634335 8.43260836
312 12 3.936215606934944 83.15650424999998 10.093738445
313 5 0.1 86.47876441999999 0.0
314 1 1.059053901733736 88.13989450499999 1.6611300850000001
315 6 0.1 86.47876441999999 3.3222601700000003
316 7 2.977161705201208 88.13989450499999 0.0
317 2 3.936215606934944 86.47876441999999 1.6611300850000001
318 8 2.977161705201208 88.13989450499999 3.3222601700000003
319 9 0.1 89.80102459 0.0
320 3 1.059053901733736 91.462154675 1.6611300850000001
321 10 0.1 89.80102459 3.3222601700000003
322 11 2.977161705201208 91.462154675 0.0
323 4 3.936215606934944 89.80102459 1.6611300850000001
324 12 2.977161705201208 91.462154675 3.3222601700000003
325 5 1.059053901733736 88.13989450499999 6.771478275
326 1 0.1 86.47876441999999 8.43260836
327 6 1.059053901733736 88.13989450499999 10.093738445
328 7 3.936215606934944 86.47876441999999 6.771478275
329 2 2.977161705201208 88.13989450499999 8.43260836
330 8 3.936215606934944 86.47876441999999 10.093738445
331 9 1.059053901733736 91.462154675 6.771478275
332 3 0.1 89.80102459 8.43260836
333 10 1.059053901733736 91.462154675 10.093738445
334 11 3.936215606934944 89.80102459 6.771478275
335 4 2.977161705201208 91.462154675 8.43260836
336 12 3.936215606934944 89.80102459 10.093738445
337 5 0.1 93.12328475999999 0.0
338 1 1.059053901733736 94.78441484499999 1.6611300850000001
339 6 0.1 93.12328475999999 3.3222601700000003
340 7 2.977161705201208 94.78441484499999 0.0
341 2 3.936215606934944 93.12328475999999 1.6611300850000001
342 8 2.977161705201208 94.78441484499999 3.3222601700000003
343 9 0.1 96.44554492999998 0.0
344 3 1.059053901733736 98.106675015 1.6611300850000001
345 10 0.1 96.44554492999998 3.3222601700000003
346 11 2.977161705201208 98.106675015 0.0
347 4 3.936215606934944 96.44554492999998 1.6611300850000001
348 12 2.977161705201208 98.106675015 3.3222601700000003
349 5 1.059053901733736 94.78441484499999 6.771478275
350 1 0.1 93.12328475999999 8.43260836
351 6 1.059053901733736 94.78441484499999 10.093738445
352 7 3.936215606934944 93.12328475999999 6.771478275
353 2 2.977161705201208 94.78441484499999 8.43260836
354 8 3.936215606934944 93.12328475999999 10.093738445
355 9 1.059053901733736 98.106675015 6.771478275
356 3 0.1 96.44554492999998 8.43260836
357 10 1.059053901733736 98.106675015 10.093738445
358 11 3.936215606934944 96.44554492999998 6.771478275
359 4 2.977161705201208 98.106675015 8.43260836
360 12 3.936215606934944 96.44554492999998 10.093738445
361 5 5.854323410402415 0.1 0.0
362 1 6.813377312136151 1.761130085 1.6611300850000001
363 6 5.854323410402415 0.1 3.3222601700000003
364 7 8.731485115603624 1.761130085 0.0
365 2 9.69053901733736 0.1 1.6611300850000001
366 8 8.731485115603624 1.761130085 3.3222601700000003
367 9 5.854323410402415 3.42226017 0.0
368 3 6.813377312136151 5.083390254999999 1.6611300850000001
369 10 5.854323410402415 3.42226017 3.3222601700000003
370 11 8.731485115603624 5.083390254999999 0.0
371 4 9.69053901733736 3.42226017 1.6611300850000001
372 12 8.731485115603624 5.083390254999999 3.3222601700000003
373 5 6.813377312136151 1.761130085 6.771478275
374 1 5.854323410402415 0.1 8.43260836
375 6 6.813377312136151 1.761130085 10.093738445
376 7 9.69053901733736 0.1 6.771478275
377 2 8.731485115603624 1.761130085 8.43260836
378 8 9.69053901733736 0.1 10.093738445
379 9 6.813377312136151 5.083390254999999 6.771478275
380 3 5.854323410402415 3.42226017 8.43260836
381 10 6.813377312136151 5.083390254999999 10.093738445
382 11 9.69053901733736 3.42226017 6.771478275
383 4 8.731485115603624 5.083390254999999 8.43260836
384 12 9.69053901733736 3.42226017 10.093738445
385 5 5.854323410402415 6.744520339999999 0.0
386 1 6.813377312136151 8.405650425 1.6611300850000001
387 6 5.854323410402415 6.744520339999999 3.3222601700000003
388 7 8.731485115603624 8.405650425 0.0
389 2 9.69053901733736 6.744520339999999 1.6611300850000001
390 8 8.731485115603624 8.405650425 3.3222601700000003
391 9 5.854323410402415 10.06678051 0.0
392 3 6.813377312136151 11.727910594999999 1.6611300850000001
393 10 5.854323410402415 10.06678051 3.3222601700000003
394 11 8.731485115603624 11.727910594999999 0.0
395 4 9.69053901733736 10.06678051 1.6611300850000001
396 12 8.731485115603624 11.727910594999999 3.3222601700000003
397 5 6.813377312136151 8.405650425 6.771478275
398 1 5.854323410402415 6.744520339999999 8.43260836
399 6 6.813377312136151 8.405650425 10.093738445
400 7 9.69053901733736 6.744520339999999 6.771478275
401 2 8.731485115603624 8.405650425 8.43260836
402 8 9.69053901733736 6.744520339999999 10.093738445
403 9 6.813377312136151 11.727910594999999 6.771478275
404 3 5.854323410402415 10.06678051 8.43260836
405 10 6.813377312136151 11.727910594999999 10.093738445
406 11 9.69053901733736 10.06678051 6.771478275
407 4 8.731485115603624 11.727910594999999 8.43260836
408 12 9.69053901733736 10.06678051 10.093738445
409 5 5.854323410402415 13.389040679999999 0.0
410 1 6.813377312136151 15.050170764999999 1.6611300850000001
411 6 5.854323410402415 13.389040679999999 3.3222601700000003
412 7 8.731485115603624 15.050170764999999 0.0
413 2 9.69053901733736 13.389040679999999 1.6611300850000001
414 8 8.731485115603624 15.050170764999999 3.3222601700000003
415 9 5.854323410402415 16.71130085 0.0
416 3 6.813377312136151 18.372430935 1.6611300850000001
417 10 5.854323410402415 16.71130085 3.3222601700000003
418 11 8.731485115603624 18.372430935 0.0
419 4 9.69053901733736 16.71130085 1.6611300850000001
420 12 8.731485115603624 18.372430935 3.3222601700000003
421 5 6.813377312136151 15.050170764999999 6.771478275
422 1 5.854323410402415 13.389040679999999 8.43260836
423 6 6.813377312136151 15.050170764999999 10.093738445
424 7 9.69053901733736 13.389040679999999 6.771478275
425 2 8.731485115603624 15.050170764999999 8.43260836
426 8 9.69053901733736 13.389040679999999 10.093738445
427 9 6.813377312136151 18.372430935 6.771478275
428 3 5.854323410402415 16.71130085 8.43260836
429 10 6.813377312136151 18.372430935 10.093738445
430 11 9.69053901733736 16.71130085 6.771478275
431 4 8.731485115603624 18.372430935 8.43260836
432 12 9.69053901733736 16.71130085 10.093738445
433 5 5.854323410402415 20.03356102 0.0
434 1 6.813377312136151 21.694691105 1.6611300850000001
435 6 5.854323410402415 20.03356102 3.3222601700000003
436 7 8.731485115603624 21.694691105 0.0
437 2 9.69053901733736 20.03356102 1.6611300850000001
438 8 8.731485115603624 21.694691105 3.3222601700000003
439 9 5.854323410402415 23.35582119 0.0
440 3 6.813377312136151 25.016951275 1.6611300850000001
441 10 5.854323410402415 23.35582119 3.3222601700000003
442 11 8.731485115603624 25.016951275 0.0
443 4 9.69053901733736 23.35582119 1.6611300850000001
444 12 8.731485115603624 25.016951275 3.3222601700000003
445 5 6.813377312136151 21.694691105 6.771478275
446 1 5.854323410402415 20.03356102 8.43260836
447 6 6.813377312136151 21.694691105 10.093738445
448 7 9.69053901733736 20.03356102 6.771478275
449 2 8.731485115603624 21.694691105 8.43260836
450 8 9.69053901733736 20.03356102 10.093738445
451 9 6.813377312136151 25.016951275 6.771478275
452 3 5.854323410402415 23.35582119 8.43260836
453 10 6.813377312136151 25.016951275 10.093738445
454 11 9.69053901733736 23.35582119 6.771478275
455 4 8.731485115603624 25.016951275 8.43260836
456 12 9.69053901733736 23.35582119 10.093738445
457 5 5.854323410402415 26.67808136 0.0
458 1 6.813377312136151 28.339211445 1.6611300850000001
459 6 5.854323410402415 26.67808136 3.3222601700000003
460 7 8.731485115603624 28.339211445 0.0
461 2 9.69053901733736 26.67808136 1.6611300850000001
462 8 8.731485115603624 28.339211445 3.3222601700000003
463 9 5.854323410402415 30.00034153 0.0
464 3 6.813377312136151 31.661471615 1.6611300850000001
465 10 5.854323410402415 30.00034153 3.3222601700000003
466 11 8.731485115603624 31.661471615 0.0
467 4 9.69053901733736 30.00034153 1.6611300850000001
468 12 8.731485115603624 31.661471615 3.3222601700000003
469 5 6.813377312136151 28.339211445 6.771478275
470 1 5.854323410402415 26.67808136 8.43260836
471 6 6.813377312136151 28.339211445 10.093738445
472 7 9.69053901733736 26.67808136 6.771478275
473 2 8.731485115603624 28.339211445 8.43260836
474 8 9.69053901733736 26.67808136 10.093738445
475 9 6.813377312136151 31.661471615 6.771478275
476 3 5.854323410402415 30.00034153 8.43260836
477 10 6.813377312136151 31.661471615 10.093738445
478 11 9.69053901733736 30.00034153 6.771478275
479 4 8.731485115603624 31.661471615 8.43260836
480 12 9.69053901733736 30.00034153 10.093738445
481 5 5.854323410402415 33.3226017 0.0
482 1 6.813377312136151 34.983731784999996 1.6611300850000001
483 6 5.854323410402415 33.3226017 3.3222601700000003
484 7 8.731485115603624 34.983731784999996 0.0
485 2 9.69053901733736 33.3226017 1.6611300850000001
486 8 8.731485115603624 34.983731784999996 3.3222601700000003
487 9 5.854323410402415 36.64486187 0.0
488 3 6.813377312136151 38.305991955 1.6611300850000001
489 10 5.854323410402415 36.64486187 3.3222601700000003
490 11 8.731485115603624 38.305991955 0.0
491 4 9.69053901733736 36.64486187 1.6611300850000001
492 12 8.731485115603624 38.305991955 3.3222601700000003
493 5 6.813377312136151 34.983731784999996 6.771478275
494 1 5.854323410402415 33.3226017 8.43260836
495 6 6.813377312136151 34.983731784999996 10.093738445
496 7 9.69053901733736 33.3226017 6.771478275
497 2 8.731485115603624 34.983731784999996 8.43260836
498 8 9.69053901733736 33.3226017 10.093738445
499 9 6.813377312136151 38.305991955 6.771478275
500 3 5.854323410402415 36.64486187 8.43260836
501 10 6.813377312136151 38.305991955 10.093738445
502 11 9.69053901733736 36.64486187 6.771478275
503 4 8.731485115603624 38.305991955 8.43260836
504 12 9.69053901733736 36.64486187 10.093738445
505 5 5.854323410402415 39.96712204 0.0
506 1 6.813377312136151 41.628252124999996 1.6611300850000001
507 6 5.854323410402415 39.96712204 3.3222601700000003
508 7 8.731485115603624 41.628252124999996 0.0
509 2 9.69053901733736 39.96712204 1.6611300850000001
510 8 8.731485115603624 41.628252124999996 3.3222601700000003
511 9 5.854323410402415 43.28938221 0.0
512 3 6.813377312136151 44.950512295 1.6611300850000001
513 10 5.854323410402415 43.28938221 3.3222601700000003
514 11 8.731485115603624 44.950512295 0.0
515 4 9.69053901733736 43.28938221 1.6611300850000001
516 12 8.731485115603624 44.950512295 3.3222601700000003
517 5 6.813377312136151 41.628252124999996 6.771478275
518 1 5.854323410402415 39.96712204 8.43260836
519 6 6.813377312136151 41.628252124999996 10.093738445
520 7 9.69053901733736 39.96712204 6.771478275
521 2 8.731485115603624 41.628252124999996 8.43260836
522 8 9.69053901733736 39.96712204 10.093738445
523 9 6.813377312136151 44.950512295 6.771478275
524 3 5.854323410402415 43.28938221 8.43260836
525 10 6.813377312136151 44.950512295 10.093738445
526 11 9.69053901733736 43.28938221 6.771478275
527 4 8.731485115603624 44.950512295 8.43260836
528 12 9.69053901733736 43.28938221 10.093738445
529 5 5.854323410402415 46.61164238 0.0
530 1 6.813377312136151 48.272772464999996 1.6611300850000001
531 6 5.854323410402415 46.61164238 3.3222601700000003
532 7 8.731485115603624 48.272772464999996 0.0
533 2 9.69053901733736 46.61164238 1.6611300850000001
534 8 8.731485115603624 48.272772464999996 3.3222601700000003
535 9 5.854323410402415 49.93390255 0.0
536 3 6.813377312136151 51.595032635 1.6611300850000001
537 10 5.854323410402415 49.93390255 3.3222601700000003
538 11 8.731485115603624 51.595032635 0.0
539 4 9.69053901733736 49.93390255 1.6611300850000001
540 12 8.731485115603624 51.595032635 3.3222601700000003
541 5 6.813377312136151 48.272772464999996 6.771478275
542 1 5.854323410402415 46.61164238 8.43260836
543 6 6.813377312136151 48.272772464999996 10.093738445
544 7 9.69053901733736 46.61164238 6.771478275
545 2 8.731485115603624 48.272772464999996 8.43260836
546 8 9.69053901733736 46.61164238 10.093738445
547 9 6.813377312136151 51.595032635 6.771478275
548 3 5.854323410402415 49.93390255 8.43260836
549 10 6.813377312136151 51.595032635 10.093738445
550 11 9.69053901733736 49.93390255 6.771478275
551 4 8.731485115603624 51.595032635 8.43260836
552 12 9.69053901733736 49.93390255 10.093738445
553 5 5.854323410402415 53.25616272 0.0
554 1 6.813377312136151 54.917292804999995 1.6611300850000001
555 6 5.854323410402415 53.25616272 3.3222601700000003
556 7 8.731485115603624 54.917292804999995 0.0
557 2 9.69053901733736 53.25616272 1.6611300850000001
558 8 8.731485115603624 54.917292804999995 3.3222601700000003
559 9 5.854323410402415 56.57842289 0.0
560 3 6.813377312136151 58.239552975 1.6611300850000001
561 10 5.854323410402415 56.57842289 3.3222601700000003
562 11 8.731485115603624 58.239552975 0.0
563 4 9.69053901733736 56.57842289 1.6611300850000001
564 12 8.731485115603624 58.239552975 3.3222601700000003
565 5 6.813377312136151 54.917292804999995 6.771478275
566 1 5.854323410402415 53.25616272 8.43260836
567 6 6.813377312136151 54.917292804999995 10.093738445
568 7 9.69053901733736 53.25616272 6.771478275
569 2 8.731485115603624 54.917292804999995 8.43260836
570 8 9.69053901733736 53.25616272 10.093738445
571 9 6.813377312136151 58.239552975 6.771478275
572 3 5.854323410402415 56.57842289 8.43260836
573 10 6.813377312136151 58.239552975 10.093738445
574 11 9.69053901733736 56.57842289 6.771478275
575 4 8.731485115603624 58.239552975 8.43260836
576 12 9.69053901733736 56.57842289 10.093738445
577 5 5.854323410402415 59.90068306 0.0
578 1 6.813377312136151 61.561813144999995 1.6611300850000001
579 6 5.854323410402415 59.90068306 3.3222601700000003
580 7 8.731485115603624 61.561813144999995 0.0
581 2 9.69053901733736 59.90068306 1.6611300850000001
582 8 8.731485115603624 61.561813144999995 3.3222601700000003
583 9 5.854323410402415 63.22294323 0.0
584 3 6.813377312136151 64.884073315 1.6611300850000001
585 10 5.854323410402415 63.22294323 3.3222601700000003
586 11 8.731485115603624 64.884073315 0.0
587 4 9.69053901733736 63.22294323 1.6611300850000001
588 12 8.731485115603624 64.884073315 3.3222601700000003
589 5 6.813377312136151 61.561813144999995 6.771478275
590 1 5.854323410402415 59.90068306 8.43260836
591 6 6.813377312136151 61.561813144999995 10.093738445
592 7 9.69053901733736 59.90068306 6.771478275
593 2 8.731485115603624 61.561813144999995 8.43260836
594 8 9.69053901733736 59.90068306 10.093738445
595 9 6.813377312136151 64.884073315 6.771478275
596 3 5.854323410402415 63.22294323 8.43260836
597 10 6.813377312136151 64.884073315 10.093738445
598 11 9.69053901733736 63.22294323 6.771478275
599 4 8.731485115603624 64.884073315 8.43260836
600 12 9.69053901733736 63.22294323 10.093738445
601 5 5.854323410402415 66.54520339999999 0.0
602 1 6.813377312136151 68.20633348499999 1.6611300850000001
603 6 5.854323410402415 66.54520339999999 3.3222601700000003
604 7 8.731485115603624 68.20633348499999 0.0