LAMMPS data file via write_data, version 29 Aug 2024, timestep = 1, units = metal

5376 atoms
3 atom types

0 101.010618704828 xlo xhi
0 99.97458497184 ylo yhi
-50 50 zlo zhi

Masses

1 74.921595
2 74.921595
3 74.921595

Atoms # atomic

955 1 1.8037610483002688 1.0414019267899814 -0.001649785277104396 0 0 0
957 1 3.607522096600772 1.9016610315479125e-14 1.3999860074519463 0 0 0
959 1 5.41128314490127 1.0414019267899806 -0.0016497852771032964 0 0 0
954 1 1.8037610483007263 3.124205780370018 1.3999860074519492 0 0 0
958 1 5.411283144901727 3.1242057803700187 1.3999860074519481 0 0 0
956 1 2.2295166177623118e-13 4.165607707159978 -0.0016497852771030985 0 0 0
960 1 3.607522096601221 4.165607707159978 -0.0016497852771032847 0 0 0
961 1 7.215044193201774 1.887131450865156e-14 1.3999860074519463 0 0 0
963 1 9.018805241502271 1.0414019267899806 -0.001649785277103234 0 0 0
965 1 10.822566289802774 1.826130510778144e-14 1.3999860074519475 0 0 0
962 1 9.018805241502726 3.1242057803700187 1.399986007451948 0 0 0
964 1 7.215044193202222 4.165607707159979 -0.0016497852771044546 0 0 0
968 1 10.822566289803223 4.165607707159978 -0.0016497852771030987 0 0 0
967 1 12.626327338103268 1.0414019267899814 -0.0016497852771043971 0 0 0
969 1 14.43008838640377 1.8918816111008975e-14 1.3999860074519463 0 0 0
971 1 16.23384943470427 1.0414019267899806 -0.0016497852771032977 0 0 0
966 1 12.626327338103726 3.124205780370018 1.399986007451949 0 0 0
970 1 16.233849434704723 3.1242057803700187 1.399986007451948 0 0 0
972 1 14.43008838640422 4.165607707159979 -0.0016497852771043924 0 0 0
973 1 18.037610483004773 1.8970279719540792e-14 1.3999860074519463 0 0 0
975 1 19.84137153130527 1.0414019267899806 -0.0016497852771032973 0 0 0
977 1 21.645132579605775 1.8970261517368474e-14 1.3999860074519463 0 0 0
979 1 23.448893627906273 1.0414019267899806 -0.0016497852771031683 0 0 0
974 1 19.841371531305725 3.1242057803700187 1.399986007451948 0 0 0
978 1 23.448893627906727 3.1242057803700187 1.399986007451948 0 0 0
976 1 18.03761048300522 4.165607707159978 -0.0016497852771032273 0 0 0
980 1 21.645132579606223 4.165607707159978 -0.0016497852771032275 0 0 0
981 1 25.252654676206774 1.754207660561667e-14 1.3999860074519488 0 0 0
983 1 27.056415724507268 1.0414019267899806 -0.0016497852771031852 0 0 0
985 1 28.860176772807772 1.9052947918815255e-14 1.3999860074519463 0 0 0
982 1 27.05641572450773 3.1242057803700187 1.399986007451948 0 0 0
984 1 25.252654676207225 4.165607707159979 -0.0016497852771030948 0 0 0
988 1 28.860176772808227 4.165607707159978 -0.0016497852771030976 0 0 0
987 1 30.663937821108266 1.0414019267899821 -0.0016497852771055076 0 0 0
989 1 32.46769886940877 1.9066484267628566e-14 1.3999860074519463 0 0 0
991 1 34.271459917709265 1.0414019267899806 -0.0016497852771032969 0 0 0
986 1 30.66393782110873 3.1242057803700174 1.3999860074519501 0 0 0
990 1 34.27145991770973 3.1242057803700187 1.399986007451948 0 0 0
992 1 32.46769886940922 4.165607707159978 -0.0016497852771031171 0 0 0
993 1 36.07522096600977 1.8772919632494935e-14 1.3999860074519463 0 0 0
995 1 37.87898201431027 1.0414019267899806 -0.0016497852771032962 0 0 0
997 1 39.682743062610776 1.897010376520839e-14 1.3999860074519463 0 0 0
999 1 41.48650411091127 1.0414019267899806 -0.001649785277103297 0 0 0
994 1 37.87898201431072 3.1242057803700187 1.399986007451948 0 0 0
998 1 41.486504110911724 3.1242057803700187 1.399986007451948 0 0 0
996 1 36.07522096601022 4.16560770715998 -0.0016497852771055696 0 0 0
1000 1 39.682743062611216 4.165607707159978 -0.001649785277103227 0 0 0
1001 1 43.29026515921178 1.8970285786931562e-14 1.3999860074519463 0 0 0
1003 1 45.09402620751227 1.0414019267899806 -0.0016497852771032975 0 0 0
1005 1 46.89778725581278 1.897037679779315e-14 1.3999860074519463 0 0 0
1002 1 45.09402620751273 3.1242057803700187 1.399986007451948 0 0 0
1004 1 43.29026515921222 4.165607707159978 -0.0016497852771032273 0 0 0
1008 1 46.89778725581322 4.165607707159978 -0.0016497852771032273 0 0 0
1007 1 48.701548304113274 1.0414019267899806 -0.001649785277103234 0 0 0
897 1 50.505309352413775 1.8213985527147197e-14 1.3999860074519477 -1 0 0
899 1 52.309070400714276 1.0414019267899806 -0.0016497852771033552 -1 0 0
1006 1 48.70154830411373 3.1242057803700187 1.399986007451948 0 0 0
898 1 52.30907040071473 3.1242057803700187 1.399986007451948 -1 0 0
900 1 50.50530935241422 4.165607707159978 -0.0016497852771031611 -1 0 0
901 1 54.11283144901478 1.8927134503757988e-14 1.3999860074519463 -1 0 0
903 1 55.91659249731527 1.0414019267899814 -0.0016497852771044591 -1 0 0
905 1 57.72035354561578 1.901687121328234e-14 1.3999860074519463 -1 0 0
902 1 55.91659249731573 3.124205780370018 1.3999860074519492 -1 0 0
904 1 54.112831449015225 4.165607707159978 -0.0016497852771031642 -1 0 0
908 1 57.72035354561623 4.165607707159978 -0.0016497852771032847 -1 0 0
907 1 59.52411459391627 1.0414019267899806 -0.0016497852771032346 -1 0 0
909 1 61.327875642216775 1.806625062922911e-14 1.3999860074519477 -1 0 0
911 1 63.131636690517276 1.0414019267899797 -0.001649785277102204 -1 0 0
913 1 64.93539773881778 1.9102130188416635e-14 1.3999860074519463 -1 0 0
906 1 59.52411459391673 3.1242057803700187 1.3999860074519481 -1 0 0
910 1 63.13163669051773 3.1242057803700196 1.3999860074519468 -1 0 0
912 1 61.32787564221723 4.165607707159979 -0.0016497852771044557 -1 0 0
916 1 64.93539773881824 4.165607707159977 -0.0016497852771019403 -1 0 0
915 1 66.73915878711827 1.0414019267899821 -0.001649785277105508 -1 0 0
917 1 68.54291983541877 1.8869743054441498e-14 1.3999860074519461 -1 0 0
919 1 70.34668088371927 1.0414019267899806 -0.0016497852771032975 -1 0 0
914 1 66.73915878711874 3.1242057803700174 1.3999860074519501 -1 0 0
918 1 70.34668088371973 3.1242057803700187 1.399986007451948 -1 0 0
920 1 68.54291983541923 4.16560770715998 -0.0016497852771054408 -1 0 0
921 1 72.15044193201977 1.8970388932574695e-14 1.3999860074519463 -1 0 0
923 1 73.95420298032028 1.0414019267899806 -0.001649785277103297 -1 0 0
925 1 75.75796402862078 1.8970006686956032e-14 1.3999860074519463 -1 0 0
922 1 73.95420298032073 3.1242057803700187 1.399986007451948 -1 0 0
924 1 72.15044193202023 4.165607707159978 -0.001649785277103227 -1 0 0
928 1 75.75796402862123 4.165607707159978 -0.0016497852771032266 -1 0 0
927 1 77.56172507692128 1.0414019267899806 -0.0016497852771031674 -1 0 0
929 1 79.36548612522178 1.7638827218873962e-14 1.3999860074519486 -1 0 0
931 1 81.16924717352227 1.0414019267899821 -0.0016497852771053777 -1 0 0
933 1 82.97300822182277 1.886952462837369e-14 1.3999860074519461 -1 0 0
926 1 77.56172507692173 3.1242057803700187 1.399986007451948 -1 0 0
930 1 81.16924717352273 3.1242057803700174 1.3999860074519501 -1 0 0
932 1 79.36548612522223 4.165607707159978 -0.0016497852771029649 -1 0 0
936 1 82.97300822182322 4.16560770715998 -0.0016497852771054406 -1 0 0
935 1 84.77676927012327 1.0414019267899806 -0.001649785277103297 -1 0 0
937 1 86.58053031842377 1.897040106735624e-14 1.3999860074519463 -1 0 0
939 1 88.38429136672427 1.0414019267899806 -0.0016497852771032977 -1 0 0
934 1 84.77676927012372 3.1242057803700187 1.399986007451948 -1 0 0
938 1 88.38429136672472 3.1242057803700187 1.399986007451948 -1 0 0
940 1 86.58053031842422 4.165607707159978 -0.0016497852771032281 -1 0 0
941 1 90.18805241502477 1.897030398910388e-14 1.3999860074519463 -1 0 0
943 1 91.99181346332527 1.0414019267899806 -0.0016497852771032964 -1 0 0
945 1 93.79557451162577 1.8970109832599162e-14 1.3999860074519463 -1 0 0
942 1 91.99181346332573 3.1242057803700187 1.399986007451948 -1 0 0
944 1 90.18805241502523 4.165607707159978 -0.0016497852771032277 -1 0 0
948 1 93.79557451162623 4.165607707159978 -0.0016497852771032266 -1 0 0
953 1 101.01061870482778 1.826158420775697e-14 1.3999860074519475 -1 0 0
947 1 95.59933555992627 1.0414019267899806 -0.001649785277103297 -1 0 0
949 1 97.40309660822678 1.8970267584759248e-14 1.3999860074519463 -1 0 0
951 1 99.20685765652728 1.0414019267899806 -0.0016497852771032344 -1 0 0
946 1 95.59933555992673 3.1242057803700187 1.399986007451948 -1 0 0
950 1 99.20685765652773 3.1242057803700187 1.399986007451948 -1 0 0
952 1 97.40309660822723 4.165607707159978 -0.0016497852771032275 -1 0 0
1069 1 3.607522096600772 6.248411560740017 1.399986007451948 0 0 0
1067 1 1.8037610483002688 7.28981348752998 -0.001649785277103039 0 0 0
1071 1 5.41128314490127 7.289813487529979 -0.00164978527710194 0 0 0
1066 1 1.8037610483007263 9.372617341110018 1.399986007451948 0 0 0
1070 1 5.411283144901727 9.37261734111002 1.3999860074519468 0 0 0
1068 1 2.2295166177623118e-13 10.414019267899981 -0.001649785277103169 0 0 0
1072 1 3.607522096601221 10.414019267899981 -0.001649785277103355 0 0 0
1073 1 7.215044193201774 6.248411560740017 1.399986007451948 0 0 0
1077 1 10.822566289802774 6.248411560740016 1.3999860074519492 0 0 0
1075 1 9.018805241502271 7.289813487529979 -0.001649785277101878 0 0 0
1074 1 9.018805241502726 9.37261734111002 1.3999860074519466 0 0 0
1076 1 7.215044193202222 10.414019267899983 -0.0016497852771045248 0 0 0
1080 1 10.822566289803223 10.414019267899981 -0.0016497852771031683 0 0 0
1081 1 14.43008838640377 6.248411560740017 1.399986007451948 0 0 0
1079 1 12.626327338103268 7.28981348752998 -0.00164978527710304 0 0 0
1083 1 16.23384943470427 7.289813487529979 -0.001649785277101941 0 0 0
1078 1 12.626327338103726 9.372617341110018 1.3999860074519477 0 0 0
1082 1 16.233849434704723 9.37261734111002 1.3999860074519466 0 0 0
1084 1 14.43008838640422 10.414019267899983 -0.0016497852771044626 0 0 0
1085 1 18.037610483004773 6.248411560740017 1.3999860074519481 0 0 0
1089 1 21.645132579605775 6.248411560740017 1.3999860074519481 0 0 0
1087 1 19.84137153130527 7.289813487529979 -0.001649785277101941 0 0 0
1091 1 23.448893627906273 7.289813487529979 -0.0016497852771018115 0 0 0
1086 1 19.841371531305725 9.37261734111002 1.3999860074519468 0 0 0
1090 1 23.448893627906727 9.37261734111002 1.3999860074519468 0 0 0
1088 1 18.03761048300522 10.414019267899981 -0.0016497852771032975 0 0 0
1092 1 21.645132579606223 10.414019267899981 -0.0016497852771032977 0 0 0
1093 1 25.252654676206774 6.248411560740015 1.3999860074519503 0 0 0
1097 1 28.860176772807772 6.248411560740017 1.399986007451948 0 0 0
1095 1 27.056415724507268 7.289813487529979 -0.0016497852771018289 0 0 0
1094 1 27.05641572450773 9.37261734111002 1.3999860074519468 0 0 0
1096 1 25.252654676207225 10.414019267899981 -0.0016497852771031653 0 0 0
1100 1 28.860176772808227 10.414019267899981 -0.0016497852771031683 0 0 0
1101 1 32.46769886940877 6.248411560740017 1.399986007451948 0 0 0
1099 1 30.663937821108266 7.2898134875299805 -0.0016497852771041506 0 0 0
1103 1 34.271459917709265 7.289813487529979 -0.0016497852771019397 0 0 0
1098 1 30.66393782110873 9.372617341110018 1.3999860074519488 0 0 0
1102 1 34.27145991770973 9.37261734111002 1.3999860074519466 0 0 0
1104 1 32.46769886940922 10.414019267899981 -0.001649785277103186 0 0 0
1105 1 36.07522096600977 6.248411560740017 1.399986007451948 0 0 0
1109 1 39.682743062610776 6.248411560740017 1.3999860074519481 0 0 0
1107 1 37.87898201431027 7.289813487529979 -0.0016497852771019399 0 0 0
1111 1 41.48650411091127 7.289813487529979 -0.0016497852771019408 0 0 0
1106 1 37.87898201431072 9.37261734111002 1.3999860074519466 0 0 0
1110 1 41.486504110911724 9.37261734111002 1.3999860074519468 0 0 0
1108 1 36.07522096601022 10.414019267899983 -0.0016497852771056392 0 0 0
1112 1 39.682743062611216 10.414019267899981 -0.001649785277103297 0 0 0
1113 1 43.29026515921178 6.248411560740017 1.3999860074519481 0 0 0
1117 1 46.89778725581278 6.248411560740017 1.3999860074519481 0 0 0
1115 1 45.09402620751227 7.289813487529979 -0.0016497852771019416 0 0 0
1114 1 45.09402620751273 9.37261734111002 1.3999860074519468 0 0 0
1116 1 43.29026515921222 10.414019267899981 -0.0016497852771032975 0 0 0
1120 1 46.89778725581322 10.414019267899981 -0.0016497852771032975 0 0 0
1009 1 50.505309352413775 6.248411560740016 1.3999860074519492 -1 0 0
1119 1 48.701548304113274 7.289813487529979 -0.0016497852771018772 0 0 0
1011 1 52.309070400714276 7.289813487529979 -0.0016497852771019993 -1 0 0
1118 1 48.70154830411373 9.37261734111002 1.3999860074519468 0 0 0
1010 1 52.30907040071473 9.37261734111002 1.3999860074519468 -1 0 0
1012 1 50.50530935241422 10.414019267899981 -0.0016497852771032314 -1 0 0
1013 1 54.11283144901478 6.248411560740017 1.3999860074519481 -1 0 0
1017 1 57.72035354561578 6.248411560740017 1.399986007451948 -1 0 0
1015 1 55.91659249731527 7.28981348752998 -0.0016497852771031024 -1 0 0
1014 1 55.91659249731573 9.372617341110018 1.399986007451948 -1 0 0
1016 1 54.112831449015225 10.414019267899981 -0.0016497852771032333 -1 0 0
1020 1 57.72035354561623 10.414019267899981 -0.0016497852771033554 -1 0 0
1021 1 61.327875642216775 6.248411560740016 1.3999860074519492 -1 0 0
1025 1 64.93539773881778 6.248411560740017 1.3999860074519481 -1 0 0
1019 1 59.52411459391627 7.289813487529979 -0.0016497852771018779 -1 0 0
1023 1 63.131636690517276 7.289813487529978 -0.0016497852771008472 -1 0 0
1018 1 59.52411459391673 9.37261734111002 1.3999860074519468 -1 0 0
1022 1 63.13163669051773 9.37261734111002 1.3999860074519455 -1 0 0
1024 1 61.32787564221723 10.414019267899983 -0.0016497852771045255 -1 0 0
1028 1 64.93539773881824 10.414019267899981 -0.00164978527710201 -1 0 0
1029 1 68.54291983541877 6.248411560740017 1.3999860074519477 -1 0 0
1027 1 66.73915878711827 7.2898134875299805 -0.0016497852771041508 -1 0 0
1031 1 70.34668088371927 7.289813487529979 -0.0016497852771019408 -1 0 0
1026 1 66.73915878711874 9.372617341110018 1.3999860074519488 -1 0 0
1030 1 70.34668088371973 9.37261734111002 1.3999860074519466 -1 0 0
1032 1 68.54291983541923 10.414019267899983 -0.0016497852771055112 -1 0 0
1033 1 72.15044193201977 6.248411560740017 1.3999860074519481 -1 0 0
1037 1 75.75796402862078 6.248411560740017 1.3999860074519481 -1 0 0
1035 1 73.95420298032028 7.289813487529979 -0.0016497852771019412 -1 0 0
1034 1 73.95420298032073 9.37261734111002 1.3999860074519468 -1 0 0
1036 1 72.15044193202023 10.414019267899981 -0.0016497852771032973 -1 0 0
1040 1 75.75796402862123 10.414019267899981 -0.001649785277103297 -1 0 0
1041 1 79.36548612522178 6.248411560740015 1.3999860074519503 -1 0 0
1045 1 82.97300822182277 6.248411560740017 1.3999860074519477 -1 0 0
1039 1 77.56172507692128 7.289813487529979 -0.0016497852771018106 -1 0 0
1043 1 81.16924717352227 7.2898134875299805 -0.001649785277104021 -1 0 0
1038 1 77.56172507692173 9.37261734111002 1.3999860074519468 -1 0 0
1042 1 81.16924717352273 9.372617341110018 1.3999860074519488 -1 0 0
1044 1 79.36548612522223 10.414019267899981 -0.0016497852771030354 -1 0 0
1048 1 82.97300822182322 10.414019267899983 -0.0016497852771055104 -1 0 0
1049 1 86.58053031842377 6.248411560740017 1.3999860074519481 -1 0 0
1047 1 84.77676927012327 7.289813487529979 -0.0016497852771019408 -1 0 0
1051 1 88.38429136672427 7.289813487529979 -0.0016497852771019414 -1 0 0
1046 1 84.77676927012372 9.37261734111002 1.3999860074519466 -1 0 0
1050 1 88.38429136672472 9.37261734111002 1.3999860074519468 -1 0 0
1052 1 86.58053031842422 10.414019267899981 -0.001649785277103298 -1 0 0
1053 1 90.18805241502477 6.248411560740017 1.3999860074519481 -1 0 0
1057 1 93.79557451162577 6.248411560740017 1.3999860074519481 -1 0 0
1055 1 91.99181346332527 7.289813487529979 -0.0016497852771019403 -1 0 0
1054 1 91.99181346332573 9.37261734111002 1.3999860074519468 -1 0 0
1056 1 90.18805241502523 10.414019267899981 -0.001649785277103298 -1 0 0
1060 1 93.79557451162623 10.414019267899981 -0.0016497852771032967 -1 0 0
1065 1 101.01061870482778 6.248411560740016 1.3999860074519492 -1 0 0
1061 1 97.40309660822678 6.248411560740017 1.3999860074519481 -1 0 0
1059 1 95.59933555992627 7.289813487529979 -0.0016497852771019405 -1 0 0
1063 1 99.20685765652728 7.289813487529979 -0.001649785277101878 -1 0 0
1058 1 95.59933555992673 9.37261734111002 1.3999860074519468 -1 0 0
1062 1 99.20685765652773 9.37261734111002 1.3999860074519468 -1 0 0
1064 1 97.40309660822723 10.414019267899981 -0.0016497852771032977 -1 0 0
1179 1 1.8037610483002688 13.538225048269982 -0.0016497852771030388 0 0 0
1181 1 3.607522096600772 12.49682312148002 1.399986007451948 0 0 0
1183 1 5.41128314490127 13.53822504826998 -0.0016497852771019399 0 0 0
1180 1 2.2295127346322174e-13 16.662430828639984 -0.0016497852771043156 0 0 0
1178 1 1.8037610483007263 15.621028901850021 1.3999860074519477 0 0 0
1184 1 3.607522096601221 16.662430828639984 -0.001649785277104502 0 0 0
1182 1 5.411283144901727 15.621028901850021 1.3999860074519466 0 0 0
1185 1 7.215044193201774 12.49682312148002 1.399986007451948 0 0 0
1187 1 9.018805241502271 13.53822504826998 -0.0016497852771018777 0 0 0
1189 1 10.822566289802774 12.496823121480018 1.3999860074519492 0 0 0
1188 1 7.215044193202222 16.662430828639984 -0.0016497852771056724 0 0 0
1186 1 9.018805241502726 15.621028901850023 1.3999860074519466 0 0 0
1192 1 10.822566289803223 16.662430828639984 -0.0016497852771043154 0 0 0
1191 1 12.626327338103268 13.538225048269982 -0.0016497852771030393 0 0 0
1193 1 14.43008838640377 12.49682312148002 1.399986007451948 0 0 0
1195 1 16.23384943470427 13.53822504826998 -0.0016497852771019408 0 0 0
1190 1 12.626327338103726 15.621028901850021 1.3999860074519477 0 0 0
1196 1 14.43008838640422 16.662430828639984 -0.0016497852771056101 0 0 0
1194 1 16.233849434704723 15.621028901850023 1.3999860074519466 0 0 0
1197 1 18.037610483004773 12.49682312148002 1.3999860074519481 0 0 0
1199 1 19.84137153130527 13.53822504826998 -0.0016497852771019403 0 0 0
1201 1 21.645132579605775 12.49682312148002 1.3999860074519481 0 0 0
1203 1 23.448893627906273 13.53822504826998 -0.0016497852771018113 0 0 0
1200 1 18.03761048300522 16.66243082863998 -0.001649785277104445 0 0 0
1198 1 19.841371531305725 15.621028901850023 1.3999860074519466 0 0 0
1204 1 21.645132579606223 16.66243082863998 -0.0016497852771044448 0 0 0
1202 1 23.448893627906727 15.621028901850023 1.3999860074519466 0 0 0
1205 1 25.252654676206774 12.496823121480018 1.3999860074519503 0 0 0
1207 1 27.056415724507268 13.53822504826998 -0.0016497852771018284 0 0 0
1209 1 28.860176772807772 12.49682312148002 1.399986007451948 0 0 0
1208 1 25.252654676207225 16.662430828639984 -0.0016497852771043123 0 0 0
1206 1 27.05641572450773 15.621028901850023 1.3999860074519466 0 0 0
1212 1 28.860176772808227 16.66243082863998 -0.001649785277104315 0 0 0
1211 1 30.663937821108266 13.538225048269982 -0.00164978527710415 0 0 0
1213 1 32.46769886940877 12.49682312148002 1.399986007451948 0 0 0
1215 1 34.271459917709265 13.53822504826998 -0.0016497852771019395 0 0 0
1210 1 30.66393782110873 15.621028901850021 1.3999860074519488 0 0 0
1216 1 32.46769886940922 16.66243082863998 -0.0016497852771043327 0 0 0
1214 1 34.27145991770973 15.621028901850023 1.3999860074519466 0 0 0
1217 1 36.07522096600977 12.49682312148002 1.399986007451948 0 0 0
1219 1 37.87898201431027 13.53822504826998 -0.0016497852771019397 0 0 0
1221 1 39.682743062610776 12.49682312148002 1.3999860074519481 0 0 0
1223 1 41.48650411091127 13.53822504826998 -0.0016497852771019405 0 0 0
1220 1 36.07522096601022 16.662430828639984 -0.0016497852771067865 0 0 0
1218 1 37.87898201431072 15.621028901850023 1.3999860074519466 0 0 0
1224 1 39.682743062611216 16.66243082863998 -0.001649785277104444 0 0 0
1222 1 41.486504110911724 15.621028901850023 1.3999860074519466 0 0 0
1225 1 43.29026515921178 12.49682312148002 1.3999860074519481 0 0 0
1227 1 45.09402620751227 13.53822504826998 -0.0016497852771019408 0 0 0
1229 1 46.89778725581278 12.49682312148002 1.3999860074519481 0 0 0
1228 1 43.29026515921222 16.66243082863998 -0.001649785277104445 0 0 0
1226 1 45.09402620751273 15.621028901850023 1.3999860074519466 0 0 0
1232 1 46.89778725581322 16.66243082863998 -0.0016497852771044446 0 0 0
1231 1 48.701548304113274 13.53822504826998 -0.0016497852771018772 0 0 0
1121 1 50.505309352413775 12.496823121480018 1.3999860074519492 -1 0 0
1123 1 52.309070400714276 13.53822504826998 -0.001649785277101999 -1 0 0
1230 1 48.70154830411373 15.621028901850023 1.3999860074519466 0 0 0
1124 1 50.50530935241422 16.662430828639984 -0.001649785277104378 -1 0 0
1122 1 52.30907040071473 15.621028901850023 1.3999860074519466 -1 0 0
1125 1 54.11283144901478 12.49682312148002 1.3999860074519481 -1 0 0
1127 1 55.91659249731527 13.538225048269982 -0.0016497852771031021 -1 0 0
1129 1 57.72035354561578 12.49682312148002 1.399986007451948 -1 0 0
1128 1 54.112831449015225 16.66243082863998 -0.00164978527710438 -1 0 0
1126 1 55.91659249731573 15.621028901850021 1.3999860074519477 -1 0 0
1132 1 57.72035354561623 16.662430828639984 -0.0016497852771045025 -1 0 0
1131 1 59.52411459391627 13.53822504826998 -0.0016497852771018777 -1 0 0
1133 1 61.327875642216775 12.496823121480018 1.3999860074519492 -1 0 0
1135 1 63.131636690517276 13.53822504826998 -0.001649785277100847 -1 0 0
1137 1 64.93539773881778 12.49682312148002 1.3999860074519481 -1 0 0
1130 1 59.52411459391673 15.621028901850021 1.3999860074519466 -1 0 0
1136 1 61.32787564221723 16.662430828639984 -0.0016497852771056726 -1 0 0
1134 1 63.13163669051773 15.621028901850023 1.3999860074519455 -1 0 0
1140 1 64.93539773881824 16.66243082863998 -0.001649785277103157 -1 0 0
1139 1 66.73915878711827 13.538225048269982 -0.0016497852771041504 -1 0 0
1141 1 68.54291983541877 12.49682312148002 1.3999860074519477 -1 0 0
1143 1 70.34668088371927 13.53822504826998 -0.0016497852771019405 -1 0 0
1138 1 66.73915878711874 15.621028901850021 1.3999860074519488 -1 0 0
1144 1 68.54291983541923 16.662430828639984 -0.0016497852771066583 -1 0 0
1142 1 70.34668088371973 15.621028901850023 1.3999860074519466 -1 0 0
1145 1 72.15044193201977 12.49682312148002 1.3999860074519481 -1 0 0
1147 1 73.95420298032028 13.53822504826998 -0.0016497852771019403 -1 0 0
1149 1 75.75796402862078 12.49682312148002 1.3999860074519481 -1 0 0
1148 1 72.15044193202023 16.66243082863998 -0.0016497852771044448 -1 0 0
1146 1 73.95420298032073 15.621028901850023 1.3999860074519466 -1 0 0
1152 1 75.75796402862123 16.66243082863998 -0.001649785277104444 -1 0 0
1151 1 77.56172507692128 13.53822504826998 -0.0016497852771018104 -1 0 0
1153 1 79.36548612522178 12.496823121480018 1.3999860074519503 -1 0 0
1155 1 81.16924717352227 13.538225048269982 -0.00164978527710402 -1 0 0
1157 1 82.97300822182277 12.49682312148002 1.3999860074519477 -1 0 0
1150 1 77.56172507692173 15.621028901850023 1.3999860074519466 -1 0 0
1156 1 79.36548612522223 16.662430828639984 -0.0016497852771041818 -1 0 0
1154 1 81.16924717352273 15.621028901850021 1.3999860074519488 -1 0 0
1160 1 82.97300822182322 16.662430828639984 -0.0016497852771066575 -1 0 0
1159 1 84.77676927012327 13.53822504826998 -0.0016497852771019403 -1 0 0
1161 1 86.58053031842377 12.49682312148002 1.3999860074519481 -1 0 0
1163 1 88.38429136672427 13.53822504826998 -0.0016497852771019414 -1 0 0
1158 1 84.77676927012372 15.621028901850023 1.3999860074519466 -1 0 0
1164 1 86.58053031842422 16.66243082863998 -0.0016497852771044448 -1 0 0
1162 1 88.38429136672472 15.621028901850023 1.3999860074519466 -1 0 0
1165 1 90.18805241502477 12.49682312148002 1.3999860074519481 -1 0 0
1167 1 91.99181346332527 13.53822504826998 -0.0016497852771019397 -1 0 0
1169 1 93.79557451162577 12.49682312148002 1.3999860074519481 -1 0 0
1168 1 90.18805241502523 16.66243082863998 -0.0016497852771044455 -1 0 0
1166 1 91.99181346332573 15.621028901850023 1.3999860074519466 -1 0 0
1172 1 93.79557451162623 16.66243082863998 -0.0016497852771044437 -1 0 0
1177 1 101.01061870482778 12.496823121480018 1.3999860074519492 -1 0 0
1171 1 95.59933555992627 13.53822504826998 -0.00164978527710194 -1 0 0
1173 1 97.40309660822678 12.49682312148002 1.3999860074519481 -1 0 0
1175 1 99.20685765652728 13.53822504826998 -0.0016497852771018777 -1 0 0
1170 1 95.59933555992673 15.621028901850023 1.3999860074519466 -1 0 0
1176 1 97.40309660822723 16.66243082863998 -0.0016497852771044448 -1 0 0
1174 1 99.20685765652773 15.621028901850023 1.3999860074519466 -1 0 0
1291 1 1.8037610483002688 19.786636609009978 -0.001649785277102965 0 0 0
1293 1 3.607522096600772 18.74523468222002 1.3999860074519492 0 0 0
1295 1 5.41128314490127 19.786636609009978 -0.0016497852771018655 0 0 0
1290 1 1.8037610483007263 21.869440462590017 1.399986007451948 0 0 0
1294 1 5.411283144901727 21.869440462590017 1.3999860074519468 0 0 0
1292 1 2.2295127346322174e-13 22.910842389379983 -0.0016497852771018816 0 0 0
1296 1 3.607522096601221 22.910842389379983 -0.0016497852771020676 0 0 0
1297 1 7.215044193201774 18.745234682220016 1.399986007451949 0 0 0
1299 1 9.018805241502271 19.786636609009978 -0.0016497852771018035 0 0 0
1301 1 10.822566289802774 18.745234682220016 1.3999860074519503 0 0 0
1298 1 9.018805241502726 21.869440462590017 1.3999860074519468 0 0 0
1300 1 7.215044193202222 22.910842389379983 -0.0016497852771032383 0 0 0
1304 1 10.822566289803223 22.910842389379983 -0.0016497852771018816 0 0 0
1303 1 12.626327338103268 19.786636609009978 -0.0016497852771029658 0 0 0
1305 1 14.43008838640377 18.745234682220016 1.399986007451949 0 0 0
1307 1 16.23384943470427 19.786636609009978 -0.0016497852771018668 0 0 0
1302 1 12.626327338103726 21.869440462590017 1.399986007451948 0 0 0
1306 1 16.233849434704723 21.869440462590017 1.3999860074519468 0 0 0
1308 1 14.43008838640422 22.910842389379983 -0.0016497852771031765 0 0 0
1309 1 18.037610483004773 18.74523468222002 1.3999860074519492 0 0 0
1311 1 19.84137153130527 19.786636609009978 -0.0016497852771018664 0 0 0
1313 1 21.645132579605775 18.74523468222002 1.3999860074519492 0 0 0
1315 1 23.448893627906273 19.786636609009978 -0.0016497852771017371 0 0 0
1310 1 19.841371531305725 21.869440462590017 1.3999860074519468 0 0 0
1314 1 23.448893627906727 21.869440462590017 1.3999860074519468 0 0 0
1312 1 18.03761048300522 22.910842389379983 -0.0016497852771020108 0 0 0
1316 1 21.645132579606223 22.910842389379983 -0.0016497852771020108 0 0 0
1317 1 25.252654676206774 18.745234682220016 1.3999860074519515 0 0 0
1319 1 27.056415724507268 19.786636609009978 -0.0016497852771017547 0 0 0
1321 1 28.860176772807772 18.74523468222002 1.399986007451949 0 0 0
1318 1 27.05641572450773 21.869440462590017 1.3999860074519468 0 0 0
1320 1 25.252654676207225 22.910842389379983 -0.001649785277101879 0 0 0
1324 1 28.860176772808227 22.910842389379983 -0.0016497852771018816 0 0 0
1323 1 30.663937821108266 19.786636609009978 -0.0016497852771040766 0 0 0
1325 1 32.46769886940877 18.74523468222002 1.399986007451949 0 0 0
1327 1 34.271459917709265 19.786636609009978 -0.0016497852771018657 0 0 0
1322 1 30.66393782110873 21.869440462590017 1.399986007451949 0 0 0
1326 1 34.27145991770973 21.869440462590017 1.3999860074519466 0 0 0
1328 1 32.46769886940922 22.910842389379983 -0.001649785277101899 0 0 0
1329 1 36.07522096600977 18.745234682220016 1.399986007451949 0 0 0
1331 1 37.87898201431027 19.786636609009978 -0.0016497852771018655 0 0 0
1333 1 39.682743062610776 18.74523468222002 1.3999860074519492 0 0 0
1335 1 41.48650411091127 19.786636609009978 -0.0016497852771018666 0 0 0
1330 1 37.87898201431072 21.869440462590017 1.3999860074519466 0 0 0
1334 1 41.486504110911724 21.869440462590017 1.3999860074519468 0 0 0
1332 1 36.07522096601022 22.910842389379983 -0.0016497852771043525 0 0 0
1336 1 39.682743062611216 22.910842389379983 -0.0016497852771020101 0 0 0
1337 1 43.29026515921178 18.74523468222002 1.3999860074519492 0 0 0
1339 1 45.09402620751227 19.786636609009978 -0.0016497852771018668 0 0 0
1341 1 46.89778725581278 18.74523468222002 1.3999860074519492 0 0 0
1338 1 45.09402620751273 21.869440462590017 1.3999860074519468 0 0 0
1340 1 43.29026515921222 22.910842389379983 -0.0016497852771020108 0 0 0
1344 1 46.89778725581322 22.910842389379983 -0.0016497852771020108 0 0 0
1343 1 48.701548304113274 19.786636609009978 -0.001649785277101803 0 0 0
1233 1 50.505309352413775 18.745234682220016 1.3999860074519503 -1 0 0
1235 1 52.309070400714276 19.786636609009978 -0.0016497852771019247 -1 0 0
1342 1 48.70154830411373 21.869440462590017 1.3999860074519468 0 0 0
1234 1 52.30907040071473 21.869440462590017 1.3999860074519468 -1 0 0
1236 1 50.50530935241422 22.910842389379983 -0.0016497852771019447 -1 0 0
1237 1 54.11283144901478 18.745234682220016 1.3999860074519492 -1 0 0
1239 1 55.91659249731527 19.786636609009978 -0.0016497852771030286 -1 0 0
1241 1 57.72035354561578 18.74523468222002 1.3999860074519492 -1 0 0
1238 1 55.91659249731573 21.869440462590017 1.399986007451948 -1 0 0
1240 1 54.112831449015225 22.910842389379983 -0.001649785277101946 -1 0 0
1244 1 57.72035354561623 22.910842389379983 -0.001649785277102068 -1 0 0
1243 1 59.52411459391627 19.786636609009978 -0.0016497852771018035 -1 0 0
1245 1 61.327875642216775 18.745234682220016 1.3999860074519503 -1 0 0
1247 1 63.131636690517276 19.786636609009978 -0.0016497852771007728 -1 0 0
1249 1 64.93539773881778 18.74523468222002 1.3999860074519492 -1 0 0
1242 1 59.52411459391673 21.869440462590017 1.3999860074519468 -1 0 0
1246 1 63.13163669051773 21.86944046259002 1.3999860074519457 -1 0 0
1248 1 61.32787564221723 22.910842389379983 -0.001649785277103239 -1 0 0
1252 1 64.93539773881824 22.91084238937998 -0.0016497852771007236 -1 0 0
1251 1 66.73915878711827 19.786636609009978 -0.0016497852771040766 -1 0 0
1253 1 68.54291983541877 18.745234682220016 1.399986007451949 -1 0 0
1255 1 70.34668088371927 19.786636609009978 -0.0016497852771018666 -1 0 0
1250 1 66.73915878711874 21.869440462590017 1.3999860074519488 -1 0 0
1254 1 70.34668088371973 21.869440462590017 1.3999860074519466 -1 0 0
1256 1 68.54291983541923 22.910842389379983 -0.0016497852771042243 -1 0 0
1257 1 72.15044193201977 18.74523468222002 1.3999860074519492 -1 0 0
1259 1 73.95420298032028 19.786636609009978 -0.0016497852771018662 -1 0 0
1261 1 75.75796402862078 18.74523468222002 1.3999860074519492 -1 0 0