LAMMPS data file via write_data, version 29 Aug 2024, timestep = 1, units = metal

3584 atoms
2 atom types

0 101.010618704828 xlo xhi
0 99.97458497184 ylo yhi
-50 50 zlo zhi

Masses

1 74.921595
2 74.921595

Atoms # atomic

955 1 1.803761048300284 1.0414019267899803 -0.0017408466723988845 0 0 0
957 1 3.6075220966007597 2.0066255778757524e-14 1.4001923430742913 0 0 0
959 1 5.411283144901284 1.0414019267899794 -0.0017408466723977242 0 0 0
954 1 1.8037610483007114 3.124205780370019 1.4001923430742942 0 0 0
958 1 5.411283144901712 3.12420578037002 1.400192343074293 0 0 0
956 1 2.3525768104208486e-13 4.165607707159977 -0.0017408466723975154 0 0 0
960 1 3.607522096601234 4.165607707159977 -0.0017408466723977118 0 0 0
961 1 7.215044193201762 1.9912940238038663e-14 1.4001923430742913 0 0 0
963 1 9.018805241502285 1.0414019267899794 -0.0017408466723976583 0 0 0
965 1 10.822566289802761 1.9269260814798428e-14 1.4001923430742926 0 0 0
962 1 9.018805241502712 3.12420578037002 1.4001923430742929 0 0 0
964 1 7.2150441932022344 4.165607707159978 -0.001740846672398946 0 0 0
968 1 10.822566289803234 4.165607707159977 -0.0017408466723975156 0 0 0
967 1 12.626327338103284 1.0414019267899803 -0.0017408466723988856 0 0 0
969 1 14.43008838640376 1.9963063734438545e-14 1.400192343074291 0 0 0
971 1 16.233849434704283 1.0414019267899794 -0.0017408466723977255 0 0 0
966 1 12.62632733810371 3.124205780370019 1.4001923430742942 0 0 0
970 1 16.23384943470471 3.12420578037002 1.4001923430742929 0 0 0
972 1 14.430088386404233 4.165607707159978 -0.0017408466723988806 0 0 0
973 1 18.037610483004762 2.001736792353853e-14 1.4001923430742913 0 0 0
975 1 19.841371531305285 1.0414019267899794 -0.001740846672397725 0 0 0
977 1 21.645132579605765 2.00173487166808e-14 1.4001923430742913 0 0 0
979 1 23.448893627906287 1.0414019267899792 -0.0017408466723975889 0 0 0
974 1 19.84137153130571 3.12420578037002 1.400192343074293 0 0 0
978 1 23.448893627906713 3.12420578037002 1.400192343074293 0 0 0
976 1 18.03761048300523 4.165607707159977 -0.0017408466723976511 0 0 0
980 1 21.645132579606233 4.165607707159977 -0.0017408466723976513 0 0 0
981 1 25.252654676206763 1.851033384286816e-14 1.4001923430742937 0 0 0
983 1 27.056415724507282 1.0414019267899792 -0.0017408466723976067 0 0 0
985 1 28.860176772807762 2.0104599069080543e-14 1.4001923430742913 0 0 0
982 1 27.056415724507715 3.12420578037002 1.400192343074293 0 0 0
984 1 25.252654676207236 4.165607707159977 -0.0017408466723975113 0 0 0
988 1 28.860176772808238 4.165607707159977 -0.0017408466723975143 0 0 0
987 1 30.66393782110828 1.0414019267899812 -0.0017408466724000572 0 0 0
989 1 32.46769886940876 2.0118882568948743e-14 1.400192343074291 0 0 0
991 1 34.27145991770928 1.0414019267899794 -0.0017408466723977244 0 0 0
986 1 30.663937821108714 3.1242057803700183 1.4001923430742953 0 0 0
990 1 34.27145991770971 3.12420578037002 1.4001923430742929 0 0 0
992 1 32.46769886940923 4.165607707159977 -0.0017408466723975347 0 0 0
993 1 36.07522096600976 1.9809114367414458e-14 1.400192343074291 0 0 0
995 1 37.87898201431028 1.0414019267899794 -0.001740846672397724 0 0 0
997 1 39.68274306261076 2.00171822572471e-14 1.4001923430742913 0 0 0
999 1 41.486504110911284 1.0414019267899794 -0.0017408466723977248 0 0 0
994 1 37.87898201431071 3.12420578037002 1.4001923430742929 0 0 0
998 1 41.48650411091171 3.12420578037002 1.400192343074293 0 0 0
996 1 36.075220966010235 4.165607707159979 -0.0017408466724001227 0 0 0
1000 1 39.68274306261123 4.165607707159977 -0.001740846672397651 0 0 0
1001 1 43.29026515921176 2.0017374325824443e-14 1.4001923430742913 0 0 0
1003 1 45.094026207512286 1.0414019267899794 -0.0017408466723977253 0 0 0
1005 1 46.897787255812766 2.0017470360113114e-14 1.4001923430742913 0 0 0
1002 1 45.09402620751271 3.12420578037002 1.400192343074293 0 0 0
1004 1 43.29026515921223 4.165607707159977 -0.0017408466723976511 0 0 0
1008 1 46.897787255813235 4.165607707159977 -0.0017408466723976511 0 0 0
1007 1 48.70154830411329 1.0414019267899794 -0.0017408466723976583 0 0 0
897 1 50.50530935241377 1.9219329386975887e-14 1.4001923430742926 -1 0 0
899 1 52.30907040071429 1.0414019267899794 -0.0017408466723977862 -1 0 0
1006 1 48.701548304113714 3.12420578037002 1.400192343074293 0 0 0
898 1 52.30907040071472 3.12420578037002 1.400192343074293 -1 0 0
900 1 50.50530935241424 4.165607707159977 -0.0017408466723975813 -1 0 0
901 1 54.11283144901476 1.9971841268422992e-14 1.4001923430742913 -1 0 0
903 1 55.916592497315285 1.0414019267899803 -0.001740846672398951 -1 0 0
905 1 57.720353545615765 2.0066531077051714e-14 1.4001923430742913 -1 0 0
902 1 55.91659249731572 3.124205780370019 1.4001923430742942 -1 0 0
904 1 54.11283144901524 4.165607707159977 -0.0017408466723975845 -1 0 0
908 1 57.72035354561624 4.165607707159977 -0.0017408466723977118 -1 0 0
907 1 59.52411459391629 1.0414019267899794 -0.001740846672397659 -1 0 0
909 1 61.32787564221677 1.9063440127320666e-14 1.4001923430742926 -1 0 0
911 1 63.13163669051729 1.0414019267899786 -0.0017408466723965715 -1 0 0
913 1 64.93539773881777 2.0156502400963778e-14 1.4001923430742913 -1 0 0
906 1 59.524114593916714 3.12420578037002 1.400192343074293 -1 0 0
910 1 63.131636690517716 3.124205780370021 1.4001923430742917 -1 0 0
912 1 61.327875642217236 4.165607707159978 -0.0017408466723989474 -1 0 0
916 1 64.93539773881824 4.165607707159976 -0.001740846672396293 -1 0 0
915 1 66.73915878711828 1.0414019267899812 -0.0017408466724000578 -1 0 0
917 1 68.54291983541876 1.9911282045987625e-14 1.400192343074291 -1 0 0
919 1 70.34668088371929 1.0414019267899794 -0.0017408466723977253 -1 0 0
914 1 66.73915878711873 3.1242057803700183 1.4001923430742953 -1 0 0
918 1 70.34668088371971 3.12420578037002 1.4001923430742929 -1 0 0
920 1 68.54291983541924 4.165607707159979 -0.001740846672399987 -1 0 0
921 1 72.15044193201976 2.0017483164684936e-14 1.4001923430742913 -1 0 0
923 1 73.95420298032029 1.0414019267899794 -0.0017408466723977248 -1 0 0
925 1 75.75796402862076 2.001707982067252e-14 1.4001923430742913 -1 0 0
922 1 73.95420298032072 3.12420578037002 1.400192343074293 -1 0 0
924 1 72.15044193202024 4.165607707159977 -0.001740846672397651 -1 0 0
928 1 75.75796402862125 4.165607707159977 -0.0017408466723976505 -1 0 0
927 1 77.56172507692129 1.0414019267899792 -0.001740846672397588 -1 0 0
929 1 79.36548612522176 1.8612431096296304e-14 1.4001923430742937 -1 0 0
931 1 81.16924717352228 1.041401926789981 -0.0017408466723999201 -1 0 0
933 1 82.97300822182275 1.9911051563694817e-14 1.400192343074291 -1 0 0
926 1 77.56172507692172 3.12420578037002 1.400192343074293 -1 0 0
930 1 81.16924717352272 3.1242057803700183 1.4001923430742953 -1 0 0
932 1 79.36548612522225 4.165607707159977 -0.0017408466723973744 -1 0 0
936 1 82.97300822182324 4.165607707159979 -0.0017408466723999865 -1 0 0
935 1 84.77676927012328 1.0414019267899794 -0.0017408466723977248 -1 0 0
937 1 86.58053031842375 2.0017495969256758e-14 1.4001923430742913 -1 0 0
939 1 88.38429136672428 1.0414019267899794 -0.0017408466723977255 -1 0 0
934 1 84.77676927012371 3.12420578037002 1.4001923430742929 -1 0 0
938 1 88.38429136672471 3.12420578037002 1.400192343074293 -1 0 0
940 1 86.58053031842424 4.165607707159977 -0.001740846672397652 -1 0 0
941 1 90.18805241502476 2.0017393532682178e-14 1.4001923430742913 -1 0 0
943 1 91.99181346332529 1.0414019267899794 -0.0017408466723977242 -1 0 0
945 1 93.79557451162576 2.0017188659533014e-14 1.4001923430742913 -1 0 0
942 1 91.99181346332571 3.12420578037002 1.400192343074293 -1 0 0
944 1 90.18805241502524 4.165607707159977 -0.0017408466723976516 -1 0 0
948 1 93.79557451162624 4.165607707159977 -0.0017408466723976505 -1 0 0
953 1 101.01061870482776 1.926954891766444e-14 1.4001923430742926 -1 0 0
947 1 95.59933555992629 1.0414019267899794 -0.0017408466723977246 -1 0 0
949 1 97.40309660822676 2.0017355118966708e-14 1.4001923430742913 -1 0 0
951 1 99.20685765652729 1.0414019267899794 -0.0017408466723976587 -1 0 0
946 1 95.59933555992671 3.12420578037002 1.400192343074293 -1 0 0
950 1 99.20685765652772 3.12420578037002 1.400192343074293 -1 0 0
952 1 97.40309660822724 4.165607707159977 -0.0017408466723976513 -1 0 0
1069 1 3.6075220966007597 6.248411560740018 1.400192343074293 0 0 0
1067 1 1.803761048300284 7.289813487529979 -0.0017408466723974525 0 0 0
1071 1 5.411283144901284 7.289813487529978 -0.0017408466723962928 0 0 0
1066 1 1.8037610483007114 9.37261734111002 1.4001923430742929 0 0 0
1070 1 5.411283144901712 9.37261734111002 1.4001923430742917 0 0 0
1068 1 2.3525768104208486e-13 10.414019267899981 -0.0017408466723975895 0 0 0
1072 1 3.607522096601234 10.414019267899981 -0.001740846672397786 0 0 0
1073 1 7.215044193201762 6.248411560740018 1.400192343074293 0 0 0
1077 1 10.822566289802761 6.248411560740017 1.4001923430742944 0 0 0
1075 1 9.018805241502285 7.289813487529978 -0.0017408466723962276 0 0 0
1074 1 9.018805241502712 9.37261734111002 1.4001923430742915 0 0 0
1076 1 7.2150441932022344 10.414019267899981 -0.0017408466723990202 0 0 0
1080 1 10.822566289803234 10.414019267899981 -0.0017408466723975889 0 0 0
1081 1 14.43008838640376 6.248411560740018 1.4001923430742929 0 0 0
1079 1 12.626327338103284 7.289813487529979 -0.0017408466723974534 0 0 0
1083 1 16.233849434704283 7.289813487529978 -0.001740846672396294 0 0 0
1078 1 12.62632733810371 9.37261734111002 1.4001923430742929 0 0 0
1082 1 16.23384943470471 9.37261734111002 1.4001923430742915 0 0 0
1084 1 14.430088386404233 10.414019267899981 -0.0017408466723989548 0 0 0
1085 1 18.037610483004762 6.248411560740018 1.400192343074293 0 0 0
1089 1 21.645132579605765 6.248411560740018 1.400192343074293 0 0 0
1087 1 19.841371531305285 7.289813487529978 -0.001740846672396294 0 0 0
1091 1 23.448893627906287 7.289813487529978 -0.0017408466723961573 0 0 0
1086 1 19.84137153130571 9.37261734111002 1.4001923430742917 0 0 0
1090 1 23.448893627906713 9.37261734111002 1.4001923430742917 0 0 0
1088 1 18.03761048300523 10.41401926789998 -0.0017408466723977253 0 0 0
1092 1 21.645132579606233 10.41401926789998 -0.0017408466723977255 0 0 0
1093 1 25.252654676206763 6.248411560740016 1.4001923430742955 0 0 0
1097 1 28.860176772807762 6.248411560740018 1.4001923430742929 0 0 0
1095 1 27.056415724507282 7.289813487529978 -0.0017408466723961755 0 0 0
1094 1 27.056415724507715 9.37261734111002 1.4001923430742917 0 0 0
1096 1 25.252654676207236 10.414019267899981 -0.0017408466723975858 0 0 0
1100 1 28.860176772808238 10.41401926789998 -0.0017408466723975889 0 0 0
1101 1 32.46769886940876 6.248411560740018 1.4001923430742929 0 0 0
1099 1 30.66393782110828 7.28981348752998 -0.0017408466723986254 0 0 0
1103 1 34.27145991770928 7.289813487529978 -0.0017408466723962924 0 0 0
1098 1 30.663937821108714 9.372617341110018 1.400192343074294 0 0 0
1102 1 34.27145991770971 9.37261734111002 1.4001923430742915 0 0 0
1104 1 32.46769886940923 10.41401926789998 -0.0017408466723976077 0 0 0
1105 1 36.07522096600976 6.248411560740018 1.4001923430742929 0 0 0
1109 1 39.68274306261076 6.248411560740018 1.400192343074293 0 0 0
1107 1 37.87898201431028 7.289813487529978 -0.0017408466723962926 0 0 0
1111 1 41.486504110911284 7.289813487529978 -0.0017408466723962937 0 0 0
1106 1 37.87898201431071 9.37261734111002 1.4001923430742915 0 0 0
1110 1 41.48650411091171 9.37261734111002 1.4001923430742917 0 0 0
1108 1 36.075220966010235 10.414019267899981 -0.0017408466724001962 0 0 0
1112 1 39.68274306261123 10.41401926789998 -0.0017408466723977246 0 0 0
1113 1 43.29026515921176 6.248411560740018 1.400192343074293 0 0 0
1117 1 46.897787255812766 6.248411560740018 1.400192343074293 0 0 0
1115 1 45.094026207512286 7.289813487529978 -0.0017408466723962946 0 0 0
1114 1 45.09402620751271 9.37261734111002 1.4001923430742917 0 0 0
1116 1 43.29026515921223 10.41401926789998 -0.0017408466723977253 0 0 0
1120 1 46.897787255813235 10.41401926789998 -0.0017408466723977253 0 0 0
1009 1 50.50530935241377 6.248411560740017 1.4001923430742944 -1 0 0
1119 1 48.70154830411329 7.289813487529978 -0.0017408466723962267 0 0 0
1011 1 52.30907040071429 7.289813487529978 -0.0017408466723963553 -1 0 0
1118 1 48.701548304113714 9.37261734111002 1.4001923430742917 0 0 0
1010 1 52.30907040071472 9.37261734111002 1.4001923430742917 -1 0 0
1012 1 50.50530935241424 10.414019267899981 -0.0017408466723976555 -1 0 0
1013 1 54.11283144901476 6.248411560740018 1.400192343074293 -1 0 0
1017 1 57.720353545615765 6.248411560740018 1.400192343074293 -1 0 0
1015 1 55.916592497315285 7.289813487529979 -0.0017408466723975195 -1 0 0
1014 1 55.91659249731572 9.37261734111002 1.4001923430742929 -1 0 0
1016 1 54.11283144901524 10.41401926789998 -0.0017408466723976574 -1 0 0
1020 1 57.72035354561624 10.414019267899981 -0.0017408466723977864 -1 0 0
1021 1 61.32787564221677 6.248411560740017 1.4001923430742944 -1 0 0
1025 1 64.93539773881777 6.248411560740018 1.400192343074293 -1 0 0
1019 1 59.52411459391629 7.289813487529978 -0.0017408466723962273 -1 0 0
1023 1 63.13163669051729 7.289813487529977 -0.0017408466723951399 -1 0 0
1018 1 59.524114593916714 9.37261734111002 1.4001923430742917 -1 0 0
1022 1 63.131636690517716 9.372617341110022 1.4001923430742904 -1 0 0
1024 1 61.327875642217236 10.414019267899981 -0.001740846672399021 -1 0 0
1028 1 64.93539773881824 10.41401926789998 -0.0017408466723963666 -1 0 0
1029 1 68.54291983541876 6.248411560740018 1.4001923430742929 -1 0 0
1027 1 66.73915878711828 7.28981348752998 -0.0017408466723986258 -1 0 0
1031 1 70.34668088371929 7.289813487529978 -0.0017408466723962937 -1 0 0
1026 1 66.73915878711873 9.372617341110018 1.400192343074294 -1 0 0
1030 1 70.34668088371971 9.37261734111002 1.4001923430742915 -1 0 0
1032 1 68.54291983541924 10.414019267899981 -0.001740846672400061 -1 0 0
1033 1 72.15044193201976 6.248411560740018 1.400192343074293 -1 0 0
1037 1 75.75796402862076 6.248411560740018 1.400192343074293 -1 0 0
1035 1 73.95420298032029 7.289813487529978 -0.0017408466723962941 -1 0 0
1034 1 73.95420298032072 9.37261734111002 1.4001923430742917 -1 0 0
1036 1 72.15044193202024 10.41401926789998 -0.001740846672397725 -1 0 0
1040 1 75.75796402862125 10.41401926789998 -0.0017408466723977246 -1 0 0
1041 1 79.36548612522176 6.248411560740016 1.4001923430742955 -1 0 0
1045 1 82.97300822182275 6.248411560740018 1.4001923430742929 -1 0 0
1039 1 77.56172507692129 7.289813487529978 -0.0017408466723961564 -1 0 0
1043 1 81.16924717352228 7.28981348752998 -0.0017408466723984886 -1 0 0
1038 1 77.56172507692172 9.37261734111002 1.4001923430742917 -1 0 0
1042 1 81.16924717352272 9.372617341110018 1.4001923430742937 -1 0 0
1044 1 79.36548612522225 10.414019267899981 -0.0017408466723974488 -1 0 0
1048 1 82.97300822182324 10.414019267899981 -0.0017408466724000602 -1 0 0
1049 1 86.58053031842375 6.248411560740018 1.400192343074293 -1 0 0
1047 1 84.77676927012328 7.289813487529978 -0.0017408466723962937 -1 0 0
1051 1 88.38429136672428 7.289813487529978 -0.0017408466723962943 -1 0 0
1046 1 84.77676927012371 9.37261734111002 1.4001923430742915 -1 0 0
1050 1 88.38429136672471 9.37261734111002 1.4001923430742917 -1 0 0
1052 1 86.58053031842424 10.41401926789998 -0.0017408466723977257 -1 0 0
1053 1 90.18805241502476 6.248411560740018 1.400192343074293 -1 0 0
1057 1 93.79557451162576 6.248411560740018 1.400192343074293 -1 0 0
1055 1 91.99181346332529 7.289813487529978 -0.0017408466723962933 -1 0 0
1054 1 91.99181346332571 9.37261734111002 1.4001923430742917 -1 0 0
1056 1 90.18805241502524 10.41401926789998 -0.0017408466723977257 -1 0 0
1060 1 93.79557451162624 10.41401926789998 -0.0017408466723977242 -1 0 0
1065 1 101.01061870482776 6.248411560740017 1.4001923430742944 -1 0 0
1061 1 97.40309660822676 6.248411560740018 1.400192343074293 -1 0 0
1059 1 95.59933555992629 7.289813487529978 -0.0017408466723962935 -1 0 0
1063 1 99.20685765652729 7.289813487529978 -0.0017408466723962276 -1 0 0
1058 1 95.59933555992671 9.37261734111002 1.4001923430742917 -1 0 0
1062 1 99.20685765652772 9.37261734111002 1.4001923430742917 -1 0 0
1064 1 97.40309660822724 10.41401926789998 -0.0017408466723977255 -1 0 0
1179 1 1.803761048300284 13.53822504826998 -0.0017408466723974523 0 0 0
1181 1 3.6075220966007597 12.496823121480022 1.400192343074293 0 0 0
1183 1 5.411283144901284 13.53822504826998 -0.0017408466723962926 0 0 0
1180 1 2.3525727129578656e-13 16.66243082863998 -0.0017408466723987995 0 0 0
1178 1 1.8037610483007114 15.621028901850023 1.4001923430742929 0 0 0
1184 1 3.607522096601234 16.66243082863998 -0.0017408466723989964 0 0 0
1182 1 5.411283144901712 15.621028901850023 1.4001923430742915 0 0 0
1185 1 7.215044193201762 12.49682312148002 1.400192343074293 0 0 0
1187 1 9.018805241502285 13.53822504826998 -0.0017408466723962271 0 0 0
1189 1 10.822566289802761 12.49682312148002 1.4001923430742944 0 0 0
1188 1 7.2150441932022344 16.66243082863998 -0.001740846672400231 0 0 0
1186 1 9.018805241502712 15.621028901850023 1.4001923430742915 0 0 0
1192 1 10.822566289803234 16.66243082863998 -0.0017408466723987993 0 0 0
1191 1 12.626327338103284 13.53822504826998 -0.001740846672397453 0 0 0
1193 1 14.43008838640376 12.49682312148002 1.4001923430742929 0 0 0
1195 1 16.233849434704283 13.53822504826998 -0.0017408466723962937 0 0 0
1190 1 12.62632733810371 15.621028901850023 1.4001923430742926 0 0 0
1196 1 14.430088386404233 16.66243082863998 -0.0017408466724001656 0 0 0
1194 1 16.23384943470471 15.621028901850023 1.4001923430742915 0 0 0
1197 1 18.037610483004762 12.496823121480022 1.400192343074293 0 0 0
1199 1 19.841371531305285 13.53822504826998 -0.0017408466723962933 0 0 0
1201 1 21.645132579605765 12.496823121480022 1.400192343074293 0 0 0
1203 1 23.448893627906287 13.53822504826998 -0.001740846672396157 0 0 0
1200 1 18.03761048300523 16.66243082863998 -0.0017408466723989361 0 0 0
1198 1 19.84137153130571 15.621028901850023 1.4001923430742915 0 0 0
1204 1 21.645132579606233 16.66243082863998 -0.001740846672398936 0 0 0
1202 1 23.448893627906713 15.621028901850023 1.4001923430742915 0 0 0
1205 1 25.252654676206763 12.49682312148002 1.4001923430742955 0 0 0
1207 1 27.056415724507282 13.53822504826998 -0.001740846672396175 0 0 0
1209 1 28.860176772807762 12.496823121480022 1.4001923430742929 0 0 0
1208 1 25.252654676207236 16.66243082863998 -0.0017408466723987963 0 0 0
1206 1 27.056415724507715 15.621028901850023 1.4001923430742915 0 0 0
1212 1 28.860176772808238 16.66243082863998 -0.0017408466723987989 0 0 0
1211 1 30.66393782110828 13.538225048269982 -0.0017408466723986247 0 0 0
1213 1 32.46769886940876 12.496823121480022 1.4001923430742929 0 0 0
1215 1 34.27145991770928 13.53822504826998 -0.0017408466723962922 0 0 0
1210 1 30.663937821108714 15.621028901850021 1.400192343074294 0 0 0
1216 1 32.46769886940923 16.66243082863998 -0.0017408466723988177 0 0 0
1214 1 34.27145991770971 15.621028901850023 1.4001923430742915 0 0 0
1217 1 36.07522096600976 12.49682312148002 1.4001923430742929 0 0 0
1219 1 37.87898201431028 13.53822504826998 -0.0017408466723962924 0 0 0
1221 1 39.68274306261076 12.496823121480022 1.400192343074293 0 0 0
1223 1 41.486504110911284 13.53822504826998 -0.0017408466723962935 0 0 0
1220 1 36.075220966010235 16.662430828639984 -0.0017408466724014068 0 0 0
1218 1 37.87898201431071 15.621028901850023 1.4001923430742915 0 0 0
1224 1 39.68274306261123 16.66243082863998 -0.001740846672398935 0 0 0
1222 1 41.48650411091171 15.621028901850023 1.4001923430742915 0 0 0
1225 1 43.29026515921176 12.496823121480022 1.400192343074293 0 0 0
1227 1 45.094026207512286 13.53822504826998 -0.0017408466723962937 0 0 0
1229 1 46.897787255812766 12.496823121480022 1.400192343074293 0 0 0
1228 1 43.29026515921223 16.66243082863998 -0.0017408466723989361 0 0 0
1226 1 45.09402620751271 15.621028901850023 1.4001923430742915 0 0 0
1232 1 46.897787255813235 16.66243082863998 -0.0017408466723989357 0 0 0
1231 1 48.70154830411329 13.53822504826998 -0.0017408466723962265 0 0 0
1121 1 50.50530935241377 12.49682312148002 1.4001923430742944 -1 0 0
1123 1 52.30907040071429 13.53822504826998 -0.001740846672396355 -1 0 0
1230 1 48.701548304113714 15.621028901850023 1.4001923430742915 0 0 0
1124 1 50.50530935241424 16.66243082863998 -0.0017408466723988654 -1 0 0
1122 1 52.30907040071472 15.621028901850023 1.4001923430742915 -1 0 0
1125 1 54.11283144901476 12.496823121480022 1.400192343074293 -1 0 0
1127 1 55.916592497315285 13.53822504826998 -0.001740846672397519 -1 0 0
1129 1 57.720353545615765 12.496823121480022 1.400192343074293 -1 0 0
1128 1 54.11283144901524 16.66243082863998 -0.0017408466723988674 -1 0 0
1126 1 55.91659249731572 15.621028901850023 1.4001923430742929 -1 0 0
1132 1 57.72035354561624 16.66243082863998 -0.0017408466723989968 -1 0 0
1131 1 59.52411459391629 13.53822504826998 -0.0017408466723962271 -1 0 0
1133 1 61.32787564221677 12.49682312148002 1.4001923430742944 -1 0 0
1135 1 63.13163669051729 13.538225048269979 -0.0017408466723951395 -1 0 0
1137 1 64.93539773881777 12.496823121480022 1.400192343074293 -1 0 0
1130 1 59.524114593916714 15.621028901850023 1.4001923430742915 -1 0 0
1136 1 61.327875642217236 16.66243082863998 -0.0017408466724002313 -1 0 0
1134 1 63.131636690517716 15.621028901850025 1.4001923430742904 -1 0 0
1140 1 64.93539773881824 16.66243082863998 -0.001740846672397577 -1 0 0
1139 1 66.73915878711828 13.538225048269982 -0.0017408466723986252 -1 0 0
1141 1 68.54291983541876 12.49682312148002 1.4001923430742929 -1 0 0
1143 1 70.34668088371929 13.53822504826998 -0.0017408466723962935 -1 0 0
1138 1 66.73915878711873 15.621028901850021 1.4001923430742937 -1 0 0
1144 1 68.54291983541924 16.662430828639984 -0.0017408466724012715 -1 0 0
1142 1 70.34668088371971 15.621028901850023 1.4001923430742915 -1 0 0
1145 1 72.15044193201976 12.496823121480022 1.400192343074293 -1 0 0
1147 1 73.95420298032029 13.53822504826998 -0.0017408466723962933 -1 0 0
1149 1 75.75796402862076 12.496823121480022 1.400192343074293 -1 0 0
1148 1 72.15044193202024 16.66243082863998 -0.001740846672398936 -1 0 0
1146 1 73.95420298032072 15.621028901850023 1.4001923430742915 -1 0 0
1152 1 75.75796402862125 16.66243082863998 -0.001740846672398935 -1 0 0
1151 1 77.56172507692129 13.53822504826998 -0.0017408466723961562 -1 0 0
1153 1 79.36548612522176 12.49682312148002 1.4001923430742955 -1 0 0
1155 1 81.16924717352228 13.538225048269982 -0.0017408466723984877 -1 0 0
1157 1 82.97300822182275 12.49682312148002 1.4001923430742929 -1 0 0
1150 1 77.56172507692172 15.621028901850023 1.4001923430742915 -1 0 0
1156 1 79.36548612522225 16.66243082863998 -0.0017408466723986583 -1 0 0
1154 1 81.16924717352272 15.621028901850021 1.4001923430742937 -1 0 0
1160 1 82.97300822182324 16.662430828639984 -0.0017408466724012706 -1 0 0
1159 1 84.77676927012328 13.53822504826998 -0.001740846672396293 -1 0 0
1161 1 86.58053031842375 12.496823121480022 1.400192343074293 -1 0 0
1163 1 88.38429136672428 13.53822504826998 -0.0017408466723962943 -1 0 0
1158 1 84.77676927012371 15.621028901850023 1.4001923430742915 -1 0 0
1164 1 86.58053031842424 16.66243082863998 -0.001740846672398936 -1 0 0
1162 1 88.38429136672471 15.621028901850023 1.4001923430742915 -1 0 0
1165 1 90.18805241502476 12.496823121480022 1.400192343074293 -1 0 0
1167 1 91.99181346332529 13.53822504826998 -0.0017408466723962924 -1 0 0
1169 1 93.79557451162576 12.496823121480022 1.400192343074293 -1 0 0
1168 1 90.18805241502524 16.66243082863998 -0.0017408466723989365 -1 0 0
1166 1 91.99181346332571 15.621028901850023 1.4001923430742915 -1 0 0
1172 1 93.79557451162624 16.66243082863998 -0.0017408466723989346 -1 0 0
1177 1 101.01061870482776 12.49682312148002 1.4001923430742944 -1 0 0
1171 1 95.59933555992629 13.53822504826998 -0.0017408466723962928 -1 0 0
1173 1 97.40309660822676 12.496823121480022 1.400192343074293 -1 0 0
1175 1 99.20685765652729 13.53822504826998 -0.0017408466723962271 -1 0 0
1170 1 95.59933555992671 15.621028901850023 1.4001923430742915 -1 0 0
1176 1 97.40309660822724 16.66243082863998 -0.001740846672398936 -1 0 0
1174 1 99.20685765652772 15.621028901850023 1.4001923430742915 -1 0 0
1291 1 1.803761048300284 19.786636609009978 -0.0017408466723973746 0 0 0
1293 1 3.6075220966007597 18.74523468222002 1.4001923430742942 0 0 0
1295 1 5.411283144901284 19.786636609009975 -0.0017408466723962141 0 0 0
1290 1 1.8037610483007114 21.869440462590017 1.4001923430742929 0 0 0
1294 1 5.411283144901712 21.86944046259002 1.4001923430742917 0 0 0
1292 1 2.3525727129578656e-13 22.91084238937998 -0.0017408466723962312 0 0 0
1296 1 3.607522096601234 22.91084238937998 -0.0017408466723964275 0 0 0
1297 1 7.215044193201762 18.74523468222002 1.4001923430742942 0 0 0
1299 1 9.018805241502285 19.786636609009975 -0.0017408466723961488 0 0 0
1301 1 10.822566289802761 18.74523468222002 1.4001923430742955 0 0 0
1298 1 9.018805241502712 21.86944046259002 1.4001923430742917 0 0 0
1300 1 7.2150441932022344 22.910842389379983 -0.0017408466723976628 0 0 0
1304 1 10.822566289803234 22.91084238937998 -0.0017408466723962312 0 0 0
1303 1 12.626327338103284 19.786636609009978 -0.001740846672397375 0 0 0
1305 1 14.43008838640376 18.74523468222002 1.4001923430742942 0 0 0
1307 1 16.233849434704283 19.786636609009975 -0.0017408466723962156 0 0 0
1302 1 12.62632733810371 21.869440462590017 1.4001923430742929 0 0 0
1306 1 16.23384943470471 21.86944046259002 1.4001923430742917 0 0 0
1308 1 14.430088386404233 22.910842389379983 -0.0017408466723975978 0 0 0
1309 1 18.037610483004762 18.74523468222002 1.4001923430742942 0 0 0
1311 1 19.841371531305285 19.786636609009975 -0.0017408466723962152 0 0 0
1313 1 21.645132579605765 18.74523468222002 1.4001923430742942 0 0 0
1315 1 23.448893627906287 19.786636609009975 -0.0017408466723960788 0 0 0
1310 1 19.84137153130571 21.86944046259002 1.4001923430742917 0 0 0
1314 1 23.448893627906713 21.86944046259002 1.4001923430742917 0 0 0
1312 1 18.03761048300523 22.91084238937998 -0.0017408466723963676 0 0 0
1316 1 21.645132579606233 22.91084238937998 -0.0017408466723963676 0 0 0
1317 1 25.252654676206763 18.745234682220016 1.4001923430742969 0 0 0
1319 1 27.056415724507282 19.786636609009975 -0.0017408466723960972 0 0 0
1321 1 28.860176772807762 18.74523468222002 1.4001923430742942 0 0 0
1318 1 27.056415724507715 21.86944046259002 1.4001923430742917 0 0 0
1320 1 25.252654676207236 22.91084238937998 -0.0017408466723962282 0 0 0
1324 1 28.860176772808238 22.91084238937998 -0.0017408466723962312 0 0 0
1323 1 30.66393782110828 19.786636609009978 -0.0017408466723985473 0 0 0
1325 1 32.46769886940876 18.74523468222002 1.4001923430742942 0 0 0
1327 1 34.27145991770928 19.786636609009975 -0.0017408466723962143 0 0 0
1322 1 30.663937821108714 21.869440462590017 1.400192343074294 0 0 0
1326 1 34.27145991770971 21.86944046259002 1.4001923430742915 0 0 0
1328 1 32.46769886940923 22.91084238937998 -0.0017408466723962495 0 0 0
1329 1 36.07522096600976 18.74523468222002 1.4001923430742942 0 0 0
1331 1 37.87898201431028 19.786636609009975 -0.0017408466723962141 0 0 0
1333 1 39.68274306261076 18.74523468222002 1.4001923430742942 0 0 0
1335 1 41.486504110911284 19.786636609009975 -0.0017408466723962154 0 0 0
1330 1 37.87898201431071 21.86944046259002 1.4001923430742915 0 0 0
1334 1 41.48650411091171 21.86944046259002 1.4001923430742917 0 0 0
1332 1 36.075220966010235 22.910842389379983 -0.0017408466723988383 0 0 0
1336 1 39.68274306261123 22.91084238937998 -0.0017408466723963668 0 0 0
1337 1 43.29026515921176 18.74523468222002 1.4001923430742942 0 0 0
1339 1 45.094026207512286 19.786636609009975 -0.0017408466723962156 0 0 0
1341 1 46.897787255812766 18.74523468222002 1.4001923430742942 0 0 0
1338 1 45.09402620751271 21.86944046259002 1.4001923430742917 0 0 0
1340 1 43.29026515921223 22.91084238937998 -0.0017408466723963676 0 0 0
1344 1 46.897787255813235 22.91084238937998 -0.0017408466723963676 0 0 0
1343 1 48.70154830411329 19.786636609009975 -0.0017408466723961482 0 0 0
1233 1 50.50530935241377 18.74523468222002 1.4001923430742955 -1 0 0
1235 1 52.30907040071429 19.786636609009975 -0.0017408466723962766 -1 0 0
1342 1 48.701548304113714 21.86944046259002 1.4001923430742917 0 0 0
1234 1 52.30907040071472 21.86944046259002 1.4001923430742917 -1 0 0
1236 1 50.50530935241424 22.91084238937998 -0.0017408466723962978 -1 0 0
1237 1 54.11283144901476 18.74523468222002 1.4001923430742944 -1 0 0
1239 1 55.916592497315285 19.786636609009978 -0.0017408466723974416 -1 0 0
1241 1 57.720353545615765 18.74523468222002 1.4001923430742942 -1 0 0
1238 1 55.91659249731572 21.869440462590017 1.4001923430742929 -1 0 0
1240 1 54.11283144901524 22.91084238937998 -0.0017408466723962991 -1 0 0
1244 1 57.72035354561624 22.91084238937998 -0.001740846672396428 -1 0 0
1243 1 59.52411459391629 19.786636609009975 -0.0017408466723961488 -1 0 0
1245 1 61.32787564221677 18.74523468222002 1.4001923430742955 -1 0 0
1247 1 63.13163669051729 19.786636609009975 -0.0017408466723950614 -1 0 0
1249 1 64.93539773881777 18.74523468222002 1.4001923430742944 -1 0 0
1242 1 59.524114593916714 21.86944046259002 1.4001923430742917 -1 0 0
1246 1 63.131636690517716 21.86944046259002 1.4001923430742904 -1 0 0
1248 1 61.327875642217236 22.910842389379983 -0.0017408466723976635 -1 0 0
1252 1 64.93539773881824 22.91084238937998 -0.0017408466723950093 -1 0 0
1251 1 66.73915878711828 19.786636609009978 -0.0017408466723985475 -1 0 0
1253 1 68.54291983541876 18.74523468222002 1.400192343074294 -1 0 0
1255 1 70.34668088371929 19.786636609009975 -0.0017408466723962154 -1 0 0
1250 1 66.73915878711873 21.869440462590017 1.400192343074294 -1 0 0
1254 1 70.34668088371971 21.86944046259002 1.4001923430742915 -1 0 0
1256 1 68.54291983541924 22.910842389379983 -0.0017408466723987032 -1 0 0
1257 1 72.15044193201976 18.74523468222002 1.4001923430742942 -1 0 0
1259 1 73.95420298032029 19.786636609009975 -0.001740846672396215 -1 0 0
1261 1 75.75796402862076 18.74523468222002 1.4001923430742942 -1 0 0
1258 1 73.95420298032072 21.86944046259002 1.4001923430742917 -1 0 0
1260 1 72.15044193202024 22.91084238937998 -0.0017408466723963676 -1 0 0