LAMMPS data file via write_data, version 29 Aug 2024, timestep = 3, units = metal

5376 atoms
6 atom types

0 99.168935036696 xlo xhi
0 98.151790866336 ylo yhi
-50 50 zlo zhi

Masses

1 58.6934
2 58.6934
3 78.971
4 78.971
5 78.971
6 78.971

Atoms # atomic

1433 1 3.3111441191885533e-14 2.456613463799696e-14 1.2246036799044016 0 0 0
1439 1 3.5417476798819885 5.255495994960734e-14 1.2246036799044213 0 0 0
1434 1 1.7708738399410195 3.067243464572977 1.2246036799044144 0 0 0
1437 4 3.5417476798820005 2.0448289763818024 0.057605926275201266 0 0 0
1440 1 5.312621519823006 3.0672434645729783 1.2246036799044127 0 0 0
1432 4 1.7708738399410142 5.112072440954811 0.05760592627518314 0 0 0
1438 4 5.312621519823005 5.112072440954808 0.05760592627518157 0 0 0
1429 3 1.770873839941016 1.0224144881911847 2.3886863913620044 0 0 0
1435 3 5.312621519823006 1.0224144881911807 2.388686391362004 0 0 0
1436 3 3.5417476798819956 4.089657952764181 2.3886863913619956 0 0 0
1445 1 7.083495359764005 5.421005862407973e-14 1.224603679904418 0 0 0
1451 1 10.625243039646014 5.230347738748666e-14 1.224603679904422 0 0 0
1443 4 7.083495359764005 2.044828976381802 0.05760592627520526 0 0 0
1446 1 8.854369199704982 3.067243464572977 1.224603679904415 0 0 0
1449 4 10.625243039646014 2.0448289763818033 0.05760592627520174 0 0 0
1444 4 8.854369199704994 5.112072440954809 0.05760592627518435 0 0 0
1441 3 8.854369199704994 1.0224144881911819 2.388686391362001 0 0 0
1442 3 7.083495359764005 4.0896579527641705 2.3886863913619942 0 0 0
1448 3 10.625243039646014 4.089657952764176 2.388686391361996 0 0 0
1457 1 14.166990719528014 5.131302482428778e-14 1.2246036799044115 0 0 0
1452 1 12.396116879586968 3.067243464572978 1.2246036799044133 0 0 0
1455 4 14.166990719528007 2.0448289763817984 0.057605926275197686 0 0 0
1458 1 15.937864559469014 3.0672434645729783 1.224603679904411 0 0 0
1450 4 12.396116879587007 5.112072440954808 0.057605926275185126 0 0 0
1456 4 15.93786455946899 5.112072440954811 0.05760592627518893 0 0 0
1447 3 12.396116879587 1.0224144881911812 2.388686391361998 0 0 0
1453 3 15.937864559468991 1.0224144881911812 2.388686391362001 0 0 0
1454 3 14.166990719528007 4.089657952764181 2.3886863913620022 0 0 0
1463 1 17.70873839940998 4.805719408321316e-14 1.2246036799044124 0 0 0
1469 1 21.25048607929194 4.873370928943524e-14 1.2246036799044169 0 0 0
1461 4 17.708738399409995 2.0448289763818015 0.057605926275202404 0 0 0
1464 1 19.479612239351003 3.067243464572981 1.224603679904416 0 0 0
1467 4 21.25048607929199 2.044828976381801 0.05760592627519671 0 0 0
1470 1 23.021359919233042 3.067243464572977 1.2246036799044149 0 0 0
1462 4 19.47961223935103 5.1120724409548135 0.05760592627519006 0 0 0
1468 4 23.021359919233028 5.112072440954805 0.05760592627517671 0 0 0
1459 3 19.47961223935103 1.0224144881911772 2.3886863913619987 0 0 0
1465 3 23.021359919233024 1.0224144881911863 2.388686391362008 0 0 0
1460 3 17.70873839941 4.089657952764174 2.3886863913619996 0 0 0
1466 3 21.25048607929199 4.089657952764173 2.3886863913620013 0 0 0
1475 1 24.792233759173957 5.139861203038833e-14 1.2246036799044118 0 0 0
1481 1 28.333981439056007 5.1736986475825924e-14 1.2246036799044178 0 0 0
1473 4 24.79223375917397 2.044828976381794 0.05760592627519283 0 0 0
1476 1 26.56310759911507 3.067243464572982 1.2246036799044173 0 0 0
1479 4 28.33398143905597 2.0448289763818046 0.057605926275203514 0 0 0
1474 4 26.563107599115014 5.112072440954809 0.057605926275181574 0 0 0
1471 3 26.563107599115014 1.0224144881911825 2.388686391362007 0 0 0
1472 3 24.792233759173975 4.089657952764181 2.388686391362007 0 0 0
1478 3 28.33398143905597 4.08965795276417 2.3886863913619893 0 0 0
1487 1 31.875729118938 5.1570815913223615e-14 1.2246036799044178 0 0 0
1482 1 30.104855278997025 3.0672434645729827 1.2246036799044178 0 0 0
1485 4 31.875729118938 2.0448289763818046 0.057605926275203174 0 0 0
1488 1 33.646602958878965 3.0672434645729827 1.224603679904418 0 0 0
1480 4 30.104855278997 5.112072440954807 0.05760592627518539 0 0 0
1486 4 33.64660295887899 5.112072440954808 0.05760592627518214 0 0 0
1477 3 30.104855278997 1.0224144881911807 2.3886863913619982 0 0 0
1483 3 33.64660295887899 1.0224144881911823 2.3886863913620044 0 0 0
1484 3 31.875729118938 4.0896579527641705 2.3886863913619925 0 0 0
1493 1 35.41747679882005 5.0100910089385194e-14 1.224603679904421 0 0 0
1499 1 38.95922447870206 4.973612239915926e-14 1.2246036799044173 0 0 0
1491 4 35.417476798820026 2.0448289763817993 0.0576059262751954 0 0 0
1494 1 37.18835063876096 3.067243464572981 1.2246036799044158 0 0 0
1497 4 38.959224478702026 2.044828976381804 0.05760592627520271 0 0 0
1500 1 40.73009831864294 3.0672434645729885 1.2246036799044169 0 0 0
1492 4 37.18835063876097 5.112072440954805 0.057605926275181824 0 0 0
1498 4 40.73009831864297 5.112072440954805 0.05760592627518815 0 0 0
1489 3 37.18835063876097 1.022414488191184 2.3886863913620036 0 0 0
1495 3 40.73009831864297 1.022414488191176 2.388686391361997 0 0 0
1490 3 35.417476798820026 4.089657952764175 2.3886863913620022 0 0 0
1496 3 38.959224478702026 4.089657952764168 2.388686391361992 0 0 0
1505 1 42.50097215858405 5.125953149989795e-14 1.2246036799044226 0 0 0
1511 1 46.04271983846607 5.013358644525378e-14 1.2246036799044173 0 0 0
1503 4 42.50097215858403 2.044828976381798 0.057605926275192954 0 0 0
1506 1 44.27184599852495 3.067243464572982 1.2246036799044173 0 0 0
1509 4 46.04271983846603 2.044828976381804 0.05760592627520314 0 0 0
1504 4 44.271845998524974 5.112072440954805 0.05760592627518154 0 0 0
1501 3 44.271845998524974 1.022414488191184 2.388686391362003 0 0 0
1502 3 42.50097215858403 4.089657952764174 2.3886863913620013 0 0 0
1508 3 46.04271983846603 4.089657952764167 2.3886863913619973 0 0 0
1349 1 49.58446751834799 4.879021534409217e-14 1.2246036799044215 -1 0 0
1512 1 47.81359367840695 3.067243464572981 1.2246036799044147 0 0 0
1347 4 49.58446751834803 2.044828976381804 0.057605926275206894 -1 0 0
1350 1 51.355341358288925 3.0672434645729827 1.224603679904412 -1 0 0
1510 4 47.813593678406974 5.1120724409548135 0.05760592627519349 0 0 0
1348 4 51.355341358289 5.112072440954796 0.05760592627517072 -1 0 0
1507 3 47.813593678406974 1.0224144881911756 2.3886863913619916 0 0 0
1345 3 51.355341358289 1.0224144881911896 2.3886863913620147 -1 0 0
1346 3 49.58446751834803 4.089657952764172 2.3886863913619902 -1 0 0
1355 1 53.126215198230064 5.193088463299212e-14 1.224603679904416 -1 0 0
1361 1 56.66796287811206 5.180410472271322e-14 1.2246036799044158 -1 0 0
1353 4 53.12621519823002 2.0448289763818024 0.057605926275199885 -1 0 0
1356 1 54.89708903817094 3.067243464572982 1.224603679904412 -1 0 0
1359 4 56.667962878112014 2.044828976381802 0.057605926275199754 -1 0 0
1354 4 54.897089038170975 5.112072440954806 0.057605926275187264 -1 0 0
1351 3 54.897089038170975 1.0224144881911805 2.3886863913619987 -1 0 0
1352 3 53.12621519823002 4.08965795276418 2.388686391361995 -1 0 0
1358 3 56.66796287811202 4.089657952764181 2.3886863913619956 -1 0 0
1367 1 60.209710557994065 5.069747700801758e-14 1.224603679904414 -1 0 0
1373 1 63.75145823787606 4.92035875866696e-14 1.224603679904417 -1 0 0
1362 1 58.43883671805294 3.067243464572982 1.2246036799044118 -1 0 0
1365 4 60.209710557994015 2.0448289763817997 0.05760592627520168 -1 0 0
1368 1 61.98058439793494 3.0672434645729836 1.2246036799044133 -1 0 0
1371 4 63.751458237875994 2.0448289763817953 0.057605926275187125 -1 0 0
1360 4 58.438836718052976 5.112072440954806 0.05760592627518726 -1 0 0
1366 4 61.980584397934976 5.112072440954804 0.05760592627518578 -1 0 0
1357 3 58.438836718052976 1.0224144881911819 2.3886863913620013 -1 0 0
1363 3 61.980584397934976 1.022414488191181 2.3886863913619996 -1 0 0
1364 3 60.20971055799402 4.08965795276418 2.3886863913619956 -1 0 0
1370 3 63.751458237875994 4.0896579527641785 2.3886863913620107 -1 0 0
1379 1 67.29320591775802 4.883667253654581e-14 1.2246036799044178 -1 0 0
1374 1 65.52233207781704 3.067243464572981 1.2246036799044122 -1 0 0
1377 4 67.29320591775794 2.044828976381791 0.0576059262751769 -1 0 0
1380 1 69.06407975769915 3.0672434645729805 1.2246036799044162 -1 0 0
1372 4 65.522332077817 5.112072440954814 0.05760592627519759 -1 0 0
1378 4 69.06407975769899 5.112072440954823 0.05760592627520855 -1 0 0
1369 3 65.522332077817 1.022414488191173 2.38868639136199 -1 0 0
1375 3 69.06407975769899 1.0224144881911683 2.388686391361979 -1 0 0
1376 3 67.29320591775794 4.08965795276419 2.38868639136202 -1 0 0
1385 1 70.83495359763987 5.282044534179084e-14 1.2246036799044198 -1 0 0
1391 1 74.37670127752213 5.254451201796998e-14 1.2246036799044198 -1 0 0
1383 4 70.83495359764001 2.044828976381813 0.05760592627522211 -1 0 0
1386 1 72.605827437581 3.067243464572984 1.224603679904414 -1 0 0
1389 4 74.37670127752199 2.044828976381813 0.057605926275222125 -1 0 0
1384 4 72.605827437581 5.112072440954778 0.05760592627513705 -1 0 0
1381 3 72.605827437581 1.0224144881912065 2.3886863913620466 -1 0 0
1382 3 70.83495359764001 4.089657952764163 2.3886863913619742 -1 0 0
1388 3 74.37670127752199 4.089657952764163 2.388686391361974 -1 0 0
1397 1 77.91844895740398 4.658749526282431e-14 1.2246036799044158 -1 0 0
1403 1 81.46019663728602 4.530639428331072e-14 1.2246036799044138 -1 0 0
1392 1 76.14757511746285 3.0672434645729787 1.224603679904417 -1 0 0
1395 4 77.91844895740405 2.0448289763817895 0.05760592627517516 -1 0 0
1398 1 79.689322797345 3.0672434645729805 1.2246036799044107 -1 0 0
1401 4 81.46019663728595 2.04482897638179 0.057605926275175356 -1 0 0
1390 4 76.147575117463 5.112072440954823 0.05760592627520829 -1 0 0
1396 4 79.689322797345 5.112072440954808 0.05760592627519129 -1 0 0
1387 3 76.147575117463 1.0224144881911703 2.3886863913619774 -1 0 0
1393 3 79.689322797345 1.0224144881911799 2.3886863913619996 -1 0 0
1394 3 77.91844895740405 4.089657952764192 2.3886863913620218 -1 0 0
1400 3 81.46019663728595 4.089657952764191 2.3886863913620204 -1 0 0
1409 1 85.00194431716788 5.076374965329886e-14 1.2246036799044169 -1 0 0
1404 1 83.23107047722715 3.067243464572977 1.2246036799044153 -1 0 0
1407 4 85.00194431716795 2.0448289763817953 0.057605926275197776 -1 0 0
1410 1 86.77281815710913 3.0672434645729827 1.2246036799044115 -1 0 0
1402 4 83.231070477227 5.112072440954819 0.05760592627520452 -1 0 0
1408 4 86.77281815710904 5.112072440954798 0.05760592627518245 -1 0 0
1399 3 83.231070477227 1.0224144881911728 2.38868639136198 -1 0 0
1405 3 86.77281815710904 1.022414488191185 2.3886863913620036 -1 0 0
1406 3 85.00194431716795 4.089657952764179 2.3886863913620053 -1 0 0
1415 1 88.54369199704985 5.194771020827464e-14 1.2246036799044187 -1 0 0
1421 1 92.085439676932 4.973992659059952e-14 1.224603679904411 -1 0 0
1413 4 88.54369199705 2.044828976381813 0.05760592627522308 -1 0 0
1416 1 90.31456583699098 3.0672434645729805 1.2246036799044144 -1 0 0
1419 4 92.085439676932 2.0448289763818037 0.05760592627520512 -1 0 0
1414 4 90.31456583699105 5.112072440954796 0.05760592627516169 -1 0 0
1411 3 90.31456583699105 1.0224144881911938 2.388686391362025 -1 0 0
1412 3 88.54369199705 4.089657952764158 2.388686391361978 -1 0 0
1418 3 92.085439676932 4.0896579527641705 2.388686391361994 -1 0 0
1431 4 99.16893503669597 2.0448289763818135 0.05760592627521724 -1 0 0
1430 3 99.16893503669597 4.0896579527641705 2.3886863913619845 -1 0 0
1427 1 95.62718735681402 4.6305322265709807e-14 1.2246036799044155 -1 0 0
1422 1 93.856313516873 3.0672434645729827 1.2246036799044124 -1 0 0
1425 4 95.62718735681395 2.0448289763817877 0.057605926275173164 -1 0 0
1428 1 97.39806119675517 3.06724346457298 1.2246036799044175 -1 0 0
1420 4 93.856313516873 5.112072440954808 0.05760592627519061 -1 0 0
1426 4 97.39806119675497 5.112072440954813 0.05760592627519222 -1 0 0
1417 3 93.856313516873 1.0224144881911794 2.3886863913619987 -1 0 0
1423 3 97.39806119675494 1.0224144881911956 2.3886863913620147 -1 0 0
1424 3 95.62718735681395 4.089657952764189 2.388686391362018 -1 0 0
1601 1 2.8248779766115885e-14 6.1344869291459645 1.2246036799043982 0 0 0
1607 1 3.5417476798819867 6.1344869291459725 1.224603679904421 0 0 0
1599 4 3.2470595006618113e-14 8.17931590552779 0.05760592627517272 0 0 0
1605 4 3.5417476798820027 8.179315905527814 0.05760592627519185 0 0 0
1602 1 1.7708738399410204 9.201730393718973 1.2246036799044135 0 0 0
1608 1 5.312621519823008 9.20173039371897 1.224603679904409 0 0 0
1600 4 1.7708738399410122 11.246559370100815 0.057605926275184224 0 0 0
1606 4 5.312621519823004 11.246559370100815 0.05760592627518425 0 0 0
1597 3 1.7708738399410162 7.156901417337187 2.388686391362001 0 0 0
1603 3 5.312621519823008 7.156901417337185 2.3886863913619973 0 0 0
1598 3 3.216348342172659e-14 10.22414488191019 2.38868639136202 0 0 0
1604 3 3.5417476798819965 10.224144881910183 2.388686391362001 0 0 0
1613 1 7.083495359764009 6.134486929145993 1.2246036799044167 0 0 0
1619 1 10.625243039646012 6.134486929145991 1.2246036799044233 0 0 0
1611 4 7.083495359764004 8.179315905527808 0.057605926275199365 0 0 0
1617 4 10.62524303964601 8.179315905527805 0.05760592627519091 0 0 0
1614 1 8.854369199704987 9.201730393718977 1.2246036799044193 0 0 0
1612 4 8.854369199704992 11.246559370100815 0.057605926275184856 0 0 0
1609 3 8.854369199704992 7.156901417337181 2.3886863913619933 0 0 0
1610 3 7.083495359764005 10.22414488191017 2.3886863913619956 0 0 0
1616 3 10.625243039646003 10.224144881910181 2.388686391361994 0 0 0
1625 1 14.16699071952801 6.134486929145977 1.2246036799044158 0 0 0
1623 4 14.166990719528016 8.179315905527805 0.05760592627518776 0 0 0
1620 1 12.396116879586975 9.201730393718996 1.224603679904411 0 0 0
1626 1 15.937864559468986 9.201730393718995 1.224603679904407 0 0 0
1618 4 12.396116879587002 11.246559370100808 0.05760592627519192 0 0 0
1624 4 15.937864559468995 11.246559370100814 0.057605926275195715 0 0 0
1615 3 12.396116879586998 7.156901417337172 2.3886863913619933 0 0 0
1621 3 15.937864559468997 7.156901417337174 2.388686391361998 0 0 0
1622 3 14.166990719528012 10.224144881910176 2.3886863913619965 0 0 0
1631 1 17.708738399409985 6.134486929145993 1.2246036799044204 0 0 0
1637 1 21.25048607929193 6.134486929145995 1.2246036799044182 0 0 0
1629 4 17.708738399410002 8.179315905527805 0.05760592627519176 0 0 0
1635 4 21.25048607929199 8.179315905527801 0.05760592627518861 0 0 0
1632 1 19.479612239351003 9.201730393718975 1.2246036799044153 0 0 0
1638 1 23.021359919233042 9.201730393719007 1.2246036799044138 0 0 0
1630 4 19.47961223935103 11.24655937010082 0.05760592627519138 0 0 0
1636 4 23.021359919233028 11.246559370100796 0.05760592627518318 0 0 0
1627 3 19.47961223935103 7.156901417337172 2.3886863913619862 0 0 0
1633 3 23.021359919233028 7.156901417337178 2.388686391362003 0 0 0
1628 3 17.708738399410002 10.224144881910181 2.3886863913620013 0 0 0
1634 3 21.250486079291992 10.22414488191017 2.388686391361998 0 0 0
1643 1 24.79223375917396 6.134486929145993 1.224603679904421 0 0 0
1649 1 28.333981439056 6.134486929145983 1.2246036799044209 0 0 0
1641 4 24.792233759173993 8.179315905527806 0.05760592627519401 0 0 0
1647 4 28.333981439055986 8.17931590552781 0.05760592627518799 0 0 0
1644 1 26.563107599115007 9.201730393718975 1.2246036799044144 0 0 0
1642 4 26.563107599115018 11.246559370100815 0.05760592627518209 0 0 0
1639 3 26.563107599115018 7.1569014173371786 2.3886863913619942 0 0 0
1640 3 24.792233759173985 10.224144881910176 2.3886863913619925 0 0 0
1646 3 28.333981439055986 10.224144881910174 2.388686391362 0 0 0
1655 1 31.87572911893801 6.134486929145983 1.2246036799044195 0 0 0
1653 4 31.875729118938 8.179315905527815 0.05760592627519764 0 0 0
1650 1 30.10485527899703 9.201730393718975 1.2246036799044175 0 0 0
1656 1 33.646602958878965 9.201730393718975 1.2246036799044127 0 0 0
1648 4 30.104855278997 11.246559370100817 0.05760592627518549 0 0 0
1654 4 33.64660295887899 11.246559370100814 0.05760592627518301 0 0 0
1645 3 30.104855278997 7.156901417337184 2.3886863913619933 0 0 0
1651 3 33.64660295887899 7.156901417337179 2.3886863913619933 0 0 0
1652 3 31.875729118938 10.224144881910167 2.388686391361996 0 0 0
1661 1 35.41747679882004 6.134486929145995 1.2246036799044204 0 0 0
1667 1 38.95922447870206 6.1344869291459965 1.2246036799044235 0 0 0
1659 4 35.417476798820026 8.179315905527805 0.057605926275190206 0 0 0
1665 4 38.959224478702026 8.179315905527806 0.05760592627519444 0 0 0
1662 1 37.18835063876095 9.201730393719 1.224603679904415 0 0 0
1668 1 40.73009831864294 9.201730393718973 1.2246036799044167 0 0 0
1660 4 37.18835063876097 11.246559370100812 0.057605926275186486 0 0 0
1666 4 40.73009831864297 11.24655937010082 0.05760592627518623 0 0 0
1657 3 37.18835063876097 7.156901417337171 2.388686391361999 0 0 0
1663 3 40.73009831864297 7.156901417337173 2.3886863913619885 0 0 0
1658 3 35.417476798820026 10.22414488191018 2.3886863913619982 0 0 0
1664 3 38.959224478702026 10.224144881910165 2.3886863913619907 0 0 0
1673 1 42.50097215858405 6.134486929145994 1.2246036799044193 0 0 0
1679 1 46.04271983846607 6.1344869291459965 1.2246036799044193 0 0 0
1671 4 42.50097215858402 8.179315905527805 0.057605926275189685 0 0 0
1677 4 46.04271983846603 8.179315905527806 0.05760592627519489 0 0 0
1674 1 44.27184599852495 9.201730393718995 1.2246036799044182 0 0 0
1672 4 44.271845998524974 11.246559370100812 0.05760592627518672 0 0 0
1669 3 44.271845998524974 7.1569014173371786 2.388686391361999 0 0 0
1670 3 42.50097215858403 10.22414488191018 2.3886863913619996 0 0 0
1676 3 46.04271983846603 10.224144881910165 2.3886863913619902 0 0 0
1517 1 49.58446751834799 6.134486929145984 1.22460367990442 -1 0 0
1515 4 49.58446751834803 8.179315905527808 0.05760592627519432 -1 0 0
1680 1 47.81359367840694 9.201730393718973 1.2246036799044164 0 0 0
1518 1 51.35534135828893 9.201730393718998 1.2246036799044142 -1 0 0
1678 4 47.813593678406974 11.24655937010082 0.05760592627519319 0 0 0
1516 4 51.355341358289 11.2465593701008 0.05760592627517513 -1 0 0
1675 3 47.813593678406974 7.156901417337174 2.388686391361982 0 0 0
1513 3 51.355341358289 7.156901417337186 2.3886863913620138 -1 0 0
1514 3 49.584467518348035 10.224144881910181 2.3886863913619893 -1 0 0
1523 1 53.126215198230064 6.134486929145976 1.2246036799044238 -1 0 0
1529 1 56.667962878112064 6.134486929145976 1.2246036799044238 -1 0 0
1521 4 53.12621519823002 8.179315905527808 0.05760592627518828 -1 0 0
1527 4 56.66796287811202 8.179315905527808 0.057605926275188235 -1 0 0
1524 1 54.89708903817093 9.201730393718996 1.2246036799044127 -1 0 0
1522 4 54.897089038170975 11.24655937010081 0.05760592627519229 -1 0 0
1519 3 54.897089038170975 7.156901417337176 2.3886863913619965 -1 0 0
1520 3 53.12621519823002 10.224144881910174 2.3886863913619942 -1 0 0
1526 3 56.66796287811202 10.224144881910174 2.3886863913619942 -1 0 0
1535 1 60.209710557994065 6.134486929145977 1.224603679904424 -1 0 0
1541 1 63.75145823787606 6.134486929145996 1.2246036799044198 -1 0 0
1533 4 60.20971055799402 8.179315905527808 0.05760592627518833 -1 0 0
1539 4 63.751458237875994 8.179315905527792 0.057605926275178215 -1 0 0
1530 1 58.43883671805293 9.201730393718996 1.2246036799044127 -1 0 0
1536 1 61.98058439793494 9.201730393718996 1.2246036799044127 -1 0 0
1528 4 58.438836718052976 11.24655937010081 0.057605926275192273 -1 0 0
1534 4 61.980584397934976 11.24655937010081 0.05760592627519241 -1 0 0
1525 3 58.438836718052976 7.156901417337176 2.3886863913619973 -1 0 0
1531 3 61.980584397934976 7.156901417337174 2.3886863913619956 -1 0 0
1532 3 60.20971055799402 10.224144881910174 2.3886863913619947 -1 0 0
1538 3 63.751458237875994 10.224144881910185 2.388686391362006 -1 0 0
1547 1 67.29320591775802 6.134486929145986 1.2246036799044198 -1 0 0
1545 4 67.29320591775794 8.179315905527796 0.057605926275169625 -1 0 0
1542 1 65.52233207781704 9.201730393718993 1.2246036799044138 -1 0 0
1548 1 69.06407975769915 9.201730393718973 1.2246036799044153 -1 0 0
1540 4 65.522332077817 11.24655937010082 0.05760592627520255 -1 0 0
1546 4 69.06407975769899 11.24655937010083 0.05760592627520596 -1 0 0
1537 3 65.522332077817 7.156901417337167 2.388686391361985 -1 0 0
1543 3 69.06407975769899 7.156901417337166 2.3886863913619707 -1 0 0
1544 3 67.29320591775794 10.224144881910188 2.3886863913620187 -1 0 0
1553 1 70.83495359763985 6.134486929145984 1.2246036799044195 -1 0 0
1559 1 74.37670127752214 6.134486929145983 1.2246036799044195 -1 0 0
1551 4 70.83495359764001 8.179315905527824 0.05760592627521597 -1 0 0
1557 4 74.37670127752199 8.179315905527824 0.057605926275216 -1 0 0
1554 1 72.605827437581 9.201730393718972 1.2246036799044153 -1 0 0
1552 4 72.605827437581 11.24655937010079 0.057605926275137505 -1 0 0
1549 3 72.605827437581 7.156901417337213 2.3886863913620404 -1 0 0
1550 3 70.83495359764001 10.224144881910158 2.388686391361978 -1 0 0
1556 3 74.37670127752199 10.22414488191016 2.3886863913619774 -1 0 0
1565 1 77.91844895740398 6.134486929145989 1.2246036799044235 -1 0 0
1571 1 81.46019663728602 6.134486929145991 1.2246036799044262 -1 0 0
1563 4 77.91844895740405 8.179315905527794 0.057605926275167835 -1 0 0
1569 4 81.46019663728595 8.179315905527794 0.05760592627516819 -1 0 0
1560 1 76.14757511746285 9.201730393718973 1.2246036799044153 -1 0 0
1566 1 79.689322797345 9.201730393719 1.224603679904415 -1 0 0
1558 4 76.147575117463 11.24655937010083 0.05760592627520562 -1 0 0
1564 4 79.689322797345 11.24655937010081 0.05760592627519509 -1 0 0
1555 3 76.147575117463 7.156901417337166 2.3886863913619694 -1 0 0
1561 3 79.689322797345 7.156901417337166 2.3886863913619885 -1 0 0
1562 3 77.91844895740405 10.224144881910188 2.3886863913620178 -1 0 0
1568 3 81.46019663728595 10.224144881910188 2.3886863913620164 -1 0 0
1577 1 85.00194431716787 6.134486929145992 1.2246036799044229 -1 0 0
1575 4 85.00194431716795 8.17931590552781 0.05760592627519083 -1 0 0
1572 1 83.23107047722715 9.201730393718972 1.2246036799044142 -1 0 0
1578 1 86.77281815710911 9.201730393718975 1.2246036799044089 -1 0 0
1570 4 83.231070477227 11.24655937010083 0.05760592627520579 -1 0 0
1576 4 86.77281815710904 11.246559370100806 0.05760592627518184 -1 0 0
1567 3 83.231070477227 7.156901417337164 2.3886863913619676 -1 0 0
1573 3 86.77281815710904 7.156901417337185 2.3886863913619965 -1 0 0
1574 3 85.00194431716795 10.22414488191018 2.3886863913620053 -1 0 0
1583 1 88.54369199704985 6.1344869291459965 1.2246036799044182 -1 0 0
1589 1 92.085439676932 6.134486929145985 1.224603679904424 -1 0 0
1581 4 88.54369199705 8.179315905527817 0.057605926275214846 -1 0 0
1587 4 92.085439676932 8.179315905527814 0.057605926275192586 -1 0 0
1584 1 90.31456583699098 9.201730393718991 1.224603679904415 -1 0 0
1582 4 90.31456583699105 11.246559370100798 0.05760592627516436 -1 0 0
1579 3 90.31456583699105 7.156901417337186 2.3886863913620164 -1 0 0
1580 3 88.54369199705 10.224144881910156 2.3886863913619765 -1 0 0
1586 3 92.085439676932 10.224144881910169 2.3886863913619933 -1 0 0
1595 1 95.62718735681402 6.13448692914599 1.2246036799044173 -1 0 0
1593 4 95.627187356814 8.179315905527812 0.05760592627520004 -1 0 0
1590 1 93.85631351687302 9.201730393718996 1.2246036799044124 -1 0 0
1596 1 97.39806119675492 9.201730393719002 1.2246036799044162 -1 0 0
1588 4 93.856313516873 11.246559370100806 0.057605926275192045 -1 0 0
1594 4 97.39806119675498 11.246559370100812 0.057605926275195826 -1 0 0
1585 3 93.856313516873 7.156901417337168 2.388686391361992 -1 0 0
1591 3 97.39806119675495 7.156901417337182 2.38868639136201 -1 0 0
1592 3 95.627187356814 10.22414488191016 2.388686391361975 -1 0 0
1769 1 3.1811136864100126e-14 12.268973858291972 1.2246036799043853 0 0 0
1775 1 3.541747679881989 12.268973858291977 1.2246036799044144 0 0 0
1770 1 1.7708738399410204 15.336217322864973 1.2246036799044115 0 0 0
1773 4 3.5417476798820005 14.31380283467381 0.05760592627518969 0 0 0
1776 1 5.312621519823002 15.336217322864977 1.2246036799044098 0 0 0
1765 3 1.7708738399410167 13.291388346483185 2.3886863913620004 0 0 0
1771 3 5.312621519823006 13.291388346483183 2.3886863913619987 0 0 0
1772 3 3.541747679881999 16.358631811056203 2.38868639136199 0 0 0
1781 1 7.083495359764008 12.268973858291986 1.2246036799044102 0 0 0
1787 1 10.62524303964602 12.268973858291977 1.2246036799044178 0 0 0
1779 4 7.083495359764004 14.313802834673806 0.057605926275192496 0 0 0
1782 1 8.854369199704985 15.336217322864972 1.22460367990441 0 0 0
1785 4 10.625243039646001 14.31380283467381 0.05760592627518816 0 0 0
1777 3 8.854369199704994 13.291388346483183 2.388686391361997 0 0 0
1778 3 7.083495359764005 16.35863181105619 2.388686391361993 0 0 0
1784 3 10.625243039646012 16.358631811056206 2.3886863913619876 0 0 0
1793 1 14.166990719528012 12.268973858291977 1.2246036799044135 0 0 0
1788 1 12.396116879586977 15.336217322864973 1.224603679904413 0 0 0
1791 4 14.166990719528014 14.313802834673812 0.057605926275190296 0 0 0
1794 1 15.937864559468991 15.336217322864986 1.22460367990441 0 0 0
1783 3 12.396116879587002 13.291388346483181 2.3886863913619933 0 0 0
1789 3 15.937864559468997 13.291388346483172 2.388686391361997 0 0 0
1790 3 14.166990719528012 16.358631811056203 2.3886863913619925 0 0 0
1799 1 17.708738399409977 12.268973858291975 1.2246036799044187 0 0 0
1805 1 21.25048607929193 12.268973858291988 1.2246036799044133 0 0 0
1797 4 17.708738399409988 14.313802834673806 0.057605926275179145 0 0 0
1800 1 19.479612239351052 15.33621732286498 1.2246036799044124 0 0 0
1803 4 21.250486079291974 14.313802834673812 0.05760592627519691 0 0 0
1806 1 23.021359919233042 15.336217322864968 1.2246036799044142 0 0 0
1795 3 19.479612239351027 13.291388346483178 2.3886863913619902 0 0 0
1801 3 23.021359919233028 13.291388346483192 2.3886863913619982 0 0 0
1796 3 17.708738399409988 16.358631811056185 2.3886863913619973 0 0 0
1802 3 21.25048607929197 16.35863181105619 2.3886863913619947 0 0 0
1811 1 24.79223375917396 12.268973858291984 1.2246036799044155 0 0 0
1817 1 28.333981439056004 12.268973858291988 1.2246036799044147 0 0 0
1809 4 24.79223375917399 14.313802834673803 0.057605926275191614 0 0 0
1812 1 26.563107599115007 15.336217322864977 1.224603679904408 0 0 0
1815 4 28.333981439055986 14.313802834673806 0.057605926275188714 0 0 0
1807 3 26.563107599115018 13.291388346483183 2.388686391361998 0 0 0
1808 3 24.79223375917399 16.3586318110562 2.388686391361988 0 0 0
1814 3 28.333981439055986 16.358631811056192 2.388686391362003 0 0 0
1823 1 31.875729118938004 12.268973858291988 1.2246036799044142 0 0 0
1818 1 30.104855278997025 15.336217322864972 1.2246036799044089 0 0 0
1821 4 31.875729118938004 14.313802834673814 0.05760592627519469 0 0 0
1824 1 33.646602958878965 15.336217322864984 1.2246036799044122 0 0 0
1813 3 30.104855278997 13.291388346483178 2.3886863913619885 0 0 0
1819 3 33.64660295887899 13.291388346483183 2.388686391361998 0 0 0
1820 3 31.875729118938 16.358631811056185 2.3886863913619933 0 0 0
1829 1 35.41747679882004 12.268973858291984 1.2246036799044104 0 0 0
1835 1 38.95922447870206 12.26897385829198 1.2246036799044122 0 0 0
1827 4 35.417476798820026 14.313802834673796 0.05760592627518682 0 0 0
1830 1 37.18835063876095 15.336217322864977 1.2246036799044222 0 0 0
1833 4 38.959224478702026 14.313802834673812 0.05760592627519278 0 0 0
1836 1 40.73009831864294 15.336217322864977 1.224603679904408 0 0 0
1825 3 37.18835063876097 13.291388346483192 2.3886863913619996 0 0 0
1831 3 40.73009831864297 13.291388346483178 2.3886863913619907 0 0 0
1826 3 35.417476798820026 16.358631811056178 2.3886863913619933 0 0 0
1832 3 38.959224478702026 16.35863181105619 2.3886863913619956 0 0 0
1841 1 42.50097215858405 12.268973858291984 1.2246036799044124 0 0 0
1847 1 46.04271983846606 12.268973858291975 1.2246036799044144 0 0 0
1839 4 42.50097215858403 14.313802834673796 0.057605926275186535 0 0 0
1842 1 44.27184599852496 15.336217322864966 1.2246036799044158 0 0 0
1845 4 46.04271983846602 14.31380283467382 0.0576059262751957 0 0 0
1837 3 44.271845998524974 13.291388346483192 2.3886863913619987 0 0 0
1838 3 42.50097215858403 16.358631811056206 2.388686391361992 0 0 0
1844 3 46.04271983846603 16.358631811056185 2.388686391361986 0 0 0
1685 1 49.58446751834799 12.268973858291975 1.224603679904422 -1 0 0
1848 1 47.81359367840694 15.336217322865002 1.2246036799044058 0 0 0
1683 4 49.58446751834803 14.313802834673806 0.057605926275185265 -1 0 0
1686 1 51.35534135828893 15.336217322864975 1.2246036799044138 -1 0 0
1843 3 47.813593678406974 13.291388346483167 2.388686391361988 0 0 0
1681 3 51.355341358289 13.29138834648319 2.3886863913620107 -1 0 0
1682 3 49.58446751834803 16.358631811056185 2.3886863913619942 -1 0 0
1691 1 53.126215198230064 12.268973858291977 1.224603679904415 -1 0 0
1697 1 56.667962878112064 12.268973858291977 1.2246036799044149 -1 0 0
1689 4 53.126215198230014 14.31380283467381 0.05760592627518829 -1 0 0
1692 1 54.89708903817094 15.336217322864975 1.2246036799044135 -1 0 0
1695 4 56.667962878112014 14.31380283467381 0.05760592627518832 -1 0 0
1687 3 54.897089038170975 13.29138834648318 2.388686391361994 -1 0 0
1688 3 53.12621519823002 16.358631811056203 2.3886863913619867 -1 0 0
1694 3 56.66796287811202 16.358631811056203 2.3886863913619867 -1 0 0
1703 1 60.209710557994065 12.268973858291977 1.2246036799044149 -1 0 0
1709 1 63.751458237876065 12.26897385829198 1.2246036799044173 -1 0 0
1698 1 58.43883671805294 15.336217322864975 1.2246036799044135 -1 0 0
1701 4 60.209710557994015 14.31380283467381 0.057605926275188415 -1 0 0
1704 1 61.98058439793494 15.336217322864982 1.2246036799044198 -1 0 0
1707 4 63.751458237875994 14.313802834673798 0.057605926275175745 -1 0 0
1693 3 58.438836718052976 13.29138834648318 2.3886863913619947 -1 0 0
1699 3 61.980584397934976 13.291388346483181 2.3886863913619947 -1 0 0
1700 3 60.20971055799402 16.358631811056203 2.3886863913619862 -1 0 0
1706 3 63.751458237875994 16.358631811056185 2.3886863913620004 -1 0 0
1715 1 67.29320591775802 12.268973858291986 1.2246036799044173 -1 0 0