LAMMPS data file via write_data, version 29 Aug 2024, timestep = 2, units = metal

8064 atoms
9 atom types

0 99.168935036696 xlo xhi
0 98.151790866336 ylo yhi
-50 50 zlo zhi

Masses

1 58.6934
2 58.6934
3 58.6934
4 78.971
5 78.971
6 78.971
7 78.971
8 78.971
9 78.971

Atoms # atomic

1433 1 6.32445526521124e-15 0 1.2404135381302703 0 0 0
1439 1 3.541747679882003 0 1.2404135381302697 0 0 0
1431 5 3.1725241490117065e-15 2.04482897638189 0.06790314171210561 0 0 0
1434 1 1.7708738399410018 3.0672434645729973 1.2404135381302692 0 0 0
1437 5 3.5417476798820022 2.0448289763818908 0.06790314171210621 0 0 0
1440 1 5.312621519823002 3.0672434645729973 1.2404135381302692 0 0 0
1432 5 1.7708738399410031 5.11207244095489 0.06790314171210572 0 0 0
1438 5 5.312621519823002 5.11207244095489 0.06790314171210562 0 0 0
1429 4 1.7708738399410033 1.0224144881911021 2.4114092403104643 0 0 0
1435 4 5.312621519823002 1.0224144881911024 2.4114092403104643 0 0 0
1430 4 3.848128467610944e-15 4.089657952764105 2.4114092403104648 0 0 0
1436 4 3.541747679882002 4.089657952764104 2.4114092403104634 0 0 0
1445 1 7.083495359764001 0 1.2404135381302699 0 0 0
1451 1 10.625243039646 0 1.2404135381302699 0 0 0
1443 5 7.083495359764001 2.04482897638189 0.06790314171210543 0 0 0
1446 1 8.854369199705001 3.0672434645729973 1.2404135381302692 0 0 0
1449 5 10.625243039646 2.0448289763818908 0.06790314171210626 0 0 0
1444 5 8.854369199705001 5.11207244095489 0.06790314171210558 0 0 0
1441 4 8.854369199705001 1.0224144881911021 2.4114092403104643 0 0 0
1442 4 7.083495359764001 4.089657952764104 2.4114092403104643 0 0 0
1448 4 10.625243039646001 4.089657952764104 2.4114092403104634 0 0 0
1457 1 14.166990719528 0 1.2404135381302699 0 0 0
1452 1 12.396116879587002 3.0672434645729973 1.240413538130269 0 0 0
1455 5 14.166990719528 2.0448289763818908 0.0679031417121062 0 0 0
1458 1 15.937864559469002 3.0672434645729973 1.2404135381302697 0 0 0
1450 5 12.396116879587 5.11207244095489 0.06790314171210594 0 0 0
1456 5 15.937864559469002 5.112072440954891 0.06790314171210644 0 0 0
1447 4 12.396116879586998 1.022414488191102 2.411409240310464 0 0 0
1453 4 15.937864559469002 1.0224144881911017 2.4114092403104634 0 0 0
1454 4 14.166990719528 4.089657952764104 2.4114092403104634 0 0 0
1463 1 17.708738399410002 0 1.24041353813027 0 0 0
1469 1 21.250486079292003 0 1.2404135381302697 0 0 0
1461 5 17.708738399410002 2.0448289763818908 0.06790314171210647 0 0 0
1464 1 19.479612239351 3.0672434645729973 1.2404135381302697 0 0 0
1467 5 21.250486079292 2.0448289763818903 0.06790314171210556 0 0 0
1470 1 23.021359919233 3.067243464572997 1.240413538130269 0 0 0
1462 5 19.479612239351 5.11207244095489 0.06790314171210532 0 0 0
1468 5 23.021359919233 5.112072440954891 0.06790314171210679 0 0 0
1459 4 19.479612239351003 1.0224144881911021 2.4114092403104648 0 0 0
1465 4 23.021359919233 1.0224144881911013 2.4114092403104634 0 0 0
1460 4 17.708738399410002 4.089657952764103 2.4114092403104634 0 0 0
1466 4 21.250486079292003 4.089657952764104 2.4114092403104643 0 0 0
1475 1 24.792233759174003 0 1.2404135381302699 0 0 0
1481 1 28.333981439056004 0 1.2404135381302694 0 0 0
1473 5 24.792233759174003 2.044828976381891 0.06790314171210693 0 0 0
1476 1 26.563107599115 3.0672434645729973 1.2404135381302694 0 0 0
1479 5 28.333981439056 2.0448289763818903 0.06790314171210561 0 0 0
1474 5 26.563107599115 5.11207244095489 0.06790314171210529 0 0 0
1471 4 26.563107599115003 1.0224144881911024 2.4114092403104648 0 0 0
1472 4 24.792233759174003 4.089657952764103 2.4114092403104626 0 0 0
1478 4 28.333981439056004 4.089657952764104 2.4114092403104643 0 0 0
1487 1 31.875729118938 0 1.2404135381302699 0 0 0
1482 1 30.104855278997 3.067243464572997 1.2404135381302686 0 0 0
1485 5 31.875729118938 2.0448289763818903 0.06790314171210594 0 0 0
1488 1 33.646602958879 3.0672434645729973 1.2404135381302694 0 0 0
1480 5 30.104855278997 5.112072440954891 0.06790314171210597 0 0 0
1486 5 33.646602958879 5.11207244095489 0.06790314171210529 0 0 0
1477 4 30.104855278997 1.022414488191102 2.4114092403104643 0 0 0
1483 4 33.646602958879 1.0224144881911021 2.4114092403104648 0 0 0
1484 4 31.875729118938 4.089657952764104 2.4114092403104634 0 0 0
1493 1 35.41747679882 0 1.2404135381302694 0 0 0
1499 1 38.959224478702 0 1.24041353813027 0 0 0
1491 5 35.41747679882 2.0448289763818908 0.0679031417121066 0 0 0
1494 1 37.188350638761 3.0672434645729973 1.2404135381302692 0 0 0
1497 5 38.959224478702 2.0448289763818903 0.06790314171210583 0 0 0
1500 1 40.730098318643 3.0672434645729973 1.2404135381302692 0 0 0
1492 5 37.188350638761 5.112072440954891 0.06790314171210649 0 0 0
1498 5 40.730098318643 5.11207244095489 0.06790314171210561 0 0 0
1489 4 37.188350638761 1.0224144881911015 2.4114092403104634 0 0 0
1495 4 40.730098318643 1.022414488191102 2.4114092403104643 0 0 0
1490 4 35.41747679882 4.089657952764103 2.411409240310463 0 0 0
1496 4 38.959224478702 4.089657952764104 2.411409240310464 0 0 0
1505 1 42.500972158584 0 1.2404135381302697 0 0 0
1511 1 46.042719838466 0 1.2404135381302699 0 0 0
1503 5 42.500972158584 2.0448289763818908 0.06790314171210657 0 0 0
1506 1 44.271845998525 3.0672434645729973 1.2404135381302692 0 0 0
1509 5 46.042719838466 2.04482897638189 0.06790314171210522 0 0 0
1504 5 44.271845998525 5.112072440954891 0.06790314171210649 0 0 0
1501 4 44.271845998525 1.0224144881911015 2.4114092403104634 0 0 0
1502 4 42.500972158584 4.089657952764103 2.411409240310463 0 0 0
1508 4 46.042719838466 4.089657952764105 2.4114092403104643 0 0 0
1349 1 49.584467518348 0 1.2404135381302699 -1 0 0
1512 1 47.813593678407 3.0672434645729973 1.2404135381302692 0 0 0
1347 5 49.584467518348 2.0448289763818903 0.06790314171210629 -1 0 0
1350 1 51.355341358289 3.0672434645729973 1.2404135381302692 -1 0 0
1510 5 47.813593678407 5.11207244095489 0.06790314171210508 0 0 0
1348 5 51.355341358288996 5.11207244095489 0.06790314171210599 -1 0 0
1507 4 47.813593678407 1.0224144881911026 2.4114092403104648 0 0 0
1345 4 51.355341358288996 1.022414488191102 2.411409240310464 -1 0 0
1346 4 49.584467518348 4.089657952764104 2.4114092403104634 -1 0 0
1355 1 53.12621519822999 0 1.2404135381302699 -1 0 0
1361 1 56.66796287811199 0 1.2404135381302699 -1 0 0
1353 5 53.12621519823 2.0448289763818908 0.06790314171210622 -1 0 0
1356 1 54.897089038171 3.0672434645729973 1.2404135381302692 -1 0 0
1359 5 56.667962878112 2.0448289763818908 0.06790314171210622 -1 0 0
1354 5 54.897089038170996 5.11207244095489 0.06790314171210593 -1 0 0
1351 4 54.897089038170996 1.022414488191102 2.411409240310464 -1 0 0
1352 4 53.12621519823 4.089657952764104 2.4114092403104634 -1 0 0
1358 4 56.667962878112 4.089657952764104 2.4114092403104634 -1 0 0
1367 1 60.20971055799399 0 1.2404135381302699 -1 0 0
1373 1 63.751458237875994 0 1.2404135381302699 -1 0 0
1362 1 58.438836718053004 3.0672434645729973 1.2404135381302692 -1 0 0
1365 5 60.209710557994 2.0448289763818908 0.06790314171210622 -1 0 0
1368 1 61.980584397935004 3.0672434645729973 1.2404135381302692 -1 0 0
1371 5 63.751458237876 2.0448289763818903 0.06790314171210558 -1 0 0
1360 5 58.438836718053 5.11207244095489 0.06790314171210593 -1 0 0
1366 5 61.980584397935 5.11207244095489 0.06790314171210593 -1 0 0
1357 4 58.438836718053 1.022414488191102 2.411409240310464 -1 0 0
1363 4 61.980584397935 1.022414488191102 2.411409240310464 -1 0 0
1364 4 60.209710557994 4.089657952764104 2.4114092403104634 -1 0 0
1370 4 63.751458237876 4.089657952764104 2.4114092403104643 -1 0 0
1379 1 67.293205917758 0 1.2404135381302697 -1 0 0
1374 1 65.522332077817 3.0672434645729973 1.2404135381302692 -1 0 0
1377 5 67.293205917758 2.044828976381891 0.06790314171210667 -1 0 0
1380 1 69.06407975769899 3.0672434645729973 1.2404135381302692 -1 0 0
1372 5 65.522332077817 5.112072440954891 0.0679031417121065 -1 0 0
1378 5 69.064079757699 5.11207244095489 0.06790314171210568 -1 0 0
1369 4 65.522332077817 1.0224144881911015 2.4114092403104634 -1 0 0
1375 4 69.064079757699 1.0224144881911021 2.4114092403104648 -1 0 0
1376 4 67.293205917758 4.089657952764103 2.4114092403104634 -1 0 0
1385 1 70.83495359764001 0 1.2404135381302699 -1 0 0
1391 1 74.37670127752199 0 1.2404135381302699 -1 0 0
1383 5 70.83495359764 2.0448289763818903 0.06790314171210597 -1 0 0
1386 1 72.605827437581 3.0672434645729973 1.2404135381302692 -1 0 0
1389 5 74.376701277522 2.0448289763818903 0.06790314171210597 -1 0 0
1384 5 72.605827437581 5.11207244095489 0.0679031417121053 -1 0 0
1381 4 72.605827437581 1.0224144881911021 2.4114092403104648 -1 0 0
1382 4 70.83495359764 4.089657952764104 2.4114092403104634 -1 0 0
1388 4 74.376701277522 4.089657952764104 2.4114092403104634 -1 0 0
1397 1 77.918448957404 0 1.2404135381302697 -1 0 0
1403 1 81.460196637286 0 1.2404135381302694 -1 0 0
1392 1 76.147575117463 3.0672434645729973 1.240413538130269 -1 0 0
1395 5 77.918448957404 2.0448289763818908 0.0679031417121065 -1 0 0
1398 1 79.689322797345 3.0672434645729973 1.2404135381302692 -1 0 0
1401 5 81.460196637286 2.0448289763818908 0.0679031417121065 -1 0 0
1390 5 76.14757511746299 5.11207244095489 0.06790314171210567 -1 0 0
1396 5 79.689322797345 5.112072440954892 0.06790314171210753 -1 0 0
1387 4 76.14757511746299 1.0224144881911021 2.4114092403104643 -1 0 0
1393 4 79.689322797345 1.0224144881911006 2.4114092403104626 -1 0 0
1394 4 77.918448957404 4.089657952764103 2.4114092403104634 -1 0 0
1400 4 81.460196637286 4.089657952764103 2.411409240310463 -1 0 0
1409 1 85.00194431716801 0 1.24041353813027 -1 0 0
1404 1 83.231070477227 3.0672434645729973 1.240413538130269 -1 0 0
1407 5 85.001944317168 2.0448289763818894 0.06790314171210475 -1 0 0
1410 1 86.77281815710899 3.0672434645729973 1.2404135381302692 -1 0 0
1402 5 83.23107047722701 5.11207244095489 0.0679031417121057 -1 0 0
1408 5 86.772818157109 5.112072440954889 0.06790314171210461 -1 0 0
1399 4 83.23107047722701 1.0224144881911021 2.4114092403104643 -1 0 0
1405 4 86.772818157109 1.022414488191103 2.4114092403104657 -1 0 0
1406 4 85.001944317168 4.089657952764105 2.4114092403104648 -1 0 0
1415 1 88.54369199705 0 1.2404135381302699 -1 0 0
1421 1 92.085439676932 0 1.2404135381302694 -1 0 0
1413 5 88.54369199704999 2.0448289763818903 0.06790314171210597 -1 0 0
1416 1 90.314565836991 3.0672434645729973 1.2404135381302694 -1 0 0
1419 5 92.085439676932 2.0448289763818916 0.06790314171210758 -1 0 0
1414 5 90.314565836991 5.112072440954891 0.06790314171210642 -1 0 0
1411 4 90.314565836991 1.0224144881911015 2.4114092403104634 -1 0 0
1412 4 88.54369199704999 4.089657952764104 2.4114092403104634 -1 0 0
1418 4 92.085439676932 4.089657952764103 2.411409240310462 -1 0 0
1427 1 95.627187356814 0 1.2404135381302697 -1 0 0
1422 1 93.856313516873 3.0672434645729973 1.2404135381302694 -1 0 0
1425 5 95.627187356814 2.0448289763818908 0.0679031417121065 -1 0 0
1428 1 97.39806119675501 3.0672434645729965 1.2404135381302686 -1 0 0
1420 5 93.856313516873 5.112072440954892 0.0679031417121075 -1 0 0
1426 5 97.39806119675501 5.11207244095489 0.06790314171210528 -1 0 0
1417 4 93.856313516873 1.0224144881911006 2.4114092403104626 -1 0 0
1423 4 97.39806119675501 1.022414488191102 2.4114092403104648 -1 0 0
1424 4 95.627187356814 4.089657952764103 2.411409240310463 -1 0 0
1601 1 6.278602224998641e-15 6.134486929145998 1.2404135381302686 0 0 0
1607 1 3.541747679882003 6.134486929145998 1.240413538130268 0 0 0
1599 5 3.1828120120396466e-15 8.17931590552789 0.06790314171210493 0 0 0
1605 5 3.541747679882002 8.179315905527892 0.06790314171210567 0 0 0
1602 1 1.7708738399410018 9.201730393718998 1.2404135381302694 0 0 0
1608 1 5.312621519823002 9.201730393718998 1.2404135381302692 0 0 0
1600 5 1.7708738399410033 11.24655937010089 0.0679031417121056 0 0 0
1606 5 5.312621519823002 11.24655937010089 0.06790314171210544 0 0 0
1597 4 1.7708738399410033 7.156901417337103 2.4114092403104643 0 0 0
1603 4 5.312621519823002 7.156901417337103 2.4114092403104643 0 0 0
1598 4 3.962152282837282e-15 10.224144881910105 2.4114092403104648 0 0 0
1604 4 3.541747679882002 10.224144881910103 2.4114092403104634 0 0 0
1613 1 7.083495359764001 6.134486929145998 1.2404135381302681 0 0 0
1619 1 10.625243039646 6.134486929145998 1.240413538130268 0 0 0
1611 5 7.083495359764001 8.17931590552789 0.06790314171210488 0 0 0
1617 5 10.625243039646 8.179315905527892 0.06790314171210578 0 0 0
1614 1 8.854369199705001 9.201730393718998 1.2404135381302694 0 0 0
1612 5 8.854369199705001 11.24655937010089 0.06790314171210553 0 0 0
1609 4 8.854369199705001 7.156901417337103 2.4114092403104643 0 0 0
1610 4 7.083495359764001 10.224144881910105 2.4114092403104643 0 0 0
1616 4 10.625243039646001 10.224144881910103 2.4114092403104634 0 0 0
1625 1 14.166990719528 6.134486929145998 1.240413538130268 0 0 0
1623 5 14.166990719528 8.179315905527892 0.06790314171210571 0 0 0
1620 1 12.396116879587002 9.201730393718996 1.240413538130269 0 0 0
1626 1 15.937864559469002 9.201730393718996 1.2404135381302699 0 0 0
1618 5 12.396116879587 11.24655937010089 0.06790314171210585 0 0 0
1624 5 15.937864559469002 11.24655937010089 0.06790314171210633 0 0 0
1615 4 12.396116879587 7.156901417337102 2.411409240310464 0 0 0
1621 4 15.937864559469002 7.156901417337102 2.4114092403104634 0 0 0
1622 4 14.166990719528 10.224144881910103 2.411409240310464 0 0 0
1631 1 17.708738399410002 6.134486929145998 1.2404135381302683 0 0 0
1637 1 21.250486079292003 6.134486929145997 1.240413538130268 0 0 0
1629 5 17.708738399410002 8.179315905527892 0.06790314171210593 0 0 0
1635 5 21.250486079292 8.17931590552789 0.06790314171210503 0 0 0
1632 1 19.479612239351 9.201730393718998 1.2404135381302697 0 0 0
1638 1 23.021359919233 9.201730393718996 1.2404135381302688 0 0 0
1630 5 19.479612239351 11.24655937010089 0.06790314171210528 0 0 0
1636 5 23.021359919233 11.24655937010089 0.06790314171210668 0 0 0
1627 4 19.479612239351003 7.156901417337103 2.4114092403104643 0 0 0
1633 4 23.021359919233 7.156901417337102 2.411409240310463 0 0 0
1628 4 17.708738399410002 10.224144881910103 2.4114092403104634 0 0 0
1634 4 21.250486079292003 10.224144881910105 2.4114092403104643 0 0 0
1643 1 24.792233759174003 6.134486929145997 1.2404135381302686 0 0 0
1649 1 28.333981439056004 6.134486929145997 1.240413538130268 0 0 0
1641 5 24.792233759174003 8.179315905527892 0.06790314171210644 0 0 0
1647 5 28.333981439056 8.17931590552789 0.06790314171210508 0 0 0
1644 1 26.563107599115 9.201730393718998 1.2404135381302694 0 0 0
1642 5 26.563107599115 11.24655937010089 0.06790314171210522 0 0 0
1639 4 26.563107599115003 7.156901417337103 2.4114092403104643 0 0 0
1640 4 24.792233759174003 10.224144881910103 2.4114092403104626 0 0 0
1646 4 28.333981439056004 10.224144881910105 2.4114092403104643 0 0 0
1655 1 31.875729118938 6.134486929145998 1.2404135381302683 0 0 0
1653 5 31.875729118938 8.179315905527892 0.06790314171210543 0 0 0
1650 1 30.104855278997 9.201730393718996 1.2404135381302686 0 0 0
1656 1 33.646602958879 9.201730393718998 1.2404135381302694 0 0 0
1648 5 30.104855278997 11.24655937010089 0.06790314171210585 0 0 0
1654 5 33.646602958879 11.24655937010089 0.06790314171210522 0 0 0
1645 4 30.104855278997 7.156901417337103 2.411409240310464 0 0 0
1651 4 33.646602958879 7.156901417337103 2.4114092403104643 0 0 0
1652 4 31.875729118938 10.224144881910105 2.411409240310464 0 0 0
1661 1 35.41747679882 6.134486929145997 1.2404135381302681 0 0 0
1667 1 38.959224478702 6.134486929145997 1.2404135381302681 0 0 0
1659 5 35.41747679882 8.179315905527892 0.06790314171210612 0 0 0
1665 5 38.959224478702 8.179315905527892 0.06790314171210537 0 0 0
1662 1 37.188350638761 9.201730393718996 1.2404135381302692 0 0 0
1668 1 40.730098318643 9.201730393718998 1.2404135381302692 0 0 0
1660 5 37.188350638761 11.24655937010089 0.06790314171210635 0 0 0
1666 5 40.730098318643 11.24655937010089 0.06790314171210556 0 0 0
1657 4 37.188350638761 7.156901417337102 2.4114092403104634 0 0 0
1663 4 40.730098318643 7.156901417337103 2.4114092403104643 0 0 0
1658 4 35.41747679882 10.224144881910103 2.411409240310463 0 0 0
1664 4 38.959224478702 10.224144881910105 2.4114092403104643 0 0 0
1673 1 42.500972158584 6.134486929145997 1.2404135381302681 0 0 0
1679 1 46.042719838466 6.134486929145997 1.2404135381302681 0 0 0
1671 5 42.500972158584 8.179315905527892 0.06790314171210611 0 0 0
1677 5 46.042719838466 8.17931590552789 0.06790314171210471 0 0 0
1674 1 44.271845998525 9.201730393718996 1.2404135381302692 0 0 0
1672 5 44.271845998525 11.24655937010089 0.06790314171210635 0 0 0
1669 4 44.271845998525 7.156901417337102 2.4114092403104634 0 0 0
1670 4 42.500972158584 10.224144881910103 2.4114092403104634 0 0 0
1676 4 46.042719838466 10.224144881910105 2.4114092403104648 0 0 0
1517 1 49.584467518348 6.134486929145998 1.240413538130268 -1 0 0
1515 5 49.584467518348 8.179315905527892 0.06790314171210575 -1 0 0
1680 1 47.813593678407 9.201730393718998 1.2404135381302692 0 0 0
1518 1 51.355341358289 9.201730393718998 1.2404135381302692 -1 0 0
1678 5 47.813593678407 11.24655937010089 0.06790314171210503 0 0 0
1516 5 51.355341358288996 11.24655937010089 0.06790314171210589 -1 0 0
1675 4 47.813593678407 7.156901417337103 2.4114092403104648 0 0 0
1513 4 51.355341358288996 7.156901417337102 2.411409240310464 -1 0 0
1514 4 49.584467518348 10.224144881910103 2.4114092403104634 -1 0 0
1523 1 53.12621519822999 6.134486929145998 1.240413538130268 -1 0 0
1529 1 56.66796287811199 6.134486929145998 1.240413538130268 -1 0 0
1521 5 53.12621519823 8.179315905527892 0.06790314171210574 -1 0 0
1527 5 56.667962878112 8.179315905527892 0.06790314171210575 -1 0 0
1524 1 54.897089038171 9.201730393718998 1.2404135381302692 -1 0 0
1522 5 54.897089038170996 11.24655937010089 0.06790314171210583 -1 0 0
1519 4 54.897089038170996 7.156901417337102 2.411409240310464 -1 0 0
1520 4 53.12621519823 10.224144881910103 2.4114092403104634 -1 0 0
1526 4 56.667962878112 10.224144881910103 2.4114092403104634 -1 0 0
1535 1 60.20971055799399 6.134486929145998 1.240413538130268 -1 0 0
1541 1 63.751458237875994 6.134486929145998 1.240413538130268 -1 0 0
1533 5 60.209710557994 8.179315905527892 0.06790314171210575 -1 0 0
1539 5 63.751458237876 8.179315905527892 0.0679031417121051 -1 0 0
1530 1 58.438836718053004 9.201730393718998 1.2404135381302692 -1 0 0
1536 1 61.980584397935004 9.201730393718998 1.2404135381302692 -1 0 0
1528 5 58.438836718053 11.24655937010089 0.06790314171210583 -1 0 0
1534 5 61.980584397935 11.24655937010089 0.06790314171210583 -1 0 0
1525 4 58.438836718053 7.156901417337102 2.411409240310464 -1 0 0
1531 4 61.980584397935 7.156901417337102 2.411409240310464 -1 0 0
1532 4 60.209710557994 10.224144881910103 2.411409240310464 -1 0 0
1538 4 63.751458237876 10.224144881910105 2.4114092403104643 -1 0 0
1547 1 67.293205917758 6.134486929145998 1.2404135381302681 -1 0 0
1545 5 67.293205917758 8.179315905527892 0.06790314171210614 -1 0 0
1542 1 65.522332077817 9.201730393718996 1.2404135381302694 -1 0 0
1548 1 69.06407975769899 9.201730393718998 1.2404135381302692 -1 0 0
1540 5 65.522332077817 11.24655937010089 0.0679031417121064 -1 0 0
1546 5 69.064079757699 11.24655937010089 0.06790314171210556 -1 0 0
1537 4 65.522332077817 7.156901417337102 2.4114092403104634 -1 0 0
1543 4 69.064079757699 7.156901417337103 2.4114092403104643 -1 0 0
1544 4 67.293205917758 10.224144881910103 2.4114092403104634 -1 0 0
1553 1 70.83495359764001 6.134486929145998 1.2404135381302681 -1 0 0
1559 1 74.37670127752199 6.134486929145997 1.2404135381302681 -1 0 0
1551 5 70.83495359764 8.179315905527892 0.06790314171210543 -1 0 0
1557 5 74.376701277522 8.179315905527892 0.06790314171210544 -1 0 0
1554 1 72.605827437581 9.201730393718996 1.2404135381302692 -1 0 0
1552 5 72.605827437581 11.24655937010089 0.06790314171210518 -1 0 0
1549 4 72.605827437581 7.156901417337103 2.4114092403104648 -1 0 0
1550 4 70.83495359764 10.224144881910105 2.411409240310464 -1 0 0
1556 4 74.376701277522 10.224144881910105 2.411409240310464 -1 0 0
1565 1 77.918448957404 6.134486929145997 1.2404135381302681 -1 0 0
1571 1 81.460196637286 6.134486929145997 1.2404135381302681 -1 0 0
1563 5 77.918448957404 8.179315905527892 0.06790314171210604 -1 0 0
1569 5 81.460196637286 8.179315905527892 0.06790314171210604 -1 0 0
1560 1 76.147575117463 9.201730393718996 1.2404135381302692 -1 0 0
1566 1 79.689322797345 9.201730393718996 1.2404135381302692 -1 0 0
1558 5 76.14757511746299 11.24655937010089 0.06790314171210553 -1 0 0
1564 5 79.689322797345 11.246559370100892 0.06790314171210739 -1 0 0
1555 4 76.14757511746299 7.156901417337103 2.411409240310464 -1 0 0
1561 4 79.689322797345 7.156901417337101 2.4114092403104626 -1 0 0
1562 4 77.918448957404 10.224144881910103 2.4114092403104634 -1 0 0
1568 4 81.460196637286 10.224144881910103 2.411409240310463 -1 0 0
1577 1 85.00194431716801 6.134486929145997 1.2404135381302681 -1 0 0
1575 5 85.001944317168 8.17931590552789 0.0679031417121042 -1 0 0
1572 1 83.231070477227 9.201730393718996 1.240413538130269 -1 0 0
1578 1 86.77281815710899 9.201730393718996 1.2404135381302692 -1 0 0
1570 5 83.23107047722701 11.24655937010089 0.06790314171210556 -1 0 0
1576 5 86.772818157109 11.24655937010089 0.06790314171210442 -1 0 0
1567 4 83.23107047722701 7.156901417337103 2.411409240310464 -1 0 0
1573 4 86.772818157109 7.156901417337104 2.4114092403104657 -1 0 0
1574 4 85.001944317168 10.224144881910105 2.411409240310465 -1 0 0
1583 1 88.54369199705 6.134486929145997 1.2404135381302681 -1 0 0
1589 1 92.085439676932 6.134486929145997 1.240413538130268 -1 0 0
1581 5 88.54369199704999 8.179315905527892 0.06790314171210544 -1 0 0
1587 5 92.085439676932 8.179315905527892 0.06790314171210719 -1 0 0
1584 1 90.314565836991 9.201730393718996 1.2404135381302692 -1 0 0
1582 5 90.314565836991 11.24655937010089 0.06790314171210628 -1 0 0
1579 4 90.314565836991 7.156901417337102 2.4114092403104634 -1 0 0
1580 4 88.54369199704999 10.224144881910105 2.411409240310464 -1 0 0
1586 4 92.085439676932 10.224144881910101 2.411409240310462 -1 0 0
1595 1 95.627187356814 6.134486929145997 1.2404135381302681 -1 0 0
1593 5 95.627187356814 8.179315905527892 0.06790314171210604 -1 0 0
1590 1 93.856313516873 9.201730393718996 1.2404135381302692 -1 0 0
1596 1 97.39806119675501 9.201730393718996 1.2404135381302686 -1 0 0
1588 5 93.856313516873 11.246559370100892 0.06790314171210737 -1 0 0
1594 5 97.39806119675501 11.24655937010089 0.06790314171210514 -1 0 0
1585 4 93.856313516873 7.156901417337101 2.4114092403104626 -1 0 0
1591 4 97.39806119675501 7.156901417337103 2.4114092403104643 -1 0 0
1592 4 95.627187356814 10.224144881910103 2.411409240310463 -1 0 0
1769 1 6.256740516064268e-15 12.268973858291998 1.2404135381302683 0 0 0
1775 1 3.541747679882003 12.268973858291998 1.2404135381302683 0 0 0
1767 5 3.1652706156260473e-15 14.31380283467389 0.06790314171210485 0 0 0
1770 1 1.7708738399410018 15.336217322864998 1.2404135381302688 0 0 0
1773 5 3.5417476798820022 14.313802834673892 0.06790314171210542 0 0 0
1776 1 5.312621519823002 15.336217322864998 1.240413538130269 0 0 0
1765 4 1.7708738399410033 13.291388346483103 2.4114092403104634 0 0 0
1771 4 5.312621519823002 13.291388346483103 2.411409240310464 0 0 0
1766 4 3.822436174948365e-15 16.358631811056103 2.411409240310465 0 0 0
1772 4 3.541747679882002 16.358631811056103 2.4114092403104643 0 0 0
1781 1 7.083495359764001 12.268973858291998 1.2404135381302681 0 0 0
1787 1 10.625243039646 12.268973858291998 1.2404135381302681 0 0 0
1779 5 7.083495359764001 14.31380283467389 0.06790314171210475 0 0 0
1782 1 8.854369199705001 15.336217322864998 1.2404135381302688 0 0 0
1785 5 10.625243039646001 14.313802834673892 0.0679031417121055 0 0 0
1777 4 8.854369199705001 13.291388346483103 2.4114092403104634 0 0 0
1778 4 7.083495359764001 16.358631811056103 2.4114092403104648 0 0 0
1784 4 10.625243039646001 16.358631811056103 2.411409240310464 0 0 0
1793 1 14.166990719528 12.268973858291998 1.2404135381302681 0 0 0
1788 1 12.396116879587002 15.336217322864998 1.2404135381302688 0 0 0
1791 5 14.166990719528002 14.313802834673892 0.06790314171210543 0 0 0
1794 1 15.937864559469002 15.336217322864998 1.2404135381302688 0 0 0
1783 4 12.396116879586998 13.291388346483103 2.4114092403104634 0 0 0
1789 4 15.937864559469002 13.291388346483103 2.4114092403104626 0 0 0
1790 4 14.166990719528002 16.358631811056103 2.411409240310464 0 0 0
1799 1 17.708738399410002 12.268973858291998 1.2404135381302683 0 0 0
1805 1 21.250486079292003 12.268973858291998 1.2404135381302677 0 0 0
1797 5 17.708738399410002 14.313802834673892 0.06790314171210574 0 0 0
1800 1 19.479612239351 15.336217322864998 1.2404135381302688 0 0 0
1803 5 21.250486079292 14.31380283467389 0.06790314171210478 0 0 0
1806 1 23.021359919233 15.336217322864998 1.2404135381302681 0 0 0
1795 4 19.479612239351003 13.291388346483103 2.411409240310464 0 0 0
1801 4 23.021359919233 13.291388346483103 2.4114092403104626 0 0 0
1796 4 17.708738399410002 16.358631811056103 2.411409240310464 0 0 0
1802 4 21.250486079292003 16.358631811056103 2.4114092403104648 0 0 0
1811 1 24.792233759174003 12.268973858291998 1.2404135381302683 0 0 0
1817 1 28.333981439056004 12.268973858291998 1.2404135381302677 0 0 0
1809 5 24.792233759174003 14.313802834673892 0.06790314171210615 0 0 0
1812 1 26.563107599115 15.336217322864998 1.2404135381302688 0 0 0
1815 5 28.333981439056 14.31380283467389 0.06790314171210483 0 0 0
1807 4 26.563107599115003 13.291388346483103 2.411409240310464 0 0 0
1808 4 24.792233759174003 16.358631811056103 2.4114092403104634 0 0 0
1814 4 28.333981439056004 16.358631811056103 2.4114092403104648 0 0 0
1823 1 31.875729118938 12.268973858291998 1.240413538130268 0 0 0
1818 1 30.104855278997 15.336217322864998 1.240413538130268 0 0 0
1821 5 31.875729118938 14.31380283467389 0.06790314171210518 0 0 0
1824 1 33.646602958879 15.336217322864998 1.2404135381302688 0 0 0
1813 4 30.104855278997 13.291388346483103 2.4114092403104634 0 0 0
1819 4 33.646602958879 13.291388346483103 2.411409240310464 0 0 0
1820 4 31.875729118938 16.358631811056103 2.4114092403104643 0 0 0
1829 1 35.41747679882 12.268973858291998 1.240413538130268 0 0 0
1835 1 38.959224478702 12.268973858291998 1.2404135381302681 0 0 0
1827 5 35.41747679882 14.313802834673892 0.06790314171210585 0 0 0
1830 1 37.188350638761 15.336217322864998 1.2404135381302683 0 0 0
1833 5 38.959224478702 14.31380283467389 0.0679031417121052 0 0 0
1836 1 40.730098318643 15.336217322864998 1.2404135381302686 0 0 0
1825 4 37.188350638761 13.291388346483103 2.411409240310463 0 0 0
1831 4 40.730098318643 13.291388346483103 2.4114092403104634 0 0 0
1826 4 35.41747679882 16.358631811056103 2.411409240310464 0 0 0
1832 4 38.959224478702 16.358631811056103 2.4114092403104648 0 0 0
1841 1 42.500972158584 12.268973858291998 1.240413538130268 0 0 0
1847 1 46.042719838466 12.268973858291998 1.2404135381302681 0 0 0
1839 5 42.500972158584 14.313802834673892 0.06790314171210583 0 0 0
1842 1 44.271845998525 15.336217322864998 1.2404135381302683 0 0 0
1845 5 46.042719838466 14.31380283467389 0.06790314171210453 0 0 0
1837 4 44.271845998525 13.291388346483103 2.411409240310463 0 0 0
1838 4 42.500972158584 16.358631811056103 2.411409240310464 0 0 0
1844 4 46.042719838466 16.358631811056103 2.411409240310465 0 0 0
1685 1 49.584467518348 12.268973858291998 1.2404135381302681 -1 0 0
1848 1 47.813593678407 15.336217322864998 1.2404135381302686 0 0 0
1683 5 49.584467518348 14.313802834673892 0.06790314171210562 -1 0 0
1686 1 51.355341358289 15.336217322864998 1.2404135381302688 -1 0 0
1843 4 47.813593678407 13.291388346483103 2.4114092403104643 0 0 0
1681 4 51.355341358288996 13.291388346483103 2.4114092403104634 -1 0 0
1682 4 49.584467518348 16.358631811056103 2.411409240310464 -1 0 0
1691 1 53.12621519822999 12.268973858291998 1.2404135381302683 -1 0 0
1697 1 56.66796287811199 12.268973858291998 1.2404135381302683 -1 0 0
1689 5 53.12621519823 14.313802834673892 0.06790314171210547 -1 0 0
1692 1 54.897089038171 15.336217322864998 1.2404135381302688 -1 0 0
1695 5 56.667962878112 14.313802834673892 0.06790314171210547 -1 0 0
1687 4 54.897089038170996 13.291388346483103 2.4114092403104634 -1 0 0
1688 4 53.12621519823 16.358631811056103 2.411409240310464 -1 0 0
1694 4 56.667962878112 16.358631811056103 2.411409240310464 -1 0 0
1703 1 60.20971055799399 12.268973858291998 1.2404135381302683 -1 0 0
1709 1 63.751458237875994 12.268973858291998 1.2404135381302681 -1 0 0
1698 1 58.438836718053004 15.336217322864998 1.2404135381302688 -1 0 0
1701 5 60.209710557994 14.313802834673892 0.06790314171210547 -1 0 0
1704 1 61.980584397935004 15.336217322864998 1.2404135381302688 -1 0 0
1707 5 63.751458237876 14.313802834673892 0.06790314171210474 -1 0 0
1693 4 58.438836718053 13.291388346483103 2.4114092403104634 -1 0 0
1699 4 61.980584397935 13.291388346483103 2.4114092403104634 -1 0 0
1700 4 60.209710557994 16.358631811056103 2.4114092403104643 -1 0 0
1706 4 63.751458237876 16.358631811056103 2.4114092403104648 -1 0 0
1715 1 67.293205917758 12.268973858291998 1.2404135381302681 -1 0 0
1710 1 65.522332077817 15.336217322864998 1.2404135381302688 -1 0 0
1713 5 67.293205917758 14.313802834673892 0.0679031417121059 -1 0 0
1716 1 69.06407975769899 15.336217322864998 1.2404135381302686 -1 0 0
1705 4 65.522332077817 13.291388346483103 2.4114092403104626 -1 0 0
1711 4 69.064079757699 13.291388346483103 2.4114092403104634 -1 0 0
1712 4 67.293205917758 16.358631811056103 2.411409240310464 -1 0 0
1721 1 70.83495359764001 12.268973858291998 1.2404135381302681 -1 0 0
1727 1 74.37670127752199 12.268973858291998 1.2404135381302681 -1 0 0
1719 5 70.83495359764 14.31380283467389 0.06790314171210521 -1 0 0
1722 1 72.605827437581 15.336217322864998 1.2404135381302686 -1 0 0
1725 5 74.376701277522 14.31380283467389 0.06790314171210521 -1 0 0
1717 4 72.605827437581 13.291388346483103 2.4114092403104643 -1 0 0
1718 4 70.83495359764 16.358631811056103 2.4114092403104643 -1 0 0
1724 4 74.376701277522 16.358631811056103 2.4114092403104643 -1 0 0