LAMMPS data file via write_data, version 29 Aug 2024, timestep = 2, units = metal

8568 atoms
36 atom types

0 97.199824485204 xlo xhi
0 102.215556657766 ylo yhi
-50 50 zlo zhi

Masses

1 180.94788
2 180.94788
3 180.94788
4 180.94788
5 180.94788
6 180.94788
7 180.94788
8 180.94788
9 180.94788
10 180.94788
11 180.94788
12 180.94788
13 78.971
14 78.971
15 78.971
16 78.971
17 78.971
18 78.971
19 78.971
20 78.971
21 78.971
22 78.971
23 78.971
24 78.971
25 78.971
26 78.971
27 78.971
28 78.971
29 78.971
30 78.971
31 78.971
32 78.971
33 78.971
34 78.971
35 78.971
36 78.971

Atoms # atomic

1434 16 2.2324973119586271e-13 1.0021133005661036 0.017840241821175662 0 0 0
1440 20 3.4714223030432234 1.0021133005661038 0.017840241821175284 0 0 0
1597 1 5.840496985670965e-13 3.0063399016987966 1.6770461391135723 0 0 0
1603 3 3.4714223030435845 3.0063399016987966 1.6770461391135725 0 0 0
1599 14 1.7357111515221042 4.008453202265104 0.017840241821175815 0 0 0
1605 18 5.207133454565104 4.0084532022651045 0.017840241821175457 0 0 0
1446 16 6.942844606086222 1.0021133005661038 0.017840241821175357 0 0 0
1452 20 10.414266909129221 1.0021133005661038 0.017840241821175367 0 0 0
1609 1 6.942844606086584 3.0063399016987966 1.6770461391135727 0 0 0
1615 3 10.414266909129584 3.0063399016987966 1.6770461391135727 0 0 0
1611 14 8.678555757608104 4.0084532022651045 0.017840241821175617 0 0 0
1458 16 13.88568921217222 1.0021133005661038 0.01784024182117528 0 0 0
1621 1 13.885689212172583 3.0063399016987966 1.6770461391135725 0 0 0
1617 18 12.149978060651103 4.0084532022651045 0.017840241821175443 0 0 0
1623 14 15.621400363694104 4.008453202265104 0.017840241821175915 0 0 0
1464 20 17.35711151521522 1.0021133005661038 0.01784024182117519 0 0 0
1470 16 20.82853381825822 1.0021133005661038 0.017840241821175374 0 0 0
1627 3 17.357111515215582 3.0063399016987966 1.6770461391135725 0 0 0
1633 1 20.82853381825858 3.0063399016987966 1.6770461391135725 0 0 0
1629 18 19.092822666737103 4.0084532022651045 0.017840241821175447 0 0 0
1635 14 22.564244969780102 4.0084532022651045 0.017840241821175475 0 0 0
1476 20 24.299956121301218 1.0021133005661038 0.01784024182117531 0 0 0
1482 16 27.77137842434422 1.0021133005661031 0.01784024182117636 0 0 0
1639 3 24.29995612130158 3.0063399016987966 1.6770461391135725 0 0 0
1645 1 27.771378424344586 3.006339901698798 1.6770461391135725 0 0 0
1641 18 26.0356672728231 4.0084532022651045 0.01784024182117571 0 0 0
1488 20 31.24280072738722 1.0021133005661038 0.017840241821175197 0 0 0
1651 3 31.24280072738759 3.006339901698797 1.6770461391135725 0 0 0
1647 14 29.507089575866107 4.0084532022651045 0.01784024182117535 0 0 0
1653 18 32.97851187890911 4.0084532022651045 0.017840241821175797 0 0 0
1494 16 34.71422303043022 1.0021133005661038 0.017840241821175728 0 0 0
1500 20 38.185645333473225 1.0021133005661038 0.017840241821175717 0 0 0
1657 1 34.71422303043059 3.0063399016987966 1.6770461391135725 0 0 0
1663 3 38.18564533347359 3.0063399016987966 1.6770461391135727 0 0 0
1659 14 36.44993418195211 4.0084532022651045 0.01784024182117548 0 0 0
1665 18 39.92135648499511 4.0084532022651045 0.017840241821175454 0 0 0
1506 16 41.65706763651623 1.0021133005661038 0.017840241821175364 0 0 0
1512 20 45.12848993955923 1.0021133005661038 0.01784024182117528 0 0 0
1669 1 41.65706763651659 3.0063399016987966 1.6770461391135727 0 0 0
1675 3 45.128489939559586 3.0063399016987966 1.6770461391135725 0 0 0
1671 14 43.39277878803811 4.0084532022651045 0.017840241821175454 0 0 0
1350 16 48.59991224260223 1.0021133005661038 0.017840241821175367 -1 0 0
1513 1 48.599912242602585 3.006339901698796 1.6770461391135725 -1 0 0
1677 18 46.86420109108111 4.008453202265104 0.017840241821175825 0 0 0
1515 14 50.335623394124106 4.0084532022651045 0.01784024182117546 -1 0 0
1356 20 52.07133454564523 1.0021133005661038 0.01784024182117536 -1 0 0
1362 16 55.54275684868823 1.0021133005661036 0.01784024182117554 -1 0 0
1519 3 52.071334545645584 3.0063399016987966 1.6770461391135725 -1 0 0
1525 1 55.54275684868859 3.006339901698798 1.6770461391135725 -1 0 0
1521 18 53.807045697167105 4.0084532022651045 0.01784024182117535 -1 0 0
1368 20 59.01417915173123 1.0021133005661038 0.017840241821175194 -1 0 0
1374 16 62.485601454774226 1.002113300566103 0.017840241821176404 -1 0 0
1531 3 59.01417915173159 3.0063399016987966 1.6770461391135725 -1 0 0
1537 1 62.485601454774596 3.0063399016987975 1.6770461391135727 -1 0 0
1527 14 57.27846800021011 4.0084532022651045 0.01784024182117587 -1 0 0
1533 18 60.74989030325311 4.0084532022651045 0.01784024182117522 -1 0 0
1380 20 65.95702375781723 1.0021133005661038 0.017840241821175218 -1 0 0
1543 3 65.9570237578176 3.006339901698796 1.6770461391135725 -1 0 0
1539 14 64.22131260629612 4.008453202265104 0.017840241821176366 -1 0 0
1545 18 67.69273490933912 4.0084532022651045 0.01784024182117528 -1 0 0
1386 16 69.42844606086024 1.0021133005661043 0.017840241821174947 -1 0 0
1392 20 72.89986836390324 1.002113300566104 0.0178402418211751 -1 0 0
1549 1 69.4284460608606 3.0063399016987966 1.6770461391135725 -1 0 0
1555 3 72.8998683639036 3.0063399016987966 1.6770461391135727 -1 0 0
1551 14 71.16415721238212 4.0084532022651045 0.01784024182117556 -1 0 0
1398 16 76.37129066694624 1.0021133005661038 0.01784024182117528 -1 0 0
1404 20 79.84271296998924 1.0021133005661038 0.01784024182117528 -1 0 0
1561 1 76.37129066694659 3.0063399016987966 1.6770461391135727 -1 0 0
1567 3 79.84271296998959 3.0063399016987966 1.6770461391135727 -1 0 0
1557 18 74.63557951542512 4.0084532022651045 0.01784024182117545 -1 0 0
1563 14 78.10700181846812 4.0084532022651045 0.017840241821175464 -1 0 0
1410 16 83.31413527303224 1.0021133005661038 0.01784024182117528 -1 0 0
1573 1 83.31413527303259 3.0063399016987966 1.6770461391135727 -1 0 0
1569 18 81.57842412151112 4.0084532022651045 0.017840241821175464 -1 0 0
1575 14 85.04984642455412 4.0084532022651045 0.017840241821175464 -1 0 0
1416 20 86.78555757607523 1.0021133005661038 0.01784024182117528 -1 0 0
1422 16 90.25697987911823 1.0021133005661038 0.01784024182117528 -1 0 0
1579 3 86.78555757607559 3.0063399016987966 1.6770461391135727 -1 0 0
1585 1 90.25697987911859 3.0063399016987966 1.6770461391135727 -1 0 0
1581 18 88.52126872759712 4.0084532022651045 0.017840241821175464 -1 0 0
1428 20 93.72840218216123 1.0021133005661038 0.01784024182117528 -1 0 0
1591 3 93.72840218216159 3.0063399016987966 1.6770461391135727 -1 0 0
1587 14 91.99269103064012 4.0084532022651045 0.017840241821175464 -1 0 0
1593 18 95.46411333368312 4.0084532022651045 0.01784024182117547 -1 0 0
1602 16 2.2323388083002489e-13 7.014793103964104 0.01784024182117577 0 0 0
1600 2 1.7357111515217492 6.012679803397797 1.6770461391135723 0 0 0
1608 20 3.471422303043223 7.014793103964104 0.017840241821175253 0 0 0
1606 4 5.207133454564748 6.012679803397797 1.6770461391135725 0 0 0
1765 1 5.840356718112872e-13 9.019019705096795 1.6770461391135723 0 0 0
1771 3 3.471422303043584 9.019019705096795 1.6770461391135725 0 0 0
1767 14 1.7357111515221042 10.021133005663101 0.017840241821175672 0 0 0
1773 18 5.2071334545651045 10.021133005663101 0.017840241821175065 0 0 0
1614 16 6.942844606086222 7.014793103964104 0.017840241821175332 0 0 0
1612 2 8.678555757607748 6.012679803397797 1.6770461391135725 0 0 0
1620 20 10.414266909129221 7.014793103964104 0.017840241821175246 0 0 0
1777 1 6.942844606086584 9.019019705096795 1.6770461391135723 0 0 0
1783 3 10.414266909129584 9.019019705096795 1.6770461391135723 0 0 0
1779 14 8.678555757608104 10.021133005663101 0.017840241821175128 0 0 0
1618 4 12.149978060650747 6.012679803397797 1.6770461391135725 0 0 0
1626 16 13.88568921217222 7.014793103964104 0.017840241821175256 0 0 0
1624 2 15.621400363693747 6.012679803397797 1.6770461391135725 0 0 0
1789 1 13.885689212172583 9.019019705096795 1.6770461391135725 0 0 0
1785 18 12.149978060651103 10.021133005663101 0.017840241821175124 0 0 0
1791 14 15.621400363694104 10.021133005663101 0.01784024182117558 0 0 0
1632 20 17.35711151521522 7.014793103964104 0.017840241821175145 0 0 0
1638 16 20.82853381825822 7.014793103964104 0.01784024182117525 0 0 0
1630 4 19.092822666736744 6.012679803397797 1.6770461391135725 0 0 0
1636 2 22.564244969779743 6.012679803397797 1.6770461391135725 0 0 0
1795 3 17.357111515215582 9.019019705096795 1.6770461391135723 0 0 0
1801 1 20.82853381825858 9.019019705096795 1.6770461391135723 0 0 0
1797 18 19.092822666737103 10.021133005663101 0.017840241821175235 0 0 0
1803 14 22.564244969780102 10.021133005663101 0.01784024182117527 0 0 0
1644 20 24.299956121301218 7.014793103964104 0.017840241821175277 0 0 0
1642 4 26.035667272822742 6.012679803397797 1.6770461391135725 0 0 0
1650 16 27.77137842434422 7.014793103964103 0.017840241821176377 0 0 0
1807 3 24.29995612130158 9.019019705096795 1.6770461391135723 0 0 0
1813 1 27.771378424344586 9.019019705096797 1.6770461391135725 0 0 0
1809 18 26.0356672728231 10.021133005663101 0.017840241821175672 0 0 0
1648 2 29.50708957586575 6.012679803397797 1.6770461391135725 0 0 0
1656 20 31.24280072738722 7.014793103964104 0.017840241821175242 0 0 0
1654 4 32.97851187890875 6.0126798033977975 1.6770461391135725 0 0 0
1819 3 31.24280072738759 9.019019705096795 1.6770461391135725 0 0 0
1815 14 29.507089575866107 10.021133005663101 0.017840241821175218 0 0 0
1821 18 32.97851187890911 10.021133005663101 0.017840241821175558 0 0 0
1662 16 34.71422303043022 7.014793103964104 0.017840241821175835 0 0 0
1660 2 36.449934181951754 6.012679803397798 1.6770461391135727 0 0 0
1668 20 38.185645333473225 7.014793103964104 0.017840241821175832 0 0 0
1666 4 39.92135648499475 6.012679803397797 1.6770461391135725 0 0 0
1825 1 34.71422303043059 9.019019705096795 1.677046139113573 0 0 0
1831 3 38.18564533347359 9.019019705096795 1.6770461391135727 0 0 0
1827 14 36.44993418195211 10.021133005663101 0.017840241821175246 0 0 0
1833 18 39.92135648499511 10.021133005663101 0.017840241821175298 0 0 0
1674 16 41.65706763651623 7.014793103964104 0.017840241821175266 0 0 0
1672 2 43.39277878803775 6.012679803397797 1.6770461391135725 0 0 0
1680 20 45.12848993955923 7.014793103964104 0.017840241821175263 0 0 0
1837 1 41.65706763651659 9.019019705096795 1.6770461391135725 0 0 0
1843 3 45.128489939559586 9.019019705096795 1.6770461391135725 0 0 0
1839 14 43.39277878803811 10.021133005663101 0.017840241821175284 0 0 0
1678 4 46.86420109108075 6.012679803397797 1.6770461391135725 0 0 0
1518 16 48.59991224260223 7.014793103964104 0.01784024182117526 -1 0 0
1516 2 50.33562339412375 6.012679803397797 1.6770461391135725 -1 0 0
1681 1 48.599912242602585 9.019019705096795 1.6770461391135723 -1 0 0
1845 18 46.86420109108111 10.021133005663101 0.01784024182117562 0 0 0
1683 14 50.335623394124106 10.021133005663101 0.01784024182117514 -1 0 0
1524 20 52.07133454564523 7.014793103964104 0.01784024182117526 -1 0 0
1522 4 53.80704569716675 6.012679803397797 1.6770461391135725 -1 0 0
1530 16 55.54275684868823 7.014793103964104 0.01784024182117565 -1 0 0
1687 3 52.071334545645584 9.019019705096795 1.6770461391135723 -1 0 0
1693 1 55.54275684868859 9.019019705096797 1.6770461391135725 -1 0 0
1689 18 53.807045697167105 10.021133005663101 0.017840241821174985 -1 0 0
1536 20 59.01417915173123 7.014793103964104 0.017840241821175256 -1 0 0
1528 2 57.278468000209756 6.012679803397798 1.6770461391135725 -1 0 0
1534 4 60.749890303252755 6.012679803397797 1.6770461391135725 -1 0 0
1542 16 62.485601454774226 7.014793103964103 0.017840241821176196 -1 0 0
1699 3 59.01417915173159 9.019019705096795 1.6770461391135725 -1 0 0
1705 1 62.485601454774596 9.019019705096797 1.6770461391135727 -1 0 0
1695 14 57.27846800021011 10.021133005663101 0.01784024182117553 -1 0 0
1701 18 60.74989030325311 10.021133005663101 0.017840241821175093 -1 0 0
1540 2 64.22131260629575 6.012679803397796 1.6770461391135725 -1 0 0
1548 20 65.95702375781723 7.014793103964104 0.017840241821175107 -1 0 0
1546 4 67.69273490933875 6.012679803397798 1.6770461391135725 -1 0 0
1711 3 65.9570237578176 9.019019705096795 1.6770461391135723 -1 0 0
1707 14 64.22131260629612 10.021133005663101 0.017840241821176085 -1 0 0
1713 18 67.69273490933912 10.021133005663101 0.017840241821175083 -1 0 0
1554 16 69.42844606086024 7.014793103964105 0.017840241821175076 -1 0 0
1552 2 71.16415721238175 6.0126798033977975 1.6770461391135727 -1 0 0
1560 20 72.89986836390324 7.014793103964105 0.017840241821175214 -1 0 0
1717 1 69.4284460608606 9.019019705096795 1.6770461391135727 -1 0 0
1723 3 72.8998683639036 9.019019705096795 1.6770461391135727 -1 0 0
1719 14 71.16415721238212 10.021133005663101 0.017840241821175325 -1 0 0
1558 4 74.63557951542475 6.0126798033977975 1.6770461391135727 -1 0 0
1566 16 76.37129066694624 7.014793103964104 0.017840241821175346 -1 0 0
1564 2 78.10700181846775 6.012679803397797 1.6770461391135725 -1 0 0
1572 20 79.84271296998924 7.014793103964104 0.01784024182117534 -1 0 0
1729 1 76.37129066694659 9.019019705096795 1.6770461391135723 -1 0 0
1735 3 79.84271296998959 9.019019705096795 1.6770461391135723 -1 0 0
1725 18 74.63557951542512 10.021133005663101 0.017840241821175263 -1 0 0
1731 14 78.10700181846812 10.021133005663101 0.017840241821175263 -1 0 0
1570 4 81.57842412151075 6.012679803397797 1.6770461391135725 -1 0 0
1578 16 83.31413527303224 7.014793103964104 0.017840241821175336 -1 0 0
1576 2 85.04984642455375 6.012679803397797 1.6770461391135725 -1 0 0
1741 1 83.31413527303259 9.019019705096795 1.6770461391135723 -1 0 0
1737 18 81.57842412151112 10.021133005663101 0.017840241821175263 -1 0 0
1743 14 85.04984642455412 10.021133005663101 0.017840241821175263 -1 0 0
1584 20 86.78555757607523 7.014793103964104 0.017840241821175336 -1 0 0
1582 4 88.52126872759675 6.012679803397797 1.6770461391135725 -1 0 0
1590 16 90.25697987911823 7.014793103964104 0.01784024182117534 -1 0 0
1747 3 86.78555757607559 9.019019705096795 1.6770461391135723 -1 0 0
1753 1 90.25697987911859 9.019019705096795 1.6770461391135723 -1 0 0
1749 18 88.52126872759712 10.021133005663101 0.017840241821175263 -1 0 0
1588 2 91.99269103063975 6.012679803397797 1.6770461391135725 -1 0 0
1596 20 93.72840218216123 7.014793103964104 0.01784024182117534 -1 0 0
1594 4 95.46411333368275 6.012679803397797 1.6770461391135725 -1 0 0
1759 3 93.72840218216159 9.019019705096795 1.6770461391135725 -1 0 0
1755 14 91.99269103064012 10.021133005663101 0.017840241821175263 -1 0 0
1761 18 95.46411333368312 10.021133005663101 0.0178402418211753 -1 0 0
1770 16 2.2323961778452697e-13 13.0274729073621 0.017840241821175547 0 0 0
1768 2 1.735711151521749 12.025359606795794 1.6770461391135723 0 0 0
1776 20 3.471422303043223 13.027472907362101 0.017840241821175225 0 0 0
1774 4 5.207133454564748 12.025359606795794 1.6770461391135723 0 0 0
1933 1 5.841731612621287e-13 15.031699508494794 1.6770461391135723 0 0 0
1939 3 3.471422303043584 15.031699508494794 1.6770461391135725 0 0 0
1935 14 1.7357111515221042 16.033812809061104 0.017840241821176207 0 0 0
1941 18 5.207133454565104 16.033812809061104 0.017840241821175887 0 0 0
1782 16 6.942844606086222 13.027472907362101 0.01784024182117533 0 0 0
1780 2 8.678555757607748 12.025359606795794 1.6770461391135723 0 0 0
1788 20 10.414266909129221 13.027472907362101 0.01784024182117526 0 0 0
1945 1 6.942844606086584 15.031699508494794 1.6770461391135725 0 0 0
1951 3 10.414266909129584 15.031699508494794 1.6770461391135723 0 0 0
1947 14 8.678555757608104 16.033812809061104 0.017840241821176026 0 0 0
1786 4 12.149978060650747 12.025359606795794 1.6770461391135723 0 0 0
1794 16 13.88568921217222 13.027472907362101 0.017840241821175246 0 0 0
1792 2 15.621400363693747 12.025359606795794 1.6770461391135723 0 0 0
1957 1 13.885689212172583 15.031699508494794 1.6770461391135725 0 0 0
1953 18 12.149978060651103 16.033812809061104 0.01784024182117594 0 0 0
1959 14 15.621400363694104 16.033812809061104 0.017840241821176165 0 0 0
1800 20 17.35711151521522 13.027472907362101 0.017840241821175145 0 0 0
1806 16 20.82853381825822 13.027472907362101 0.017840241821175273 0 0 0
1798 4 19.092822666736744 12.025359606795794 1.6770461391135723 0 0 0
1804 2 22.564244969779743 12.025359606795794 1.6770461391135723 0 0 0
1963 3 17.357111515215582 15.031699508494794 1.6770461391135727 0 0 0
1969 1 20.82853381825858 15.031699508494794 1.6770461391135725 0 0 0
1965 18 19.092822666737103 16.033812809061104 0.01784024182117584 0 0 0
1971 14 22.564244969780102 16.033812809061104 0.017840241821175863 0 0 0
1812 20 24.299956121301218 13.027472907362101 0.01784024182117521 0 0 0
1810 4 26.035667272822742 12.025359606795794 1.6770461391135725 0 0 0
1818 16 27.77137842434422 13.0274729073621 0.017840241821176283 0 0 0
1975 3 24.29995612130158 15.031699508494794 1.6770461391135725 0 0 0
1981 1 27.771378424344586 15.031699508494794 1.6770461391135725 0 0 0
1977 18 26.0356672728231 16.033812809061104 0.017840241821176207 0 0 0
1816 2 29.50708957586575 12.025359606795794 1.6770461391135725 0 0 0
1824 20 31.24280072738722 13.027472907362101 0.01784024182117509 0 0 0
1822 4 32.97851187890875 12.025359606795794 1.6770461391135727 0 0 0
1987 3 31.24280072738759 15.031699508494794 1.6770461391135725 0 0 0
1983 14 29.507089575866107 16.033812809061104 0.01784024182117587 0 0 0
1989 18 32.97851187890911 16.033812809061104 0.017840241821176234 0 0 0
1830 16 34.71422303043022 13.0274729073621 0.01784024182117558 0 0 0
1828 2 36.449934181951754 12.025359606795794 1.6770461391135723 0 0 0
1836 20 38.185645333473225 13.0274729073621 0.017840241821175565 0 0 0
1834 4 39.92135648499475 12.025359606795794 1.6770461391135725 0 0 0
1993 1 34.71422303043059 15.031699508494794 1.6770461391135725 0 0 0
1999 3 38.18564533347359 15.031699508494794 1.6770461391135725 0 0 0
1995 14 36.44993418195211 16.033812809061104 0.01784024182117623 0 0 0
2001 18 39.92135648499511 16.033812809061104 0.01784024182117597 0 0 0
1842 16 41.65706763651623 13.027472907362101 0.017840241821175266 0 0 0
1840 2 43.39277878803775 12.025359606795794 1.6770461391135723 0 0 0
1848 20 45.12848993955923 13.027472907362101 0.01784024182117524 0 0 0
2005 1 41.65706763651659 15.031699508494794 1.6770461391135723 0 0 0
2011 3 45.128489939559586 15.031699508494794 1.6770461391135725 0 0 0
2007 14 43.39277878803811 16.033812809061104 0.01784024182117596 0 0 0
1846 4 46.86420109108075 12.025359606795794 1.6770461391135723 0 0 0
1686 16 48.59991224260223 13.027472907362101 0.017840241821175235 -1 0 0
1684 2 50.33562339412375 12.025359606795794 1.6770461391135723 -1 0 0
1849 1 48.599912242602585 15.031699508494794 1.6770461391135723 -1 0 0
2013 18 46.86420109108111 16.033812809061104 0.017840241821176134 0 0 0
1851 14 50.335623394124106 16.033812809061104 0.017840241821175957 -1 0 0
1692 20 52.07133454564523 13.027472907362101 0.017840241821175246 -1 0 0
1690 4 53.80704569716675 12.025359606795794 1.6770461391135723 -1 0 0
1698 16 55.54275684868823 13.0274729073621 0.017840241821175516 -1 0 0
1855 3 52.071334545645584 15.031699508494794 1.6770461391135723 -1 0 0
1861 1 55.54275684868859 15.031699508494794 1.6770461391135727 -1 0 0
1857 18 53.807045697167105 16.033812809061104 0.017840241821175634 -1 0 0
1704 20 59.01417915173123 13.027472907362101 0.017840241821174965 -1 0 0
1696 2 57.278468000209756 12.025359606795794 1.6770461391135725 -1 0 0
1702 4 60.749890303252755 12.025359606795794 1.6770461391135725 -1 0 0
1710 16 62.485601454774226 13.0274729073621 0.017840241821176224 -1 0 0
1867 3 59.01417915173159 15.031699508494794 1.6770461391135725 -1 0 0
1873 1 62.485601454774596 15.031699508494794 1.6770461391135725 -1 0 0
1863 14 57.27846800021011 16.033812809061104 0.01784024182117618 -1 0 0
1869 18 60.74989030325311 16.033812809061104 0.01784024182117561 -1 0 0
1708 2 64.22131260629575 12.025359606795792 1.6770461391135725 -1 0 0
1716 20 65.95702375781723 13.027472907362101 0.017840241821175076 -1 0 0
1714 4 67.69273490933875 12.025359606795796 1.6770461391135725 -1 0 0
1879 3 65.9570237578176 15.031699508494794 1.6770461391135723 -1 0 0
1875 14 64.22131260629612 16.033812809061104 0.01784024182117668 -1 0 0
1881 18 67.69273490933912 16.033812809061104 0.0178402418211758 -1 0 0
1722 16 69.42844606086024 13.027472907362101 0.01784024182117482 -1 0 0
1720 2 71.16415721238175 12.025359606795794 1.6770461391135725 -1 0 0
1728 20 72.89986836390324 13.027472907362101 0.017840241821174947 -1 0 0
1885 1 69.4284460608606 15.031699508494794 1.6770461391135725 -1 0 0
1891 3 72.8998683639036 15.031699508494794 1.6770461391135725 -1 0 0
1887 14 71.16415721238212 16.033812809061104 0.01784024182117631 -1 0 0
1726 4 74.63557951542475 12.025359606795794 1.6770461391135725 -1 0 0
1734 16 76.37129066694624 13.027472907362101 0.017840241821175187 -1 0 0
1732 2 78.10700181846775 12.025359606795794 1.6770461391135725 -1 0 0
1740 20 79.84271296998924 13.027472907362101 0.017840241821175187 -1 0 0
1897 1 76.37129066694659 15.031699508494794 1.6770461391135723 -1 0 0
1903 3 79.84271296998959 15.031699508494794 1.6770461391135723 -1 0 0
1893 18 74.63557951542512 16.033812809061104 0.01784024182117597 -1 0 0
1899 14 78.10700181846812 16.033812809061104 0.017840241821175964 -1 0 0
1738 4 81.57842412151075 12.025359606795794 1.6770461391135725 -1 0 0
1746 16 83.31413527303224 13.027472907362101 0.017840241821175187 -1 0 0
1744 2 85.04984642455375 12.025359606795794 1.6770461391135725 -1 0 0
1909 1 83.31413527303259 15.031699508494794 1.6770461391135723 -1 0 0
1905 18 81.57842412151112 16.033812809061104 0.017840241821175964 -1 0 0
1911 14 85.04984642455412 16.033812809061104 0.017840241821175964 -1 0 0
1752 20 86.78555757607523 13.027472907362101 0.017840241821175187 -1 0 0
1750 4 88.52126872759675 12.025359606795794 1.6770461391135725 -1 0 0
1758 16 90.25697987911823 13.027472907362101 0.017840241821175187 -1 0 0
1915 3 86.78555757607559 15.031699508494794 1.6770461391135723 -1 0 0
1921 1 90.25697987911859 15.031699508494794 1.6770461391135723 -1 0 0
1917 18 88.52126872759712 16.033812809061104 0.017840241821175964 -1 0 0
1756 2 91.99269103063975 12.025359606795794 1.6770461391135725 -1 0 0
1764 20 93.72840218216123 13.027472907362101 0.017840241821175187 -1 0 0
1762 4 95.46411333368275 12.025359606795794 1.6770461391135727 -1 0 0
1927 3 93.72840218216159 15.031699508494794 1.6770461391135723 -1 0 0
1923 14 91.99269103064012 16.033812809061104 0.017840241821175964 -1 0 0
1929 18 95.46411333368312 16.033812809061104 0.01784024182117597 -1 0 0
1936 2 1.735711151521749 18.038039410193793 1.6770461391135725 0 0 0
1942 4 5.207133454564748 18.038039410193793 1.6770461391135725 0 0 0
1938 16 2.2314958286310938e-13 19.0401527107601 0.017840241821175367 0 0 0
1944 20 3.471422303043223 19.0401527107601 0.017840241821174975 0 0 0
2103 14 1.7357111515221042 22.046492612459105 0.017840241821176182 0 0 0
2101 1 5.841742143021453e-13 21.044379311892794 1.677046139113572 0 0 0
2107 3 3.471422303043584 21.044379311892794 1.6770461391135723 0 0 0
2109 18 5.207133454565104 22.046492612459105 0.017840241821175856 0 0 0
1948 2 8.678555757607748 18.038039410193793 1.6770461391135725 0 0 0
1950 16 6.942844606086222 19.0401527107601 0.017840241821175155 0 0 0
1956 20 10.414266909129221 19.0401527107601 0.01784024182117507 0 0 0
2113 1 6.942844606086584 21.044379311892794 1.6770461391135725 0 0 0
2115 14 8.678555757608104 22.046492612459105 0.017840241821175995 0 0 0
2119 3 10.414266909129584 21.044379311892794 1.6770461391135723 0 0 0
1954 4 12.149978060650747 18.038039410193793 1.6770461391135725 0 0 0
1960 2 15.621400363693747 18.038039410193793 1.6770461391135725 0 0 0
1962 16 13.88568921217222 19.0401527107601 0.017840241821175065 0 0 0
2121 18 12.149978060651103 22.046492612459105 0.01784024182117591 0 0 0
2125 1 13.885689212172583 21.044379311892794 1.6770461391135725 0 0 0
2127 14 15.621400363694104 22.046492612459105 0.017840241821176134 0 0 0
1966 4 19.092822666736744 18.038039410193793 1.6770461391135725 0 0 0
1972 2 22.564244969779743 18.038039410193793 1.6770461391135725 0 0 0
1968 20 17.35711151521522 19.0401527107601 0.01784024182117488 0 0 0
1974 16 20.82853381825822 19.0401527107601 0.01784024182117508 0 0 0
2131 3 17.357111515215582 21.044379311892794 1.6770461391135725 0 0 0
2133 18 19.092822666737103 22.046492612459105 0.017840241821175808 0 0 0
2137 1 20.82853381825858 21.044379311892794 1.6770461391135725 0 0 0
2139 14 22.564244969780102 22.046492612459105 0.017840241821175832 0 0 0
1978 4 26.035667272822742 18.038039410193797 1.6770461391135725 0 0 0
1980 20 24.299956121301218 19.0401527107601 0.017840241821175034 0 0 0
1986 16 27.77137842434422 19.0401527107601 0.017840241821176092 0 0 0
2143 3 24.29995612130158 21.044379311892794 1.6770461391135725 0 0 0
2145 18 26.0356672728231 22.046492612459105 0.017840241821176193 0 0 0
2149 1 27.771378424344586 21.044379311892797 1.6770461391135725 0 0 0
1984 2 29.50708957586575 18.038039410193797 1.6770461391135725 0 0 0
1990 4 32.97851187890875 18.038039410193793 1.6770461391135725 0 0 0
1992 20 31.24280072738722 19.0401527107601 0.017840241821175013 0 0 0
2151 14 29.507089575866107 22.046492612459105 0.017840241821175853 0 0 0
2155 3 31.24280072738759 21.044379311892794 1.6770461391135725 0 0 0
2157 18 32.97851187890911 22.046492612459105 0.017840241821176203 0 0 0
1996 2 36.449934181951754 18.038039410193797 1.6770461391135723 0 0 0
2002 4 39.92135648499475 18.038039410193793 1.6770461391135725 0 0 0
1998 16 34.71422303043022 19.0401527107601 0.017840241821175388 0 0 0
2004 20 38.185645333473225 19.0401527107601 0.01784024182117539 0 0 0
2161 1 34.71422303043059 21.044379311892794 1.6770461391135723 0 0 0
2163 14 36.44993418195211 22.046492612459105 0.01784024182117621 0 0 0
2169 18 39.92135648499511 22.046492612459105 0.017840241821175943 0 0 0
2167 3 38.18564533347359 21.044379311892794 1.6770461391135723 0 0 0
2008 2 43.39277878803775 18.038039410193793 1.6770461391135725 0 0 0
2010 16 41.65706763651623 19.0401527107601 0.01784024182117508 0 0 0
2016 20 45.12848993955923 19.0401527107601 0.017840241821175058 0 0 0
2173 1 41.65706763651659 21.044379311892794 1.6770461391135723 0 0 0
2175 14 43.39277878803811 22.046492612459105 0.01784024182117593 0 0 0
2179 3 45.128489939559586 21.044379311892794 1.6770461391135723 0 0 0
2014 4 46.86420109108075 18.038039410193793 1.6770461391135725 0 0 0
1852 2 50.33562339412375 18.038039410193793 1.6770461391135725 -1 0 0
1854 16 48.59991224260223 19.0401527107601 0.017840241821175058 -1 0 0
2181 18 46.86420109108111 22.046492612459105 0.0178402418211761 0 0 0
2017 1 48.599912242602585 21.044379311892794 1.6770461391135723 -1 0 0
2019 14 50.335623394124106 22.046492612459105 0.01784024182117593 -1 0 0
1858 4 53.80704569716675 18.038039410193793 1.6770461391135725 -1 0 0
1860 20 52.07133454564523 19.0401527107601 0.017840241821175065 -1 0 0
1866 16 55.54275684868823 19.0401527107601 0.017840241821175534 -1 0 0
2023 3 52.071334545645584 21.044379311892794 1.6770461391135723 -1 0 0
2025 18 53.807045697167105 22.046492612459105 0.017840241821175575 -1 0 0
2029 1 55.54275684868859 21.044379311892797 1.6770461391135723 -1 0 0
1864 2 57.278468000209756 18.038039410193797 1.6770461391135725 -1 0 0
1870 4 60.749890303252755 18.038039410193793 1.6770461391135725 -1 0 0
1872 20 59.01417915173123 19.0401527107601 0.017840241821174944 -1 0 0
1878 16 62.485601454774226 19.0401527107601 0.01784024182117589 -1 0 0
2031 14 57.27846800021011 22.046492612459105 0.017840241821176106 -1 0 0
2035 3 59.01417915173159 21.044379311892794 1.6770461391135723 -1 0 0
2037 18 60.74989030325311 22.046492612459105 0.017840241821175634 -1 0 0
2041 1 62.485601454774596 21.044379311892794 1.6770461391135725 -1 0 0
1876 2 64.22131260629575 18.038039410193793 1.6770461391135725 -1 0 0
1882 4 67.69273490933875 18.038039410193797 1.6770461391135725 -1 0 0
1884 20 65.95702375781723 19.0401527107601 0.017840241821175013 -1 0 0
2043 14 64.22131260629612 22.046492612459105 0.01784024182117671 -1 0 0
2047 3 65.9570237578176 21.044379311892794 1.6770461391135723 -1 0 0
2049 18 67.69273490933912 22.046492612459105 0.017840241821175776 -1 0 0
1888 2 71.16415721238175 18.038039410193797 1.6770461391135725 -1 0 0
1890 16 69.42844606086024 19.0401527107601 0.01784024182117462 -1 0 0
1896 20 72.89986836390324 19.0401527107601 0.01784024182117481 -1 0 0
2053 1 69.4284460608606 21.044379311892794 1.6770461391135723 -1 0 0
2055 14 71.16415721238212 22.046492612459105 0.01784024182117629 -1 0 0
2059 3 72.8998683639036 21.044379311892794 1.6770461391135725 -1 0 0
1894 4 74.63557951542475 18.038039410193793 1.6770461391135725 -1 0 0
1900 2 78.10700181846775 18.038039410193793 1.6770461391135725 -1 0 0
1902 16 76.37129066694624 19.0401527107601 0.01784024182117509 -1 0 0
1908 20 79.84271296998924 19.0401527107601 0.017840241821175086 -1 0 0
2061 18 74.63557951542512 22.046492612459105 0.017840241821175943 -1 0 0
2067 14 78.10700181846812 22.046492612459105 0.017840241821175936 -1 0 0
2065 1 76.37129066694659 21.044379311892794 1.6770461391135723 -1 0 0
2071 3 79.84271296998959 21.044379311892794 1.6770461391135723 -1 0 0
1906 4 81.57842412151075 18.038039410193793 1.6770461391135725 -1 0 0
1912 2 85.04984642455375 18.038039410193793 1.6770461391135725 -1 0 0
1914 16 83.31413527303224 19.0401527107601 0.017840241821175086 -1 0 0
2073 18 81.57842412151112 22.046492612459105 0.017840241821175936 -1 0 0
2077 1 83.31413527303259 21.044379311892794 1.6770461391135723 -1 0 0
2079 14 85.04984642455412 22.046492612459105 0.017840241821175936 -1 0 0
1918 4 88.52126872759675 18.038039410193793 1.6770461391135725 -1 0 0
1920 20 86.78555757607523 19.0401527107601 0.017840241821175086 -1 0 0
1926 16 90.25697987911823 19.0401527107601 0.017840241821175086 -1 0 0
2083 3 86.78555757607559 21.044379311892794 1.6770461391135723 -1 0 0
2085 18 88.52126872759712 22.046492612459105 0.017840241821175936 -1 0 0
2089 1 90.25697987911859 21.044379311892794 1.6770461391135723 -1 0 0
1924 2 91.99269103063975 18.038039410193793 1.6770461391135725 -1 0 0