LAMMPS data file via write_data, version 29 Aug 2024, timestep = 2, units = metal

5712 atoms
24 atom types

0 97.199824485204 xlo xhi
0 102.215556657766 ylo yhi
-50 50 zlo zhi

Masses

1 180.94788
2 180.94788
3 180.94788
4 180.94788
5 180.94788
6 180.94788
7 180.94788
8 180.94788
9 78.971
10 78.971
11 78.971
12 78.971
13 78.971
14 78.971
15 78.971
16 78.971
17 78.971
18 78.971
19 78.971
20 78.971
21 78.971
22 78.971
23 78.971
24 78.971

Atoms # atomic

1434 12 2.2527077223978296e-13 1.002113300566106 0.01773126515111173 0 0 0
1440 16 3.4714223030432247 1.002113300566106 0.017731265151111626 0 0 0
1597 1 5.775337387134469e-13 3.006339901698792 1.6771409245229902 0 0 0
1603 3 3.471422303043578 3.0063399016987917 1.6771409245229905 0 0 0
1599 10 1.73571115152211 4.008453202265106 0.01773126515111206 0 0 0
1605 14 5.20713345456511 4.008453202265106 0.017731265151111716 0 0 0
1446 12 6.942844606086224 1.002113300566106 0.017731265151111793 0 0 0
1452 16 10.414266909129223 1.002113300566106 0.01773126515111166 0 0 0
1609 1 6.942844606086577 3.006339901698792 1.6771409245229905 0 0 0
1615 3 10.414266909129577 3.006339901698792 1.6771409245229905 0 0 0
1611 10 8.678555757608109 4.008453202265106 0.017731265151111664 0 0 0
1458 12 13.885689212172222 1.0021133005661063 0.0177312651511115 0 0 0
1621 1 13.885689212172576 3.0063399016987917 1.6771409245229905 0 0 0
1617 14 12.149978060651108 4.008453202265106 0.017731265151111647 0 0 0
1623 10 15.621400363694107 4.008453202265106 0.017731265151112233 0 0 0
1464 16 17.357111515215223 1.002113300566106 0.017731265151111605 0 0 0
1470 12 20.828533818258222 1.002113300566106 0.017731265151111727 0 0 0
1627 3 17.357111515215575 3.0063399016987917 1.6771409245229905 0 0 0
1633 1 20.828533818258574 3.006339901698792 1.6771409245229907 0 0 0
1629 14 19.09282266673711 4.008453202265106 0.017731265151111734 0 0 0
1635 10 22.56424496978011 4.008453202265106 0.017731265151111675 0 0 0
1476 16 24.29995612130122 1.002113300566106 0.01773126515111167 0 0 0
1482 12 27.771378424344224 1.0021133005661054 0.017731265151112587 0 0 0
1639 3 24.299956121301573 3.0063399016987917 1.6771409245229907 0 0 0
1645 1 27.77137842434458 3.0063399016987935 1.6771409245229902 0 0 0
1641 14 26.035667272823108 4.008453202265106 0.01773126515111184 0 0 0
1488 16 31.242800727387223 1.002113300566106 0.017731265151111727 0 0 0
1651 3 31.242800727387582 3.006339901698792 1.6771409245229911 0 0 0
1647 10 29.507089575866114 4.008453202265106 0.017731265151111585 0 0 0
1653 14 32.97851187890912 4.008453202265106 0.017731265151111664 0 0 0
1494 12 34.714223030430226 1.002113300566106 0.017731265151111977 0 0 0
1500 16 38.185645333473225 1.0021133005661065 0.017731265151111335 0 0 0
1657 1 34.71422303043058 3.006339901698792 1.6771409245229907 0 0 0
1663 3 38.18564533347358 3.006339901698792 1.6771409245229907 0 0 0
1659 10 36.449934181952116 4.008453202265107 0.01773126515111168 0 0 0
1665 14 39.921356484995115 4.008453202265106 0.017731265151111664 0 0 0
1506 12 41.657067636516224 1.002113300566106 0.01773126515111173 0 0 0
1512 16 45.12848993955922 1.002113300566106 0.01773126515111172 0 0 0
1669 1 41.65706763651658 3.006339901698792 1.6771409245229907 0 0 0
1675 3 45.12848993955958 3.0063399016987917 1.6771409245229907 0 0 0
1671 10 43.392778788038115 4.008453202265106 0.01773126515111165 0 0 0
1350 12 48.59991224260222 1.002113300566106 0.01773126515111163 -1 0 0
1513 1 48.599912242602585 3.0063399016987917 1.6771409245229905 -1 0 0
1677 14 46.864201091081114 4.008453202265106 0.017731265151112712 0 0 0
1515 10 50.33562339412411 4.008453202265106 0.01773126515111164 -1 0 0
1356 16 52.07133454564522 1.002113300566106 0.017731265151111647 -1 0 0
1362 12 55.54275684868823 1.0021133005661056 0.017731265151112667 -1 0 0
1519 3 52.071334545645584 3.006339901698792 1.6771409245229905 -1 0 0
1525 1 55.54275684868858 3.006339901698793 1.6771409245229905 -1 0 0
1521 14 53.80704569716711 4.008453202265106 0.01773126515111147 -1 0 0
1368 16 59.01417915173123 1.002113300566106 0.017731265151111703 -1 0 0
1374 12 62.485601454774226 1.0021133005661063 0.01773126515111125 -1 0 0
1531 3 59.01417915173158 3.0063399016987917 1.6771409245229905 -1 0 0
1537 1 62.48560145477459 3.0063399016987926 1.6771409245229907 -1 0 0
1527 10 57.27846800021012 4.008453202265106 0.017731265151111456 -1 0 0
1533 14 60.74989030325312 4.008453202265106 0.01773126515111205 -1 0 0
1380 16 65.95702375781723 1.0021133005661063 0.017731265151111467 -1 0 0
1543 3 65.9570237578176 3.0063399016987917 1.6771409245229905 -1 0 0
1539 10 64.22131260629612 4.008453202265106 0.017731265151112407 -1 0 0
1545 14 67.69273490933912 4.008453202265106 0.01773126515111165 -1 0 0
1386 12 69.42844606086024 1.0021133005661056 0.017731265151112598 -1 0 0
1392 16 72.89986836390324 1.0021133005661065 0.01773126515111141 -1 0 0
1549 1 69.4284460608606 3.0063399016987926 1.6771409245229907 -1 0 0
1555 3 72.8998683639036 3.006339901698792 1.6771409245229907 -1 0 0
1551 10 71.16415721238212 4.008453202265107 0.017731265151111755 -1 0 0
1398 12 76.37129066694624 1.002113300566106 0.01773126515111173 -1 0 0
1404 16 79.84271296998924 1.002113300566106 0.017731265151111727 -1 0 0
1561 1 76.37129066694659 3.006339901698792 1.6771409245229907 -1 0 0
1567 3 79.84271296998959 3.006339901698792 1.6771409245229907 -1 0 0
1557 14 74.63557951542512 4.008453202265106 0.017731265151111668 -1 0 0
1563 10 78.10700181846812 4.008453202265106 0.017731265151111668 -1 0 0
1410 12 83.31413527303224 1.002113300566106 0.017731265151111727 -1 0 0
1573 1 83.31413527303259 3.006339901698792 1.6771409245229907 -1 0 0
1569 14 81.57842412151112 4.008453202265106 0.017731265151111668 -1 0 0
1575 10 85.04984642455412 4.008453202265106 0.017731265151111668 -1 0 0
1416 16 86.78555757607523 1.002113300566106 0.017731265151111727 -1 0 0
1422 12 90.25697987911823 1.002113300566106 0.017731265151111727 -1 0 0
1579 3 86.78555757607559 3.006339901698792 1.6771409245229907 -1 0 0
1585 1 90.25697987911859 3.006339901698792 1.6771409245229907 -1 0 0
1581 14 88.52126872759712 4.008453202265106 0.017731265151111668 -1 0 0
1428 16 93.72840218216123 1.002113300566106 0.017731265151111727 -1 0 0
1591 3 93.72840218216159 3.006339901698792 1.6771409245229907 -1 0 0
1587 10 91.99269103064012 4.008453202265106 0.017731265151111668 -1 0 0
1593 14 95.46411333368312 4.008453202265106 0.01773126515111175 -1 0 0
1602 12 2.2519916285747292e-13 7.014793103964107 0.01773126515111168 0 0 0
1600 2 1.73571115152174 6.012679803397792 1.6771409245229905 0 0 0
1608 16 3.471422303043225 7.014793103964107 0.017731265151111595 0 0 0
1606 4 5.207133454564739 6.012679803397792 1.6771409245229905 0 0 0
1765 1 5.776905897468503e-13 9.01901970509679 1.67714092452299 0 0 0
1771 3 3.471422303043578 9.01901970509679 1.6771409245229905 0 0 0
1767 10 1.73571115152211 10.021133005663103 0.017731265151111963 0 0 0
1773 14 5.20713345456511 10.021133005663103 0.01773126515111155 0 0 0
1614 12 6.942844606086224 7.014793103964106 0.017731265151111817 0 0 0
1612 2 8.67855575760774 6.012679803397792 1.6771409245229902 0 0 0
1620 16 10.414266909129223 7.014793103964107 0.017731265151111765 0 0 0
1777 1 6.942844606086577 9.01901970509679 1.6771409245229905 0 0 0
1783 3 10.414266909129577 9.01901970509679 1.6771409245229905 0 0 0
1779 10 8.678555757608109 10.021133005663103 0.017731265151111574 0 0 0
1618 4 12.149978060650737 6.012679803397792 1.6771409245229905 0 0 0
1626 12 13.885689212172222 7.014793103964107 0.017731265151111644 0 0 0
1624 2 15.621400363693738 6.012679803397793 1.6771409245229905 0 0 0
1789 1 13.885689212172576 9.01901970509679 1.6771409245229902 0 0 0
1785 14 12.149978060651108 10.021133005663103 0.01773126515111155 0 0 0
1791 10 15.621400363694109 10.021133005663103 0.017731265151111883 0 0 0
1632 16 17.357111515215223 7.014793103964107 0.017731265151111616 0 0 0
1638 12 20.828533818258222 7.014793103964107 0.017731265151111737 0 0 0
1630 4 19.092822666736737 6.012679803397792 1.6771409245229905 0 0 0
1636 2 22.564244969779736 6.012679803397792 1.6771409245229905 0 0 0
1795 3 17.357111515215575 9.01901970509679 1.6771409245229907 0 0 0
1801 1 20.828533818258574 9.01901970509679 1.6771409245229905 0 0 0
1797 14 19.09282266673711 10.021133005663103 0.01773126515111144 0 0 0
1803 10 22.56424496978011 10.021133005663103 0.017731265151111446 0 0 0
1644 16 24.29995612130122 7.014793103964107 0.017731265151111685 0 0 0
1642 4 26.035667272822735 6.012679803397792 1.6771409245229905 0 0 0
1650 12 27.771378424344224 7.014793103964106 0.017731265151112625 0 0 0
1807 3 24.299956121301573 9.01901970509679 1.6771409245229905 0 0 0
1813 1 27.77137842434458 9.019019705096794 1.6771409245229907 0 0 0
1809 14 26.035667272823108 10.021133005663103 0.017731265151111703 0 0 0
1648 2 29.507089575865738 6.012679803397792 1.6771409245229905 0 0 0
1656 16 31.242800727387223 7.014793103964107 0.01773126515111173 0 0 0
1654 4 32.97851187890874 6.012679803397792 1.6771409245229905 0 0 0
1819 3 31.242800727387582 9.01901970509679 1.6771409245229905 0 0 0
1815 10 29.507089575866114 10.021133005663103 0.017731265151111463 0 0 0
1821 14 32.97851187890912 10.021133005663103 0.017731265151111446 0 0 0
1662 12 34.714223030430226 7.014793103964106 0.017731265151112036 0 0 0
1660 2 36.44993418195174 6.012679803397794 1.6771409245229905 0 0 0
1668 16 38.185645333473225 7.014793103964107 0.017731265151111286 0 0 0
1666 4 39.921356484994746 6.012679803397792 1.6771409245229905 0 0 0
1825 1 34.71422303043058 9.01901970509679 1.6771409245229907 0 0 0
1831 3 38.18564533347358 9.01901970509679 1.6771409245229905 0 0 0
1827 10 36.449934181952116 10.021133005663103 0.01773126515111157 0 0 0
1833 14 39.921356484995115 10.021133005663103 0.017731265151111446 0 0 0
1674 12 41.657067636516224 7.014793103964107 0.017731265151111737 0 0 0
1672 2 43.392778788037745 6.012679803397792 1.6771409245229905 0 0 0
1680 16 45.12848993955922 7.014793103964107 0.017731265151111654 0 0 0
1837 1 41.65706763651658 9.01901970509679 1.6771409245229905 0 0 0
1843 3 45.12848993955958 9.01901970509679 1.6771409245229905 0 0 0
1839 10 43.392778788038115 10.021133005663103 0.017731265151111435 0 0 0
1678 4 46.864201091080744 6.012679803397792 1.6771409245229905 0 0 0
1518 12 48.59991224260222 7.014793103964107 0.017731265151111668 -1 0 0
1516 2 50.33562339412374 6.012679803397792 1.6771409245229905 -1 0 0
1681 1 48.599912242602585 9.01901970509679 1.6771409245229905 -1 0 0
1845 14 46.864201091081114 10.021133005663103 0.017731265151112466 0 0 0
1683 10 50.33562339412411 10.021133005663103 0.017731265151111557 -1 0 0
1524 16 52.07133454564522 7.014793103964107 0.01773126515111167 -1 0 0
1522 4 53.80704569716674 6.012679803397792 1.6771409245229905 -1 0 0
1530 12 55.54275684868823 7.014793103964106 0.017731265151112487 -1 0 0
1687 3 52.071334545645584 9.01901970509679 1.6771409245229905 -1 0 0
1693 1 55.54275684868858 9.019019705096792 1.6771409245229905 -1 0 0
1689 14 53.80704569716711 10.021133005663103 0.017731265151111245 -1 0 0
1536 16 59.01417915173123 7.014793103964107 0.017731265151111723 -1 0 0
1528 2 57.27846800020975 6.012679803397792 1.6771409245229905 -1 0 0
1534 4 60.74989030325274 6.012679803397792 1.6771409245229907 -1 0 0
1542 12 62.485601454774226 7.014793103964107 0.017731265151111262 -1 0 0
1699 3 59.01417915173158 9.01901970509679 1.6771409245229905 -1 0 0
1705 1 62.48560145477459 9.019019705096792 1.6771409245229905 -1 0 0
1695 10 57.27846800021012 10.021133005663103 0.01773126515111136 -1 0 0
1701 14 60.74989030325312 10.021133005663103 0.01773126515111199 -1 0 0
1540 2 64.22131260629574 6.012679803397793 1.6771409245229907 -1 0 0
1548 16 65.95702375781723 7.014793103964107 0.017731265151111637 -1 0 0
1546 4 67.69273490933874 6.012679803397792 1.6771409245229907 -1 0 0
1711 3 65.9570237578176 9.01901970509679 1.6771409245229905 -1 0 0
1707 10 64.22131260629612 10.021133005663103 0.017731265151112282 -1 0 0
1713 14 67.69273490933912 10.021133005663103 0.017731265151111515 -1 0 0
1554 12 69.42844606086024 7.014793103964106 0.01773126515111267 -1 0 0
1552 2 71.16415721238175 6.012679803397793 1.6771409245229905 -1 0 0
1560 16 72.89986836390324 7.014793103964107 0.01773126515111136 -1 0 0
1717 1 69.4284460608606 9.019019705096792 1.6771409245229905 -1 0 0
1723 3 72.8998683639036 9.01901970509679 1.6771409245229905 -1 0 0
1719 10 71.16415721238212 10.021133005663104 0.017731265151111564 -1 0 0
1558 4 74.63557951542475 6.012679803397792 1.6771409245229905 -1 0 0
1566 12 76.37129066694624 7.014793103964107 0.017731265151111734 -1 0 0
1564 2 78.10700181846775 6.012679803397792 1.6771409245229905 -1 0 0
1572 16 79.84271296998924 7.014793103964107 0.017731265151111734 -1 0 0
1729 1 76.37129066694659 9.01901970509679 1.6771409245229902 -1 0 0
1735 3 79.84271296998959 9.01901970509679 1.6771409245229902 -1 0 0
1725 14 74.63557951542512 10.021133005663103 0.01773126515111152 -1 0 0
1731 10 78.10700181846812 10.021133005663103 0.017731265151111515 -1 0 0
1570 4 81.57842412151075 6.012679803397792 1.6771409245229905 -1 0 0
1578 12 83.31413527303224 7.014793103964107 0.017731265151111734 -1 0 0
1576 2 85.04984642455375 6.012679803397792 1.6771409245229905 -1 0 0
1741 1 83.31413527303259 9.01901970509679 1.6771409245229902 -1 0 0
1737 14 81.57842412151112 10.021133005663103 0.017731265151111515 -1 0 0
1743 10 85.04984642455412 10.021133005663103 0.017731265151111515 -1 0 0
1584 16 86.78555757607523 7.014793103964107 0.017731265151111734 -1 0 0
1582 4 88.52126872759675 6.012679803397792 1.6771409245229905 -1 0 0
1590 12 90.25697987911823 7.014793103964107 0.017731265151111734 -1 0 0
1747 3 86.78555757607559 9.01901970509679 1.6771409245229902 -1 0 0
1753 1 90.25697987911859 9.01901970509679 1.6771409245229902 -1 0 0
1749 14 88.52126872759712 10.021133005663103 0.017731265151111515 -1 0 0
1588 2 91.99269103063975 6.012679803397792 1.6771409245229905 -1 0 0
1596 16 93.72840218216123 7.014793103964107 0.017731265151111734 -1 0 0
1594 4 95.46411333368275 6.012679803397792 1.6771409245229907 -1 0 0
1759 3 93.72840218216159 9.01901970509679 1.6771409245229902 -1 0 0
1755 10 91.99269103064012 10.021133005663103 0.017731265151111515 -1 0 0
1761 14 95.46411333368312 10.021133005663103 0.01773126515111154 -1 0 0
1770 12 2.2529060527603566e-13 13.027472907362103 0.017731265151111637 0 0 0
1768 2 1.73571115152174 12.025359606795789 1.6771409245229905 0 0 0
1776 16 3.471422303043225 13.027472907362103 0.017731265151111602 0 0 0
1774 4 5.207133454564739 12.025359606795789 1.6771409245229905 0 0 0
1933 1 5.771779695273465e-13 15.031699508494789 1.67714092452299 0 0 0
1939 3 3.4714223030435782 15.031699508494789 1.6771409245229905 0 0 0
1935 10 1.73571115152211 16.033812809061104 0.017731265151112393 0 0 0
1941 14 5.20713345456511 16.033812809061107 0.017731265151112084 0 0 0
1782 12 6.942844606086224 13.027472907362103 0.01773126515111165 0 0 0
1780 2 8.67855575760774 12.025359606795789 1.6771409245229902 0 0 0
1788 16 10.414266909129223 13.027472907362103 0.01773126515111159 0 0 0
1945 1 6.942844606086577 15.03169950849479 1.6771409245229905 0 0 0
1951 3 10.414266909129577 15.03169950849479 1.6771409245229905 0 0 0
1947 10 8.678555757608109 16.033812809061107 0.017731265151112178 0 0 0
1786 4 12.149978060650739 12.025359606795789 1.6771409245229905 0 0 0
1794 12 13.885689212172222 13.027472907362103 0.017731265151111578 0 0 0
1792 2 15.621400363693738 12.025359606795789 1.6771409245229905 0 0 0
1957 1 13.885689212172576 15.031699508494789 1.6771409245229905 0 0 0
1953 14 12.149978060651108 16.033812809061107 0.01773126515111215 0 0 0
1959 10 15.621400363694107 16.033812809061104 0.017731265151112386 0 0 0
1800 16 17.357111515215223 13.027472907362103 0.0177312651511116 0 0 0
1806 12 20.828533818258222 13.027472907362103 0.017731265151111588 0 0 0
1798 4 19.092822666736737 12.025359606795789 1.6771409245229905 0 0 0
1804 2 22.564244969779736 12.025359606795789 1.6771409245229905 0 0 0
1963 3 17.357111515215575 15.031699508494789 1.6771409245229905 0 0 0
1969 1 20.828533818258574 15.03169950849479 1.6771409245229905 0 0 0
1965 14 19.09282266673711 16.033812809061107 0.017731265151112063 0 0 0
1971 10 22.56424496978011 16.033812809061107 0.017731265151112105 0 0 0
1812 16 24.29995612130122 13.027472907362103 0.017731265151111533 0 0 0
1810 4 26.035667272822735 12.025359606795789 1.6771409245229905 0 0 0
1818 12 27.771378424344224 13.027472907362101 0.017731265151112386 0 0 0
1975 3 24.299956121301573 15.031699508494789 1.6771409245229905 0 0 0
1981 1 27.77137842434458 15.03169950849479 1.6771409245229902 0 0 0
1977 14 26.035667272823108 16.033812809061107 0.01773126515111244 0 0 0
1816 2 29.507089575865738 12.025359606795789 1.6771409245229907 0 0 0
1824 16 31.242800727387223 13.027472907362103 0.01773126515111157 0 0 0
1822 4 32.97851187890874 12.025359606795789 1.6771409245229905 0 0 0
1987 3 31.242800727387582 15.03169950849479 1.677140924522991 0 0 0
1983 10 29.507089575866114 16.033812809061107 0.017731265151112206 0 0 0
1989 14 32.97851187890912 16.033812809061107 0.017731265151112122 0 0 0
1830 12 34.714223030430226 13.027472907362103 0.017731265151111956 0 0 0
1828 2 36.44993418195174 12.02535960679579 1.6771409245229907 0 0 0
1836 16 38.185645333473225 13.027472907362103 0.017731265151111317 0 0 0
1834 4 39.921356484994746 12.025359606795789 1.6771409245229905 0 0 0
1993 1 34.71422303043058 15.03169950849479 1.6771409245229907 0 0 0
1999 3 38.18564533347358 15.031699508494789 1.6771409245229907 0 0 0
1995 10 36.449934181952116 16.033812809061107 0.01773126515111201 0 0 0
2001 14 39.921356484995115 16.033812809061107 0.01773126515111212 0 0 0
1842 12 41.657067636516224 13.027472907362103 0.017731265151111588 0 0 0
1840 2 43.392778788037745 12.025359606795789 1.6771409245229905 0 0 0
1848 16 45.12848993955922 13.027472907362103 0.017731265151111616 0 0 0
2005 1 41.65706763651658 15.03169950849479 1.6771409245229905 0 0 0
2011 3 45.12848993955958 15.031699508494789 1.6771409245229905 0 0 0
2007 10 43.392778788038115 16.033812809061107 0.017731265151112088 0 0 0
1846 4 46.864201091080744 12.025359606795789 1.6771409245229905 0 0 0
1686 12 48.59991224260222 13.027472907362103 0.017731265151111612 -1 0 0
1684 2 50.33562339412374 12.025359606795789 1.6771409245229905 -1 0 0
1849 1 48.599912242602585 15.031699508494789 1.6771409245229905 -1 0 0
2013 14 46.864201091081114 16.033812809061104 0.017731265151112983 0 0 0
1851 10 50.33562339412411 16.033812809061107 0.01773126515111217 -1 0 0
1692 16 52.07133454564522 13.027472907362103 0.01773126515111151 -1 0 0
1690 4 53.80704569716674 12.025359606795789 1.6771409245229902 -1 0 0
1698 12 55.54275684868823 13.027472907362103 0.017731265151112348 -1 0 0
1855 3 52.071334545645584 15.03169950849479 1.6771409245229905 -1 0 0
1861 1 55.54275684868858 15.03169950849479 1.6771409245229905 -1 0 0
1857 14 53.80704569716711 16.033812809061107 0.017731265151112004 -1 0 0
1704 16 59.01417915173123 13.027472907362103 0.017731265151111557 -1 0 0
1696 2 57.27846800020975 12.025359606795789 1.6771409245229905 -1 0 0
1702 4 60.74989030325274 12.025359606795789 1.6771409245229907 -1 0 0
1710 12 62.485601454774226 13.027472907362103 0.01773126515111108 -1 0 0
1867 3 59.01417915173158 15.031699508494789 1.6771409245229905 -1 0 0
1873 1 62.48560145477459 15.03169950849479 1.6771409245229905 -1 0 0
1863 10 57.27846800021012 16.033812809061107 0.017731265151112088 -1 0 0
1869 14 60.74989030325312 16.033812809061107 0.017731265151112688 -1 0 0
1708 2 64.22131260629574 12.025359606795789 1.6771409245229905 -1 0 0
1716 16 65.95702375781723 13.027472907362103 0.017731265151111453 -1 0 0
1714 4 67.69273490933874 12.025359606795789 1.6771409245229905 -1 0 0
1879 3 65.9570237578176 15.031699508494789 1.6771409245229905 -1 0 0
1875 10 64.22131260629612 16.033812809061104 0.017731265151113 -1 0 0
1881 14 67.69273490933912 16.033812809061107 0.017731265151112178 -1 0 0
1722 12 69.42844606086024 13.027472907362101 0.017731265151112532 -1 0 0
1720 2 71.16415721238175 12.025359606795789 1.6771409245229907 -1 0 0
1728 16 72.89986836390324 13.027472907362103 0.01773126515111139 -1 0 0
1885 1 69.4284460608606 15.03169950849479 1.6771409245229907 -1 0 0
1891 3 72.8998683639036 15.03169950849479 1.6771409245229907 -1 0 0
1887 10 71.16415721238212 16.033812809061107 0.017731265151112164 -1 0 0
1726 4 74.63557951542475 12.025359606795789 1.6771409245229905 -1 0 0
1734 12 76.37129066694624 13.027472907362103 0.017731265151111588 -1 0 0
1732 2 78.10700181846775 12.025359606795789 1.6771409245229905 -1 0 0
1740 16 79.84271296998924 13.027472907362103 0.017731265151111588 -1 0 0
1897 1 76.37129066694659 15.03169950849479 1.6771409245229905 -1 0 0
1903 3 79.84271296998959 15.03169950849479 1.6771409245229905 -1 0 0
1893 14 74.63557951542512 16.033812809061107 0.017731265151112202 -1 0 0
1899 10 78.10700181846812 16.033812809061107 0.017731265151112195 -1 0 0
1738 4 81.57842412151075 12.025359606795789 1.6771409245229905 -1 0 0
1746 12 83.31413527303224 13.027472907362103 0.017731265151111588 -1 0 0
1744 2 85.04984642455375 12.025359606795789 1.6771409245229905 -1 0 0
1909 1 83.31413527303259 15.03169950849479 1.6771409245229905 -1 0 0
1905 14 81.57842412151112 16.033812809061107 0.017731265151112195 -1 0 0
1911 10 85.04984642455412 16.033812809061107 0.017731265151112195 -1 0 0
1752 16 86.78555757607523 13.027472907362103 0.017731265151111588 -1 0 0
1750 4 88.52126872759675 12.025359606795789 1.6771409245229905 -1 0 0
1758 12 90.25697987911823 13.027472907362103 0.017731265151111588 -1 0 0
1915 3 86.78555757607559 15.03169950849479 1.6771409245229905 -1 0 0
1921 1 90.25697987911859 15.03169950849479 1.6771409245229905 -1 0 0
1917 14 88.52126872759712 16.033812809061107 0.017731265151112195 -1 0 0
1756 2 91.99269103063975 12.025359606795789 1.6771409245229905 -1 0 0
1764 16 93.72840218216123 13.027472907362103 0.017731265151111588 -1 0 0
1762 4 95.46411333368275 12.025359606795789 1.6771409245229905 -1 0 0
1927 3 93.72840218216159 15.03169950849479 1.6771409245229905 -1 0 0
1923 10 91.99269103064012 16.033812809061107 0.017731265151112195 -1 0 0
1929 14 95.46411333368312 16.033812809061107 0.01773126515111219 -1 0 0
1936 2 1.73571115152174 18.038039410193793 1.6771409245229905 0 0 0
1942 4 5.207133454564739 18.038039410193793 1.6771409245229907 0 0 0
1938 12 2.252862378170837e-13 19.040152710760104 0.017731265151111203 0 0 0
1944 16 3.471422303043225 19.040152710760104 0.017731265151111175 0 0 0
2103 10 1.73571115152211 22.046492612459105 0.017731265151112414 0 0 0
2101 1 5.771740873416115e-13 21.04437931189279 1.67714092452299 0 0 0
2107 3 3.4714223030435782 21.04437931189279 1.6771409245229905 0 0 0
2109 14 5.20713345456511 22.046492612459108 0.01773126515111211 0 0 0
1948 2 8.67855575760774 18.038039410193793 1.6771409245229907 0 0 0
1950 12 6.942844606086224 19.040152710760104 0.01773126515111123 0 0 0
1956 16 10.414266909129223 19.040152710760104 0.017731265151111272 0 0 0
2113 1 6.942844606086577 21.044379311892794 1.6771409245229905 0 0 0
2115 10 8.678555757608109 22.046492612459108 0.017731265151112202 0 0 0
2119 3 10.414266909129577 21.04437931189279 1.6771409245229905 0 0 0
1954 4 12.149978060650737 18.038039410193793 1.6771409245229905 0 0 0
1960 2 15.621400363693738 18.038039410193793 1.6771409245229905 0 0 0
1962 12 13.885689212172222 19.040152710760104 0.017731265151111245 0 0 0
2121 14 12.149978060651108 22.046492612459108 0.017731265151112174 0 0 0
2125 1 13.885689212172576 21.04437931189279 1.6771409245229907 0 0 0
2127 10 15.621400363694107 22.046492612459105 0.017731265151112403 0 0 0
1966 4 19.092822666736737 18.038039410193793 1.6771409245229907 0 0 0
1972 2 22.564244969779736 18.038039410193793 1.6771409245229907 0 0 0
1968 16 17.357111515215223 19.040152710760104 0.017731265151111158 0 0 0
1974 12 20.828533818258222 19.040152710760104 0.01773126515111119 0 0 0
2131 3 17.357111515215575 21.04437931189279 1.6771409245229907 0 0 0
2133 14 19.09282266673711 22.046492612459108 0.017731265151112084 0 0 0
2137 1 20.828533818258574 21.04437931189279 1.6771409245229905 0 0 0
2139 10 22.56424496978011 22.046492612459108 0.01773126515111213 0 0 0
1978 4 26.035667272822735 18.038039410193793 1.6771409245229905 0 0 0
1980 16 24.29995612130122 19.040152710760104 0.017731265151111123 0 0 0
1986 12 27.771378424344224 19.040152710760104 0.017731265151112386 0 0 0
2143 3 24.299956121301573 21.04437931189279 1.6771409245229907 0 0 0
2145 14 26.035667272823108 22.046492612459108 0.017731265151112403 0 0 0
2149 1 27.77137842434458 21.044379311892794 1.6771409245229902 0 0 0
1984 2 29.507089575865738 18.038039410193793 1.6771409245229907 0 0 0
1990 4 32.97851187890874 18.038039410193793 1.6771409245229905 0 0 0
1992 16 31.242800727387223 19.040152710760104 0.01773126515111117 0 0 0
2151 10 29.507089575866114 22.046492612459108 0.01773126515111216 0 0 0
2155 3 31.242800727387582 21.044379311892794 1.677140924522991 0 0 0
2157 14 32.97851187890912 22.046492612459108 0.01773126515111214 0 0 0
1996 2 36.44993418195174 18.038039410193793 1.6771409245229905 0 0 0
2002 4 39.921356484994746 18.038039410193793 1.6771409245229907 0 0 0
1998 12 34.714223030430226 19.040152710760104 0.017731265151111765 0 0 0
2004 16 38.185645333473225 19.040152710760104 0.01773126515111113 0 0 0
2161 1 34.71422303043058 21.044379311892794 1.6771409245229905 0 0 0
2163 10 36.449934181952116 22.046492612459108 0.017731265151112032 0 0 0
2169 14 39.921356484995115 22.046492612459108 0.01773126515111214 0 0 0
2167 3 38.18564533347358 21.04437931189279 1.6771409245229905 0 0 0
2008 2 43.392778788037745 18.038039410193793 1.6771409245229907 0 0 0
2010 12 41.657067636516224 19.040152710760104 0.01773126515111119 0 0 0
2016 16 45.12848993955922 19.040152710760104 0.01773126515111119 0 0 0
2173 1 41.65706763651658 21.04437931189279 1.6771409245229905 0 0 0
2175 10 43.392778788038115 22.046492612459108 0.017731265151112112 0 0 0
2179 3 45.12848993955958 21.04437931189279 1.6771409245229905 0 0 0
2014 4 46.864201091080744 18.038039410193793 1.6771409245229905 0 0 0
1852 2 50.33562339412374 18.038039410193793 1.6771409245229907 -1 0 0
1854 12 48.59991224260222 19.040152710760104 0.01773126515111119 -1 0 0
2181 14 46.864201091081114 22.046492612459105 0.017731265151113 0 0 0
2017 1 48.599912242602585 21.04437931189279 1.6771409245229907 -1 0 0
2019 10 50.33562339412411 22.046492612459108 0.017731265151112195 -1 0 0
1858 4 53.80704569716674 18.038039410193793 1.6771409245229905 -1 0 0
1860 16 52.07133454564522 19.040152710760104 0.017731265151111092 -1 0 0
1866 12 55.54275684868823 19.040152710760104 0.017731265151111956 -1 0 0
2023 3 52.071334545645584 21.044379311892794 1.6771409245229905 -1 0 0
2025 14 53.80704569716711 22.046492612459108 0.017731265151112 -1 0 0
2029 1 55.54275684868858 21.04437931189279 1.6771409245229905 -1 0 0
1864 2 57.27846800020975 18.038039410193793 1.6771409245229905 -1 0 0
1870 4 60.74989030325274 18.038039410193793 1.6771409245229905 -1 0 0
1872 16 59.01417915173123 19.040152710760104 0.017731265151111255 -1 0 0
1878 12 62.485601454774226 19.040152710760104 0.017731265151110738 -1 0 0
2031 10 57.27846800021012 22.046492612459108 0.017731265151112084 -1 0 0
2035 3 59.01417915173158 21.04437931189279 1.6771409245229905 -1 0 0
2037 14 60.74989030325312 22.046492612459108 0.017731265151112684 -1 0 0
2041 1 62.48560145477459 21.04437931189279 1.6771409245229905 -1 0 0
1876 2 64.22131260629574 18.038039410193793 1.6771409245229907 -1 0 0
1882 4 67.69273490933874 18.038039410193793 1.6771409245229907 -1 0 0
1884 16 65.95702375781723 19.040152710760104 0.017731265151111023 -1 0 0
2043 10 64.22131260629612 22.046492612459105 0.017731265151112997 -1 0 0
2047 3 65.9570237578176 21.04437931189279 1.6771409245229905 -1 0 0
2049 14 67.69273490933912 22.046492612459108 0.0177312651511122 -1 0 0
1888 2 71.16415721238175 18.038039410193793 1.6771409245229905 -1 0 0
1890 12 69.42844606086024 19.040152710760104 0.017731265151112435 -1 0 0
1896 16 72.89986836390324 19.040152710760104 0.017731265151111203 -1 0 0
2053 1 69.4284460608606 21.044379311892794 1.6771409245229905 -1 0 0
2055 10 71.16415721238212 22.046492612459108 0.01773126515111218 -1 0 0
2059 3 72.8998683639036 21.04437931189279 1.6771409245229905 -1 0 0
1894 4 74.63557951542475 18.038039410193793 1.6771409245229907 -1 0 0
1900 2 78.10700181846775 18.038039410193793 1.6771409245229907 -1 0 0
1902 12 76.37129066694624 19.040152710760104 0.01773126515111119 -1 0 0
1908 16 79.84271296998924 19.040152710760104 0.01773126515111119 -1 0 0
2061 14 74.63557951542512 22.046492612459108 0.01773126515111222 -1 0 0
2067 10 78.10700181846812 22.046492612459108 0.01773126515111222 -1 0 0
2065 1 76.37129066694659 21.044379311892794 1.6771409245229905 -1 0 0
2071 3 79.84271296998959 21.044379311892794 1.6771409245229905 -1 0 0
1906 4 81.57842412151075 18.038039410193793 1.6771409245229907 -1 0 0
1912 2 85.04984642455375 18.038039410193793 1.6771409245229907 -1 0 0
1914 12 83.31413527303224 19.040152710760104 0.017731265151111186 -1 0 0
2073 14 81.57842412151112 22.046492612459108 0.01773126515111222 -1 0 0
2077 1 83.31413527303259 21.044379311892794 1.6771409245229905 -1 0 0
2079 10 85.04984642455412 22.046492612459108 0.01773126515111222 -1 0 0
1918 4 88.52126872759675 18.038039410193793 1.6771409245229907 -1 0 0
1920 16 86.78555757607523 19.040152710760104 0.017731265151111186 -1 0 0
1926 12 90.25697987911823 19.040152710760104 0.01773126515111119 -1 0 0
2083 3 86.78555757607559 21.044379311892794 1.6771409245229905 -1 0 0
2085 14 88.52126872759712 22.046492612459108 0.01773126515111222 -1 0 0
2089 1 90.25697987911859 21.044379311892794 1.6771409245229905 -1 0 0
1924 2 91.99269103063975 18.038039410193793 1.6771409245229907 -1 0 0
1930 4 95.46411333368275 18.038039410193793 1.6771409245229907 -1 0 0
1932 16 93.72840218216123 19.040152710760104 0.017731265151111186 -1 0 0