LAMMPS data file via write_data, version 2 Aug 2023, timestep = 1, units = metal

17280 atoms
24 atom types

0 101.890126869904 xlo xhi
0 99.26936804718 ylo yhi
-50 50 zlo zhi

Masses

1 95.95
2 95.95
3 95.95
4 95.95
5 95.95
6 95.95
7 95.95
8 95.95
9 32.06
10 32.06
11 32.06
12 32.06
13 32.06
14 32.06
15 32.06
16 32.06
17 32.06
18 32.06
19 32.06
20 32.06
21 32.06
22 32.06
23 32.06
24 32.06

Atoms # atomic

1739 12 1.5920332323420041 0.919160815251999 0 0 0 0
1742 1 0 0 1.563556323176 0 0 0
1748 2 3.184066464684001 0 1.563556323176 0 0 0
1735 4 1.5920332323420041 2.7574824457550022 1.563556323176 0 0 0
1734 16 0 3.6766432610070012 0 0 0 0
1752 14 3.184066464684001 3.6766432610070012 0 0 0 0
1731 11 1.5920332323420041 0.919160815251999 3.127112646352 0 0 0
1750 15 0 3.6766432610070012 3.127112646352 0 0 0
1740 13 3.184066464684001 3.6766432610070012 3.127112646352 0 0 0
5195 12 1.5920332323420041 0.919160815251999 0 0 0 0
5198 1 0 0 1.563556323176 0 0 0
5204 2 3.184066464684001 0 1.563556323176 0 0 0
5191 4 1.5920332323420041 2.7574824457550022 1.563556323176 0 0 0
5190 16 0 3.6766432610070012 0 0 0 0
5208 14 3.184066464684001 3.6766432610070012 0 0 0 0
5187 11 1.5920332323420041 0.919160815251999 3.127112646352 0 0 0
5206 15 0 3.6766432610070012 3.127112646352 0 0 0
5196 13 3.184066464684001 3.6766432610070012 3.127112646352 0 0 0
1746 10 4.776099697026005 0.919160815251999 0 0 0 0
1766 1 6.368132929369004 0 1.563556323176 0 0 0
1763 12 7.960166161711001 0.919160815251999 0 0 0 0
1736 3 4.776099697026005 2.7574824457550022 1.563556323176 0 0 0
1759 4 7.960166161711001 2.7574824457550022 1.563556323176 0 0 0
1758 16 6.368132929369004 3.6766432610070012 0 0 0 0
1744 9 4.776099697026005 0.919160815251999 3.127112646352 0 0 0
1755 11 7.960166161711001 0.919160815251999 3.127112646352 0 0 0
1774 15 6.368132929369004 3.6766432610070012 3.127112646352 0 0 0
5202 10 4.776099697026005 0.919160815251999 0 0 0 0
5222 1 6.368132929369004 0 1.563556323176 0 0 0
5219 12 7.960166161711001 0.919160815251999 0 0 0 0
5192 3 4.776099697026005 2.7574824457550022 1.563556323176 0 0 0
5215 4 7.960166161711001 2.7574824457550022 1.563556323176 0 0 0
5214 16 6.368132929369004 3.6766432610070012 0 0 0 0
5200 9 4.776099697026005 0.919160815251999 3.127112646352 0 0 0
5211 11 7.960166161711001 0.919160815251999 3.127112646352 0 0 0
5230 15 6.368132929369004 3.6766432610070012 3.127112646352 0 0 0
1772 2 9.552199394053005 0 1.563556323176 0 0 0
1770 10 11.144232626395002 0.919160815251999 0 0 0 0
1760 3 11.144232626395002 2.7574824457550022 1.563556323176 0 0 0
1776 14 9.552199394053005 3.6766432610070012 0 0 0 0
1768 9 11.144232626395002 0.919160815251999 3.127112646352 0 0 0
1764 13 9.552199394053005 3.6766432610070012 3.127112646352 0 0 0
5228 2 9.552199394053005 0 1.563556323176 0 0 0
5226 10 11.144232626395002 0.919160815251999 0 0 0 0
5216 3 11.144232626395002 2.7574824457550022 1.563556323176 0 0 0
5232 14 9.552199394053005 3.6766432610070012 0 0 0 0
5224 9 11.144232626395002 0.919160815251999 3.127112646352 0 0 0
5220 13 9.552199394053005 3.6766432610070012 3.127112646352 0 0 0
1790 1 12.736265858738001 0 1.563556323176 0 0 0
1787 12 14.328299091080005 0.919160815251999 0 0 0 0
1796 2 15.92033232342201 0 1.563556323176 0 0 0
1783 4 14.328299091080005 2.7574824457550022 1.563556323176 0 0 0
1782 16 12.736265858738001 3.6766432610070012 0 0 0 0
1800 14 15.92033232342201 3.6766432610070012 0 0 0 0
1779 11 14.328299091080005 0.919160815251999 3.127112646352 0 0 0
1798 15 12.736265858738001 3.6766432610070012 3.127112646352 0 0 0
1788 13 15.92033232342201 3.6766432610070012 3.127112646352 0 0 0
5246 1 12.736265858738001 0 1.563556323176 0 0 0
5243 12 14.328299091080005 0.919160815251999 0 0 0 0
5252 2 15.92033232342201 0 1.563556323176 0 0 0
5239 4 14.328299091080005 2.7574824457550022 1.563556323176 0 0 0
5238 16 12.736265858738001 3.6766432610070012 0 0 0 0
5256 14 15.92033232342201 3.6766432610070012 0 0 0 0
5235 11 14.328299091080005 0.919160815251999 3.127112646352 0 0 0
5254 15 12.736265858738001 3.6766432610070012 3.127112646352 0 0 0
5244 13 15.92033232342201 3.6766432610070012 3.127112646352 0 0 0
1794 10 17.512365555764 0.919160815251999 0 0 0 0
1814 1 19.104398788106998 0 1.563556323176 0 0 0
1811 12 20.696432020449002 0.919160815251999 0 0 0 0
1784 3 17.512365555764 2.7574824457550022 1.563556323176 0 0 0
1807 4 20.696432020449002 2.7574824457550022 1.563556323176 0 0 0
1806 16 19.104398788106998 3.6766432610070012 0 0 0 0
1792 9 17.512365555764 0.919160815251999 3.127112646352 0 0 0
1803 11 20.696432020449002 0.919160815251999 3.127112646352 0 0 0
1822 15 19.104398788106998 3.6766432610070012 3.127112646352 0 0 0
5250 10 17.512365555764 0.919160815251999 0 0 0 0
5270 1 19.104398788106998 0 1.563556323176 0 0 0
5267 12 20.696432020449002 0.919160815251999 0 0 0 0
5240 3 17.512365555764 2.7574824457550022 1.563556323176 0 0 0
5263 4 20.696432020449002 2.7574824457550022 1.563556323176 0 0 0
5262 16 19.104398788106998 3.6766432610070012 0 0 0 0
5248 9 17.512365555764 0.919160815251999 3.127112646352 0 0 0
5259 11 20.696432020449002 0.919160815251999 3.127112646352 0 0 0
5278 15 19.104398788106998 3.6766432610070012 3.127112646352 0 0 0
1820 2 22.288465252791006 0 1.563556323176 0 0 0
1818 10 23.880498485132996 0.919160815251999 0 0 0 0
1808 3 23.880498485132996 2.7574824457550022 1.563556323176 0 0 0
1824 14 22.288465252791006 3.6766432610070012 0 0 0 0
1816 9 23.880498485132996 0.919160815251999 3.127112646352 0 0 0
1812 13 22.288465252791006 3.6766432610070012 3.127112646352 0 0 0
5276 2 22.288465252791006 0 1.563556323176 0 0 0
5274 10 23.880498485132996 0.919160815251999 0 0 0 0
5264 3 23.880498485132996 2.7574824457550022 1.563556323176 0 0 0
5280 14 22.288465252791006 3.6766432610070012 0 0 0 0
5272 9 23.880498485132996 0.919160815251999 3.127112646352 0 0 0
5268 13 22.288465252791006 3.6766432610070012 3.127112646352 0 0 0
1838 1 25.47253171747601 0 1.563556323176 0 0 0
1835 12 27.064564949818 0.919160815251999 0 0 0 0
1844 2 28.656598182160003 0 1.563556323176 0 0 0
1831 4 27.064564949818 2.7574824457550022 1.563556323176 0 0 0
1830 16 25.47253171747601 3.6766432610070012 0 0 0 0
1848 14 28.656598182160003 3.6766432610070012 0 0 0 0
1827 11 27.064564949818 0.919160815251999 3.127112646352 0 0 0
1846 15 25.47253171747601 3.6766432610070012 3.127112646352 0 0 0
1836 13 28.656598182160003 3.6766432610070012 3.127112646352 0 0 0
5294 1 25.47253171747601 0 1.563556323176 0 0 0
5291 12 27.064564949818 0.919160815251999 0 0 0 0
5300 2 28.656598182160003 0 1.563556323176 0 0 0
5287 4 27.064564949818 2.7574824457550022 1.563556323176 0 0 0
5286 16 25.47253171747601 3.6766432610070012 0 0 0 0
5304 14 28.656598182160003 3.6766432610070012 0 0 0 0
5283 11 27.064564949818 0.919160815251999 3.127112646352 0 0 0
5302 15 25.47253171747601 3.6766432610070012 3.127112646352 0 0 0
5292 13 28.656598182160003 3.6766432610070012 3.127112646352 0 0 0
1842 10 30.248631414502007 0.919160815251999 0 0 0 0
1862 1 31.840664646845006 0 1.563556323176 0 0 0
1859 12 33.432697879186996 0.919160815251999 0 0 0 0
1832 3 30.248631414502007 2.7574824457550022 1.563556323176 0 0 0
1855 4 33.432697879186996 2.7574824457550022 1.563556323176 0 0 0
1854 16 31.840664646845006 3.6766432610070012 0 0 0 0
1840 9 30.248631414502007 0.919160815251999 3.127112646352 0 0 0
1851 11 33.432697879186996 0.919160815251999 3.127112646352 0 0 0
1870 15 31.840664646845006 3.6766432610070012 3.127112646352 0 0 0
5298 10 30.248631414502007 0.919160815251999 0 0 0 0
5318 1 31.840664646845006 0 1.563556323176 0 0 0
5315 12 33.432697879186996 0.919160815251999 0 0 0 0
5288 3 30.248631414502007 2.7574824457550022 1.563556323176 0 0 0
5311 4 33.432697879186996 2.7574824457550022 1.563556323176 0 0 0
5310 16 31.840664646845006 3.6766432610070012 0 0 0 0
5296 9 30.248631414502007 0.919160815251999 3.127112646352 0 0 0
5307 11 33.432697879186996 0.919160815251999 3.127112646352 0 0 0
5326 15 31.840664646845006 3.6766432610070012 3.127112646352 0 0 0
1868 2 35.024731111529 0 1.563556323176 0 0 0
1866 10 36.616764343871004 0.919160815251999 0 0 0 0
1856 3 36.616764343871004 2.7574824457550022 1.563556323176 0 0 0
1872 14 35.024731111529 3.6766432610070012 0 0 0 0
1864 9 36.616764343871004 0.919160815251999 3.127112646352 0 0 0
1860 13 35.024731111529 3.6766432610070012 3.127112646352 0 0 0
5324 2 35.024731111529 0 1.563556323176 0 0 0
5322 10 36.616764343871004 0.919160815251999 0 0 0 0
5312 3 36.616764343871004 2.7574824457550022 1.563556323176 0 0 0
5328 14 35.024731111529 3.6766432610070012 0 0 0 0
5320 9 36.616764343871004 0.919160815251999 3.127112646352 0 0 0
5316 13 35.024731111529 3.6766432610070012 3.127112646352 0 0 0
1886 1 38.208797576214 0 1.563556323176 0 0 0
1883 12 39.80083080855601 0.919160815251999 0 0 0 0
1892 2 41.392864040898 0 1.563556323176 0 0 0
1879 4 39.80083080855601 2.7574824457550022 1.563556323176 0 0 0
1878 16 38.208797576214 3.6766432610070012 0 0 0 0
1896 14 41.392864040898 3.6766432610070012 0 0 0 0
1875 11 39.80083080855601 0.919160815251999 3.127112646352 0 0 0
1894 15 38.208797576214 3.6766432610070012 3.127112646352 0 0 0
1884 13 41.392864040898 3.6766432610070012 3.127112646352 0 0 0
5342 1 38.208797576214 0 1.563556323176 0 0 0
5339 12 39.80083080855601 0.919160815251999 0 0 0 0
5348 2 41.392864040898 0 1.563556323176 0 0 0
5335 4 39.80083080855601 2.7574824457550022 1.563556323176 0 0 0
5334 16 38.208797576214 3.6766432610070012 0 0 0 0
5352 14 41.392864040898 3.6766432610070012 0 0 0 0
5331 11 39.80083080855601 0.919160815251999 3.127112646352 0 0 0
5350 15 38.208797576214 3.6766432610070012 3.127112646352 0 0 0
5340 13 41.392864040898 3.6766432610070012 3.127112646352 0 0 0
1890 10 42.98489727324 0.919160815251999 0 0 0 0
1910 1 44.576930505583 0 1.563556323176 0 0 0
1907 12 46.168963737925004 0.919160815251999 0 0 0 0
1880 3 42.98489727324 2.7574824457550022 1.563556323176 0 0 0
1903 4 46.168963737925004 2.7574824457550022 1.563556323176 0 0 0
1902 16 44.576930505583 3.6766432610070012 0 0 0 0
1888 9 42.98489727324 0.919160815251999 3.127112646352 0 0 0
1899 11 46.168963737925004 0.919160815251999 3.127112646352 0 0 0
1918 15 44.576930505583 3.6766432610070012 3.127112646352 0 0 0
5346 10 42.98489727324 0.919160815251999 0 0 0 0
5366 1 44.576930505583 0 1.563556323176 0 0 0
5363 12 46.168963737925004 0.919160815251999 0 0 0 0
5336 3 42.98489727324 2.7574824457550022 1.563556323176 0 0 0
5359 4 46.168963737925004 2.7574824457550022 1.563556323176 0 0 0
5358 16 44.576930505583 3.6766432610070012 0 0 0 0
5344 9 42.98489727324 0.919160815251999 3.127112646352 0 0 0
5355 11 46.168963737925004 0.919160815251999 3.127112646352 0 0 0
5374 15 44.576930505583 3.6766432610070012 3.127112646352 0 0 0
1916 2 47.76099697026701 0 1.563556323176 0 0 0
1914 10 49.353030202609 0.919160815251999 0 0 0 0
1904 3 49.353030202609 2.7574824457550022 1.563556323176 0 0 0
1920 14 47.76099697026701 3.6766432610070012 0 0 0 0
1912 9 49.353030202609 0.919160815251999 3.127112646352 0 0 0
1908 13 47.76099697026701 3.6766432610070012 3.127112646352 0 0 0
5372 2 47.76099697026701 0 1.563556323176 0 0 0
5370 10 49.353030202609 0.919160815251999 0 0 0 0
5360 3 49.353030202609 2.7574824457550022 1.563556323176 0 0 0
5376 14 47.76099697026701 3.6766432610070012 0 0 0 0
5368 9 49.353030202609 0.919160815251999 3.127112646352 0 0 0
5364 13 47.76099697026701 3.6766432610070012 3.127112646352 0 0 0
1547 12 52.537096667293994 0.919160815251999 0 -1 0 0
1550 1 50.945063434952 0 1.563556323176 -1 0 0
1556 2 54.129129899636 0 1.563556323176 -1 0 0
1543 4 52.537096667293994 2.7574824457550022 1.563556323176 -1 0 0
1542 16 50.945063434952 3.6766432610070012 0 -1 0 0
1560 14 54.129129899636 3.6766432610070012 0 -1 0 0
1539 11 52.537096667293994 0.919160815251999 3.127112646352 -1 0 0
1558 15 50.945063434952 3.6766432610070012 3.127112646352 -1 0 0
1548 13 54.129129899636 3.6766432610070012 3.127112646352 -1 0 0
5003 12 52.537096667293994 0.919160815251999 0 -1 0 0
5006 1 50.945063434952 0 1.563556323176 -1 0 0
5012 2 54.129129899636 0 1.563556323176 -1 0 0
4999 4 52.537096667293994 2.7574824457550022 1.563556323176 -1 0 0
4998 16 50.945063434952 3.6766432610070012 0 -1 0 0
5016 14 54.129129899636 3.6766432610070012 0 -1 0 0
4995 11 52.537096667293994 0.919160815251999 3.127112646352 -1 0 0
5014 15 50.945063434952 3.6766432610070012 3.127112646352 -1 0 0
5004 13 54.129129899636 3.6766432610070012 3.127112646352 -1 0 0
1554 10 55.721163131977995 0.919160815251999 0 -1 0 0
1574 1 57.313196364320994 0 1.563556323176 -1 0 0
1571 12 58.905229596663 0.919160815251999 0 -1 0 0
1544 3 55.721163131977995 2.7574824457550022 1.563556323176 -1 0 0
1567 4 58.905229596663 2.7574824457550022 1.563556323176 -1 0 0
1566 16 57.313196364320994 3.6766432610070012 0 -1 0 0
1552 9 55.721163131977995 0.919160815251999 3.127112646352 -1 0 0
1563 11 58.905229596663 0.919160815251999 3.127112646352 -1 0 0
1582 15 57.313196364320994 3.6766432610070012 3.127112646352 -1 0 0
5010 10 55.721163131977995 0.919160815251999 0 -1 0 0
5030 1 57.313196364320994 0 1.563556323176 -1 0 0
5027 12 58.905229596663 0.919160815251999 0 -1 0 0
5000 3 55.721163131977995 2.7574824457550022 1.563556323176 -1 0 0
5023 4 58.905229596663 2.7574824457550022 1.563556323176 -1 0 0
5022 16 57.313196364320994 3.6766432610070012 0 -1 0 0
5008 9 55.721163131977995 0.919160815251999 3.127112646352 -1 0 0
5019 11 58.905229596663 0.919160815251999 3.127112646352 -1 0 0
5038 15 57.313196364320994 3.6766432610070012 3.127112646352 -1 0 0
1580 2 60.497262829004995 0 1.563556323176 -1 0 0
1578 10 62.089296061347 0.919160815251999 0 -1 0 0
1568 3 62.089296061347 2.7574824457550022 1.563556323176 -1 0 0
1584 14 60.497262829004995 3.6766432610070012 0 -1 0 0
1576 9 62.089296061347 0.919160815251999 3.127112646352 -1 0 0
1572 13 60.497262829004995 3.6766432610070012 3.127112646352 -1 0 0
5036 2 60.497262829004995 0 1.563556323176 -1 0 0
5034 10 62.089296061347 0.919160815251999 0 -1 0 0
5024 3 62.089296061347 2.7574824457550022 1.563556323176 -1 0 0
5040 14 60.497262829004995 3.6766432610070012 0 -1 0 0
5032 9 62.089296061347 0.919160815251999 3.127112646352 -1 0 0
5028 13 60.497262829004995 3.6766432610070012 3.127112646352 -1 0 0
1598 1 63.68132929369 0 1.563556323176 -1 0 0
1595 12 65.273362526032 0.919160815251999 0 -1 0 0
1604 2 66.865395758374 0 1.563556323176 -1 0 0
1591 4 65.273362526032 2.7574824457550022 1.563556323176 -1 0 0
1590 16 63.68132929369 3.6766432610070012 0 -1 0 0
1608 14 66.865395758374 3.6766432610070012 0 -1 0 0
1587 11 65.273362526032 0.919160815251999 3.127112646352 -1 0 0
1606 15 63.68132929369 3.6766432610070012 3.127112646352 -1 0 0
1596 13 66.865395758374 3.6766432610070012 3.127112646352 -1 0 0
5054 1 63.68132929369 0 1.563556323176 -1 0 0
5051 12 65.273362526032 0.919160815251999 0 -1 0 0
5060 2 66.865395758374 0 1.563556323176 -1 0 0
5047 4 65.273362526032 2.7574824457550022 1.563556323176 -1 0 0
5046 16 63.68132929369 3.6766432610070012 0 -1 0 0
5064 14 66.865395758374 3.6766432610070012 0 -1 0 0
5043 11 65.273362526032 0.919160815251999 3.127112646352 -1 0 0
5062 15 63.68132929369 3.6766432610070012 3.127112646352 -1 0 0
5052 13 66.865395758374 3.6766432610070012 3.127112646352 -1 0 0
1602 10 68.457428990716 0.919160815251999 0 -1 0 0
1622 1 70.049462223059 0 1.563556323176 -1 0 0
1619 12 71.641495455401 0.919160815251999 0 -1 0 0
1592 3 68.457428990716 2.7574824457550022 1.563556323176 -1 0 0
1615 4 71.641495455401 2.7574824457550022 1.563556323176 -1 0 0
1614 16 70.049462223059 3.6766432610070012 0 -1 0 0
1600 9 68.457428990716 0.919160815251999 3.127112646352 -1 0 0
1611 11 71.641495455401 0.919160815251999 3.127112646352 -1 0 0
1630 15 70.049462223059 3.6766432610070012 3.127112646352 -1 0 0
5058 10 68.457428990716 0.919160815251999 0 -1 0 0
5078 1 70.049462223059 0 1.563556323176 -1 0 0
5075 12 71.641495455401 0.919160815251999 0 -1 0 0
5048 3 68.457428990716 2.7574824457550022 1.563556323176 -1 0 0
5071 4 71.641495455401 2.7574824457550022 1.563556323176 -1 0 0
5070 16 70.049462223059 3.6766432610070012 0 -1 0 0
5056 9 68.457428990716 0.919160815251999 3.127112646352 -1 0 0
5067 11 71.641495455401 0.919160815251999 3.127112646352 -1 0 0
5086 15 70.049462223059 3.6766432610070012 3.127112646352 -1 0 0
1628 2 73.23352868774299 0 1.563556323176 -1 0 0
1626 10 74.825561920085 0.919160815251999 0 -1 0 0
1616 3 74.825561920085 2.7574824457550022 1.563556323176 -1 0 0
1632 14 73.23352868774299 3.6766432610070012 0 -1 0 0
1624 9 74.825561920085 0.919160815251999 3.127112646352 -1 0 0
1620 13 73.23352868774299 3.6766432610070012 3.127112646352 -1 0 0
5084 2 73.23352868774299 0 1.563556323176 -1 0 0
5082 10 74.825561920085 0.919160815251999 0 -1 0 0
5072 3 74.825561920085 2.7574824457550022 1.563556323176 -1 0 0
5088 14 73.23352868774299 3.6766432610070012 0 -1 0 0
5080 9 74.825561920085 0.919160815251999 3.127112646352 -1 0 0
5076 13 73.23352868774299 3.6766432610070012 3.127112646352 -1 0 0
1646 1 76.41759515242799 0 1.563556323176 -1 0 0
1643 12 78.00962838477 0.919160815251999 0 -1 0 0
1652 2 79.601661617112 0 1.563556323176 -1 0 0
1639 4 78.00962838477 2.7574824457550022 1.563556323176 -1 0 0
1638 16 76.41759515242799 3.6766432610070012 0 -1 0 0
1656 14 79.601661617112 3.6766432610070012 0 -1 0 0
1635 11 78.00962838477 0.919160815251999 3.127112646352 -1 0 0
1654 15 76.41759515242799 3.6766432610070012 3.127112646352 -1 0 0
1644 13 79.601661617112 3.6766432610070012 3.127112646352 -1 0 0
5102 1 76.41759515242799 0 1.563556323176 -1 0 0
5099 12 78.00962838477 0.919160815251999 0 -1 0 0
5108 2 79.601661617112 0 1.563556323176 -1 0 0
5095 4 78.00962838477 2.7574824457550022 1.563556323176 -1 0 0
5094 16 76.41759515242799 3.6766432610070012 0 -1 0 0
5112 14 79.601661617112 3.6766432610070012 0 -1 0 0
5091 11 78.00962838477 0.919160815251999 3.127112646352 -1 0 0
5110 15 76.41759515242799 3.6766432610070012 3.127112646352 -1 0 0
5100 13 79.601661617112 3.6766432610070012 3.127112646352 -1 0 0
1650 10 81.193694849454 0.919160815251999 0 -1 0 0
1670 1 82.785728081797 0 1.563556323176 -1 0 0
1667 12 84.37776131413901 0.919160815251999 0 -1 0 0
1640 3 81.193694849454 2.7574824457550022 1.563556323176 -1 0 0
1663 4 84.37776131413901 2.7574824457550022 1.563556323176 -1 0 0
1662 16 82.785728081797 3.6766432610070012 0 -1 0 0
1648 9 81.193694849454 0.919160815251999 3.127112646352 -1 0 0
1659 11 84.37776131413901 0.919160815251999 3.127112646352 -1 0 0
1678 15 82.785728081797 3.6766432610070012 3.127112646352 -1 0 0
5106 10 81.193694849454 0.919160815251999 0 -1 0 0
5126 1 82.785728081797 0 1.563556323176 -1 0 0
5123 12 84.37776131413901 0.919160815251999 0 -1 0 0
5096 3 81.193694849454 2.7574824457550022 1.563556323176 -1 0 0
5119 4 84.37776131413901 2.7574824457550022 1.563556323176 -1 0 0
5118 16 82.785728081797 3.6766432610070012 0 -1 0 0
5104 9 81.193694849454 0.919160815251999 3.127112646352 -1 0 0
5115 11 84.37776131413901 0.919160815251999 3.127112646352 -1 0 0
5134 15 82.785728081797 3.6766432610070012 3.127112646352 -1 0 0
1676 2 85.969794546481 0 1.563556323176 -1 0 0
1674 10 87.56182777882299 0.919160815251999 0 -1 0 0
1664 3 87.56182777882299 2.7574824457550022 1.563556323176 -1 0 0
1680 14 85.969794546481 3.6766432610070012 0 -1 0 0
1672 9 87.56182777882299 0.919160815251999 3.127112646352 -1 0 0
1668 13 85.969794546481 3.6766432610070012 3.127112646352 -1 0 0
5132 2 85.969794546481 0 1.563556323176 -1 0 0
5130 10 87.56182777882299 0.919160815251999 0 -1 0 0
5120 3 87.56182777882299 2.7574824457550022 1.563556323176 -1 0 0
5136 14 85.969794546481 3.6766432610070012 0 -1 0 0
5128 9 87.56182777882299 0.919160815251999 3.127112646352 -1 0 0
5124 13 85.969794546481 3.6766432610070012 3.127112646352 -1 0 0
1694 1 89.153861011166 0 1.563556323176 -1 0 0
1691 12 90.74589424350799 0.919160815251999 0 -1 0 0
1700 2 92.33792747585 0 1.563556323176 -1 0 0
1687 4 90.74589424350799 2.7574824457550022 1.563556323176 -1 0 0
1686 16 89.153861011166 3.6766432610070012 0 -1 0 0
1704 14 92.33792747585 3.6766432610070012 0 -1 0 0
1683 11 90.74589424350799 0.919160815251999 3.127112646352 -1 0 0
1702 15 89.153861011166 3.6766432610070012 3.127112646352 -1 0 0
1692 13 92.33792747585 3.6766432610070012 3.127112646352 -1 0 0
5150 1 89.153861011166 0 1.563556323176 -1 0 0
5147 12 90.74589424350799 0.919160815251999 0 -1 0 0
5156 2 92.33792747585 0 1.563556323176 -1 0 0
5143 4 90.74589424350799 2.7574824457550022 1.563556323176 -1 0 0
5142 16 89.153861011166 3.6766432610070012 0 -1 0 0
5160 14 92.33792747585 3.6766432610070012 0 -1 0 0
5139 11 90.74589424350799 0.919160815251999 3.127112646352 -1 0 0
5158 15 89.153861011166 3.6766432610070012 3.127112646352 -1 0 0
5148 13 92.33792747585 3.6766432610070012 3.127112646352 -1 0 0
1698 10 93.929960708192 0.919160815251999 0 -1 0 0
1718 1 95.521993940535 0 1.563556323176 -1 0 0
1715 12 97.114027172877 0.919160815251999 0 -1 0 0
1688 3 93.929960708192 2.7574824457550022 1.563556323176 -1 0 0
1711 4 97.114027172877 2.7574824457550022 1.563556323176 -1 0 0
1710 16 95.521993940535 3.6766432610070012 0 -1 0 0
1696 9 93.929960708192 0.919160815251999 3.127112646352 -1 0 0
1707 11 97.114027172877 0.919160815251999 3.127112646352 -1 0 0
1726 15 95.521993940535 3.6766432610070012 3.127112646352 -1 0 0
5154 10 93.929960708192 0.919160815251999 0 -1 0 0
5174 1 95.521993940535 0 1.563556323176 -1 0 0
5171 12 97.114027172877 0.919160815251999 0 -1 0 0
5144 3 93.929960708192 2.7574824457550022 1.563556323176 -1 0 0
5167 4 97.114027172877 2.7574824457550022 1.563556323176 -1 0 0
5166 16 95.521993940535 3.6766432610070012 0 -1 0 0
5152 9 93.929960708192 0.919160815251999 3.127112646352 -1 0 0
5163 11 97.114027172877 0.919160815251999 3.127112646352 -1 0 0
5182 15 95.521993940535 3.6766432610070012 3.127112646352 -1 0 0
1724 2 98.706060405219 0 1.563556323176 -1 0 0
1722 10 100.298093637561 0.919160815251999 0 -1 0 0
1712 3 100.298093637561 2.7574824457550022 1.563556323176 -1 0 0
1728 14 98.706060405219 3.6766432610070012 0 -1 0 0
1720 9 100.298093637561 0.919160815251999 3.127112646352 -1 0 0
1716 13 98.706060405219 3.6766432610070012 3.127112646352 -1 0 0
5180 2 98.706060405219 0 1.563556323176 -1 0 0
5178 10 100.298093637561 0.919160815251999 0 -1 0 0
5168 3 100.298093637561 2.7574824457550022 1.563556323176 -1 0 0
5184 14 98.706060405219 3.6766432610070012 0 -1 0 0
5176 9 100.298093637561 0.919160815251999 3.127112646352 -1 0 0
5172 13 98.706060405219 3.6766432610070012 3.127112646352 -1 0 0
2129 10 1.5920332323420041 6.4341257067620035 0 0 0 0
2131 2 0 5.5149648915100045 1.563556323176 0 0 0
2125 1 3.184066464685003 5.5149648915100045 1.563556323176 0 0 0
2114 3 1.5920332323420041 8.272447337265 1.563556323176 0 0 0
2127 9 1.5920332323420041 6.4341257067620035 3.127112646352 0 0 0
5585 10 1.5920332323420041 6.4341257067620035 0 0 0 0
5587 2 0 5.5149648915100045 1.563556323176 0 0 0
5581 1 3.184066464685003 5.5149648915100045 1.563556323176 0 0 0
5570 3 1.5920332323420041 8.272447337265 1.563556323176 0 0 0
5583 9 1.5920332323420041 6.4341257067620035 3.127112646352 0 0 0
2121 12 4.776099697027 6.4341257067620035 0 0 0 0
2155 2 6.368132929369004 5.5149648915100045 1.563556323176 0 0 0
2153 10 7.960166161711001 6.4341257067620035 0 0 0 0
2117 4 4.776099697027 8.272447337265 1.563556323176 0 0 0
2138 3 7.960166161711001 8.272447337265 1.563556323176 0 0 0
2113 11 4.776099697027 6.4341257067620035 3.127112646352 0 0 0
2151 9 7.960166161711001 6.4341257067620035 3.127112646352 0 0 0
5577 12 4.776099697027 6.4341257067620035 0 0 0 0
5611 2 6.368132929369004 5.5149648915100045 1.563556323176 0 0 0
5609 10 7.960166161711001 6.4341257067620035 0 0 0 0
5573 4 4.776099697027 8.272447337265 1.563556323176 0 0 0
5594 3 7.960166161711001 8.272447337265 1.563556323176 0 0 0
5569 11 4.776099697027 6.4341257067620035 3.127112646352 0 0 0
5607 9 7.960166161711001 6.4341257067620035 3.127112646352 0 0 0
2149 1 9.552199394054 5.5149648915100045 1.563556323176 0 0 0
2145 12 11.144232626396004 6.4341257067620035 0 0 0 0
2141 4 11.144232626396004 8.272447337265 1.563556323176 0 0 0
2137 11 11.144232626396004 6.4341257067620035 3.127112646352 0 0 0
5605 1 9.552199394054 5.5149648915100045 1.563556323176 0 0 0
5601 12 11.144232626396004 6.4341257067620035 0 0 0 0
5597 4 11.144232626396004 8.272447337265 1.563556323176 0 0 0
5593 11 11.144232626396004 6.4341257067620035 3.127112646352 0 0 0
2179 2 12.736265858738001 5.5149648915100045 1.563556323176 0 0 0
2177 10 14.328299091080005 6.4341257067620035 0 0 0 0
2173 1 15.920332323423004 5.5149648915100045 1.563556323176 0 0 0
2162 3 14.328299091080005 8.272447337265 1.563556323176 0 0 0
2175 9 14.328299091080005 6.4341257067620035 3.127112646352 0 0 0
5635 2 12.736265858738001 5.5149648915100045 1.563556323176 0 0 0
5633 10 14.328299091080005 6.4341257067620035 0 0 0 0
5629 1 15.920332323423004 5.5149648915100045 1.563556323176 0 0 0
5618 3 14.328299091080005 8.272447337265 1.563556323176 0 0 0
5631 9 14.328299091080005 6.4341257067620035 3.127112646352 0 0 0
2169 12 17.512365555765008 6.4341257067620035 0 0 0 0
2203 2 19.104398788106998 5.5149648915100045 1.563556323176 0 0 0
2201 10 20.696432020449002 6.4341257067620035 0 0 0 0
2165 4 17.512365555765008 8.272447337265 1.563556323176 0 0 0
2186 3 20.696432020449002 8.272447337265 1.563556323176 0 0 0
2161 11 17.512365555765008 6.4341257067620035 3.127112646352 0 0 0
2199 9 20.696432020449002 6.4341257067620035 3.127112646352 0 0 0
5625 12 17.512365555765008 6.4341257067620035 0 0 0 0
5659 2 19.104398788106998 5.5149648915100045 1.563556323176 0 0 0
5657 10 20.696432020449002 6.4341257067620035 0 0 0 0
5621 4 17.512365555765008 8.272447337265 1.563556323176 0 0 0
5642 3 20.696432020449002 8.272447337265 1.563556323176 0 0 0
5617 11 17.512365555765008 6.4341257067620035 3.127112646352 0 0 0
5655 9 20.696432020449002 6.4341257067620035 3.127112646352 0 0 0
2197 1 22.288465252792 5.5149648915100045 1.563556323176 0 0 0
2193 12 23.880498485134005 6.4341257067620035 0 0 0 0
2189 4 23.880498485134005 8.272447337265 1.563556323176 0 0 0
2185 11 23.880498485134005 6.4341257067620035 3.127112646352 0 0 0
5653 1 22.288465252792 5.5149648915100045 1.563556323176 0 0 0
5649 12 23.880498485134005 6.4341257067620035 0 0 0 0
5645 4 23.880498485134005 8.272447337265 1.563556323176 0 0 0
5641 11 23.880498485134005 6.4341257067620035 3.127112646352 0 0 0
2227 2 25.47253171747601 5.5149648915100045 1.563556323176 0 0 0
2225 10 27.064564949818 6.4341257067620035 0 0 0 0
2221 1 28.656598182160998 5.5149648915100045 1.563556323176 0 0 0
2210 3 27.064564949818 8.272447337265 1.563556323176 0 0 0
2223 9 27.064564949818 6.4341257067620035 3.127112646352 0 0 0
5683 2 25.47253171747601 5.5149648915100045 1.563556323176 0 0 0
5681 10 27.064564949818 6.4341257067620035 0 0 0 0
5677 1 28.656598182160998 5.5149648915100045 1.563556323176 0 0 0
5666 3 27.064564949818 8.272447337265 1.563556323176 0 0 0
5679 9 27.064564949818 6.4341257067620035 3.127112646352 0 0 0
2217 12 30.248631414503002 6.4341257067620035 0 0 0 0
2251 2 31.840664646845006 5.5149648915100045 1.563556323176 0 0 0
2249 10 33.432697879186996 6.4341257067620035 0 0 0 0
2213 4 30.248631414503002 8.272447337265 1.563556323176 0 0 0
2234 3 33.432697879186996 8.272447337265 1.563556323176 0 0 0
2209 11 30.248631414503002 6.4341257067620035 3.127112646352 0 0 0
2247 9 33.432697879186996 6.4341257067620035 3.127112646352 0 0 0
5673 12 30.248631414503002 6.4341257067620035 0 0 0 0
5707 2 31.840664646845006 5.5149648915100045 1.563556323176 0 0 0
5705 10 33.432697879186996 6.4341257067620035 0 0 0 0
5669 4 30.248631414503002 8.272447337265 1.563556323176 0 0 0
5690 3 33.432697879186996 8.272447337265 1.563556323176 0 0 0
5665 11 30.248631414503002 6.4341257067620035 3.127112646352 0 0 0
5703 9 33.432697879186996 6.4341257067620035 3.127112646352 0 0 0
2245 1 35.02473111153001 5.5149648915100045 1.563556323176 0 0 0
2241 12 36.616764343872 6.4341257067620035 0 0 0 0
2237 4 36.616764343872 8.272447337265 1.563556323176 0 0 0
2233 11 36.616764343872 6.4341257067620035 3.127112646352 0 0 0
5701 1 35.02473111153001 5.5149648915100045 1.563556323176 0 0 0
5697 12 36.616764343872 6.4341257067620035 0 0 0 0
5693 4 36.616764343872 8.272447337265 1.563556323176 0 0 0
5689 11 36.616764343872 6.4341257067620035 3.127112646352 0 0 0
2275 2 38.208797576214 5.5149648915100045 1.563556323176 0 0 0
2273 10 39.80083080855601 6.4341257067620035 0 0 0 0
2269 1 41.392864040899006 5.5149648915100045 1.563556323176 0 0 0
2258 3 39.80083080855601 8.272447337265 1.563556323176 0 0 0
2271 9 39.80083080855601 6.4341257067620035 3.127112646352 0 0 0
5731 2 38.208797576214 5.5149648915100045 1.563556323176 0 0 0
5729 10 39.80083080855601 6.4341257067620035 0 0 0 0
5725 1 41.392864040899006 5.5149648915100045 1.563556323176 0 0 0
5714 3 39.80083080855601 8.272447337265 1.563556323176 0 0 0
5727 9 39.80083080855601 6.4341257067620035 3.127112646352 0 0 0
2265 12 42.984897273240996 6.4341257067620035 0 0 0 0
2299 2 44.576930505583 5.5149648915100045 1.563556323176 0 0 0
2297 10 46.168963737925004 6.4341257067620035 0 0 0 0
2261 4 42.984897273240996 8.272447337265 1.563556323176 0 0 0
2282 3 46.168963737925004 8.272447337265 1.563556323176 0 0 0
2257 11 42.984897273240996 6.4341257067620035 3.127112646352 0 0 0
2295 9 46.168963737925004 6.4341257067620035 3.127112646352 0 0 0
5721 12 42.984897273240996 6.4341257067620035 0 0 0 0
5755 2 44.576930505583 5.5149648915100045 1.563556323176 0 0 0
5753 10 46.168963737925004 6.4341257067620035 0 0 0 0
5717 4 42.984897273240996 8.272447337265 1.563556323176 0 0 0
5738 3 46.168963737925004 8.272447337265 1.563556323176 0 0 0
5713 11 42.984897273240996 6.4341257067620035 3.127112646352 0 0 0
5751 9 46.168963737925004 6.4341257067620035 3.127112646352 0 0 0
2293 1 47.760996970268 5.5149648915100045 1.563556323176 0 0 0
2289 12 49.35303020261001 6.4341257067620035 0 0 0 0