LAMMPS data file via write_data, version 2 Aug 2023, timestep = 0, units = metal

3456 atoms
12 atom types

0 101.890126869904 xlo xhi
0 99.26936804718 ylo yhi
0 18.127112646352 zlo zhi

Masses

1 95.95999999999999
2 95.95999999999999
3 95.95999999999999
4 95.95
5 32.06
6 32.06
7 32.06
8 32.06
9 32.06
10 32.06
11 32.06
12 32.06

Atoms # atomic

1739 8 1.5920332323420041 0.919160815251999 0 0 0 0
1742 1 0 0 1.563556323176 0 0 0
1748 2 3.184066464684001 0 1.563556323176 0 0 0
1746 6 4.776099697026005 0.919160815251999 0 0 0 0
1766 1 6.368132929369004 0 1.563556323176 0 0 0
1763 8 7.960166161711001 0.919160815251999 0 0 0 0
1772 2 9.552199394053005 0 1.563556323176 0 0 0
1770 6 11.144232626395002 0.919160815251999 0 0 0 0
1790 1 12.736265858738001 0 1.563556323176 0 0 0
1787 8 14.328299091080005 0.919160815251999 0 0 0 0
1794 6 17.512365555764 0.919160815251999 0 0 0 0
1796 2 15.92033232342201 0 1.563556323176 0 0 0
1814 1 19.104398788106998 0 1.563556323176 0 0 0
1811 8 20.696432020449002 0.919160815251999 0 0 0 0
1820 2 22.288465252791006 0 1.563556323176 0 0 0
1818 6 23.880498485132996 0.919160815251999 0 0 0 0
1838 1 25.47253171747601 0 1.563556323176 0 0 0
1835 8 27.064564949818 0.919160815251999 0 0 0 0
1844 2 28.656598182160003 0 1.563556323176 0 0 0
1842 6 30.248631414502007 0.919160815251999 0 0 0 0
1862 1 31.840664646845006 0 1.563556323176 0 0 0
1859 8 33.432697879186996 0.919160815251999 0 0 0 0
1868 2 35.024731111529 0 1.563556323176 0 0 0
1866 6 36.616764343871004 0.919160815251999 0 0 0 0
1886 1 38.208797576214 0 1.563556323176 0 0 0
1883 8 39.80083080855601 0.919160815251999 0 0 0 0
1892 2 41.392864040898 0 1.563556323176 0 0 0
1890 6 42.98489727324 0.919160815251999 0 0 0 0
1910 1 44.576930505583 0 1.563556323176 0 0 0
1907 8 46.168963737925004 0.919160815251999 0 0 0 0
1916 2 47.76099697026701 0 1.563556323176 0 0 0
1914 6 49.353030202609 0.919160815251999 0 0 0 0
1547 8 52.537096667293994 0.919160815251999 0 -1 0 0
1550 1 50.945063434952 0 1.563556323176 -1 0 0
1556 2 54.129129899636 0 1.563556323176 -1 0 0
1554 6 55.721163131977995 0.919160815251999 0 -1 0 0
1574 1 57.313196364320994 0 1.563556323176 -1 0 0
1571 8 58.905229596663 0.919160815251999 0 -1 0 0
1580 2 60.497262829004995 0 1.563556323176 -1 0 0
1578 6 62.089296061347 0.919160815251999 0 -1 0 0
1598 1 63.68132929369 0 1.563556323176 -1 0 0
1595 8 65.273362526032 0.919160815251999 0 -1 0 0
1602 6 68.457428990716 0.919160815251999 0 -1 0 0
1604 2 66.865395758374 0 1.563556323176 -1 0 0
1622 1 70.049462223059 0 1.563556323176 -1 0 0
1619 8 71.641495455401 0.919160815251999 0 -1 0 0
1628 2 73.23352868774299 0 1.563556323176 -1 0 0
1626 6 74.825561920085 0.919160815251999 0 -1 0 0
1646 1 76.41759515242799 0 1.563556323176 -1 0 0
1643 8 78.00962838477 0.919160815251999 0 -1 0 0
1652 2 79.601661617112 0 1.563556323176 -1 0 0
1650 6 81.193694849454 0.919160815251999 0 -1 0 0
1670 1 82.785728081797 0 1.563556323176 -1 0 0
1667 8 84.37776131413901 0.919160815251999 0 -1 0 0
1676 2 85.969794546481 0 1.563556323176 -1 0 0
1674 6 87.56182777882299 0.919160815251999 0 -1 0 0
1694 1 89.153861011166 0 1.563556323176 -1 0 0
1691 8 90.74589424350799 0.919160815251999 0 -1 0 0
1700 2 92.33792747585 0 1.563556323176 -1 0 0
1698 6 93.929960708192 0.919160815251999 0 -1 0 0
1718 1 95.521993940535 0 1.563556323176 -1 0 0
1715 8 97.114027172877 0.919160815251999 0 -1 0 0
1724 2 98.706060405219 0 1.563556323176 -1 0 0
1722 6 100.298093637561 0.919160815251999 0 -1 0 0
1735 4 1.5920332323420041 2.7574824457550022 1.563556323176 0 0 0
1736 3 4.776099697026005 2.7574824457550022 1.563556323176 0 0 0
1759 4 7.960166161711001 2.7574824457550022 1.563556323176 0 0 0
1760 3 11.144232626395002 2.7574824457550022 1.563556323176 0 0 0
1783 4 14.328299091080005 2.7574824457550022 1.563556323176 0 0 0
1784 3 17.512365555764 2.7574824457550022 1.563556323176 0 0 0
1807 4 20.696432020449002 2.7574824457550022 1.563556323176 0 0 0
1808 3 23.880498485132996 2.7574824457550022 1.563556323176 0 0 0
1831 4 27.064564949818 2.7574824457550022 1.563556323176 0 0 0
1832 3 30.248631414502007 2.7574824457550022 1.563556323176 0 0 0
1855 4 33.432697879186996 2.7574824457550022 1.563556323176 0 0 0
1856 3 36.616764343871004 2.7574824457550022 1.563556323176 0 0 0
1879 4 39.80083080855601 2.7574824457550022 1.563556323176 0 0 0
1880 3 42.98489727324 2.7574824457550022 1.563556323176 0 0 0
1903 4 46.168963737925004 2.7574824457550022 1.563556323176 0 0 0
1904 3 49.353030202609 2.7574824457550022 1.563556323176 0 0 0
1543 4 52.537096667293994 2.7574824457550022 1.563556323176 -1 0 0
1544 3 55.721163131977995 2.7574824457550022 1.563556323176 -1 0 0
1567 4 58.905229596663 2.7574824457550022 1.563556323176 -1 0 0
1568 3 62.089296061347 2.7574824457550022 1.563556323176 -1 0 0
1591 4 65.273362526032 2.7574824457550022 1.563556323176 -1 0 0
1592 3 68.457428990716 2.7574824457550022 1.563556323176 -1 0 0
1615 4 71.641495455401 2.7574824457550022 1.563556323176 -1 0 0
1616 3 74.825561920085 2.7574824457550022 1.563556323176 -1 0 0
1639 4 78.00962838477 2.7574824457550022 1.563556323176 -1 0 0
1640 3 81.193694849454 2.7574824457550022 1.563556323176 -1 0 0
1663 4 84.37776131413901 2.7574824457550022 1.563556323176 -1 0 0
1664 3 87.56182777882299 2.7574824457550022 1.563556323176 -1 0 0
1687 4 90.74589424350799 2.7574824457550022 1.563556323176 -1 0 0
1688 3 93.929960708192 2.7574824457550022 1.563556323176 -1 0 0
1711 4 97.114027172877 2.7574824457550022 1.563556323176 -1 0 0
1712 3 100.298093637561 2.7574824457550022 1.563556323176 -1 0 0
1734 12 0 3.6766432610070012 0 0 0 0
1752 10 3.184066464684001 3.6766432610070012 0 0 0 0
1758 12 6.368132929369004 3.6766432610070012 0 0 0 0
1776 10 9.552199394053005 3.6766432610070012 0 0 0 0
1782 12 12.736265858738001 3.6766432610070012 0 0 0 0
1800 10 15.92033232342201 3.6766432610070012 0 0 0 0
1806 12 19.104398788106998 3.6766432610070012 0 0 0 0
1824 10 22.288465252791006 3.6766432610070012 0 0 0 0
1830 12 25.47253171747601 3.6766432610070012 0 0 0 0
1848 10 28.656598182160003 3.6766432610070012 0 0 0 0
1854 12 31.840664646845006 3.6766432610070012 0 0 0 0
1872 10 35.024731111529 3.6766432610070012 0 0 0 0
1878 12 38.208797576214 3.6766432610070012 0 0 0 0
1896 10 41.392864040898 3.6766432610070012 0 0 0 0
1902 12 44.576930505583 3.6766432610070012 0 0 0 0
1920 10 47.76099697026701 3.6766432610070012 0 0 0 0
1542 12 50.945063434952 3.6766432610070012 0 -1 0 0
1560 10 54.129129899636 3.6766432610070012 0 -1 0 0
1566 12 57.313196364320994 3.6766432610070012 0 -1 0 0
1584 10 60.497262829004995 3.6766432610070012 0 -1 0 0
1590 12 63.68132929369 3.6766432610070012 0 -1 0 0
1608 10 66.865395758374 3.6766432610070012 0 -1 0 0
1614 12 70.049462223059 3.6766432610070012 0 -1 0 0
1632 10 73.23352868774299 3.6766432610070012 0 -1 0 0
1638 12 76.41759515242799 3.6766432610070012 0 -1 0 0
1656 10 79.601661617112 3.6766432610070012 0 -1 0 0
1662 12 82.785728081797 3.6766432610070012 0 -1 0 0
1680 10 85.969794546481 3.6766432610070012 0 -1 0 0
1686 12 89.153861011166 3.6766432610070012 0 -1 0 0
1704 10 92.33792747585 3.6766432610070012 0 -1 0 0
1710 12 95.521993940535 3.6766432610070012 0 -1 0 0
1728 10 98.706060405219 3.6766432610070012 0 -1 0 0
2129 6 1.5920332323420041 6.4341257067620035 0 0 0 0
2131 2 0 5.5149648915100045 1.563556323176 0 0 0
2125 1 3.184066464685003 5.5149648915100045 1.563556323176 0 0 0
2121 8 4.776099697027 6.4341257067620035 0 0 0 0
2155 2 6.368132929369004 5.5149648915100045 1.563556323176 0 0 0
2153 6 7.960166161711001 6.4341257067620035 0 0 0 0
2149 1 9.552199394054 5.5149648915100045 1.563556323176 0 0 0
2145 8 11.144232626396004 6.4341257067620035 0 0 0 0
2179 2 12.736265858738001 5.5149648915100045 1.563556323176 0 0 0
2177 6 14.328299091080005 6.4341257067620035 0 0 0 0
2169 8 17.512365555765008 6.4341257067620035 0 0 0 0
2173 1 15.920332323423004 5.5149648915100045 1.563556323176 0 0 0
2203 2 19.104398788106998 5.5149648915100045 1.563556323176 0 0 0
2201 6 20.696432020449002 6.4341257067620035 0 0 0 0
2197 1 22.288465252792 5.5149648915100045 1.563556323176 0 0 0
2193 8 23.880498485134005 6.4341257067620035 0 0 0 0
2227 2 25.47253171747601 5.5149648915100045 1.563556323176 0 0 0
2225 6 27.064564949818 6.4341257067620035 0 0 0 0
2221 1 28.656598182160998 5.5149648915100045 1.563556323176 0 0 0
2217 8 30.248631414503002 6.4341257067620035 0 0 0 0
2251 2 31.840664646845006 5.5149648915100045 1.563556323176 0 0 0
2249 6 33.432697879186996 6.4341257067620035 0 0 0 0
2245 1 35.02473111153001 5.5149648915100045 1.563556323176 0 0 0
2241 8 36.616764343872 6.4341257067620035 0 0 0 0
2275 2 38.208797576214 5.5149648915100045 1.563556323176 0 0 0
2273 6 39.80083080855601 6.4341257067620035 0 0 0 0
2269 1 41.392864040899006 5.5149648915100045 1.563556323176 0 0 0
2265 8 42.984897273240996 6.4341257067620035 0 0 0 0
2299 2 44.576930505583 5.5149648915100045 1.563556323176 0 0 0
2297 6 46.168963737925004 6.4341257067620035 0 0 0 0
2293 1 47.760996970268 5.5149648915100045 1.563556323176 0 0 0
2289 8 49.35303020261001 6.4341257067620035 0 0 0 0
1937 6 52.537096667293994 6.4341257067620035 0 -1 0 0
1939 2 50.945063434952 5.5149648915100045 1.563556323176 -1 0 0
1933 1 54.129129899637 5.5149648915100045 1.563556323176 -1 0 0
1929 8 55.721163131979 6.4341257067620035 0 -1 0 0
1963 2 57.313196364320994 5.5149648915100045 1.563556323176 -1 0 0
1961 6 58.905229596663 6.4341257067620035 0 -1 0 0
1957 1 60.497262829006 5.5149648915100045 1.563556323176 -1 0 0
1953 8 62.089296061347994 6.4341257067620035 0 -1 0 0
1987 2 63.68132929369 5.5149648915100045 1.563556323176 -1 0 0
1985 6 65.273362526032 6.4341257067620035 0 -1 0 0
1977 8 68.457428990717 6.4341257067620035 0 -1 0 0
1981 1 66.865395758375 5.5149648915100045 1.563556323176 -1 0 0
2011 2 70.049462223059 5.5149648915100045 1.563556323176 -1 0 0
2009 6 71.641495455401 6.4341257067620035 0 -1 0 0
2005 1 73.233528687744 5.5149648915100045 1.563556323176 -1 0 0
2001 8 74.825561920086 6.4341257067620035 0 -1 0 0
2035 2 76.41759515242799 5.5149648915100045 1.563556323176 -1 0 0
2033 6 78.00962838477 6.4341257067620035 0 -1 0 0
2029 1 79.601661617113 5.5149648915100045 1.563556323176 -1 0 0
2025 8 81.193694849455 6.4341257067620035 0 -1 0 0
2059 2 82.785728081797 5.5149648915100045 1.563556323176 -1 0 0
2057 6 84.37776131413901 6.4341257067620035 0 -1 0 0
2053 1 85.969794546482 5.5149648915100045 1.563556323176 -1 0 0
2049 8 87.561827778824 6.4341257067620035 0 -1 0 0
2083 2 89.153861011166 5.5149648915100045 1.563556323176 -1 0 0
2081 6 90.74589424350799 6.4341257067620035 0 -1 0 0
2077 1 92.33792747585099 5.5149648915100045 1.563556323176 -1 0 0
2073 8 93.929960708193 6.4341257067620035 0 -1 0 0
2107 2 95.521993940535 5.5149648915100045 1.563556323176 -1 0 0
2105 6 97.114027172877 6.4341257067620035 0 -1 0 0
2101 1 98.70606040522 5.5149648915100045 1.563556323176 -1 0 0
2097 8 100.298093637562 6.4341257067620035 0 -1 0 0
2114 3 1.5920332323420041 8.272447337265 1.563556323176 0 0 0
2117 4 4.776099697027 8.272447337265 1.563556323176 0 0 0
2138 3 7.960166161711001 8.272447337265 1.563556323176 0 0 0
2141 4 11.144232626396004 8.272447337265 1.563556323176 0 0 0
2162 3 14.328299091080005 8.272447337265 1.563556323176 0 0 0
2165 4 17.512365555765008 8.272447337265 1.563556323176 0 0 0
2186 3 20.696432020449002 8.272447337265 1.563556323176 0 0 0
2189 4 23.880498485134005 8.272447337265 1.563556323176 0 0 0
2210 3 27.064564949818 8.272447337265 1.563556323176 0 0 0
2213 4 30.248631414503002 8.272447337265 1.563556323176 0 0 0
2234 3 33.432697879186996 8.272447337265 1.563556323176 0 0 0
2237 4 36.616764343872 8.272447337265 1.563556323176 0 0 0
2258 3 39.80083080855601 8.272447337265 1.563556323176 0 0 0
2261 4 42.984897273240996 8.272447337265 1.563556323176 0 0 0
2282 3 46.168963737925004 8.272447337265 1.563556323176 0 0 0
2285 4 49.35303020261001 8.272447337265 1.563556323176 0 0 0
1922 3 52.537096667293994 8.272447337265 1.563556323176 -1 0 0
1925 4 55.721163131979 8.272447337265 1.563556323176 -1 0 0
1946 3 58.905229596663 8.272447337265 1.563556323176 -1 0 0
1949 4 62.089296061347994 8.272447337265 1.563556323176 -1 0 0
1970 3 65.273362526032 8.272447337265 1.563556323176 -1 0 0
1973 4 68.457428990717 8.272447337265 1.563556323176 -1 0 0
1994 3 71.641495455401 8.272447337265 1.563556323176 -1 0 0
1997 4 74.825561920086 8.272447337265 1.563556323176 -1 0 0
2018 3 78.00962838477 8.272447337265 1.563556323176 -1 0 0
2021 4 81.193694849455 8.272447337265 1.563556323176 -1 0 0
2042 3 84.37776131413901 8.272447337265 1.563556323176 -1 0 0
2045 4 87.561827778824 8.272447337265 1.563556323176 -1 0 0
2066 3 90.74589424350799 8.272447337265 1.563556323176 -1 0 0
2069 4 93.929960708193 8.272447337265 1.563556323176 -1 0 0
2090 3 97.114027172877 8.272447337265 1.563556323176 -1 0 0
2093 4 100.298093637562 8.272447337265 1.563556323176 -1 0 0
2135 10 0 9.191608152517006 0 0 0 0
2116 12 3.184066464685003 9.191608152517006 0 0 0 0
2159 10 6.368132929369004 9.191608152517006 0 0 0 0
2140 12 9.552199394054 9.191608152517006 0 0 0 0
2183 10 12.736265858738001 9.191608152517006 0 0 0 0
2164 12 15.920332323423004 9.191608152517006 0 0 0 0
2207 10 19.104398788106998 9.191608152517006 0 0 0 0
2188 12 22.288465252792 9.191608152517006 0 0 0 0
2231 10 25.47253171747601 9.191608152517006 0 0 0 0
2212 12 28.656598182160998 9.191608152517006 0 0 0 0
2255 10 31.840664646845006 9.191608152517006 0 0 0 0
2236 12 35.02473111153001 9.191608152517006 0 0 0 0
2279 10 38.208797576214 9.191608152517006 0 0 0 0
2260 12 41.392864040899006 9.191608152517006 0 0 0 0
2303 10 44.576930505583 9.191608152517006 0 0 0 0
2284 12 47.760996970268 9.191608152517006 0 0 0 0
1943 10 50.945063434952 9.191608152517006 0 -1 0 0
1924 12 54.129129899637 9.191608152517006 0 -1 0 0
1967 10 57.313196364320994 9.191608152517006 0 -1 0 0
1948 12 60.497262829006 9.191608152517006 0 -1 0 0
1991 10 63.68132929369 9.191608152517006 0 -1 0 0
1972 12 66.865395758375 9.191608152517006 0 -1 0 0
2015 10 70.049462223059 9.191608152517006 0 -1 0 0
1996 12 73.233528687744 9.191608152517006 0 -1 0 0
2039 10 76.41759515242799 9.191608152517006 0 -1 0 0
2020 12 79.601661617113 9.191608152517006 0 -1 0 0
2063 10 82.785728081797 9.191608152517006 0 -1 0 0
2044 12 85.969794546482 9.191608152517006 0 -1 0 0
2087 10 89.153861011166 9.191608152517006 0 -1 0 0
2068 12 92.33792747585099 9.191608152517006 0 -1 0 0
2111 10 95.521993940535 9.191608152517006 0 -1 0 0
2092 12 98.70606040522 9.191608152517006 0 -1 0 0
2123 8 1.5920332323420041 11.949090598272 0 0 0 0
2126 1 0 11.029929783020002 1.563556323176 0 0 0
2132 2 3.184066464684001 11.029929783020002 1.563556323176 0 0 0
2130 6 4.776099697026005 11.949090598272 0 0 0 0
2150 1 6.368132929369004 11.029929783020002 1.563556323176 0 0 0
2147 8 7.960166161711001 11.949090598272 0 0 0 0
2156 2 9.552199394053005 11.029929783020002 1.563556323176 0 0 0
2154 6 11.144232626395002 11.949090598272 0 0 0 0
2174 1 12.736265858738001 11.029929783020002 1.563556323176 0 0 0
2171 8 14.328299091080005 11.949090598272 0 0 0 0
2178 6 17.512365555764 11.949090598272 0 0 0 0
2180 2 15.92033232342201 11.029929783020002 1.563556323176 0 0 0
2198 1 19.104398788106998 11.029929783020002 1.563556323176 0 0 0
2195 8 20.696432020449002 11.949090598272 0 0 0 0
2204 2 22.288465252791006 11.029929783020002 1.563556323176 0 0 0
2202 6 23.880498485132996 11.949090598272 0 0 0 0
2222 1 25.47253171747601 11.029929783020002 1.563556323176 0 0 0
2219 8 27.064564949818 11.949090598272 0 0 0 0
2228 2 28.656598182160003 11.029929783020002 1.563556323176 0 0 0
2226 6 30.248631414502007 11.949090598272 0 0 0 0
2246 1 31.840664646845006 11.029929783020002 1.563556323176 0 0 0
2243 8 33.432697879186996 11.949090598272 0 0 0 0
2252 2 35.024731111529 11.029929783020002 1.563556323176 0 0 0
2250 6 36.616764343871004 11.949090598272 0 0 0 0
2270 1 38.208797576214 11.029929783020002 1.563556323176 0 0 0
2267 8 39.80083080855601 11.949090598272 0 0 0 0
2276 2 41.392864040898 11.029929783020002 1.563556323176 0 0 0
2274 6 42.98489727324 11.949090598272 0 0 0 0
2294 1 44.576930505583 11.029929783020002 1.563556323176 0 0 0
2291 8 46.168963737925004 11.949090598272 0 0 0 0
2300 2 47.76099697026701 11.029929783020002 1.563556323176 0 0 0
2298 6 49.353030202609 11.949090598272 0 0 0 0
1931 8 52.537096667293994 11.949090598272 0 -1 0 0
1934 1 50.945063434952 11.029929783020002 1.563556323176 -1 0 0
1940 2 54.129129899636 11.029929783020002 1.563556323176 -1 0 0
1938 6 55.721163131977995 11.949090598272 0 -1 0 0
1958 1 57.313196364320994 11.029929783020002 1.563556323176 -1 0 0
1955 8 58.905229596663 11.949090598272 0 -1 0 0
1964 2 60.497262829004995 11.029929783020002 1.563556323176 -1 0 0
1962 6 62.089296061347 11.949090598272 0 -1 0 0
1982 1 63.68132929369 11.029929783020002 1.563556323176 -1 0 0
1979 8 65.273362526032 11.949090598272 0 -1 0 0
1986 6 68.457428990716 11.949090598272 0 -1 0 0
1988 2 66.865395758374 11.029929783020002 1.563556323176 -1 0 0
2006 1 70.049462223059 11.029929783020002 1.563556323176 -1 0 0
2003 8 71.641495455401 11.949090598272 0 -1 0 0
2012 2 73.23352868774299 11.029929783020002 1.563556323176 -1 0 0
2010 6 74.825561920085 11.949090598272 0 -1 0 0
2030 1 76.41759515242799 11.029929783020002 1.563556323176 -1 0 0
2027 8 78.00962838477 11.949090598272 0 -1 0 0
2036 2 79.601661617112 11.029929783020002 1.563556323176 -1 0 0
2034 6 81.193694849454 11.949090598272 0 -1 0 0
2054 1 82.785728081797 11.029929783020002 1.563556323176 -1 0 0
2051 8 84.37776131413901 11.949090598272 0 -1 0 0
2060 2 85.969794546481 11.029929783020002 1.563556323176 -1 0 0
2058 6 87.56182777882299 11.949090598272 0 -1 0 0
2078 1 89.153861011166 11.029929783020002 1.563556323176 -1 0 0
2075 8 90.74589424350799 11.949090598272 0 -1 0 0
2084 2 92.33792747585 11.029929783020002 1.563556323176 -1 0 0
2082 6 93.929960708192 11.949090598272 0 -1 0 0
2102 1 95.521993940535 11.029929783020002 1.563556323176 -1 0 0
2099 8 97.114027172877 11.949090598272 0 -1 0 0
2108 2 98.706060405219 11.029929783020002 1.563556323176 -1 0 0
2106 6 100.298093637561 11.949090598272 0 -1 0 0
2119 4 1.5920332323420041 13.787412228775004 1.563556323176 0 0 0
2120 3 4.776099697026005 13.787412228775004 1.563556323176 0 0 0
2143 4 7.960166161711001 13.787412228775004 1.563556323176 0 0 0
2144 3 11.144232626395002 13.787412228775004 1.563556323176 0 0 0
2167 4 14.328299091080005 13.787412228775004 1.563556323176 0 0 0
2168 3 17.512365555764 13.787412228775004 1.563556323176 0 0 0
2191 4 20.696432020449002 13.787412228775004 1.563556323176 0 0 0
2192 3 23.880498485132996 13.787412228775004 1.563556323176 0 0 0
2215 4 27.064564949818 13.787412228775004 1.563556323176 0 0 0
2216 3 30.248631414502007 13.787412228775004 1.563556323176 0 0 0
2239 4 33.432697879186996 13.787412228775004 1.563556323176 0 0 0
2240 3 36.616764343871004 13.787412228775004 1.563556323176 0 0 0
2263 4 39.80083080855601 13.787412228775004 1.563556323176 0 0 0
2264 3 42.98489727324 13.787412228775004 1.563556323176 0 0 0
2287 4 46.168963737925004 13.787412228775004 1.563556323176 0 0 0
2288 3 49.353030202609 13.787412228775004 1.563556323176 0 0 0
1927 4 52.537096667293994 13.787412228775004 1.563556323176 -1 0 0
1928 3 55.721163131977995 13.787412228775004 1.563556323176 -1 0 0
1951 4 58.905229596663 13.787412228775004 1.563556323176 -1 0 0
1952 3 62.089296061347 13.787412228775004 1.563556323176 -1 0 0
1975 4 65.273362526032 13.787412228775004 1.563556323176 -1 0 0
1976 3 68.457428990716 13.787412228775004 1.563556323176 -1 0 0
1999 4 71.641495455401 13.787412228775004 1.563556323176 -1 0 0
2000 3 74.825561920085 13.787412228775004 1.563556323176 -1 0 0
2023 4 78.00962838477 13.787412228775004 1.563556323176 -1 0 0
2024 3 81.193694849454 13.787412228775004 1.563556323176 -1 0 0
2047 4 84.37776131413901 13.787412228775004 1.563556323176 -1 0 0
2048 3 87.56182777882299 13.787412228775004 1.563556323176 -1 0 0
2071 4 90.74589424350799 13.787412228775004 1.563556323176 -1 0 0
2072 3 93.929960708192 13.787412228775004 1.563556323176 -1 0 0
2095 4 97.114027172877 13.787412228775004 1.563556323176 -1 0 0
2096 3 100.298093637561 13.787412228775004 1.563556323176 -1 0 0
2118 12 0 14.706573044026996 0 0 0 0
2136 10 3.184066464684001 14.706573044026996 0 0 0 0
2142 12 6.368132929369004 14.706573044026996 0 0 0 0
2160 10 9.552199394053005 14.706573044026996 0 0 0 0
2166 12 12.736265858738001 14.706573044026996 0 0 0 0
2184 10 15.92033232342201 14.706573044026996 0 0 0 0
2190 12 19.104398788106998 14.706573044026996 0 0 0 0
2208 10 22.288465252791006 14.706573044026996 0 0 0 0
2214 12 25.47253171747601 14.706573044026996 0 0 0 0
2232 10 28.656598182160003 14.706573044026996 0 0 0 0
2238 12 31.840664646845006 14.706573044026996 0 0 0 0
2256 10 35.024731111529 14.706573044026996 0 0 0 0
2262 12 38.208797576214 14.706573044026996 0 0 0 0
2280 10 41.392864040898 14.706573044026996 0 0 0 0
2286 12 44.576930505583 14.706573044026996 0 0 0 0
2304 10 47.76099697026701 14.706573044026996 0 0 0 0
1926 12 50.945063434952 14.706573044026996 0 -1 0 0
1944 10 54.129129899636 14.706573044026996 0 -1 0 0
1950 12 57.313196364320994 14.706573044026996 0 -1 0 0
1968 10 60.497262829004995 14.706573044026996 0 -1 0 0
1974 12 63.68132929369 14.706573044026996 0 -1 0 0
1992 10 66.865395758374 14.706573044026996 0 -1 0 0
1998 12 70.049462223059 14.706573044026996 0 -1 0 0
2016 10 73.23352868774299 14.706573044026996 0 -1 0 0
2022 12 76.41759515242799 14.706573044026996 0 -1 0 0
2040 10 79.601661617112 14.706573044026996 0 -1 0 0
2046 12 82.785728081797 14.706573044026996 0 -1 0 0
2064 10 85.969794546481 14.706573044026996 0 -1 0 0
2070 12 89.153861011166 14.706573044026996 0 -1 0 0
2088 10 92.33792747585 14.706573044026996 0 -1 0 0
2094 12 95.521993940535 14.706573044026996 0 -1 0 0
2112 10 98.706060405219 14.706573044026996 0 -1 0 0
2515 2 0 16.54489467453 1.563556323176 0 0 0
2509 1 3.184066464685003 16.54489467453 1.563556323176 0 0 0
2539 2 6.368132929369004 16.54489467453 1.563556323176 0 0 0
2533 1 9.552199394054 16.54489467453 1.563556323176 0 0 0
2563 2 12.736265858738001 16.54489467453 1.563556323176 0 0 0
2557 1 15.920332323423004 16.54489467453 1.563556323176 0 0 0
2587 2 19.104398788106998 16.54489467453 1.563556323176 0 0 0
2581 1 22.288465252792 16.54489467453 1.563556323176 0 0 0
2611 2 25.47253171747601 16.54489467453 1.563556323176 0 0 0
2605 1 28.656598182160998 16.54489467453 1.563556323176 0 0 0
2635 2 31.840664646845006 16.54489467453 1.563556323176 0 0 0
2629 1 35.02473111153001 16.54489467453 1.563556323176 0 0 0
2659 2 38.208797576214 16.54489467453 1.563556323176 0 0 0
2653 1 41.392864040899006 16.54489467453 1.563556323176 0 0 0
2683 2 44.576930505583 16.54489467453 1.563556323176 0 0 0
2677 1 47.760996970268 16.54489467453 1.563556323176 0 0 0
2323 2 50.945063434952 16.54489467453 1.563556323176 -1 0 0
2317 1 54.129129899637 16.54489467453 1.563556323176 -1 0 0
2347 2 57.313196364320994 16.54489467453 1.563556323176 -1 0 0
2341 1 60.497262829006 16.54489467453 1.563556323176 -1 0 0
2371 2 63.68132929369 16.54489467453 1.563556323176 -1 0 0
2365 1 66.865395758375 16.54489467453 1.563556323176 -1 0 0
2395 2 70.049462223059 16.54489467453 1.563556323176 -1 0 0
2389 1 73.233528687744 16.54489467453 1.563556323176 -1 0 0
2419 2 76.41759515242799 16.54489467453 1.563556323176 -1 0 0
2413 1 79.601661617113 16.54489467453 1.563556323176 -1 0 0
2443 2 82.785728081797 16.54489467453 1.563556323176 -1 0 0
2437 1 85.969794546482 16.54489467453 1.563556323176 -1 0 0
2467 2 89.153861011166 16.54489467453 1.563556323176 -1 0 0
2461 1 92.33792747585099 16.54489467453 1.563556323176 -1 0 0
2491 2 95.521993940535 16.54489467453 1.563556323176 -1 0 0
2485 1 98.70606040522 16.54489467453 1.563556323176 -1 0 0
2513 6 1.5920332323420041 17.464055489781998 0 0 0 0
2505 8 4.776099697027 17.464055489781998 0 0 0 0
2537 6 7.960166161711001 17.464055489781998 0 0 0 0
2529 8 11.144232626396004 17.464055489781998 0 0 0 0
2561 6 14.328299091080005 17.464055489781998 0 0 0 0
2553 8 17.512365555765008 17.464055489781998 0 0 0 0
2585 6 20.696432020449002 17.464055489781998 0 0 0 0
2577 8 23.880498485134005 17.464055489781998 0 0 0 0
2609 6 27.064564949818 17.464055489781998 0 0 0 0
2601 8 30.248631414503002 17.464055489781998 0 0 0 0
2633 6 33.432697879186996 17.464055489781998 0 0 0 0
2625 8 36.616764343872 17.464055489781998 0 0 0 0
2657 6 39.80083080855601 17.464055489781998 0 0 0 0
2649 8 42.984897273240996 17.464055489781998 0 0 0 0
2681 6 46.168963737925004 17.464055489781998 0 0 0 0
2673 8 49.35303020261001 17.464055489781998 0 0 0 0
2321 6 52.537096667293994 17.464055489781998 0 -1 0 0
2313 8 55.721163131979 17.464055489781998 0 -1 0 0
2345 6 58.905229596663 17.464055489781998 0 -1 0 0
2337 8 62.089296061347994 17.464055489781998 0 -1 0 0
2369 6 65.273362526032 17.464055489781998 0 -1 0 0
2361 8 68.457428990717 17.464055489781998 0 -1 0 0
2393 6 71.641495455401 17.464055489781998 0 -1 0 0
2385 8 74.825561920086 17.464055489781998 0 -1 0 0
2417 6 78.00962838477 17.464055489781998 0 -1 0 0
2409 8 81.193694849455 17.464055489781998 0 -1 0 0
2441 6 84.37776131413901 17.464055489781998 0 -1 0 0
2433 8 87.561827778824 17.464055489781998 0 -1 0 0
2465 6 90.74589424350799 17.464055489781998 0 -1 0 0
2457 8 93.929960708193 17.464055489781998 0 -1 0 0
2489 6 97.114027172877 17.464055489781998 0 -1 0 0
2481 8 100.298093637562 17.464055489781998 0 -1 0 0
2519 10 0 20.221537935537 0 0 0 0
2498 3 1.5920332323420041 19.302377120285 1.563556323176 0 0 0
2500 12 3.184066464685003 20.221537935537 0 0 0 0
2501 4 4.776099697027 19.302377120285 1.563556323176 0 0 0
2543 10 6.368132929369004 20.221537935537 0 0 0 0
2522 3 7.960166161711001 19.302377120285 1.563556323176 0 0 0
2524 12 9.552199394054 20.221537935537 0 0 0 0
2525 4 11.144232626396004 19.302377120285 1.563556323176 0 0 0
2567 10 12.736265858738001 20.221537935537 0 0 0 0
2546 3 14.328299091080005 19.302377120285 1.563556323176 0 0 0
2548 12 15.920332323423004 20.221537935537 0 0 0 0
2549 4 17.512365555765008 19.302377120285 1.563556323176 0 0 0
2591 10 19.104398788106998 20.221537935537 0 0 0 0
2570 3 20.696432020449002 19.302377120285 1.563556323176 0 0 0
2572 12 22.288465252792 20.221537935537 0 0 0 0
2573 4 23.880498485134005 19.302377120285 1.563556323176 0 0 0
2615 10 25.47253171747601 20.221537935537 0 0 0 0
2594 3 27.064564949818 19.302377120285 1.563556323176 0 0 0
2596 12 28.656598182160998 20.221537935537 0 0 0 0
2597 4 30.248631414503002 19.302377120285 1.563556323176 0 0 0
2639 10 31.840664646845006 20.221537935537 0 0 0 0
2620 12 35.02473111153001 20.221537935537 0 0 0 0
2618 3 33.432697879186996 19.302377120285 1.563556323176 0 0 0
2621 4 36.616764343872 19.302377120285 1.563556323176 0 0 0
2663 10 38.208797576214 20.221537935537 0 0 0 0
2642 3 39.80083080855601 19.302377120285 1.563556323176 0 0 0
2644 12 41.392864040899006 20.221537935537 0 0 0 0
2645 4 42.984897273240996 19.302377120285 1.563556323176 0 0 0
2687 10 44.576930505583 20.221537935537 0 0 0 0
2666 3 46.168963737925004 19.302377120285 1.563556323176 0 0 0
2668 12 47.760996970268 20.221537935537 0 0 0 0
2669 4 49.35303020261001 19.302377120285 1.563556323176 0 0 0
2327 10 50.945063434952 20.221537935537 0 -1 0 0
2306 3 52.537096667293994 19.302377120285 1.563556323176 -1 0 0
2308 12 54.129129899637 20.221537935537 0 -1 0 0
2309 4 55.721163131979 19.302377120285 1.563556323176 -1 0 0
2351 10 57.313196364320994 20.221537935537 0 -1 0 0
2330 3 58.905229596663 19.302377120285 1.563556323176 -1 0 0
2332 12 60.497262829006 20.221537935537 0 -1 0 0
2333 4 62.089296061347994 19.302377120285 1.563556323176 -1 0 0
2375 10 63.68132929369 20.221537935537 0 -1 0 0
2354 3 65.273362526032 19.302377120285 1.563556323176 -1 0 0
2356 12 66.865395758375 20.221537935537 0 -1 0 0
2357 4 68.457428990717 19.302377120285 1.563556323176 -1 0 0
2399 10 70.049462223059 20.221537935537 0 -1 0 0
2378 3 71.641495455401 19.302377120285 1.563556323176 -1 0 0
2380 12 73.233528687744 20.221537935537 0 -1 0 0
2381 4 74.825561920086 19.302377120285 1.563556323176 -1 0 0
2423 10 76.41759515242799 20.221537935537 0 -1 0 0
2402 3 78.00962838477 19.302377120285 1.563556323176 -1 0 0
2404 12 79.601661617113 20.221537935537 0 -1 0 0
2405 4 81.193694849455 19.302377120285 1.563556323176 -1 0 0
2447 10 82.785728081797 20.221537935537 0 -1 0 0
2428 12 85.969794546482 20.221537935537 0 -1 0 0
2426 3 84.37776131413901 19.302377120285 1.563556323176 -1 0 0
2429 4 87.561827778824 19.302377120285 1.563556323176 -1 0 0
2471 10 89.153861011166 20.221537935537 0 -1 0 0
2450 3 90.74589424350799 19.302377120285 1.563556323176 -1 0 0
2452 12 92.33792747585099 20.221537935537 0 -1 0 0
2453 4 93.929960708193 19.302377120285 1.563556323176 -1 0 0
2495 10 95.521993940535 20.221537935537 0 -1 0 0
2474 3 97.114027172877 19.302377120285 1.563556323176 -1 0 0
2476 12 98.70606040522 20.221537935537 0 -1 0 0
2477 4 100.298093637562 19.302377120285 1.563556323176 -1 0 0
2510 1 0 22.059859566040004 1.563556323176 0 0 0
2516 2 3.184066464684001 22.059859566040004 1.563556323176 0 0 0
2534 1 6.368132929369004 22.059859566040004 1.563556323176 0 0 0
2540 2 9.552199394053005 22.059859566040004 1.563556323176 0 0 0
2558 1 12.736265858738001 22.059859566040004 1.563556323176 0 0 0
2564 2 15.92033232342201 22.059859566040004 1.563556323176 0 0 0
2582 1 19.104398788106998 22.059859566040004 1.563556323176 0 0 0
2588 2 22.288465252791006 22.059859566040004 1.563556323176 0 0 0
2606 1 25.47253171747601 22.059859566040004 1.563556323176 0 0 0
2612 2 28.656598182160003 22.059859566040004 1.563556323176 0 0 0
2630 1 31.840664646845006 22.059859566040004 1.563556323176 0 0 0
2636 2 35.024731111529 22.059859566040004 1.563556323176 0 0 0
2654 1 38.208797576214 22.059859566040004 1.563556323176 0 0 0
2660 2 41.392864040898 22.059859566040004 1.563556323176 0 0 0
2678 1 44.576930505583 22.059859566040004 1.563556323176 0 0 0