LAMMPS data file via write_data, version 29 Aug 2024, timestep = 58, units = metal

4608 atoms
16 atom types

0 102.852891845256 xlo xhi
0 98.566495016664 ylo yhi
-50 50 zlo zhi

Masses

1 28.085
2 28.085
3 28.085
4 28.085
5 28.085
6 28.085
7 28.085
8 28.085
9 127.6
10 127.6
11 127.6
12 127.6
13 127.6
14 127.6
15 127.6
16 127.6

Atoms # atomic

1202 2 3.8822391110818932 1.0224181122046198e-05 1.4666304961486651 0 0 0
1207 11 2.855326305773081 2.053509391541937 1.335359037899087 0 0 0
1298 2 3.8822391110817303 4.106947516542133 1.466630496148694 0 0 0
1201 1 1.3276103553205887 2.0534507740286054 1.5694243007714772 0 0 0
1205 3 5.613147515539561 2.0534507740285926 1.5694243007714512 0 0 0
1300 10 1.1134127373628633 4.1069262695653315 1.5248722726370687 0 0 0
1304 12 5.398949897581888 4.1069262695653235 1.524872272637045 0 0 0
1206 4 8.167776271300772 1.022418112376265e-05 1.466630496148671 0 0 0
1211 9 7.140863465992078 2.0535093915419416 1.3353590378990616 0 0 0
1302 4 8.167776271300717 4.106947516542138 1.4666304961487 0 0 0
1209 1 9.898684675758549 2.053450774028584 1.5694243007714714 0 0 0
1308 10 9.684487057800856 4.106926269565329 1.5248722726370523 0 0 0
1215 11 11.426400626211088 2.05350939154194 1.3353590378990905 0 0 0
1210 2 12.453313431519726 1.0224181122612723e-05 1.4666304961486853 0 0 0
1306 2 12.453313431519726 4.106947516542137 1.466630496148708 0 0 0
1214 4 16.738850591738714 1.0224181124566745e-05 1.4666304961486842 0 0 0
1219 9 15.711937786430068 2.0535093915419416 1.3353590378990825 0 0 0
1310 4 16.73885059173871 4.106947516542135 1.4666304961487113 0 0 0
1213 3 14.184221835977555 2.0534507740285948 1.5694243007714688 0 0 0
1312 12 13.970024218019923 4.106926269565329 1.5248722726370552 0 0 0
1218 2 21.02438775195774 1.0224181123510762e-05 1.4666304961486762 0 0 0
1223 11 19.99747494664909 2.0535093915419416 1.3353590378990725 0 0 0
1314 2 21.024387751957708 4.106947516542137 1.4666304961487031 0 0 0
1217 1 18.46975899619656 2.053450774028582 1.5694243007714668 0 0 0
1221 3 22.75529615641556 2.05345077402858 1.5694243007714632 0 0 0
1316 10 18.255561378238887 4.106926269565326 1.5248722726370536 0 0 0
1320 12 22.541098538457906 4.106926269565332 1.5248722726370512 0 0 0
1222 4 25.309924912176715 1.0224181124403237e-05 1.4666304961486836 0 0 0
1227 9 24.283012106868078 2.053509391541941 1.3353590378990732 0 0 0
1318 4 25.30992491217673 4.106947516542139 1.4666304961487215 0 0 0
1225 1 27.040833316634547 2.053450774028588 1.5694243007714592 0 0 0
1324 10 26.826635698676952 4.1069262695653395 1.5248722726370665 0 0 0
1231 11 28.568549267087093 2.0535093915419362 1.3353590378990519 0 0 0
1226 2 29.59546207239568 1.0224181125749589e-05 1.4666304961486634 0 0 0
1322 2 29.59546207239562 4.106947516542137 1.4666304961486856 0 0 0
1230 4 33.8809992326148 1.0224181121529906e-05 1.4666304961486916 0 0 0
1326 4 33.88099923261481 4.106947516542138 1.4666304961486862 0 0 0
1229 3 31.32637047685355 2.0534507740285908 1.5694243007714623 0 0 0
1328 12 31.112172858895793 4.106926269565338 1.524872272637045 0 0 0
1235 9 32.85408642730608 2.053509391541937 1.3353590378990545 0 0 0
1234 2 38.16653639283373 1.0224181125075625e-05 1.4666304961486942 0 0 0
1239 11 37.13962358752505 2.053509391541938 1.3353590378990763 0 0 0
1330 2 38.166536392833834 4.106947516542139 1.4666304961486853 0 0 0
1233 1 35.61190763707255 2.053450774028594 1.5694243007714819 0 0 0
1237 3 39.89744479729156 2.053450774028593 1.5694243007714588 0 0 0
1332 10 35.39771001911476 4.106926269565347 1.5248722726370545 0 0 0
1336 12 39.68324717933371 4.106926269565354 1.524872272637043 0 0 0
1238 4 42.4520735530527 1.022418112285242e-05 1.4666304961486631 0 0 0
1243 9 41.42516074774409 2.053509391541944 1.3353590378990479 0 0 0
1334 4 42.452073553052884 4.106947516542141 1.4666304961486842 0 0 0
1241 1 44.182981957510556 2.0534507740285854 1.569424300771472 0 0 0
1340 10 43.9687843395527 4.106926269565356 1.5248722726370345 0 0 0
1247 11 45.71069790796304 2.053509391541944 1.3353590378990348 0 0 0
1242 2 46.73761071327186 1.0224181121619563e-05 1.4666304961486845 0 0 0
1338 2 46.73761071327189 4.106947516542138 1.466630496148707 0 0 0
1246 4 51.02314787349074 1.022418111957938e-05 1.4666304961486498 0 0 0
1342 4 51.023147873490764 4.106947516542137 1.4666304961487107 0 0 0
1245 3 48.46851911772959 2.0534507740285863 1.5694243007714925 0 0 0
1344 12 48.25432149977182 4.106926269565342 1.5248722726370594 0 0 0
1155 9 49.99623506818208 2.0535093915419464 1.335359037899028 -1 0 0
1154 2 55.30868503370987 1.0224181122800706e-05 1.4666304961486705 -1 0 0
1159 11 54.28177222840107 2.053509391541939 1.335359037899071 -1 0 0
1250 2 55.30868503370972 4.10694751654214 1.4666304961486925 -1 0 0
1153 1 52.754056277948536 2.053450774028578 1.5694243007714996 -1 0 0
1157 3 57.03959343816757 2.0534507740285903 1.5694243007714623 -1 0 0
1252 10 52.53985865999088 4.1069262695653395 1.5248722726370652 -1 0 0
1256 12 56.82539582020975 4.106926269565341 1.5248722726370496 -1 0 0
1158 4 59.59422219392869 1.0224181120735428e-05 1.466630496148715 -1 0 0
1163 9 58.567309388620075 2.0535093915419353 1.33535903789907 -1 0 0
1254 4 59.59422219392883 4.1069475165421405 1.466630496148722 -1 0 0
1161 1 61.32513059838655 2.0534507740285997 1.5694243007714497 -1 0 0
1260 10 61.11093298042888 4.106926269565345 1.524872272637064 -1 0 0
1167 11 62.85284654883911 2.0535093915419345 1.3353590378990232 -1 0 0
1162 2 63.879759354147666 1.0224181123198016e-05 1.466630496148697 -1 0 0
1258 2 63.879759354147716 4.106947516542134 1.4666304961486933 -1 0 0
1166 4 68.1652965143667 1.0224181116050935e-05 1.4666304961487058 -1 0 0
1262 4 68.16529651436686 4.106947516542135 1.466630496148727 -1 0 0
1165 3 65.61066775860552 2.0534507740286108 1.5694243007714765 -1 0 0
1264 12 65.39647014064774 4.106926269565327 1.5248722726370783 -1 0 0
1171 9 67.13838370905808 2.0535093915419473 1.3353590378989841 -1 0 0
1170 2 72.4508336745854 1.0224181133803773e-05 1.4666304961486776 -1 0 0
1175 11 71.4239208692771 2.053509391541943 1.3353590378990123 -1 0 0
1266 2 72.45083367458545 4.106947516542137 1.4666304961487278 -1 0 0
1169 1 69.89620491882457 2.053450774028571 1.5694243007715187 -1 0 0
1173 3 74.18174207904362 2.053450774028575 1.5694243007714717 -1 0 0
1268 10 69.68200730086717 4.1069262695653475 1.5248722726371298 -1 0 0
1272 12 73.96754446108626 4.106926269565328 1.5248722726371062 -1 0 0
1174 4 76.73637083480465 1.0224181116001071e-05 1.4666304961486645 -1 0 0
1179 9 75.70945802949608 2.0535093915419442 1.3353590378989595 -1 0 0
1270 4 76.73637083480435 4.106947516542137 1.4666304961487167 -1 0 0
1177 1 78.46727923926257 2.0534507740285917 1.569424300771507 -1 0 0
1276 10 78.25308162130521 4.106926269565316 1.5248722726370951 -1 0 0
1183 11 79.99499518971511 2.0535093915419385 1.3353590378989972 -1 0 0
1178 2 81.02190799502372 1.0224181120043079e-05 1.4666304961487033 -1 0 0
1274 2 81.02190799502341 4.106947516542142 1.4666304961487318 -1 0 0
1182 4 85.30744515524246 1.0224181127861483e-05 1.4666304961486807 -1 0 0
1278 4 85.30744515524243 4.106947516542129 1.4666304961487215 -1 0 0
1181 3 82.75281639948157 2.0534507740286023 1.569424300771486 -1 0 0
1280 12 82.5386187815242 4.106926269565337 1.524872272637091 -1 0 0
1187 9 84.28053234993405 2.05350939154195 1.335359037899005 -1 0 0
1186 2 89.59298231546175 1.0224181115039452e-05 1.4666304961486765 -1 0 0
1191 11 88.5660695101531 2.0535093915419487 1.3353590378989757 -1 0 0
1282 2 89.59298231546148 4.106947516542152 1.4666304961487386 -1 0 0
1185 1 87.03835355970057 2.0534507740285792 1.569424300771466 -1 0 0
1189 3 91.32389071991959 2.0534507740285526 1.569424300771483 -1 0 0
1284 10 86.8241559417432 4.106926269565299 1.5248722726370822 -1 0 0
1288 12 91.10969310196212 4.10692626956536 1.5248722726370851 -1 0 0
1190 4 93.87851947568075 1.0224181131334147e-05 1.4666304961485617 -1 0 0
1195 9 92.85160667037206 2.0535093915419464 1.3353590378989775 -1 0 0
1286 4 93.87851947568049 4.106947516542132 1.4666304961487155 -1 0 0
1193 1 95.60942788013854 2.053450774028564 1.5694243007714848 -1 0 0
1292 10 95.39523026218104 4.1069262695653315 1.52487227263709 -1 0 0
1199 11 97.13714383059113 2.0535093915419202 1.3353590378990425 -1 0 0
1203 9 101.42268099081011 2.0535093915419464 1.3353590378990687 -1 0 0
1194 2 98.16405663589995 1.0224181124632939e-05 1.4666304961487548 -1 0 0
1290 2 98.16405663589957 4.106947516542141 1.4666304961486984 -1 0 0
1198 4 102.44959379611846 1.0224181124686344e-05 1.4666304961486192 -1 0 0
1294 4 102.44959379611868 4.106947516542131 1.466630496148729 -1 0 0
1197 3 99.8949650403575 2.0534507740286503 1.569424300771491 -1 0 0
1296 12 99.68076742239997 4.106926269565343 1.524872272637051 -1 0 0
1303 11 2.8553263057731075 6.160446683902891 1.3353590378992397 0 0 0
1394 2 3.882239111081715 8.213884808903194 1.4666304961486123 0 0 0
1399 11 2.8553263057731066 10.2673839762639 1.3353590378992297 0 0 0
1297 1 1.3276103553205774 6.160388066388758 1.5694243007716724 0 0 0
1301 3 5.613147515539573 6.1603880663887525 1.5694243007716404 0 0 0
1396 10 1.1134127373629235 8.213863561926411 1.524872272637011 0 0 0
1393 1 1.327610355320579 10.267325358749753 1.5694243007716848 0 0 0
1397 3 5.613147515539578 10.267325358749755 1.569424300771622 0 0 0
1400 12 5.3989498975819155 8.213863561926402 1.5248722726369932 0 0 0
1307 9 7.140863465992084 6.160446683902888 1.3353590378992448 0 0 0
1398 4 8.167776271300703 8.213884808903195 1.4666304961486232 0 0 0
1403 9 7.140863465992084 10.267383976263902 1.3353590378992242 0 0 0
1305 1 9.89868467575857 6.160388066388759 1.569424300771636 0 0 0
1404 10 9.684487057800917 8.21386356192641 1.5248722726370003 0 0 0
1401 1 9.898684675758565 10.267325358749757 1.569424300771617 0 0 0
1311 11 11.426400626211102 6.160446683902888 1.3353590378992488 0 0 0
1407 11 11.4264006262111 10.267383976263904 1.3353590378992295 0 0 0
1402 2 12.453313431519684 8.213884808903192 1.4666304961486163 0 0 0
1315 9 15.711937786430097 6.16044668390289 1.3353590378992384 0 0 0
1406 4 16.738850591738775 8.213884808903192 1.4666304961486236 0 0 0
1411 9 15.711937786430095 10.267383976263902 1.3353590378992195 0 0 0
1309 3 14.184221835977583 6.160388066388757 1.5694243007716386 0 0 0
1408 12 13.97002421801987 8.2138635619264 1.5248722726369954 0 0 0
1405 3 14.184221835977581 10.26732535874975 1.5694243007716215 0 0 0
1319 11 19.997474946649117 6.160446683902889 1.335359037899256 0 0 0
1410 2 21.024387751957715 8.213884808903195 1.4666304961486238 0 0 0
1415 11 19.997474946649103 10.267383976263902 1.3353590378992215 0 0 0
1313 1 18.469758996196582 6.160388066388758 1.5694243007716493 0 0 0
1317 3 22.755296156415582 6.160388066388748 1.5694243007716289 0 0 0
1412 10 18.255561378238895 8.213863561926393 1.524872272636998 0 0 0
1409 1 18.469758996196582 10.267325358749753 1.569424300771622 0 0 0
1413 3 22.75529615641559 10.267325358749739 1.569424300771621 0 0 0
1416 12 22.541098538457902 8.21386356192641 1.5248722726369974 0 0 0
1323 9 24.283012106868092 6.160446683902886 1.3353590378992433 0 0 0
1414 4 25.309924912176726 8.213884808903192 1.4666304961486163 0 0 0
1419 9 24.28301210686808 10.267383976263902 1.3353590378992304 0 0 0
1321 1 27.04083331663457 6.160388066388763 1.5694243007716449 0 0 0
1420 10 26.826635698676785 8.213863561926395 1.5248722726369957 0 0 0
1417 1 27.040833316634565 10.26732535874976 1.5694243007716158 0 0 0
1327 11 28.568549267087086 6.160446683902892 1.3353590378992595 0 0 0
1423 11 28.568549267087096 10.267383976263906 1.335359037899229 0 0 0
1418 2 29.59546207239579 8.213884808903188 1.4666304961486067 0 0 0
1422 4 33.88099923261484 8.213884808903194 1.466630496148629 0 0 0
1325 3 31.326370476853572 6.1603880663887605 1.5694243007716389 0 0 0
1424 12 31.112172858895768 8.213863561926374 1.5248722726369817 0 0 0
1421 3 31.326370476853583 10.267325358749785 1.5694243007716142 0 0 0
1331 9 32.85408642730608 6.160446683902893 1.3353590378992644 0 0 0
1427 9 32.8540864273061 10.267383976263899 1.3353590378992342 0 0 0
1335 11 37.13962358752508 6.16044668390289 1.3353590378992612 0 0 0
1426 2 38.166536392833784 8.213884808903195 1.4666304961486232 0 0 0
1431 11 37.13962358752509 10.267383976263906 1.3353590378992408 0 0 0
1329 1 35.61190763707257 6.160388066388733 1.5694243007716313 0 0 0
1333 3 39.89744479729157 6.160388066388736 1.5694243007716333 0 0 0
1428 10 35.39771001911479 8.213863561926404 1.52487227263699 0 0 0
1425 1 35.611907637072584 10.267325358749767 1.5694243007716138 0 0 0
1429 3 39.89744479729157 10.267325358749757 1.5694243007716115 0 0 0
1432 12 39.68324717933382 8.213863561926402 1.5248722726369957 0 0 0
1339 9 41.425160747744094 6.160446683902888 1.3353590378992806 0 0 0
1430 4 42.45207355305277 8.213884808903195 1.4666304961486163 0 0 0
1435 9 41.42516074774409 10.2673839762639 1.3353590378992182 0 0 0
1337 1 44.18298195751056 6.160388066388741 1.569424300771617 0 0 0
1436 10 43.968784339552755 8.213863561926418 1.524872272637 0 0 0
1433 1 44.18298195751057 10.267325358749753 1.5694243007716286 0 0 0
1343 11 45.710697907963095 6.160446683902883 1.3353590378992406 0 0 0
1439 11 45.71069790796311 10.267383976263902 1.335359037899234 0 0 0
1434 2 46.73761071327184 8.213884808903188 1.4666304961485737 0 0 0
1438 4 51.02314787349091 8.213884808903195 1.46663049614863 0 0 0
1341 3 48.468519117729564 6.1603880663887605 1.569424300771647 0 0 0
1440 12 48.25432149977165 8.213863561926388 1.5248722726369766 0 0 0
1437 3 48.46851911772957 10.267325358749748 1.5694243007716064 0 0 0
1251 9 49.99623506818211 6.1604466839028875 1.335359037899299 -1 0 0
1347 9 49.996235068182095 10.267383976263906 1.3353590378992624 -1 0 0
1255 11 54.281772228401096 6.160446683902895 1.3353590378992608 -1 0 0
1346 2 55.30868503370978 8.213884808903197 1.4666304961486534 -1 0 0
1351 11 54.281772228401074 10.267383976263899 1.335359037899273 -1 0 0
1249 1 52.75405627794855 6.160388066388765 1.5694243007716207 -1 0 0
1253 3 57.03959343816756 6.160388066388726 1.5694243007716342 -1 0 0
1348 10 52.5398586599908 8.213863561926408 1.524872272637 -1 0 0
1345 1 52.75405627794854 10.267325358749737 1.5694243007716215 -1 0 0
1349 3 57.039593438167564 10.267325358749762 1.5694243007715964 -1 0 0
1352 12 56.82539582021005 8.213863561926411 1.5248722726370143 -1 0 0
1259 9 58.5673093886201 6.160446683902882 1.3353590378992466 -1 0 0
1350 4 59.59422219392856 8.213884808903195 1.4666304961486163 -1 0 0
1355 9 58.56730938862009 10.267383976263906 1.3353590378992344 -1 0 0
1257 1 61.325130598386586 6.1603880663887525 1.5694243007716095 -1 0 0
1356 10 61.110932980428856 8.213863561926415 1.5248722726369832 -1 0 0
1353 1 61.32513059838658 10.267325358749755 1.5694243007716087 -1 0 0
1263 11 62.852846548839096 6.1604466839028955 1.3353590378991598 -1 0 0
1359 11 62.85284654883908 10.267383976263902 1.3353590378992073 -1 0 0
1354 2 63.87975935414779 8.213884808903192 1.4666304961486432 -1 0 0
1358 4 68.16529651436663 8.2138848089032 1.4666304961486962 -1 0 0
1261 3 65.6106677586056 6.16038806638875 1.5694243007716417 -1 0 0
1360 12 65.39647014064803 8.213863561926408 1.5248722726370147 -1 0 0
1357 3 65.6106677586056 10.26732535874974 1.5694243007715916 -1 0 0
1267 9 67.1383837090581 6.16044668390289 1.335359037899136 -1 0 0
1363 9 67.13838370905803 10.2673839762639 1.3353590378990474 -1 0 0
1271 11 71.42392086927718 6.160446683902887 1.335359037899149 -1 0 0
1362 2 72.4508336745853 8.213884808903194 1.466630496148568 -1 0 0
1367 11 71.42392086927714 10.267383976263906 1.3353590378990705 -1 0 0
1265 1 69.89620491882457 6.160388066388773 1.5694243007717186 -1 0 0
1269 3 74.18174207904357 6.160388066388772 1.5694243007716726 -1 0 0
1364 10 69.68200730086727 8.213863561926415 1.524872272637103 -1 0 0
1361 1 69.89620491882464 10.267325358749744 1.569424300771704 -1 0 0
1365 3 74.18174207904362 10.267325358749751 1.569424300771671 -1 0 0
1368 12 73.96754446108633 8.21386356192639 1.5248722726370156 -1 0 0
1275 9 75.70945802949612 6.160446683902896 1.335359037899156 -1 0 0
1366 4 76.73637083480439 8.213884808903195 1.4666304961486272 -1 0 0
1371 9 75.70945802949612 10.2673839762639 1.335359037899127 -1 0 0
1273 1 78.46727923926258 6.160388066388749 1.569424300771673 -1 0 0
1372 10 78.2530816213052 8.213863561926413 1.5248722726370314 -1 0 0
1369 1 78.46727923926251 10.26732535874975 1.5694243007716686 -1 0 0
1279 11 79.99499518971513 6.160446683902889 1.335359037899176 -1 0 0
1375 11 79.99499518971511 10.267383976263899 1.335359037899136 -1 0 0
1370 2 81.02190799502348 8.213884808903195 1.4666304961486587 -1 0 0
1374 4 85.30744515524243 8.21388480890319 1.4666304961486323 -1 0 0
1277 3 82.75281639948155 6.160388066388756 1.5694243007716635 -1 0 0
1376 12 82.5386187815242 8.213863561926418 1.5248722726370376 -1 0 0
1373 3 82.75281639948165 10.26732535874976 1.5694243007716242 -1 0 0
1283 9 84.2805323499341 6.160446683902894 1.335359037899196 -1 0 0
1379 9 84.28053234993408 10.267383976263895 1.3353590378990607 -1 0 0
1287 11 88.56606951015306 6.16044668390289 1.3353590378991977 -1 0 0
1378 2 89.5929823154614 8.213884808903185 1.4666304961486443 -1 0 0
1383 11 88.56606951015316 10.2673839762639 1.3353590378992375 -1 0 0
1281 1 87.03835355970052 6.160388066388744 1.5694243007716564 -1 0 0
1285 3 91.32389071991959 6.160388066388733 1.5694243007716389 -1 0 0
1380 10 86.82415594174323 8.213863561926408 1.5248722726370514 -1 0 0
1377 1 87.03835355970051 10.2673253587498 1.5694243007717223 -1 0 0
1381 3 91.32389071991958 10.267325358749808 1.5694243007716044 -1 0 0
1384 12 91.10969310196198 8.21386356192635 1.524872272637026 -1 0 0
1291 9 92.8516066703721 6.1604466839028875 1.3353590378990918 -1 0 0
1382 4 93.87851947568066 8.213884808903199 1.466630496148635 -1 0 0
1387 9 92.85160667037206 10.267383976263908 1.3353590378992115 -1 0 0
1289 1 95.60942788013854 6.16038806638876 1.5694243007717157 -1 0 0
1388 10 95.39523026218106 8.213863561926408 1.5248722726370478 -1 0 0
1385 1 95.60942788013858 10.26732535874974 1.5694243007715987 -1 0 0
1295 11 97.13714383059111 6.160446683902901 1.335359037899189 -1 0 0
1391 11 97.13714383059114 10.267383976263897 1.3353590378990912 -1 0 0
1299 9 101.42268099081014 6.1604466839028875 1.3353590378991993 -1 0 0
1395 9 101.42268099081014 10.267383976263899 1.3353590378991524 -1 0 0
1386 2 98.16405663589963 8.213884808903199 1.4666304961486358 -1 0 0
1390 4 102.44959379611858 8.213884808903197 1.466630496148621 -1 0 0
1293 3 99.89496504035763 6.160388066388708 1.5694243007716446 -1 0 0
1392 12 99.68076742240004 8.21386356192642 1.5248722726369945 -1 0 0
1389 3 99.89496504035762 10.267325358749769 1.5694243007716593 -1 0 0
1490 2 3.882239111081643 12.320822101264227 1.466630496148664 0 0 0
1495 11 2.855326305773096 14.374321268624957 1.3353590378992641 0 0 0
1586 2 3.882239111081794 16.427759393625163 1.4666304961485384 0 0 0
1492 10 1.1134127373629745 12.320800854287572 1.5248722726370454 0 0 0
1489 1 1.327610355320607 14.374262651110389 1.5694243007716475 0 0 0
1493 3 5.613147515539569 14.374262651110406 1.5694243007716184 0 0 0
1588 10 1.1134127373628901 16.42773814664854 1.5248722726369268 0 0 0
1496 12 5.398949897581882 12.320800854287583 1.5248722726370258 0 0 0
1592 12 5.398949897581944 16.427738146648522 1.5248722726369386 0 0 0
1494 4 8.16777627130072 12.320822101264225 1.4666304961486634 0 0 0
1499 9 7.1408634659920915 14.374321268624954 1.3353590378992348 0 0 0
1590 4 8.167776271300701 16.427759393625166 1.4666304961485426 0 0 0
1500 10 9.684487057800867 12.320800854287572 1.5248722726370274 0 0 0
1497 1 9.89868467575857 14.374262651110401 1.5694243007716382 0 0 0
1596 10 9.684487057800919 16.427738146648522 1.5248722726369437 0 0 0
1503 11 11.426400626211104 14.374321268624954 1.335359037899253 0 0 0
1498 2 12.453313431519724 12.320822101264227 1.4666304961486893 0 0 0
1594 2 12.453313431519703 16.427759393625163 1.4666304961485395 0 0 0
1502 4 16.738850591738665 12.320822101264227 1.4666304961486882 0 0 0
1507 9 15.711937786430084 14.374321268624955 1.335359037899257 0 0 0
1598 4 16.738850591738764 16.427759393625166 1.466630496148544 0 0 0
1504 12 13.970024218019974 12.320800854287583 1.524872272637044 0 0 0
1501 3 14.18422183597758 14.374262651110408 1.5694243007716429 0 0 0
1600 12 13.970024218019903 16.42773814664852 1.5248722726369424 0 0 0
1506 2 21.024387751957665 12.320822101264227 1.4666304961486785 0 0 0
1511 11 19.997474946649113 14.374321268624954 1.3353590378992726 0 0 0
1602 2 21.024387751957747 16.427759393625166 1.4666304961485352 0 0 0
1508 10 18.255561378238934 12.320800854287585 1.5248722726370318 0 0 0
1505 1 18.46975899619656 14.3742626511104 1.5694243007716397 0 0 0
1509 3 22.755296156415575 14.374262651110406 1.5694243007716173 0 0 0
1604 10 18.255561378238884 16.42773814664852 1.5248722726369424 0 0 0
1512 12 22.54109853845787 12.32080085428757 1.5248722726370338 0 0 0
1608 12 22.541098538457803 16.427738146648544 1.524872272636936 0 0 0
1510 4 25.30992491217674 12.320822101264227 1.466630496148673 0 0 0
1515 9 24.283012106868085 14.374321268624955 1.335359037899255 0 0 0
1606 4 25.309924912176843 16.427759393625163 1.466630496148551 0 0 0
1516 10 26.826635698676814 12.320800854287576 1.5248722726370432 0 0 0
1513 1 27.04083331663458 14.374262651110408 1.5694243007716295 0 0 0
1612 10 26.826635698676874 16.42773814664853 1.524872272636955 0 0 0
1519 11 28.568549267087104 14.374321268624954 1.335359037899246 0 0 0
1514 2 29.595462072395765 12.320822101264222 1.4666304961486751 0 0 0
1610 2 29.595462072395726 16.427759393625166 1.4666304961485452 0 0 0
1518 4 33.88099923261469 12.320822101264222 1.4666304961486505 0 0 0
1614 4 33.88099923261471 16.427759393625163 1.4666304961485568 0 0 0
1520 12 31.11217285889592 12.320800854287567 1.5248722726370343 0 0 0
1517 3 31.32637047685357 14.37426265111041 1.5694243007716306 0 0 0
1616 12 31.112172858895935 16.427738146648526 1.524872272636932 0 0 0
1523 9 32.85408642730609 14.374321268624959 1.335359037899241 0 0 0
1522 2 38.16653639283384 12.320822101264223 1.4666304961486885 0 0 0
1527 11 37.1396235875251 14.374321268624954 1.3353590378992692 0 0 0
1618 2 38.16653639283366 16.427759393625166 1.4666304961485555 0 0 0
1524 10 35.39771001911473 12.320800854287567 1.5248722726370116 0 0 0
1521 1 35.61190763707257 14.374262651110412 1.5694243007716397 0 0 0
1525 3 39.89744479729159 14.374262651110406 1.56942430077163 0 0 0
1620 10 35.397710019115 16.42773814664852 1.5248722726369524 0 0 0
1528 12 39.68324717933383 12.320800854287574 1.524872272637042 0 0 0
1624 12 39.6832471793339 16.42773814664852 1.5248722726369257 0 0 0
1526 4 42.45207355305276 12.320822101264225 1.4666304961486663 0 0 0
1531 9 41.425160747744094 14.374321268624955 1.3353590378992788 0 0 0
1622 4 42.45207355305271 16.427759393625163 1.4666304961485614 0 0 0
1532 10 43.9687843395528 12.320800854287574 1.5248722726370325 0 0 0
1529 1 44.18298195751055 14.374262651110394 1.5694243007716284 0 0 0
1628 10 43.968784339552954 16.427738146648526 1.524872272636942 0 0 0
1535 11 45.71069790796304 14.374321268624952 1.3353590378992695 0 0 0
1530 2 46.73761071327179 12.320822101264227 1.4666304961486665 0 0 0
1626 2 46.73761071327169 16.42775939362516 1.4666304961485546 0 0 0
1534 4 51.02314787349082 12.32082210126422 1.4666304961486878 0 0 0
1630 4 51.023147873490785 16.427759393625166 1.4666304961485308 0 0 0
1536 12 48.25432149977177 12.320800854287583 1.524872272637029 0 0 0
1533 3 48.468519117729585 14.37426265111042 1.5694243007716162 0 0 0
1632 12 48.25432149977185 16.427738146648533 1.5248722726369373 0 0 0
1443 9 49.996235068182116 14.374321268624954 1.335359037899236 -1 0 0
1442 2 55.30868503370963 12.320822101264223 1.4666304961486643 -1 0 0
1447 11 54.281772228401074 14.37432126862496 1.3353590378992641 -1 0 0
1538 2 55.308685033709665 16.427759393625163 1.466630496148604 -1 0 0
1444 10 52.539858659990934 12.320800854287556 1.5248722726370565 -1 0 0
1441 1 52.754056277948585 14.374262651110428 1.5694243007716435 -1 0 0
1445 3 57.03959343816757 14.374262651110412 1.569424300771632 -1 0 0
1540 10 52.539858659991005 16.42773814664853 1.5248722726369357 -1 0 0
1448 12 56.82539582020981 12.320800854287576 1.5248722726370274 -1 0 0
1544 12 56.82539582021003 16.42773814664852 1.5248722726369723 -1 0 0
1446 4 59.594222193928765 12.320822101264218 1.46663049614868 -1 0 0
1451 9 58.5673093886201 14.374321268624952 1.3353590378992386 -1 0 0
1542 4 59.594222193928566 16.427759393625166 1.4666304961485035 -1 0 0
1452 10 61.110932980428906 12.320800854287544 1.5248722726370485 -1 0 0
1449 1 61.32513059838656 14.374262651110396 1.5694243007716138 -1 0 0
1548 10 61.110932980428785 16.427738146648576 1.5248722726369197 -1 0 0
1455 11 62.85284654883906 14.374321268624954 1.3353590378991997 -1 0 0
1450 2 63.879759354147716 12.32082210126423 1.4666304961486882 -1 0 0
1546 2 63.87975935414788 16.42775939362516 1.4666304961485659 -1 0 0
1454 4 68.16529651436666 12.320822101264223 1.4666304961487302 -1 0 0
1550 4 68.16529651436662 16.427759393625166 1.466630496148539 -1 0 0
1456 12 65.39647014064796 12.320800854287574 1.5248722726370476 -1 0 0
1453 3 65.61066775860559 14.374262651110405 1.569424300771627 -1 0 0
1552 12 65.396470140648 16.427738146648537 1.5248722726369943 -1 0 0
1459 9 67.13838370905808 14.37432126862495 1.335359037899091 -1 0 0
1458 2 72.45083367458541 12.320822101264225 1.4666304961486256 -1 0 0
1463 11 71.42392086927717 14.374321268624957 1.3353590378991855 -1 0 0
1554 2 72.45083367458558 16.427759393625166 1.4666304961485386 -1 0 0
1460 10 69.68200730086717 12.32080085428756 1.5248722726371173 -1 0 0
1457 1 69.89620491882454 14.374262651110401 1.5694243007717152 -1 0 0
1461 3 74.18174207904356 14.374262651110362 1.5694243007716528 -1 0 0
1556 10 69.68200730086707 16.427738146648533 1.5248722726370139 -1 0 0
1464 12 73.96754446108605 12.320800854287572 1.524872272637072 -1 0 0
1560 12 73.96754446108604 16.42773814664855 1.5248722726369894 -1 0 0
1462 4 76.73637083480466 12.320822101264229 1.4666304961486718 -1 0 0
1467 9 75.70945802949608 14.374321268624954 1.3353590378991689 -1 0 0
1558 4 76.73637083480463 16.427759393625156 1.4666304961485233 -1 0 0
1468 10 78.253081621305 12.320800854287581 1.5248722726370842 -1 0 0
1465 1 78.46727923926258 14.374262651110383 1.5694243007716528 -1 0 0
1564 10 78.25308162130506 16.427738146648522 1.524872272636988 -1 0 0
1471 11 79.99499518971513 14.374321268624955 1.3353590378991156 -1 0 0
1466 2 81.02190799502358 12.320822101264222 1.466630496148627 -1 0 0
1562 2 81.02190799502365 16.427759393625166 1.4666304961485126 -1 0 0
1470 4 85.30744515524256 12.32082210126423 1.4666304961486898 -1 0 0
1566 4 85.30744515524277 16.427759393625152 1.4666304961485304 -1 0 0
1472 12 82.53861878152406 12.320800854287546 1.5248722726370354 -1 0 0
1469 3 82.75281639948157 14.374262651110406 1.5694243007716833 -1 0 0
1568 12 82.53861878152387 16.42773814664853 1.5248722726369623 -1 0 0
1475 9 84.28053234993408 14.374321268624952 1.335359037899224 -1 0 0
1474 2 89.59298231546148 12.320822101264225 1.4666304961487022 -1 0 0
1479 11 88.56606951015314 14.374321268624968 1.3353590378992253 -1 0 0
1570 2 89.59298231546178 16.427759393625173 1.4666304961485535 -1 0 0
1476 10 86.8241559417431 12.320800854287576 1.5248722726370683 -1 0 0
1473 1 87.03835355970055 14.374262651110396 1.5694243007716473 -1 0 0
1477 3 91.32389071991956 14.374262651110353 1.569424300771619 -1 0 0
1572 10 86.82415594174292 16.427738146648526 1.5248722726369868 -1 0 0
1480 12 91.10969310196188 12.320800854287588 1.52487227263707 -1 0 0
1576 12 91.10969310196207 16.427738146648544 1.524872272636982 -1 0 0
1478 4 93.87851947568076 12.320822101264218 1.4666304961487022 -1 0 0
1483 9 92.85160667037208 14.374321268624945 1.335359037899135 -1 0 0
1574 4 93.8785194756806 16.427759393625166 1.4666304961485703 -1 0 0
1484 10 95.39523026218106 12.320800854287576 1.5248722726370694 -1 0 0
1481 1 95.60942788013858 14.374262651110447 1.5694243007716688 -1 0 0
1580 10 95.3952302621811 16.42773814664851 1.5248722726370143 -1 0 0
1487 11 97.13714383059111 14.374321268624954 1.3353590378990752 -1 0 0
1491 9 101.42268099081012 14.374321268624954 1.3353590378992377 -1 0 0
1482 2 98.16405663589954 12.320822101264211 1.4666304961486403 -1 0 0
1578 2 98.16405663589954 16.427759393625163 1.466630496148515 -1 0 0
1486 4 102.44959379611869 12.320822101264227 1.4666304961486416 -1 0 0
1582 4 102.4495937961186 16.427759393625163 1.466630496148488 -1 0 0
1488 12 99.68076742239992 12.320800854287535 1.5248722726370734 -1 0 0
1485 3 99.89496504035758 14.374262651110389 1.569424300771728 -1 0 0
1584 12 99.68076742240007 16.427738146648558 1.5248722726369852 -1 0 0
1591 11 2.8553263057731146 18.48125856098586 1.3353590378993028 0 0 0
1682 2 3.8822391110817533 20.534696685986116 1.4666304961485868 0 0 0
1687 11 2.8553263057731004 22.588195853346893 1.3353590378992717 0 0 0
1585 1 1.327610355320598 18.481199943472124 1.5694243007717292 0 0 0
1589 3 5.613147515539571 18.48119994347215 1.5694243007716893 0 0 0
1684 10 1.1134127373629077 20.534675439009 1.5248722726369868 0 0 0
1681 1 1.3276103553205847 22.588137235833404 1.5694243007716526 0 0 0
1685 3 5.613147515539573 22.588137235833354 1.5694243007716224 0 0 0
1688 12 5.398949897581827 20.534675439008982 1.5248722726369786 0 0 0
1595 9 7.140863465992091 18.481258560985868 1.3353590378993012 0 0 0
1686 4 8.16777627130079 20.534696685986123 1.466630496148608 0 0 0
1691 9 7.14086346599209 22.588195853346893 1.33535903789925 0 0 0
1593 1 9.898684675758567 18.481199943472138 1.5694243007716877 0 0 0
1692 10 9.684487057800872 20.53467543900898 1.5248722726369899 0 0 0
1689 1 9.898684675758572 22.588137235833347 1.5694243007716338 0 0 0
1599 11 11.42640062621111 18.48125856098587 1.3353590378993057 0 0 0
1695 11 11.426400626211098 22.588195853346893 1.3353590378992584 0 0 0
1690 2 12.45331343151973 20.534696685986127 1.4666304961486292 0 0 0