LAMMPS data file via write_data, version 29 Aug 2024, timestep = 60, units = metal

6912 atoms
24 atom types

0 102.852891845256 xlo xhi
0 98.566495016664 ylo yhi
-50 50 zlo zhi

Masses

1 28.085
2 28.085
3 28.085
4 28.085
5 28.085
6 28.085
7 28.085
8 28.085
9 28.085
10 28.085
11 28.085
12 28.085
13 127.6
14 127.6
15 127.6
16 127.6
17 127.6
18 127.6
19 127.6
20 127.6
21 127.6
22 127.6
23 127.6
24 127.6

Atoms # atomic

1202 2 3.787179758762481 2.2747002784051046e-05 1.5536913730600088 0 0 0
1207 15 2.9126107244805226 2.053505123782921 1.4226542850485289 0 0 0
1298 2 3.787179758762379 4.106960039363797 1.5536913730599762 0 0 0
1201 1 1.3968805165602312 2.0534084500062817 1.572771981291008 0 0 0
1205 3 5.682417676779264 2.0534084500062777 1.5727719812910137 0 0 0
1300 14 1.0143799730296275 4.106971169148702 1.4830946498273136 0 0 0
1304 16 5.299917133248569 4.106971169148698 1.4830946498273092 0 0 0
1204 14 1.0143799730295435 3.3876787494621236e-05 1.483094649827353 0 0 0
1208 16 5.299917133248581 3.387678748405184e-05 1.4830946498273476 0 0 0
1206 4 8.072716918981461 2.2747002785036447e-05 1.5536913730600235 0 0 0
1211 13 7.1981478846995195 2.0535051237829207 1.4226542850485426 0 0 0
1302 4 8.072716918981452 4.106960039363787 1.5536913730599742 0 0 0
1209 1 9.967954836998246 2.0534084500062835 1.5727719812910144 0 0 0
1308 14 9.585454293467578 4.106971169148701 1.4830946498273057 0 0 0
1212 14 9.585454293467581 3.387678748323475e-05 1.4830946498273565 0 0 0
1210 2 12.358254079200442 2.2747002783511456e-05 1.5536913730600173 0 0 0
1306 2 12.358254079200425 4.1069600393637895 1.5536913730599817 0 0 0
1215 15 11.483685044918527 2.053505123782922 1.4226542850485435 0 0 0
1214 4 16.64379123941947 2.2747002783048827e-05 1.5536913730600257 0 0 0
1219 13 15.769222205137515 2.053505123782923 1.4226542850485335 0 0 0
1310 4 16.643791239419453 4.106960039363794 1.5536913730599797 0 0 0
1213 3 14.253491997217242 2.0534084500062786 1.5727719812910055 0 0 0
1312 16 13.870991453686589 4.106971169148703 1.4830946498273123 0 0 0
1216 16 13.870991453686573 3.387678748354869e-05 1.483094649827352 0 0 0
1218 2 20.92932839963848 2.2747002788263365e-05 1.5536913730600177 0 0 0
1223 15 20.05475936535657 2.053505123782922 1.4226542850485553 0 0 0
1314 2 20.929328399638425 4.106960039363782 1.5536913730599715 0 0 0
1217 1 18.53902915743625 2.0534084500062693 1.57277198129103 0 0 0
1221 3 22.824566317655222 2.0534084500062706 1.5727719812910077 0 0 0
1316 14 18.15652861390557 4.106971169148704 1.483094649827317 0 0 0
1320 16 22.442065774124565 4.106971169148697 1.4830946498273019 0 0 0
1220 14 18.156528613905557 3.387678749066527e-05 1.4830946498273654 0 0 0
1224 16 22.44206577412461 3.387678749270563e-05 1.483094649827349 0 0 0
1222 4 25.214865559857433 2.274700278496521e-05 1.553691373060012 0 0 0
1227 13 24.340296525575525 2.0535051237829234 1.4226542850485386 0 0 0
1318 4 25.214865559857472 4.106960039363793 1.553691373059976 0 0 0
1225 1 27.11010347787424 2.0534084500062733 1.5727719812910055 0 0 0
1324 14 26.727602934343558 4.106971169148707 1.483094649827304 0 0 0
1228 14 26.727602934343548 3.387678749289472e-05 1.483094649827342 0 0 0
1226 2 29.5004027200765 2.2747002786985656e-05 1.5536913730600188 0 0 0
1322 2 29.50040272007648 4.10696003936379 1.553691373059975 0 0 0
1231 15 28.625833685794447 2.053505123782923 1.4226542850485306 0 0 0
1230 4 33.78593988029543 2.2747002783478896e-05 1.5536913730600157 0 0 0
1326 4 33.78593988029545 4.106960039363791 1.5536913730599788 0 0 0
1229 3 31.395640638093315 2.0534084500062852 1.572771981291008 0 0 0
1328 16 31.013140094562576 4.106971169148693 1.4830946498273034 0 0 0
1235 13 32.91137084601352 2.0535051237829234 1.4226542850485295 0 0 0
1232 16 31.01314009456259 3.387678747754417e-05 1.4830946498273547 0 0 0
1234 2 38.07147704051441 2.2747002787518976e-05 1.5536913730600164 0 0 0
1239 15 37.196908006232626 2.053505123782924 1.4226542850485493 0 0 0
1330 2 38.0714770405143 4.106960039363793 1.5536913730599848 0 0 0
1233 1 35.68117779831227 2.0534084500062826 1.5727719812910175 0 0 0
1237 3 39.96671495853116 2.053408450006259 1.5727719812910101 0 0 0
1332 14 35.2986772547817 4.106971169148693 1.4830946498273159 0 0 0
1336 16 39.584214415000496 4.106971169148705 1.4830946498273194 0 0 0
1236 14 35.29867725478161 3.3876787494663106e-05 1.4830946498273576 0 0 0
1240 16 39.58421441500054 3.387678751201645e-05 1.4830946498273503 0 0 0
1238 4 42.357014200733474 2.2747002790985963e-05 1.5536913730600164 0 0 0
1243 13 41.48244516645153 2.05350512378292 1.4226542850485406 0 0 0
1334 4 42.3570142007335 4.106960039363795 1.5536913730599686 0 0 0
1241 1 44.252252118750214 2.0534084500062675 1.572771981290992 0 0 0
1340 14 43.86975157521958 4.10697116914871 1.4830946498272919 0 0 0
1244 14 43.869751575219546 3.3876787494504846e-05 1.4830946498273443 0 0 0
1242 2 46.64255136095248 2.274700278835193e-05 1.5536913730600257 0 0 0
1338 2 46.64255136095245 4.106960039363791 1.5536913730599753 0 0 0
1247 15 45.76798232667052 2.053505123782925 1.422654285048525 0 0 0
1246 4 50.92808852117144 2.274700278729832e-05 1.553691373060016 0 0 0
1342 4 50.92808852117145 4.106960039363799 1.5536913730599877 0 0 0
1245 3 48.53778927896918 2.053408450006265 1.5727719812910268 0 0 0
1344 16 48.15528873543855 4.106971169148683 1.4830946498273125 0 0 0
1155 13 50.053519486889556 2.053505123782922 1.4226542850485544 -1 0 0
1248 16 48.15528873543857 3.3876787498588514e-05 1.483094649827367 0 0 0
1154 2 55.21362568139047 2.2747002782385187e-05 1.553691373060002 -1 0 0
1159 15 54.33905664710849 2.053505123782924 1.4226542850485155 -1 0 0
1250 2 55.21362568139044 4.106960039363796 1.5536913730599542 -1 0 0
1153 1 52.82332643918821 2.053408450006284 1.5727719812909957 -1 0 0
1157 3 57.10886359940728 2.0534084500062764 1.5727719812910073 -1 0 0
1252 14 52.44082589565756 4.106971169148721 1.483094649827315 -1 0 0
1256 16 56.72636305587662 4.10697116914868 1.4830946498272775 -1 0 0
1156 14 52.44082589565756 3.3876787491356344e-05 1.4830946498273434 -1 0 0
1160 16 56.72636305587654 3.387678747860135e-05 1.4830946498273354 -1 0 0
1158 4 59.499162841609476 2.2747002786312716e-05 1.553691373060028 -1 0 0
1163 13 58.624593807327535 2.053505123782926 1.42265428504855 -1 0 0
1254 4 59.49916284160938 4.106960039363784 1.5536913730599924 -1 0 0
1161 1 61.39440075962621 2.0534084500062777 1.57277198129104 -1 0 0
1260 14 61.011900216095626 4.1069711691487045 1.4830946498273343 -1 0 0
1164 14 61.01190021609566 3.387678749419821e-05 1.4830946498273656 -1 0 0
1162 2 63.78470000182833 2.27470027992584e-05 1.5536913730600128 -1 0 0
1258 2 63.7847000018284 4.106960039363788 1.5536913730599882 -1 0 0
1167 15 62.91013096754667 2.0535051237829243 1.4226542850485773 -1 0 0
1166 4 68.0702371620473 2.274700277634265e-05 1.5536913730600324 -1 0 0
1262 4 68.07023716204745 4.1069600393637975 1.5536913730599613 -1 0 0
1165 3 65.67993791984513 2.0534084500062724 1.5727719812909824 -1 0 0
1264 16 65.29743737631453 4.106971169148726 1.4830946498273045 -1 0 0
1171 13 67.19566812776536 2.053505123782919 1.4226542850485109 -1 0 0
1168 16 65.29743737631475 3.387678746809298e-05 1.4830946498273534 -1 0 0
1170 2 72.3557743222665 2.274700277692123e-05 1.5536913730599922 -1 0 0
1175 15 71.48120528798428 2.0535051237829274 1.422654285048492 -1 0 0
1266 2 72.35577432226636 4.106960039363795 1.5536913730599828 -1 0 0
1169 1 69.96547508006445 2.053408450006255 1.5727719812910081 -1 0 0
1173 3 74.25101224028344 2.0534084500062972 1.5727719812910255 -1 0 0
1268 14 69.58297453653365 4.106971169148695 1.4830946498272943 -1 0 0
1272 16 73.86851169675278 4.106971169148694 1.4830946498273276 -1 0 0
1172 14 69.58297453653351 3.387678750696509e-05 1.4830946498273563 -1 0 0
1176 16 73.86851169675289 3.3876787468334e-05 1.4830946498273374 -1 0 0
1174 4 76.64131148248518 2.27470027862285e-05 1.5536913730600124 -1 0 0
1179 13 75.76674244820352 2.0535051237829234 1.4226542850485413 -1 0 0
1270 4 76.6413114824852 4.106960039363795 1.5536913730599786 -1 0 0
1177 1 78.53654940050221 2.0534084500062826 1.572771981290992 -1 0 0
1276 14 78.15404885697158 4.10697116914871 1.4830946498273008 -1 0 0
1180 14 78.15404885697171 3.387678747962328e-05 1.483094649827351 -1 0 0
1178 2 80.92684864270427 2.2747002777853838e-05 1.5536913730600164 -1 0 0
1274 2 80.92684864270443 4.106960039363788 1.553691373059995 -1 0 0
1183 15 80.0522796084224 2.0535051237829207 1.4226542850485164 -1 0 0
1182 4 85.21238580292352 2.2747002778629046e-05 1.5536913730600375 -1 0 0
1278 4 85.21238580292342 4.106960039363789 1.553691373059986 -1 0 0
1181 3 82.82208656072133 2.0534084500062844 1.572771981291047 -1 0 0
1280 16 82.4395860171905 4.106971169148697 1.483094649827332 -1 0 0
1187 13 84.33781676864139 2.053505123782915 1.4226542850485606 -1 0 0
1184 16 82.43958601719054 3.387678749094404e-05 1.4830946498273592 -1 0 0
1186 2 89.49792296314232 2.2747002774766732e-05 1.553691373060027 -1 0 0
1191 15 88.62335392886031 2.0535051237829127 1.4226542850485204 -1 0 0
1282 2 89.49792296314253 4.1069600393638 1.5536913730599813 -1 0 0
1185 1 87.10762372094035 2.053408450006271 1.5727719812910237 -1 0 0
1189 3 91.3931608811594 2.0534084500062812 1.5727719812910046 -1 0 0
1284 14 86.72512317740954 4.1069711691487125 1.4830946498273159 -1 0 0
1288 16 91.01066033762844 4.106971169148711 1.483094649827304 -1 0 0
1188 14 86.72512317740976 3.3876787488778084e-05 1.4830946498273787 -1 0 0
1192 16 91.01066033762835 3.387678750005442e-05 1.4830946498273532 -1 0 0
1190 4 93.78346012336166 2.2747002783967458e-05 1.5536913730600168 -1 0 0
1195 13 92.9088910890795 2.0535051237829256 1.4226542850485038 -1 0 0
1286 4 93.7834601233615 4.106960039363799 1.5536913730599464 -1 0 0
1193 1 95.6786980413783 2.05340845000627 1.5727719812910008 -1 0 0
1292 14 95.29619749784747 4.106971169148692 1.4830946498272755 -1 0 0
1196 14 95.29619749784759 3.3876787484039666e-05 1.4830946498273576 -1 0 0
1203 13 101.47996540951756 2.0535051237829203 1.422654285048565 -1 0 0
1194 2 98.06899728358043 2.2747002786838645e-05 1.5536913730600368 -1 0 0
1290 2 98.06899728358057 4.106960039363813 1.5536913730599875 -1 0 0
1199 15 97.19442824929843 2.0535051237829207 1.4226542850485222 -1 0 0
1198 4 102.35453444379941 2.274700279773089e-05 1.5536913730600228 -1 0 0
1294 4 102.35453444379945 4.106960039363786 1.5536913730599817 -1 0 0
1197 3 99.96423520159745 2.0534084500062972 1.5727719812910455 -1 0 0
1296 16 99.58173465806661 4.106971169148699 1.4830946498273152 -1 0 0
1200 16 99.58173465806664 3.387678748574618e-05 1.483094649827377 -1 0 0
1303 15 2.9126107244805497 6.1604424161439 1.4226542850485706 0 0 0
1394 2 3.7871797587624245 8.21389733172476 1.5536913730599737 0 0 0
1399 15 2.9126107244805395 10.267379708504903 1.4226542850485546 0 0 0
1297 1 1.3968805165602782 6.160345742367341 1.5727719812910372 0 0 0
1301 3 5.682417676779254 6.160345742367347 1.5727719812910224 0 0 0
1396 14 1.0143799730295753 8.213908461509615 1.4830946498273292 0 0 0
1393 1 1.3968805165602092 10.267283034728429 1.5727719812910188 0 0 0
1397 3 5.682417676779282 10.267283034728397 1.5727719812910153 0 0 0
1400 16 5.299917133248585 8.2139084615096 1.4830946498273119 0 0 0
1307 13 7.198147884699528 6.1604424161439 1.4226542850485622 0 0 0
1398 4 8.072716918981458 8.213897331724766 1.5536913730599793 0 0 0
1403 13 7.198147884699528 10.267379708504894 1.4226542850485613 0 0 0
1305 1 9.967954836998262 6.160345742367353 1.5727719812910308 0 0 0
1404 14 9.585454293467599 8.213908461509575 1.4830946498273134 0 0 0
1401 1 9.967954836998267 10.267283034728433 1.572771981291023 0 0 0
1402 2 12.358254079200426 8.213897331724764 1.5536913730599942 0 0 0
1311 15 11.48368504491855 6.160442416143901 1.4226542850485762 0 0 0
1315 13 15.769222205137542 6.160442416143898 1.4226542850485642 0 0 0
1406 4 16.643791239419485 8.213897331724766 1.553691373059979 0 0 0
1407 15 11.483685044918552 10.2673797085049 1.4226542850485715 0 0 0
1411 13 15.769222205137549 10.267379708504903 1.4226542850485657 0 0 0
1309 3 14.253491997217242 6.160345742367351 1.5727719812910266 0 0 0
1408 16 13.870991453686544 8.213908461509588 1.4830946498273279 0 0 0
1405 3 14.253491997217262 10.267283034728413 1.5727719812910241 0 0 0
1319 15 20.054759365356524 6.1604424161439 1.4226542850485608 0 0 0
1410 2 20.929328399638436 8.213897331724771 1.5536913730599806 0 0 0
1415 15 20.054759365356514 10.267379708504905 1.4226542850485673 0 0 0
1313 1 18.53902915743625 6.160345742367349 1.5727719812910266 0 0 0
1317 3 22.824566317655297 6.160345742367359 1.5727719812910252 0 0 0
1412 14 18.156528613905596 8.21390846150959 1.4830946498273152 0 0 0
1409 1 18.53902915743625 10.267283034728415 1.5727719812910266 0 0 0
1413 3 22.82456631765531 10.267283034728402 1.57277198129102 0 0 0
1416 16 22.442065774124572 8.213908461509591 1.4830946498273152 0 0 0
1323 13 24.340296525575496 6.1604424161439 1.4226542850485653 0 0 0
1414 4 25.214865559857458 8.213897331724766 1.5536913730599866 0 0 0
1419 13 24.340296525575592 10.267379708504894 1.4226542850485653 0 0 0
1321 1 27.11010347787428 6.160345742367349 1.5727719812910315 0 0 0
1420 14 26.727602934343572 8.21390846150958 1.4830946498273188 0 0 0
1417 1 27.110103477874226 10.267283034728433 1.5727719812910221 0 0 0
1418 2 29.50040272007646 8.213897331724771 1.553691373059989 0 0 0
1327 15 28.625833685794476 6.160442416143906 1.422654285048564 0 0 0
1422 4 33.78593988029549 8.21389733172476 1.5536913730599768 0 0 0
1423 15 28.625833685794635 10.267379708504897 1.4226542850485802 0 0 0
1325 3 31.39564063809331 6.160345742367354 1.572771981291029 0 0 0
1424 16 31.01314009456254 8.213908461509572 1.4830946498273208 0 0 0
1421 3 31.395640638093173 10.26728303472843 1.5727719812910035 0 0 0
1331 13 32.91137084601361 6.1604424161439 1.4226542850485688 0 0 0
1427 13 32.91137084601352 10.267379708504894 1.4226542850485513 0 0 0
1335 15 37.19690800623261 6.160442416143892 1.4226542850485755 0 0 0
1426 2 38.071477040514395 8.213897331724768 1.5536913730599846 0 0 0
1431 15 37.19690800623254 10.267379708504903 1.4226542850485677 0 0 0
1329 1 35.6811777983122 6.160345742367348 1.572771981291022 0 0 0
1333 3 39.96671495853122 6.160345742367356 1.572771981291036 0 0 0
1428 14 35.29867725478162 8.21390846150959 1.4830946498273125 0 0 0
1425 1 35.68117779831227 10.267283034728434 1.5727719812910164 0 0 0
1429 3 39.966714958531256 10.267283034728417 1.572771981291034 0 0 0
1432 16 39.584214415000524 8.213908461509583 1.4830946498273179 0 0 0
1339 13 41.482445166451654 6.1604424161438995 1.4226542850485868 0 0 0
1430 4 42.357014200733495 8.213897331724764 1.5536913730599875 0 0 0
1435 13 41.48244516645158 10.2673797085049 1.4226542850485793 0 0 0
1337 1 44.25225211875018 6.16034574236736 1.5727719812910155 0 0 0
1436 14 43.86975157521964 8.21390846150958 1.4830946498273176 0 0 0
1433 1 44.25225211875024 10.267283034728424 1.5727719812910121 0 0 0
1434 2 46.64255136095241 8.213897331724766 1.553691373059981 0 0 0
1343 15 45.76798232667056 6.1604424161439 1.422654285048566 0 0 0
1438 4 50.928088521171475 8.213897331724757 1.553691373059972 0 0 0
1439 15 45.76798232667059 10.267379708504897 1.4226542850485695 0 0 0
1341 3 48.53778927896924 6.16034574236735 1.572771981291017 0 0 0
1440 16 48.15528873543853 8.213908461509613 1.4830946498273132 0 0 0
1437 3 48.5377892789692 10.267283034728425 1.5727719812910266 0 0 0
1251 13 50.05351948688959 6.1604424161439 1.4226542850485715 -1 0 0
1347 13 50.053519486889556 10.267379708504906 1.4226542850485664 -1 0 0
1255 15 54.33905664710858 6.160442416143897 1.422654285048584 -1 0 0
1346 2 55.21362568139039 8.213897331724771 1.553691373059991 -1 0 0
1351 15 54.33905664710856 10.267379708504896 1.4226542850485664 -1 0 0
1249 1 52.82332643918817 6.160345742367334 1.5727719812910335 -1 0 0
1253 3 57.10886359940721 6.160345742367364 1.572771981291005 -1 0 0
1348 14 52.44082589565765 8.213908461509599 1.4830946498273097 -1 0 0
1345 1 52.823326439188286 10.26728303472839 1.5727719812910144 -1 0 0
1349 3 57.108863599407215 10.267283034728393 1.5727719812910093 -1 0 0
1352 16 56.72636305587646 8.21390846150963 1.483094649827317 -1 0 0
1259 13 58.624593807327564 6.160442416143895 1.422654285048554 -1 0 0
1350 4 59.49916284160954 8.213897331724768 1.5536913730599715 -1 0 0
1355 13 58.62459380732754 10.267379708504903 1.4226542850485537 -1 0 0
1257 1 61.3944007596262 6.160345742367325 1.57277198129103 -1 0 0
1356 14 61.011900216095654 8.213908461509602 1.4830946498273083 -1 0 0
1353 1 61.39440075962625 10.267283034728425 1.5727719812910288 -1 0 0
1354 2 63.784700001828355 8.213897331724766 1.553691373059988 -1 0 0
1263 15 62.910130967546586 6.1604424161439 1.4226542850485755 -1 0 0
1358 4 68.07023716204726 8.213897331724773 1.5536913730600084 -1 0 0
1359 15 62.91013096754643 10.267379708504896 1.4226542850485684 -1 0 0
1261 3 65.67993791984519 6.160345742367334 1.5727719812910215 -1 0 0
1360 16 65.29743737631478 8.213908461509584 1.4830946498273274 -1 0 0
1357 3 65.67993791984536 10.267283034728454 1.572771981291047 -1 0 0
1267 13 67.19566812776549 6.1604424161438995 1.422654285048562 -1 0 0
1363 13 67.1956681277657 10.267379708504897 1.4226542850486101 -1 0 0
1271 15 71.48120528798462 6.160442416143903 1.4226542850485444 -1 0 0
1362 2 72.3557743222665 8.213897331724773 1.5536913730599602 -1 0 0
1367 15 71.48120528798444 10.26737970850489 1.42265428504854 -1 0 0
1265 1 69.96547508006431 6.16034574236738 1.5727719812910146 -1 0 0
1269 3 74.25101224028317 6.160345742367324 1.5727719812910346 -1 0 0
1364 14 69.58297453653344 8.213908461509574 1.4830946498273314 -1 0 0
1361 1 69.96547508006412 10.26728303472837 1.5727719812909893 -1 0 0
1365 3 74.25101224028332 10.267283034728445 1.5727719812910002 -1 0 0
1368 16 73.86851169675258 8.213908461509583 1.483094649827302 -1 0 0
1275 13 75.76674244820349 6.160442416143901 1.422654285048592 -1 0 0
1366 4 76.64131148248548 8.21389733172475 1.5536913730599922 -1 0 0
1371 13 75.76674244820333 10.267379708504894 1.422654285048525 -1 0 0
1273 1 78.53654940050225 6.1603457423673555 1.5727719812910084 -1 0 0
1372 14 78.15404885697139 8.213908461509611 1.4830946498273154 -1 0 0
1369 1 78.53654940050242 10.267283034728434 1.5727719812910517 -1 0 0
1370 2 80.92684864270463 8.213897331724777 1.5536913730599633 -1 0 0
1279 15 80.0522796084224 6.160442416143888 1.4226542850485286 -1 0 0
1374 4 85.21238580292346 8.213897331724775 1.553691373059994 -1 0 0
1375 15 80.05227960842277 10.267379708504912 1.4226542850485844 -1 0 0
1277 3 82.82208656072142 6.160345742367344 1.5727719812910361 -1 0 0
1376 16 82.43958601719056 8.213908461509591 1.483094649827297 -1 0 0
1373 3 82.82208656072103 10.26728303472837 1.5727719812910084 -1 0 0
1283 13 84.33781676864152 6.160442416143902 1.4226542850485682 -1 0 0
1379 13 84.33781676864179 10.267379708504912 1.4226542850486086 -1 0 0
1287 15 88.62335392886054 6.1604424161439 1.4226542850485773 -1 0 0
1378 2 89.49792296314251 8.213897331724768 1.5536913730599824 -1 0 0
1383 15 88.62335392886044 10.267379708504896 1.4226542850485715 -1 0 0
1281 1 87.10762372094028 6.1603457423673555 1.572771981291035 -1 0 0
1285 3 91.3931608811592 6.160345742367343 1.5727719812910288 -1 0 0
1380 14 86.72512317740953 8.213908461509599 1.4830946498273183 -1 0 0
1377 1 87.10762372094005 10.267283034728408 1.572771981291011 -1 0 0
1381 3 91.39316088115926 10.267283034728433 1.5727719812909935 -1 0 0
1384 16 91.01066033762854 8.21390846150957 1.4830946498273034 -1 0 0
1291 13 92.90889108907966 6.160442416143903 1.4226542850485682 -1 0 0
1382 4 93.78346012336145 8.213897331724757 1.5536913730599684 -1 0 0
1387 13 92.90889108907956 10.267379708504901 1.4226542850485207 -1 0 0
1289 1 95.67869804137817 6.160345742367361 1.572771981291026 -1 0 0
1388 14 95.2961974978477 8.213908461509595 1.4830946498273243 -1 0 0
1385 1 95.67869804137831 10.267283034728417 1.5727719812910466 -1 0 0
1299 13 101.47996540951749 6.160442416143911 1.4226542850485446 -1 0 0
1395 13 101.47996540951756 10.267379708504894 1.4226542850485664 -1 0 0
1386 2 98.0689972835804 8.21389733172476 1.5536913730599828 -1 0 0
1295 15 97.1944282492985 6.160442416143901 1.4226542850485908 -1 0 0
1390 4 102.35453444379927 8.213897331724779 1.5536913730599908 -1 0 0
1391 15 97.19442824929848 10.267379708504903 1.4226542850485944 -1 0 0
1293 3 99.96423520159732 6.160345742367335 1.5727719812910022 -1 0 0
1392 16 99.58173465806671 8.213908461509595 1.4830946498273037 -1 0 0
1389 3 99.9642352015973 10.267283034728413 1.5727719812910126 -1 0 0
1490 2 3.7871797587624974 12.32083462408579 1.5536913730600033 0 0 0
1495 15 2.9126107244805444 14.374317000865975 1.4226542850485682 0 0 0
1586 2 3.78717975876252 16.427771916446783 1.553691373059953 0 0 0
1492 14 1.0143799730295195 12.320845753870657 1.4830946498273416 0 0 0
1489 1 1.396880516560366 14.374220327089153 1.5727719812910297 0 0 0
1493 3 5.68241767677928 14.374220327089166 1.5727719812910217 0 0 0
1588 14 1.0143799730295453 16.42778304623163 1.4830946498272954 0 0 0
1496 16 5.299917133248586 12.320845753870671 1.4830946498273303 0 0 0
1592 16 5.299917133248612 16.427783046231635 1.483094649827299 0 0 0
1494 4 8.072716918981442 12.320834624085784 1.553691373060011 0 0 0
1499 13 7.198147884699536 14.374317000865975 1.4226542850485717 0 0 0
1590 4 8.072716918981445 16.427771916446773 1.553691373059957 0 0 0
1500 14 9.585454293467599 12.320845753870643 1.4830946498273405 0 0 0
1497 1 9.967954836998281 14.374220327089171 1.5727719812910221 0 0 0
1596 14 9.585454293467599 16.427783046231628 1.4830946498273043 0 0 0
1498 2 12.358254079200417 12.320834624085782 1.5536913730600155 0 0 0
1594 2 12.358254079200453 16.42777191644678 1.553691373059959 0 0 0
1502 4 16.643791239419443 12.320834624085789 1.5536913730600175 0 0 0
1503 15 11.483685044918573 14.374317000865977 1.4226542850485713 0 0 0
1507 13 15.769222205137558 14.374317000865972 1.4226542850485737 0 0 0
1598 4 16.64379123941945 16.427771916446787 1.5536913730599582 0 0 0
1504 16 13.870991453686596 12.320845753870652 1.4830946498273456 0 0 0
1501 3 14.253491997217253 14.374220327089164 1.5727719812910197 0 0 0
1600 16 13.870991453686617 16.42778304623165 1.4830946498273088 0 0 0
1506 2 20.929328399638422 12.320834624085787 1.5536913730600093 0 0 0
1511 15 20.054759365356585 14.374317000865968 1.422654285048569 0 0 0
1602 2 20.929328399638496 16.427771916446776 1.553691373059956 0 0 0
1508 14 18.156528613905586 12.320845753870662 1.4830946498273474 0 0 0
1505 1 18.539029157436246 14.37422032708916 1.5727719812910188 0 0 0
1509 3 22.82456631765525 14.374220327089166 1.572771981291019 0 0 0
1604 14 18.15652861390555 16.427783046231646 1.483094649827301 0 0 0
1512 16 22.44206577412454 12.320845753870666 1.4830946498273356 0 0 0
1608 16 22.442065774124615 16.42778304623163 1.483094649827303 0 0 0
1510 4 25.214865559857497 12.320834624085785 1.5536913730600044 0 0 0
1515 13 24.34029652557555 14.374317000865979 1.4226542850485677 0 0 0
1606 4 25.214865559857472 16.42777191644678 1.553691373059949 0 0 0
1516 14 26.72760293434357 12.320845753870648 1.4830946498273339 0 0 0
1513 1 27.110103477874272 14.374220327089157 1.5727719812910197 0 0 0
1612 14 26.72760293434361 16.427783046231625 1.4830946498272954 0 0 0
1514 2 29.50040272007645 12.320834624085785 1.5536913730600148 0 0 0
1610 2 29.500402720076444 16.427771916446776 1.5536913730599697 0 0 0
1518 4 33.78593988029546 12.32083462408578 1.553691373059994 0 0 0
1519 15 28.625833685794543 14.374317000865974 1.4226542850485757 0 0 0
1614 4 33.785939880295416 16.42777191644678 1.5536913730599466 0 0 0
1520 16 31.013140094562534 12.320845753870666 1.4830946498273345 0 0 0
1517 3 31.39564063809327 14.37422032708917 1.5727719812910133 0 0 0
1616 16 31.013140094562637 16.427783046231628 1.48309464982732 0 0 0
1523 13 32.911370846013476 14.374317000865972 1.4226542850485462 0 0 0
1522 2 38.07147704051443 12.320834624085782 1.5536913730600186 0 0 0
1527 15 37.19690800623248 14.374317000865974 1.4226542850485664 0 0 0
1618 2 38.07147704051449 16.42777191644678 1.5536913730599342 0 0 0
1524 14 35.29867725478156 12.320845753870648 1.4830946498273245 0 0 0
1521 1 35.68117779831236 14.374220327089164 1.5727719812910248 0 0 0
1525 3 39.96671495853131 14.37422032708916 1.5727719812910315 0 0 0
1620 14 35.29867725478158 16.427783046231617 1.483094649827296 0 0 0
1528 16 39.58421441500062 12.320845753870644 1.483094649827353 0 0 0
1624 16 39.584214415000616 16.427783046231653 1.4830946498272828 0 0 0
1526 4 42.357014200733396 12.320834624085778 1.553691373060005 0 0 0
1531 13 41.48244516645161 14.374317000865972 1.422654285048586 0 0 0
1622 4 42.35701420073345 16.42777191644678 1.5536913730599735 0 0 0
1532 14 43.86975157521958 12.320845753870648 1.4830946498273332 0 0 0
1529 1 44.25225211875024 14.374220327089189 1.5727719812910232 0 0 0
1628 14 43.86975157521953 16.427783046231642 1.4830946498273236 0 0 0
1530 2 46.642551360952446 12.320834624085775 1.5536913730600277 0 0 0
1626 2 46.642551360952545 16.427771916446776 1.553691373059956 0 0 0
1534 4 50.928088521171524 12.320834624085792 1.553691373060012 0 0 0
1535 15 45.76798232667055 14.374317000865972 1.4226542850485768 0 0 0
1630 4 50.92808852117147 16.427771916446783 1.553691373059956 0 0 0
1536 16 48.15528873543851 12.320845753870637 1.4830946498273594 0 0 0
1533 3 48.537789278969264 14.374220327089164 1.57277198129103 0 0 0
1632 16 48.155288735438596 16.427783046231628 1.4830946498272986 0 0 0
1443 13 50.05351948688961 14.374317000865972 1.422654285048583 -1 0 0
1442 2 55.21362568139053 12.320834624085785 1.5536913730599922 -1 0 0
1447 15 54.33905664710862 14.37431700086598 1.4226542850485915 -1 0 0
1538 2 55.21362568139045 16.42777191644677 1.5536913730599515 -1 0 0
1444 14 52.44082589565749 12.320845753870659 1.4830946498273379 -1 0 0
1441 1 52.823326439188236 14.37422032708918 1.5727719812910317 -1 0 0
1445 3 57.10886359940718 14.374220327089176 1.5727719812910024 -1 0 0
1540 14 52.4408258956576 16.427783046231628 1.4830946498273094 -1 0 0
1448 16 56.72636305587654 12.32084575387064 1.4830946498273059 -1 0 0
1544 16 56.72636305587653 16.42778304623165 1.4830946498272954 -1 0 0
1446 4 59.49916284160951 12.320834624085794 1.5536913730600104 -1 0 0
1451 13 58.62459380732763 14.374317000865974 1.4226542850485722 -1 0 0
1542 4 59.49916284160947 16.427771916446773 1.5536913730599564 -1 0 0
1452 14 61.01190021609549 12.32084575387066 1.4830946498273436 -1 0 0
1449 1 61.3944007596262 14.374220327089171 1.57277198129103 -1 0 0
1548 14 61.011900216095555 16.42778304623162 1.4830946498273045 -1 0 0
1450 2 63.7847000018285 12.320834624085782 1.5536913730600117 -1 0 0
1546 2 63.7847000018285 16.427771916446783 1.553691373059951 -1 0 0
1454 4 68.07023716204759 12.32083462408577 1.5536913730600022 -1 0 0
1455 15 62.910130967546536 14.374317000865986 1.4226542850485817 -1 0 0
1550 4 68.07023716204756 16.427771916446783 1.5536913730599653 -1 0 0
1456 16 65.2974373763144 12.320845753870636 1.4830946498273232 -1 0 0
1453 3 65.67993791984526 14.37422032708913 1.572771981290988 -1 0 0
1552 16 65.29743737631452 16.427783046231667 1.4830946498272866 -1 0 0
1459 13 67.19566812776552 14.374317000865975 1.4226542850485402 -1 0 0
1458 2 72.35577432226653 12.320834624085787 1.5536913730600135 -1 0 0
1463 15 71.4812052879847 14.37431700086597 1.4226542850486 -1 0 0
1554 2 72.35577432226638 16.427771916446765 1.5536913730599466 -1 0 0
1460 14 69.58297453653356 12.320845753870694 1.4830946498273259 -1 0 0
1457 1 69.96547508006425 14.374220327089173 1.5727719812910381 -1 0 0
1461 3 74.2510122402831 14.374220327089152 1.5727719812909973 -1 0 0
1556 14 69.58297453653361 16.42778304623162 1.48309464982731 -1 0 0
1464 16 73.8685116967523 12.320845753870662 1.483094649827335 -1 0 0
1560 16 73.8685116967526 16.427783046231625 1.4830946498272843 -1 0 0
1462 4 76.64131148248568 12.320834624085792 1.5536913730600237 -1 0 0
1467 13 75.76674244820357 14.374317000865984 1.4226542850485706 -1 0 0
1558 4 76.64131148248545 16.42777191644678 1.5536913730599802 -1 0 0
1468 14 78.15404885697163 12.320845753870646 1.4830946498273554 -1 0 0
1465 1 78.53654940050225 14.374220327089157 1.5727719812910201 -1 0 0
1564 14 78.1540488569718 16.427783046231617 1.4830946498273154 -1 0 0
1466 2 80.9268486427044 12.320834624085787 1.5536913730599944 -1 0 0
1562 2 80.92684864270424 16.42777191644679 1.5536913730599573 -1 0 0
1470 4 85.2123858029232 12.320834624085787 1.5536913730600221 -1 0 0
1471 15 80.05227960842254 14.374317000865975 1.4226542850485726 -1 0 0
1566 4 85.21238580292369 16.427771916446765 1.5536913730599586 -1 0 0
1472 16 82.43958601719078 12.320845753870653 1.483094649827323 -1 0 0
1469 3 82.8220865607213 14.374220327089189 1.5727719812910081 -1 0 0
1568 16 82.43958601719031 16.427783046231653 1.4830946498272959 -1 0 0
1475 13 84.33781676864155 14.374317000865968 1.422654285048575 -1 0 0
1474 2 89.49792296314239 12.320834624085771 1.5536913730600126 -1 0 0
1479 15 88.62335392886035 14.374317000865972 1.4226542850485224 -1 0 0
1570 2 89.49792296314259 16.42777191644679 1.5536913730599522 -1 0 0
1476 14 86.72512317740969 12.320845753870639 1.483094649827346 -1 0 0
1473 1 87.10762372094024 14.374220327089187 1.5727719812909942 -1 0 0
1477 3 91.39316088115945 14.374220327089153 1.5727719812910446 -1 0 0
1572 14 86.72512317740947 16.427783046231646 1.4830946498273014 -1 0 0
1480 16 91.01066033762842 12.32084575387065 1.4830946498273387 -1 0 0
1576 16 91.01066033762868 16.427783046231628 1.4830946498273037 -1 0 0
1478 4 93.78346012336154 12.320834624085789 1.5536913730600084 -1 0 0
1483 13 92.90889108907962 14.374317000865979 1.4226542850485802 -1 0 0
1574 4 93.78346012336138 16.427771916446797 1.5536913730599504 -1 0 0
1484 14 95.29619749784788 12.32084575387063 1.4830946498273505 -1 0 0
1481 1 95.67869804137825 14.37422032708916 1.572771981291005 -1 0 0
1580 14 95.29619749784771 16.427783046231664 1.4830946498272974 -1 0 0