LAMMPS data file via write_data, version 29 Aug 2024, timestep = 0, units = metal

2304 atoms
8 atom types

0 102.852891845256 xlo xhi
0 98.566495016664 ylo yhi
0 17.10979291 zlo zhi

Masses

1 28.085
2 28.085
3 28.085
4 28.085
5 127.6
6 127.6
7 127.6
8 127.6

Atoms # atomic

1203 5 0 2.053487863036999 0 0 0 0
1202 2 2.446533826821998 3.7987449985621424e-06 0.2907317454170002 0 0 0
1207 7 4.285537160219 2.053487863036999 0 0 0 0
1206 4 6.7320709870409985 3.7987449985621424e-06 0.2907317454170002 0 0 0
1211 5 8.571074320438 2.053487863036999 0 0 0 0
1210 2 11.017608147259999 3.7987449985621424e-06 0.2907317454170002 0 0 0
1215 7 12.856611480657001 2.053487863036999 0 0 0 0
1214 4 15.303145307479006 3.7987449985621424e-06 0.2907317454170002 0 0 0
1219 5 17.142148640875995 2.053487863036999 0 0 0 0
1218 2 19.588682467698 3.7987449985621424e-06 0.2907317454170002 0 0 0
1223 7 21.427685801095002 2.053487863036999 0 0 0 0
1222 4 23.874219627917007 3.7987449985621424e-06 0.2907317454170002 0 0 0
1227 5 25.713222961313996 2.053487863036999 0 0 0 0
1226 2 28.159756788136 3.7987449985621424e-06 0.2907317454170002 0 0 0
1231 7 29.998760121533003 2.053487863036999 0 0 0 0
1230 4 32.445293948354994 3.7987449985621424e-06 0.2907317454170002 0 0 0
1235 5 34.284297281751996 2.053487863036999 0 0 0 0
1234 2 36.730831108574 3.7987449985621424e-06 0.2907317454170002 0 0 0
1239 7 38.569834441971004 2.053487863036999 0 0 0 0
1238 4 41.016368268792995 3.7987449985621424e-06 0.2907317454170002 0 0 0
1243 5 42.85537160219 2.053487863036999 0 0 0 0
1242 2 45.301905429012 3.7987449985621424e-06 0.2907317454170002 0 0 0
1247 7 47.140908762409005 2.053487863036999 0 0 0 0
1246 4 49.587442589230996 3.7987449985621424e-06 0.2907317454170002 0 0 0
1155 5 51.426445922628 2.053487863036999 0 -1 0 0
1154 2 53.872979749449996 3.7987449985621424e-06 0.2907317454170002 -1 0 0
1159 7 55.711983082847 2.053487863036999 0 -1 0 0
1158 4 58.158516909669 3.7987449985621424e-06 0.2907317454170002 -1 0 0
1163 5 59.997520243066 2.053487863036999 0 -1 0 0
1162 2 62.444054069888 3.7987449985621424e-06 0.2907317454170002 -1 0 0
1167 7 64.283057403285 2.053487863036999 0 -1 0 0
1166 4 66.72959123010699 3.7987449985621424e-06 0.2907317454170002 -1 0 0
1171 5 68.56859456350399 2.053487863036999 0 -1 0 0
1170 2 71.015128390326 3.7987449985621424e-06 0.2907317454170002 -1 0 0
1175 7 72.854131723723 2.053487863036999 0 -1 0 0
1174 4 75.300665550545 3.7987449985621424e-06 0.2907317454170002 -1 0 0
1179 5 77.139668883942 2.053487863036999 0 -1 0 0
1178 2 79.586202710764 3.7987449985621424e-06 0.2907317454170002 -1 0 0
1183 7 81.425206044161 2.053487863036999 0 -1 0 0
1182 4 83.87173987098299 3.7987449985621424e-06 0.2907317454170002 -1 0 0
1187 5 85.71074320438 2.053487863036999 0 -1 0 0
1186 2 88.157277031202 3.7987449985621424e-06 0.2907317454170002 -1 0 0
1191 7 89.99628036459899 2.053487863036999 0 -1 0 0
1190 4 92.44281419142101 3.7987449985621424e-06 0.2907317454170002 -1 0 0
1195 5 94.281817524818 2.053487863036999 0 -1 0 0
1194 2 96.72835135164 3.7987449985621424e-06 0.2907317454170002 -1 0 0
1199 7 98.567354685037 2.053487863036999 0 -1 0 0
1198 4 101.013888511859 3.7987449985621424e-06 0.2907317454170002 -1 0 0
1298 2 2.446533826821998 4.106941091105995 0.2907317454170002 0 0 0
1302 4 6.7320709870409985 4.106941091105995 0.2907317454170002 0 0 0
1306 2 11.017608147259999 4.106941091105995 0.2907317454170002 0 0 0
1310 4 15.303145307479006 4.106941091105995 0.2907317454170002 0 0 0
1314 2 19.588682467698 4.106941091105995 0.2907317454170002 0 0 0
1318 4 23.874219627917007 4.106941091105995 0.2907317454170002 0 0 0
1322 2 28.159756788136 4.106941091105995 0.2907317454170002 0 0 0
1326 4 32.445293948354994 4.106941091105995 0.2907317454170002 0 0 0
1330 2 36.730831108574 4.106941091105995 0.2907317454170002 0 0 0
1334 4 41.016368268792995 4.106941091105995 0.2907317454170002 0 0 0
1338 2 45.301905429012 4.106941091105995 0.2907317454170002 0 0 0
1342 4 49.587442589230996 4.106941091105995 0.2907317454170002 0 0 0
1250 2 53.872979749449996 4.106941091105995 0.2907317454170002 -1 0 0
1254 4 58.158516909669 4.106941091105995 0.2907317454170002 -1 0 0
1258 2 62.444054069888 4.106941091105995 0.2907317454170002 -1 0 0
1262 4 66.72959123010699 4.106941091105995 0.2907317454170002 -1 0 0
1266 2 71.015128390326 4.106941091105995 0.2907317454170002 -1 0 0
1270 4 75.300665550545 4.106941091105995 0.2907317454170002 -1 0 0
1274 2 79.586202710764 4.106941091105995 0.2907317454170002 -1 0 0
1278 4 83.87173987098299 4.106941091105995 0.2907317454170002 -1 0 0
1282 2 88.157277031202 4.106941091105995 0.2907317454170002 -1 0 0
1286 4 92.44281419142101 4.106941091105995 0.2907317454170002 -1 0 0
1290 2 96.72835135164 4.106941091105995 0.2907317454170002 -1 0 0
1294 4 101.013888511859 4.106941091105995 0.2907317454170002 -1 0 0
1299 5 0 6.160425155397995 0 0 0 0
1303 7 4.285537160219 6.160425155397995 0 0 0 0
1307 5 8.571074320438 6.160425155397995 0 0 0 0
1311 7 12.856611480657001 6.160425155397995 0 0 0 0
1315 5 17.142148640875995 6.160425155397995 0 0 0 0
1319 7 21.427685801095002 6.160425155397995 0 0 0 0
1323 5 25.713222961313996 6.160425155397995 0 0 0 0
1327 7 29.998760121533003 6.160425155397995 0 0 0 0
1331 5 34.284297281751996 6.160425155397995 0 0 0 0
1335 7 38.569834441971004 6.160425155397995 0 0 0 0
1339 5 42.85537160219 6.160425155397995 0 0 0 0
1343 7 47.140908762409005 6.160425155397995 0 0 0 0
1251 5 51.426445922628 6.160425155397995 0 -1 0 0
1255 7 55.711983082847 6.160425155397995 0 -1 0 0
1259 5 59.997520243066 6.160425155397995 0 -1 0 0
1263 7 64.283057403285 6.160425155397995 0 -1 0 0
1267 5 68.56859456350399 6.160425155397995 0 -1 0 0
1271 7 72.854131723723 6.160425155397995 0 -1 0 0
1275 5 77.139668883942 6.160425155397995 0 -1 0 0
1279 7 81.425206044161 6.160425155397995 0 -1 0 0
1283 5 85.71074320438 6.160425155397995 0 -1 0 0
1287 7 89.99628036459899 6.160425155397995 0 -1 0 0
1291 5 94.281817524818 6.160425155397995 0 -1 0 0
1295 7 98.567354685037 6.160425155397995 0 -1 0 0
1394 2 2.446533826821998 8.213878383466998 0.2907317454170002 0 0 0
1398 4 6.7320709870409985 8.213878383466998 0.2907317454170002 0 0 0
1402 2 11.017608147259999 8.213878383466998 0.2907317454170002 0 0 0
1406 4 15.303145307479006 8.213878383466998 0.2907317454170002 0 0 0
1410 2 19.588682467698 8.213878383466998 0.2907317454170002 0 0 0
1414 4 23.874219627917007 8.213878383466998 0.2907317454170002 0 0 0
1418 2 28.159756788136 8.213878383466998 0.2907317454170002 0 0 0
1422 4 32.445293948354994 8.213878383466998 0.2907317454170002 0 0 0
1426 2 36.730831108574 8.213878383466998 0.2907317454170002 0 0 0
1430 4 41.016368268792995 8.213878383466998 0.2907317454170002 0 0 0
1434 2 45.301905429012 8.213878383466998 0.2907317454170002 0 0 0
1438 4 49.587442589230996 8.213878383466998 0.2907317454170002 0 0 0
1346 2 53.872979749449996 8.213878383466998 0.2907317454170002 -1 0 0
1350 4 58.158516909669 8.213878383466998 0.2907317454170002 -1 0 0
1354 2 62.444054069888 8.213878383466998 0.2907317454170002 -1 0 0
1358 4 66.72959123010699 8.213878383466998 0.2907317454170002 -1 0 0
1362 2 71.015128390326 8.213878383466998 0.2907317454170002 -1 0 0
1366 4 75.300665550545 8.213878383466998 0.2907317454170002 -1 0 0
1370 2 79.586202710764 8.213878383466998 0.2907317454170002 -1 0 0
1374 4 83.87173987098299 8.213878383466998 0.2907317454170002 -1 0 0
1378 2 88.157277031202 8.213878383466998 0.2907317454170002 -1 0 0
1382 4 92.44281419142101 8.213878383466998 0.2907317454170002 -1 0 0
1386 2 96.72835135164 8.213878383466998 0.2907317454170002 -1 0 0
1390 4 101.013888511859 8.213878383466998 0.2907317454170002 -1 0 0
1395 5 0 10.267362447758998 0 0 0 0
1399 7 4.285537160219 10.267362447758998 0 0 0 0
1403 5 8.571074320438 10.267362447758998 0 0 0 0
1407 7 12.856611480657001 10.267362447758998 0 0 0 0
1411 5 17.142148640875995 10.267362447758998 0 0 0 0
1415 7 21.427685801095002 10.267362447758998 0 0 0 0
1419 5 25.713222961313996 10.267362447758998 0 0 0 0
1423 7 29.998760121533003 10.267362447758998 0 0 0 0
1427 5 34.284297281751996 10.267362447758998 0 0 0 0
1431 7 38.569834441971004 10.267362447758998 0 0 0 0
1435 5 42.85537160219 10.267362447758998 0 0 0 0
1439 7 47.140908762409005 10.267362447758998 0 0 0 0
1347 5 51.426445922628 10.267362447758998 0 -1 0 0
1351 7 55.711983082847 10.267362447758998 0 -1 0 0
1355 5 59.997520243066 10.267362447758998 0 -1 0 0
1359 7 64.283057403285 10.267362447758998 0 -1 0 0
1363 5 68.56859456350399 10.267362447758998 0 -1 0 0
1367 7 72.854131723723 10.267362447758998 0 -1 0 0
1371 5 77.139668883942 10.267362447758998 0 -1 0 0
1375 7 81.425206044161 10.267362447758998 0 -1 0 0
1379 5 85.71074320438 10.267362447758998 0 -1 0 0
1383 7 89.99628036459899 10.267362447758998 0 -1 0 0
1387 5 94.281817524818 10.267362447758998 0 -1 0 0
1391 7 98.567354685037 10.267362447758998 0 -1 0 0
1490 2 2.446533826821998 12.320815675827994 0.2907317454170002 0 0 0
1494 4 6.7320709870409985 12.320815675827994 0.2907317454170002 0 0 0
1498 2 11.017608147259999 12.320815675827994 0.2907317454170002 0 0 0
1502 4 15.303145307479006 12.320815675827994 0.2907317454170002 0 0 0
1506 2 19.588682467698 12.320815675827994 0.2907317454170002 0 0 0
1510 4 23.874219627917007 12.320815675827994 0.2907317454170002 0 0 0
1514 2 28.159756788136 12.320815675827994 0.2907317454170002 0 0 0
1518 4 32.445293948354994 12.320815675827994 0.2907317454170002 0 0 0
1522 2 36.730831108574 12.320815675827994 0.2907317454170002 0 0 0
1526 4 41.016368268792995 12.320815675827994 0.2907317454170002 0 0 0
1530 2 45.301905429012 12.320815675827994 0.2907317454170002 0 0 0
1534 4 49.587442589230996 12.320815675827994 0.2907317454170002 0 0 0
1442 2 53.872979749449996 12.320815675827994 0.2907317454170002 -1 0 0
1446 4 58.158516909669 12.320815675827994 0.2907317454170002 -1 0 0
1450 2 62.444054069888 12.320815675827994 0.2907317454170002 -1 0 0
1454 4 66.72959123010699 12.320815675827994 0.2907317454170002 -1 0 0
1458 2 71.015128390326 12.320815675827994 0.2907317454170002 -1 0 0
1462 4 75.300665550545 12.320815675827994 0.2907317454170002 -1 0 0
1466 2 79.586202710764 12.320815675827994 0.2907317454170002 -1 0 0
1470 4 83.87173987098299 12.320815675827994 0.2907317454170002 -1 0 0
1474 2 88.157277031202 12.320815675827994 0.2907317454170002 -1 0 0
1478 4 92.44281419142101 12.320815675827994 0.2907317454170002 -1 0 0
1482 2 96.72835135164 12.320815675827994 0.2907317454170002 -1 0 0
1486 4 101.013888511859 12.320815675827994 0.2907317454170002 -1 0 0
1491 5 0 14.374299740120001 0 0 0 0
1495 7 4.285537160219 14.374299740120001 0 0 0 0
1499 5 8.571074320438 14.374299740120001 0 0 0 0
1503 7 12.856611480657001 14.374299740120001 0 0 0 0
1507 5 17.142148640875995 14.374299740120001 0 0 0 0
1511 7 21.427685801095002 14.374299740120001 0 0 0 0
1515 5 25.713222961313996 14.374299740120001 0 0 0 0
1519 7 29.998760121533003 14.374299740120001 0 0 0 0
1523 5 34.284297281751996 14.374299740120001 0 0 0 0
1527 7 38.569834441971004 14.374299740120001 0 0 0 0
1531 5 42.85537160219 14.374299740120001 0 0 0 0
1535 7 47.140908762409005 14.374299740120001 0 0 0 0
1443 5 51.426445922628 14.374299740120001 0 -1 0 0
1447 7 55.711983082847 14.374299740120001 0 -1 0 0
1451 5 59.997520243066 14.374299740120001 0 -1 0 0
1455 7 64.283057403285 14.374299740120001 0 -1 0 0
1459 5 68.56859456350399 14.374299740120001 0 -1 0 0
1463 7 72.854131723723 14.374299740120001 0 -1 0 0
1467 5 77.139668883942 14.374299740120001 0 -1 0 0
1471 7 81.425206044161 14.374299740120001 0 -1 0 0
1475 5 85.71074320438 14.374299740120001 0 -1 0 0
1479 7 89.99628036459899 14.374299740120001 0 -1 0 0
1483 5 94.281817524818 14.374299740120001 0 -1 0 0
1487 7 98.567354685037 14.374299740120001 0 -1 0 0
1586 2 2.446533826821998 16.42775296818899 0.2907317454170002 0 0 0
1590 4 6.7320709870409985 16.42775296818899 0.2907317454170002 0 0 0
1594 2 11.017608147259999 16.42775296818899 0.2907317454170002 0 0 0
1598 4 15.303145307479006 16.42775296818899 0.2907317454170002 0 0 0
1602 2 19.588682467698 16.42775296818899 0.2907317454170002 0 0 0
1606 4 23.874219627917007 16.42775296818899 0.2907317454170002 0 0 0
1610 2 28.159756788136 16.42775296818899 0.2907317454170002 0 0 0
1614 4 32.445293948354994 16.42775296818899 0.2907317454170002 0 0 0
1618 2 36.730831108574 16.42775296818899 0.2907317454170002 0 0 0
1622 4 41.016368268792995 16.42775296818899 0.2907317454170002 0 0 0
1626 2 45.301905429012 16.42775296818899 0.2907317454170002 0 0 0
1630 4 49.587442589230996 16.42775296818899 0.2907317454170002 0 0 0
1538 2 53.872979749449996 16.42775296818899 0.2907317454170002 -1 0 0
1542 4 58.158516909669 16.42775296818899 0.2907317454170002 -1 0 0
1546 2 62.444054069888 16.42775296818899 0.2907317454170002 -1 0 0
1550 4 66.72959123010699 16.42775296818899 0.2907317454170002 -1 0 0
1554 2 71.015128390326 16.42775296818899 0.2907317454170002 -1 0 0
1558 4 75.300665550545 16.42775296818899 0.2907317454170002 -1 0 0
1562 2 79.586202710764 16.42775296818899 0.2907317454170002 -1 0 0
1566 4 83.87173987098299 16.42775296818899 0.2907317454170002 -1 0 0
1570 2 88.157277031202 16.42775296818899 0.2907317454170002 -1 0 0
1574 4 92.44281419142101 16.42775296818899 0.2907317454170002 -1 0 0
1578 2 96.72835135164 16.42775296818899 0.2907317454170002 -1 0 0
1582 4 101.013888511859 16.42775296818899 0.2907317454170002 -1 0 0
1587 5 0 18.481237032480998 0 0 0 0
1591 7 4.285537160219 18.481237032480998 0 0 0 0
1595 5 8.571074320438 18.481237032480998 0 0 0 0
1599 7 12.856611480657001 18.481237032480998 0 0 0 0
1603 5 17.142148640875995 18.481237032480998 0 0 0 0
1607 7 21.427685801095002 18.481237032480998 0 0 0 0
1611 5 25.713222961313996 18.481237032480998 0 0 0 0
1615 7 29.998760121533003 18.481237032480998 0 0 0 0
1619 5 34.284297281751996 18.481237032480998 0 0 0 0
1623 7 38.569834441971004 18.481237032480998 0 0 0 0
1627 5 42.85537160219 18.481237032480998 0 0 0 0
1631 7 47.140908762409005 18.481237032480998 0 0 0 0
1539 5 51.426445922628 18.481237032480998 0 -1 0 0
1543 7 55.711983082847 18.481237032480998 0 -1 0 0
1547 5 59.997520243066 18.481237032480998 0 -1 0 0
1551 7 64.283057403285 18.481237032480998 0 -1 0 0
1555 5 68.56859456350399 18.481237032480998 0 -1 0 0
1559 7 72.854131723723 18.481237032480998 0 -1 0 0
1563 5 77.139668883942 18.481237032480998 0 -1 0 0
1567 7 81.425206044161 18.481237032480998 0 -1 0 0
1571 5 85.71074320438 18.481237032480998 0 -1 0 0
1575 7 89.99628036459899 18.481237032480998 0 -1 0 0
1579 5 94.281817524818 18.481237032480998 0 -1 0 0
1583 7 98.567354685037 18.481237032480998 0 -1 0 0
1682 2 2.446533826821998 20.53469026055 0.2907317454170002 0 0 0
1686 4 6.7320709870409985 20.53469026055 0.2907317454170002 0 0 0
1690 2 11.017608147259999 20.53469026055 0.2907317454170002 0 0 0
1694 4 15.303145307479006 20.53469026055 0.2907317454170002 0 0 0
1698 2 19.588682467698 20.53469026055 0.2907317454170002 0 0 0
1702 4 23.874219627917007 20.53469026055 0.2907317454170002 0 0 0
1706 2 28.159756788136 20.53469026055 0.2907317454170002 0 0 0
1710 4 32.445293948354994 20.53469026055 0.2907317454170002 0 0 0
1714 2 36.730831108574 20.53469026055 0.2907317454170002 0 0 0
1718 4 41.016368268792995 20.53469026055 0.2907317454170002 0 0 0
1722 2 45.301905429012 20.53469026055 0.2907317454170002 0 0 0
1726 4 49.587442589230996 20.53469026055 0.2907317454170002 0 0 0
1634 2 53.872979749449996 20.53469026055 0.2907317454170002 -1 0 0
1638 4 58.158516909669 20.53469026055 0.2907317454170002 -1 0 0
1642 2 62.444054069888 20.53469026055 0.2907317454170002 -1 0 0
1646 4 66.72959123010699 20.53469026055 0.2907317454170002 -1 0 0
1650 2 71.015128390326 20.53469026055 0.2907317454170002 -1 0 0
1654 4 75.300665550545 20.53469026055 0.2907317454170002 -1 0 0
1658 2 79.586202710764 20.53469026055 0.2907317454170002 -1 0 0
1662 4 83.87173987098299 20.53469026055 0.2907317454170002 -1 0 0
1666 2 88.157277031202 20.53469026055 0.2907317454170002 -1 0 0
1670 4 92.44281419142101 20.53469026055 0.2907317454170002 -1 0 0
1674 2 96.72835135164 20.53469026055 0.2907317454170002 -1 0 0
1678 4 101.013888511859 20.53469026055 0.2907317454170002 -1 0 0
1683 5 0 22.588174324841994 0 0 0 0
1687 7 4.285537160219 22.588174324841994 0 0 0 0
1691 5 8.571074320438 22.588174324841994 0 0 0 0
1695 7 12.856611480657001 22.588174324841994 0 0 0 0
1699 5 17.142148640875995 22.588174324841994 0 0 0 0
1703 7 21.427685801095002 22.588174324841994 0 0 0 0
1707 5 25.713222961313996 22.588174324841994 0 0 0 0
1711 7 29.998760121533003 22.588174324841994 0 0 0 0
1715 5 34.284297281751996 22.588174324841994 0 0 0 0
1719 7 38.569834441971004 22.588174324841994 0 0 0 0
1723 5 42.85537160219 22.588174324841994 0 0 0 0
1727 7 47.140908762409005 22.588174324841994 0 0 0 0
1635 5 51.426445922628 22.588174324841994 0 -1 0 0
1639 7 55.711983082847 22.588174324841994 0 -1 0 0
1643 5 59.997520243066 22.588174324841994 0 -1 0 0
1647 7 64.283057403285 22.588174324841994 0 -1 0 0
1651 5 68.56859456350399 22.588174324841994 0 -1 0 0
1655 7 72.854131723723 22.588174324841994 0 -1 0 0
1659 5 77.139668883942 22.588174324841994 0 -1 0 0
1663 7 81.425206044161 22.588174324841994 0 -1 0 0
1667 5 85.71074320438 22.588174324841994 0 -1 0 0
1671 7 89.99628036459899 22.588174324841994 0 -1 0 0
1675 5 94.281817524818 22.588174324841994 0 -1 0 0
1679 7 98.567354685037 22.588174324841994 0 -1 0 0
1778 2 2.446533826821998 24.641627552910997 0.2907317454170002 0 0 0
1782 4 6.7320709870409985 24.641627552910997 0.2907317454170002 0 0 0
1786 2 11.017608147259999 24.641627552910997 0.2907317454170002 0 0 0
1790 4 15.303145307479006 24.641627552910997 0.2907317454170002 0 0 0
1794 2 19.588682467698 24.641627552910997 0.2907317454170002 0 0 0
1798 4 23.874219627917007 24.641627552910997 0.2907317454170002 0 0 0
1802 2 28.159756788136 24.641627552910997 0.2907317454170002 0 0 0
1806 4 32.445293948354994 24.641627552910997 0.2907317454170002 0 0 0
1810 2 36.730831108574 24.641627552910997 0.2907317454170002 0 0 0
1814 4 41.016368268792995 24.641627552910997 0.2907317454170002 0 0 0
1818 2 45.301905429012 24.641627552910997 0.2907317454170002 0 0 0
1822 4 49.587442589230996 24.641627552910997 0.2907317454170002 0 0 0
1730 2 53.872979749449996 24.641627552910997 0.2907317454170002 -1 0 0
1734 4 58.158516909669 24.641627552910997 0.2907317454170002 -1 0 0
1738 2 62.444054069888 24.641627552910997 0.2907317454170002 -1 0 0
1742 4 66.72959123010699 24.641627552910997 0.2907317454170002 -1 0 0
1746 2 71.015128390326 24.641627552910997 0.2907317454170002 -1 0 0
1750 4 75.300665550545 24.641627552910997 0.2907317454170002 -1 0 0
1754 2 79.586202710764 24.641627552910997 0.2907317454170002 -1 0 0
1758 4 83.87173987098299 24.641627552910997 0.2907317454170002 -1 0 0
1762 2 88.157277031202 24.641627552910997 0.2907317454170002 -1 0 0
1766 4 92.44281419142101 24.641627552910997 0.2907317454170002 -1 0 0
1770 2 96.72835135164 24.641627552910997 0.2907317454170002 -1 0 0
1774 4 101.013888511859 24.641627552910997 0.2907317454170002 -1 0 0
1779 5 0 26.69511161720299 0 0 0 0
1783 7 4.285537160219 26.69511161720299 0 0 0 0
1787 5 8.571074320438 26.69511161720299 0 0 0 0
1791 7 12.856611480657001 26.69511161720299 0 0 0 0
1795 5 17.142148640875995 26.69511161720299 0 0 0 0
1799 7 21.427685801095002 26.69511161720299 0 0 0 0
1803 5 25.713222961313996 26.69511161720299 0 0 0 0
1807 7 29.998760121533003 26.69511161720299 0 0 0 0
1811 5 34.284297281751996 26.69511161720299 0 0 0 0
1815 7 38.569834441971004 26.69511161720299 0 0 0 0
1819 5 42.85537160219 26.69511161720299 0 0 0 0
1823 7 47.140908762409005 26.69511161720299 0 0 0 0
1731 5 51.426445922628 26.69511161720299 0 -1 0 0
1735 7 55.711983082847 26.69511161720299 0 -1 0 0
1739 5 59.997520243066 26.69511161720299 0 -1 0 0
1743 7 64.283057403285 26.69511161720299 0 -1 0 0
1747 5 68.56859456350399 26.69511161720299 0 -1 0 0
1751 7 72.854131723723 26.69511161720299 0 -1 0 0
1755 5 77.139668883942 26.69511161720299 0 -1 0 0
1759 7 81.425206044161 26.69511161720299 0 -1 0 0
1763 5 85.71074320438 26.69511161720299 0 -1 0 0
1767 7 89.99628036459899 26.69511161720299 0 -1 0 0
1771 5 94.281817524818 26.69511161720299 0 -1 0 0
1775 7 98.567354685037 26.69511161720299 0 -1 0 0
1874 2 2.446533826821998 28.748564845271993 0.2907317454170002 0 0 0
1878 4 6.7320709870409985 28.748564845271993 0.2907317454170002 0 0 0
1882 2 11.017608147259999 28.748564845271993 0.2907317454170002 0 0 0
1886 4 15.303145307479006 28.748564845271993 0.2907317454170002 0 0 0
1890 2 19.588682467698 28.748564845271993 0.2907317454170002 0 0 0
1894 4 23.874219627917007 28.748564845271993 0.2907317454170002 0 0 0
1898 2 28.159756788136 28.748564845271993 0.2907317454170002 0 0 0
1902 4 32.445293948354994 28.748564845271993 0.2907317454170002 0 0 0
1906 2 36.730831108574 28.748564845271993 0.2907317454170002 0 0 0
1910 4 41.016368268792995 28.748564845271993 0.2907317454170002 0 0 0
1914 2 45.301905429012 28.748564845271993 0.2907317454170002 0 0 0
1918 4 49.587442589230996 28.748564845271993 0.2907317454170002 0 0 0
1826 2 53.872979749449996 28.748564845271993 0.2907317454170002 -1 0 0
1830 4 58.158516909669 28.748564845271993 0.2907317454170002 -1 0 0
1834 2 62.444054069888 28.748564845271993 0.2907317454170002 -1 0 0
1838 4 66.72959123010699 28.748564845271993 0.2907317454170002 -1 0 0
1842 2 71.015128390326 28.748564845271993 0.2907317454170002 -1 0 0
1846 4 75.300665550545 28.748564845271993 0.2907317454170002 -1 0 0
1850 2 79.586202710764 28.748564845271993 0.2907317454170002 -1 0 0
1854 4 83.87173987098299 28.748564845271993 0.2907317454170002 -1 0 0
1858 2 88.157277031202 28.748564845271993 0.2907317454170002 -1 0 0
1862 4 92.44281419142101 28.748564845271993 0.2907317454170002 -1 0 0
1866 2 96.72835135164 28.748564845271993 0.2907317454170002 -1 0 0
1870 4 101.013888511859 28.748564845271993 0.2907317454170002 -1 0 0
1875 5 0 30.802048909564 0 0 0 0
1879 7 4.285537160219 30.802048909564 0 0 0 0
1883 5 8.571074320438 30.802048909564 0 0 0 0
1887 7 12.856611480657001 30.802048909564 0 0 0 0
1891 5 17.142148640875995 30.802048909564 0 0 0 0
1895 7 21.427685801095002 30.802048909564 0 0 0 0
1899 5 25.713222961313996 30.802048909564 0 0 0 0
1903 7 29.998760121533003 30.802048909564 0 0 0 0
1907 5 34.284297281751996 30.802048909564 0 0 0 0
1911 7 38.569834441971004 30.802048909564 0 0 0 0
1915 5 42.85537160219 30.802048909564 0 0 0 0
1919 7 47.140908762409005 30.802048909564 0 0 0 0
1827 5 51.426445922628 30.802048909564 0 -1 0 0
1831 7 55.711983082847 30.802048909564 0 -1 0 0
1835 5 59.997520243066 30.802048909564 0 -1 0 0
1839 7 64.283057403285 30.802048909564 0 -1 0 0
1843 5 68.56859456350399 30.802048909564 0 -1 0 0
1847 7 72.854131723723 30.802048909564 0 -1 0 0
1851 5 77.139668883942 30.802048909564 0 -1 0 0
1855 7 81.425206044161 30.802048909564 0 -1 0 0
1859 5 85.71074320438 30.802048909564 0 -1 0 0
1863 7 89.99628036459899 30.802048909564 0 -1 0 0
1867 5 94.281817524818 30.802048909564 0 -1 0 0
1871 7 98.567354685037 30.802048909564 0 -1 0 0
1970 2 2.446533826821998 32.855502137633 0.2907317454170002 0 0 0
1974 4 6.7320709870409985 32.855502137633 0.2907317454170002 0 0 0
1978 2 11.017608147259999 32.855502137633 0.2907317454170002 0 0 0
1982 4 15.303145307479006 32.855502137633 0.2907317454170002 0 0 0
1986 2 19.588682467698 32.855502137633 0.2907317454170002 0 0 0
1990 4 23.874219627917007 32.855502137633 0.2907317454170002 0 0 0
1994 2 28.159756788136 32.855502137633 0.2907317454170002 0 0 0
1998 4 32.445293948354994 32.855502137633 0.2907317454170002 0 0 0
2002 2 36.730831108574 32.855502137633 0.2907317454170002 0 0 0
2006 4 41.016368268792995 32.855502137633 0.2907317454170002 0 0 0
2010 2 45.301905429012 32.855502137633 0.2907317454170002 0 0 0
2014 4 49.587442589230996 32.855502137633 0.2907317454170002 0 0 0
1922 2 53.872979749449996 32.855502137633 0.2907317454170002 -1 0 0
1926 4 58.158516909669 32.855502137633 0.2907317454170002 -1 0 0
1930 2 62.444054069888 32.855502137633 0.2907317454170002 -1 0 0
1934 4 66.72959123010699 32.855502137633 0.2907317454170002 -1 0 0
1938 2 71.015128390326 32.855502137633 0.2907317454170002 -1 0 0
1942 4 75.300665550545 32.855502137633 0.2907317454170002 -1 0 0
1946 2 79.586202710764 32.855502137633 0.2907317454170002 -1 0 0
1950 4 83.87173987098299 32.855502137633 0.2907317454170002 -1 0 0
1954 2 88.157277031202 32.855502137633 0.2907317454170002 -1 0 0
1958 4 92.44281419142101 32.855502137633 0.2907317454170002 -1 0 0
1962 2 96.72835135164 32.855502137633 0.2907317454170002 -1 0 0
1966 4 101.013888511859 32.855502137633 0.2907317454170002 -1 0 0
1971 5 0 34.908986201924996 0 0 0 0
1975 7 4.285537160219 34.908986201924996 0 0 0 0
1979 5 8.571074320438 34.908986201924996 0 0 0 0
1983 7 12.856611480657001 34.908986201924996 0 0 0 0
1987 5 17.142148640875995 34.908986201924996 0 0 0 0
1991 7 21.427685801095002 34.908986201924996 0 0 0 0
1995 5 25.713222961313996 34.908986201924996 0 0 0 0
1999 7 29.998760121533003 34.908986201924996 0 0 0 0
2003 5 34.284297281751996 34.908986201924996 0 0 0 0
2007 7 38.569834441971004 34.908986201924996 0 0 0 0
2011 5 42.85537160219 34.908986201924996 0 0 0 0
2015 7 47.140908762409005 34.908986201924996 0 0 0 0
1923 5 51.426445922628 34.908986201924996 0 -1 0 0
1927 7 55.711983082847 34.908986201924996 0 -1 0 0
1931 5 59.997520243066 34.908986201924996 0 -1 0 0
1935 7 64.283057403285 34.908986201924996 0 -1 0 0
1939 5 68.56859456350399 34.908986201924996 0 -1 0 0
1943 7 72.854131723723 34.908986201924996 0 -1 0 0
1947 5 77.139668883942 34.908986201924996 0 -1 0 0
1951 7 81.425206044161 34.908986201924996 0 -1 0 0
1955 5 85.71074320438 34.908986201924996 0 -1 0 0
1959 7 89.99628036459899 34.908986201924996 0 -1 0 0
1963 5 94.281817524818 34.908986201924996 0 -1 0 0
1967 7 98.567354685037 34.908986201924996 0 -1 0 0
2066 2 2.446533826821998 36.962439429994 0.2907317454170002 0 0 0
2070 4 6.7320709870409985 36.962439429994 0.2907317454170002 0 0 0
2074 2 11.017608147259999 36.962439429994 0.2907317454170002 0 0 0
2078 4 15.303145307479006 36.962439429994 0.2907317454170002 0 0 0
2082 2 19.588682467698 36.962439429994 0.2907317454170002 0 0 0
2086 4 23.874219627917007 36.962439429994 0.2907317454170002 0 0 0
2090 2 28.159756788136 36.962439429994 0.2907317454170002 0 0 0
2094 4 32.445293948354994 36.962439429994 0.2907317454170002 0 0 0
2098 2 36.730831108574 36.962439429994 0.2907317454170002 0 0 0
2102 4 41.016368268792995 36.962439429994 0.2907317454170002 0 0 0
2106 2 45.301905429012 36.962439429994 0.2907317454170002 0 0 0
2110 4 49.587442589230996 36.962439429994 0.2907317454170002 0 0 0
2018 2 53.872979749449996 36.962439429994 0.2907317454170002 -1 0 0
2022 4 58.158516909669 36.962439429994 0.2907317454170002 -1 0 0
2026 2 62.444054069888 36.962439429994 0.2907317454170002 -1 0 0
2030 4 66.72959123010699 36.962439429994 0.2907317454170002 -1 0 0
2034 2 71.015128390326 36.962439429994 0.2907317454170002 -1 0 0
2038 4 75.300665550545 36.962439429994 0.2907317454170002 -1 0 0
2042 2 79.586202710764 36.962439429994 0.2907317454170002 -1 0 0
2046 4 83.87173987098299 36.962439429994 0.2907317454170002 -1 0 0
2050 2 88.157277031202 36.962439429994 0.2907317454170002 -1 0 0
2054 4 92.44281419142101 36.962439429994 0.2907317454170002 -1 0 0
2058 2 96.72835135164 36.962439429994 0.2907317454170002 -1 0 0
2062 4 101.013888511859 36.962439429994 0.2907317454170002 -1 0 0
2067 5 0 39.01592349428599 0 0 0 0
2071 7 4.285537160219 39.01592349428599 0 0 0 0
2075 5 8.571074320438 39.01592349428599 0 0 0 0
2079 7 12.856611480657001 39.01592349428599 0 0 0 0
2083 5 17.142148640875995 39.01592349428599 0 0 0 0
2087 7 21.427685801095002 39.01592349428599 0 0 0 0
2091 5 25.713222961313996 39.01592349428599 0 0 0 0
2095 7 29.998760121533003 39.01592349428599 0 0 0 0
2099 5 34.284297281751996 39.01592349428599 0 0 0 0
2103 7 38.569834441971004 39.01592349428599 0 0 0 0
2107 5 42.85537160219 39.01592349428599 0 0 0 0
2111 7 47.140908762409005 39.01592349428599 0 0 0 0
2019 5 51.426445922628 39.01592349428599 0 -1 0 0
2023 7 55.711983082847 39.01592349428599 0 -1 0 0
2027 5 59.997520243066 39.01592349428599 0 -1 0 0
2031 7 64.283057403285 39.01592349428599 0 -1 0 0
2035 5 68.56859456350399 39.01592349428599 0 -1 0 0
2039 7 72.854131723723 39.01592349428599 0 -1 0 0
2043 5 77.139668883942 39.01592349428599 0 -1 0 0
2047 7 81.425206044161 39.01592349428599 0 -1 0 0
2051 5 85.71074320438 39.01592349428599 0 -1 0 0
2055 7 89.99628036459899 39.01592349428599 0 -1 0 0
2059 5 94.281817524818 39.01592349428599 0 -1 0 0
2063 7 98.567354685037 39.01592349428599 0 -1 0 0
2162 2 2.446533826821998 41.069376722354995 0.2907317454170002 0 0 0
2166 4 6.7320709870409985 41.069376722354995 0.2907317454170002 0 0 0
2170 2 11.017608147259999 41.069376722354995 0.2907317454170002 0 0 0
2174 4 15.303145307479006 41.069376722354995 0.2907317454170002 0 0 0
2178 2 19.588682467698 41.069376722354995 0.2907317454170002 0 0 0
2182 4 23.874219627917007 41.069376722354995 0.2907317454170002 0 0 0
2186 2 28.159756788136 41.069376722354995 0.2907317454170002 0 0 0
2190 4 32.445293948354994 41.069376722354995 0.2907317454170002 0 0 0
2194 2 36.730831108574 41.069376722354995 0.2907317454170002 0 0 0
2198 4 41.016368268792995 41.069376722354995 0.2907317454170002 0 0 0
2202 2 45.301905429012 41.069376722354995 0.2907317454170002 0 0 0
2206 4 49.587442589230996 41.069376722354995 0.2907317454170002 0 0 0
2114 2 53.872979749449996 41.069376722354995 0.2907317454170002 -1 0 0
2118 4 58.158516909669 41.069376722354995 0.2907317454170002 -1 0 0
2122 2 62.444054069888 41.069376722354995 0.2907317454170002 -1 0 0
2126 4 66.72959123010699 41.069376722354995 0.2907317454170002 -1 0 0
2130 2 71.015128390326 41.069376722354995 0.2907317454170002 -1 0 0
2134 4 75.300665550545 41.069376722354995 0.2907317454170002 -1 0 0
2138 2 79.586202710764 41.069376722354995 0.2907317454170002 -1 0 0