LAMMPS data file via write_data, version 29 Aug 2024, timestep = 0, units = metal

2376 atoms
8 atom types

0 98.599014721768 xlo xhi
0 98.606396039697 ylo yhi
0 17.10979291 zlo zhi

Masses

1 72.63
2 72.63
3 72.63
4 72.63
5 32.06
6 32.06
7 32.06
8 32.06

Atoms # atomic

1191 7 0 9.219794650050517e-05 0.21424016283499991 0 0 0
1278 4 2.835432278480006 1.8260676854115019 0 0 0 0
1195 5 4.481773396444005 9.219794650050517e-05 0.21424016283499991 0 0 0
1282 2 7.317205674924004 1.8260676854115019 0 0 0 0
1199 7 8.963546792888003 9.219794650050517e-05 0.21424016283499991 0 0 0
1286 4 11.798979071368002 1.8260676854115019 0 0 0 0
1203 5 13.445320189332001 9.219794650050517e-05 0.21424016283499991 0 0 0
1290 2 16.280752467812007 1.8260676854115019 0 0 0 0
1207 7 17.927093585776007 9.219794650050517e-05 0.21424016283499991 0 0 0
1294 4 20.762525864256006 1.8260676854115019 0 0 0 0
1211 5 22.408866982220005 9.219794650050517e-05 0.21424016283499991 0 0 0
1298 2 25.244299260700004 1.8260676854115019 0 0 0 0
1215 7 26.890640378664003 9.219794650050517e-05 0.21424016283499991 0 0 0
1302 4 29.726072657144 1.8260676854115019 0 0 0 0
1219 5 31.372413775108 9.219794650050517e-05 0.21424016283499991 0 0 0
1306 2 34.207846053588 1.8260676854115019 0 0 0 0
1223 7 35.854187171552 9.219794650050517e-05 0.21424016283499991 0 0 0
1310 4 38.689619450032 1.8260676854115019 0 0 0 0
1227 5 40.335960567996 9.219794650050517e-05 0.21424016283499991 0 0 0
1314 2 43.17139284647601 1.8260676854115019 0 0 0 0
1231 7 44.81773396444001 9.219794650050517e-05 0.21424016283499991 0 0 0
1318 4 47.65316624292001 1.8260676854115019 0 0 0 0
1147 5 49.299507360884 9.219794650050517e-05 0.21424016283499991 -1 0 0
1234 2 52.134939639364006 1.8260676854115019 0 -1 0 0
1151 7 53.781280757328005 9.219794650050517e-05 0.21424016283499991 -1 0 0
1238 4 56.616713035808004 1.8260676854115019 0 -1 0 0
1155 5 58.263054153772 9.219794650050517e-05 0.21424016283499991 -1 0 0
1242 2 61.098486432252 1.8260676854115019 0 -1 0 0
1159 7 62.744827550216 9.219794650050517e-05 0.21424016283499991 -1 0 0
1246 4 65.580259828696 1.8260676854115019 0 -1 0 0
1163 5 67.22660094666 9.219794650050517e-05 0.21424016283499991 -1 0 0
1250 2 70.06203322514 1.8260676854115019 0 -1 0 0
1167 7 71.708374343104 9.219794650050517e-05 0.21424016283499991 -1 0 0
1254 4 74.543806621584 1.8260676854115019 0 -1 0 0
1171 5 76.190147739548 9.219794650050517e-05 0.21424016283499991 -1 0 0
1258 2 79.025580018028 1.8260676854115019 0 -1 0 0
1175 7 80.67192113599201 9.219794650050517e-05 0.21424016283499991 -1 0 0
1262 4 83.50735341447199 1.8260676854115019 0 -1 0 0
1179 5 85.153694532436 9.219794650050517e-05 0.21424016283499991 -1 0 0
1266 2 87.989126810916 1.8260676854115019 0 -1 0 0
1183 7 89.63546792888 9.219794650050517e-05 0.21424016283499991 -1 0 0
1270 4 92.47090020736 1.8260676854115019 0 -1 0 0
1187 5 94.117241325324 9.219794650050517e-05 0.21424016283499991 -1 0 0
1274 2 96.952673603804 1.8260676854115019 0 -1 0 0
1279 7 0 3.6521809401575 0.21424016283499991 0 0 0
1283 5 4.481773396444005 3.6521809401575 0.21424016283499991 0 0 0
1287 7 8.963546792888003 3.6521809401575 0.21424016283499991 0 0 0
1291 5 13.445320189332001 3.6521809401575 0.21424016283499991 0 0 0
1295 7 17.927093585776007 3.6521809401575 0.21424016283499991 0 0 0
1299 5 22.408866982220005 3.6521809401575 0.21424016283499991 0 0 0
1303 7 26.890640378664003 3.6521809401575 0.21424016283499991 0 0 0
1307 5 31.372413775108 3.6521809401575 0.21424016283499991 0 0 0
1311 7 35.854187171552 3.6521809401575 0.21424016283499991 0 0 0
1315 5 40.335960567996 3.6521809401575 0.21424016283499991 0 0 0
1319 7 44.81773396444001 3.6521809401575 0.21424016283499991 0 0 0
1235 5 49.299507360884 3.6521809401575 0.21424016283499991 -1 0 0
1239 7 53.781280757328005 3.6521809401575 0.21424016283499991 -1 0 0
1243 5 58.263054153772 3.6521809401575 0.21424016283499991 -1 0 0
1247 7 62.744827550216 3.6521809401575 0.21424016283499991 -1 0 0
1251 5 67.22660094666 3.6521809401575 0.21424016283499991 -1 0 0
1255 7 71.708374343104 3.6521809401575 0.21424016283499991 -1 0 0
1259 5 76.190147739548 3.6521809401575 0.21424016283499991 -1 0 0
1263 7 80.67192113599201 3.6521809401575 0.21424016283499991 -1 0 0
1267 5 85.153694532436 3.6521809401575 0.21424016283499991 -1 0 0
1271 7 89.63546792888 3.6521809401575 0.21424016283499991 -1 0 0
1275 5 94.117241325324 3.6521809401575 0.21424016283499991 -1 0 0
1366 4 2.835432278480006 5.478156427622501 0 0 0 0
1370 2 7.317205674924004 5.478156427622501 0 0 0 0
1374 4 11.798979071368002 5.478156427622501 0 0 0 0
1378 2 16.280752467812007 5.478156427622501 0 0 0 0
1382 4 20.762525864256006 5.478156427622501 0 0 0 0
1386 2 25.244299260700004 5.478156427622501 0 0 0 0
1390 4 29.726072657144 5.478156427622501 0 0 0 0
1394 2 34.207846053588 5.478156427622501 0 0 0 0
1398 4 38.689619450032 5.478156427622501 0 0 0 0
1402 2 43.17139284647601 5.478156427622501 0 0 0 0
1406 4 47.65316624292001 5.478156427622501 0 0 0 0
1322 2 52.134939639364006 5.478156427622501 0 -1 0 0
1326 4 56.616713035808004 5.478156427622501 0 -1 0 0
1330 2 61.098486432252 5.478156427622501 0 -1 0 0
1334 4 65.580259828696 5.478156427622501 0 -1 0 0
1338 2 70.06203322514 5.478156427622501 0 -1 0 0
1342 4 74.543806621584 5.478156427622501 0 -1 0 0
1346 2 79.025580018028 5.478156427622501 0 -1 0 0
1350 4 83.50735341447199 5.478156427622501 0 -1 0 0
1354 2 87.989126810916 5.478156427622501 0 -1 0 0
1358 4 92.47090020736 5.478156427622501 0 -1 0 0
1362 2 96.952673603804 5.478156427622501 0 -1 0 0
1367 7 0 7.304269682368499 0.21424016283499991 0 0 0
1371 5 4.481773396444005 7.304269682368499 0.21424016283499991 0 0 0
1375 7 8.963546792888003 7.304269682368499 0.21424016283499991 0 0 0
1379 5 13.445320189332001 7.304269682368499 0.21424016283499991 0 0 0
1383 7 17.927093585776007 7.304269682368499 0.21424016283499991 0 0 0
1387 5 22.408866982220005 7.304269682368499 0.21424016283499991 0 0 0
1391 7 26.890640378664003 7.304269682368499 0.21424016283499991 0 0 0
1395 5 31.372413775108 7.304269682368499 0.21424016283499991 0 0 0
1399 7 35.854187171552 7.304269682368499 0.21424016283499991 0 0 0
1403 5 40.335960567996 7.304269682368499 0.21424016283499991 0 0 0
1407 7 44.81773396444001 7.304269682368499 0.21424016283499991 0 0 0
1323 5 49.299507360884 7.304269682368499 0.21424016283499991 -1 0 0
1327 7 53.781280757328005 7.304269682368499 0.21424016283499991 -1 0 0
1331 5 58.263054153772 7.304269682368499 0.21424016283499991 -1 0 0
1335 7 62.744827550216 7.304269682368499 0.21424016283499991 -1 0 0
1339 5 67.22660094666 7.304269682368499 0.21424016283499991 -1 0 0
1343 7 71.708374343104 7.304269682368499 0.21424016283499991 -1 0 0
1347 5 76.190147739548 7.304269682368499 0.21424016283499991 -1 0 0
1351 7 80.67192113599201 7.304269682368499 0.21424016283499991 -1 0 0
1355 5 85.153694532436 7.304269682368499 0.21424016283499991 -1 0 0
1359 7 89.63546792888 7.304269682368499 0.21424016283499991 -1 0 0
1363 5 94.117241325324 7.304269682368499 0.21424016283499991 -1 0 0
1454 4 2.835432278480006 9.1302451698335 0 0 0 0
1458 2 7.317205674924004 9.1302451698335 0 0 0 0
1462 4 11.798979071368002 9.1302451698335 0 0 0 0
1466 2 16.280752467812007 9.1302451698335 0 0 0 0
1470 4 20.762525864256006 9.1302451698335 0 0 0 0
1474 2 25.244299260700004 9.1302451698335 0 0 0 0
1478 4 29.726072657144 9.1302451698335 0 0 0 0
1482 2 34.207846053588 9.1302451698335 0 0 0 0
1486 4 38.689619450032 9.1302451698335 0 0 0 0
1490 2 43.17139284647601 9.1302451698335 0 0 0 0
1494 4 47.65316624292001 9.1302451698335 0 0 0 0
1410 2 52.134939639364006 9.1302451698335 0 -1 0 0
1414 4 56.616713035808004 9.1302451698335 0 -1 0 0
1418 2 61.098486432252 9.1302451698335 0 -1 0 0
1422 4 65.580259828696 9.1302451698335 0 -1 0 0
1426 2 70.06203322514 9.1302451698335 0 -1 0 0
1430 4 74.543806621584 9.1302451698335 0 -1 0 0
1434 2 79.025580018028 9.1302451698335 0 -1 0 0
1438 4 83.50735341447199 9.1302451698335 0 -1 0 0
1442 2 87.989126810916 9.1302451698335 0 -1 0 0
1446 4 92.47090020736 9.1302451698335 0 -1 0 0
1450 2 96.952673603804 9.1302451698335 0 -1 0 0
1455 7 0 10.956358424579498 0.21424016283499991 0 0 0
1459 5 4.481773396444005 10.956358424579498 0.21424016283499991 0 0 0
1463 7 8.963546792888003 10.956358424579498 0.21424016283499991 0 0 0
1467 5 13.445320189332001 10.956358424579498 0.21424016283499991 0 0 0
1471 7 17.927093585776007 10.956358424579498 0.21424016283499991 0 0 0
1475 5 22.408866982220005 10.956358424579498 0.21424016283499991 0 0 0
1479 7 26.890640378664003 10.956358424579498 0.21424016283499991 0 0 0
1483 5 31.372413775108 10.956358424579498 0.21424016283499991 0 0 0
1487 7 35.854187171552 10.956358424579498 0.21424016283499991 0 0 0
1491 5 40.335960567996 10.956358424579498 0.21424016283499991 0 0 0
1495 7 44.81773396444001 10.956358424579498 0.21424016283499991 0 0 0
1411 5 49.299507360884 10.956358424579498 0.21424016283499991 -1 0 0
1415 7 53.781280757328005 10.956358424579498 0.21424016283499991 -1 0 0
1419 5 58.263054153772 10.956358424579498 0.21424016283499991 -1 0 0
1423 7 62.744827550216 10.956358424579498 0.21424016283499991 -1 0 0
1427 5 67.22660094666 10.956358424579498 0.21424016283499991 -1 0 0
1431 7 71.708374343104 10.956358424579498 0.21424016283499991 -1 0 0
1435 5 76.190147739548 10.956358424579498 0.21424016283499991 -1 0 0
1439 7 80.67192113599201 10.956358424579498 0.21424016283499991 -1 0 0
1443 5 85.153694532436 10.956358424579498 0.21424016283499991 -1 0 0
1447 7 89.63546792888 10.956358424579498 0.21424016283499991 -1 0 0
1451 5 94.117241325324 10.956358424579498 0.21424016283499991 -1 0 0
1542 4 2.835432278480006 12.7823339120445 0 0 0 0
1546 2 7.317205674924004 12.7823339120445 0 0 0 0
1550 4 11.798979071368002 12.7823339120445 0 0 0 0
1554 2 16.280752467812007 12.7823339120445 0 0 0 0
1558 4 20.762525864256006 12.7823339120445 0 0 0 0
1562 2 25.244299260700004 12.7823339120445 0 0 0 0
1566 4 29.726072657144 12.7823339120445 0 0 0 0
1570 2 34.207846053588 12.7823339120445 0 0 0 0
1574 4 38.689619450032 12.7823339120445 0 0 0 0
1578 2 43.17139284647601 12.7823339120445 0 0 0 0
1582 4 47.65316624292001 12.7823339120445 0 0 0 0
1498 2 52.134939639364006 12.7823339120445 0 -1 0 0
1502 4 56.616713035808004 12.7823339120445 0 -1 0 0
1506 2 61.098486432252 12.7823339120445 0 -1 0 0
1510 4 65.580259828696 12.7823339120445 0 -1 0 0
1514 2 70.06203322514 12.7823339120445 0 -1 0 0
1518 4 74.543806621584 12.7823339120445 0 -1 0 0
1522 2 79.025580018028 12.7823339120445 0 -1 0 0
1526 4 83.50735341447199 12.7823339120445 0 -1 0 0
1530 2 87.989126810916 12.7823339120445 0 -1 0 0
1534 4 92.47090020736 12.7823339120445 0 -1 0 0
1538 2 96.952673603804 12.7823339120445 0 -1 0 0
1543 7 0 14.608447166790505 0.21424016283499991 0 0 0
1547 5 4.481773396444005 14.608447166790505 0.21424016283499991 0 0 0
1551 7 8.963546792888003 14.608447166790505 0.21424016283499991 0 0 0
1555 5 13.445320189332001 14.608447166790505 0.21424016283499991 0 0 0
1559 7 17.927093585776007 14.608447166790505 0.21424016283499991 0 0 0
1563 5 22.408866982220005 14.608447166790505 0.21424016283499991 0 0 0
1567 7 26.890640378664003 14.608447166790505 0.21424016283499991 0 0 0
1571 5 31.372413775108 14.608447166790505 0.21424016283499991 0 0 0
1575 7 35.854187171552 14.608447166790505 0.21424016283499991 0 0 0
1579 5 40.335960567996 14.608447166790505 0.21424016283499991 0 0 0
1583 7 44.81773396444001 14.608447166790505 0.21424016283499991 0 0 0
1499 5 49.299507360884 14.608447166790505 0.21424016283499991 -1 0 0
1503 7 53.781280757328005 14.608447166790505 0.21424016283499991 -1 0 0
1507 5 58.263054153772 14.608447166790505 0.21424016283499991 -1 0 0
1511 7 62.744827550216 14.608447166790505 0.21424016283499991 -1 0 0
1515 5 67.22660094666 14.608447166790505 0.21424016283499991 -1 0 0
1519 7 71.708374343104 14.608447166790505 0.21424016283499991 -1 0 0
1523 5 76.190147739548 14.608447166790505 0.21424016283499991 -1 0 0
1527 7 80.67192113599201 14.608447166790505 0.21424016283499991 -1 0 0
1531 5 85.153694532436 14.608447166790505 0.21424016283499991 -1 0 0
1535 7 89.63546792888 14.608447166790505 0.21424016283499991 -1 0 0
1539 5 94.117241325324 14.608447166790505 0.21424016283499991 -1 0 0
1630 4 2.835432278480006 16.434422654255506 0 0 0 0
1634 2 7.317205674924004 16.434422654255506 0 0 0 0
1638 4 11.798979071368002 16.434422654255506 0 0 0 0
1642 2 16.280752467812007 16.434422654255506 0 0 0 0
1646 4 20.762525864256006 16.434422654255506 0 0 0 0
1650 2 25.244299260700004 16.434422654255506 0 0 0 0
1654 4 29.726072657144 16.434422654255506 0 0 0 0
1658 2 34.207846053588 16.434422654255506 0 0 0 0
1662 4 38.689619450032 16.434422654255506 0 0 0 0
1666 2 43.17139284647601 16.434422654255506 0 0 0 0
1670 4 47.65316624292001 16.434422654255506 0 0 0 0
1586 2 52.134939639364006 16.434422654255506 0 -1 0 0
1590 4 56.616713035808004 16.434422654255506 0 -1 0 0
1594 2 61.098486432252 16.434422654255506 0 -1 0 0
1598 4 65.580259828696 16.434422654255506 0 -1 0 0
1602 2 70.06203322514 16.434422654255506 0 -1 0 0
1606 4 74.543806621584 16.434422654255506 0 -1 0 0
1610 2 79.025580018028 16.434422654255506 0 -1 0 0
1614 4 83.50735341447199 16.434422654255506 0 -1 0 0
1618 2 87.989126810916 16.434422654255506 0 -1 0 0
1622 4 92.47090020736 16.434422654255506 0 -1 0 0
1626 2 96.952673603804 16.434422654255506 0 -1 0 0
1631 7 0 18.260535909001497 0.21424016283499991 0 0 0
1635 5 4.481773396444005 18.260535909001497 0.21424016283499991 0 0 0
1639 7 8.963546792888003 18.260535909001497 0.21424016283499991 0 0 0
1643 5 13.445320189332001 18.260535909001497 0.21424016283499991 0 0 0
1647 7 17.927093585776007 18.260535909001497 0.21424016283499991 0 0 0
1651 5 22.408866982220005 18.260535909001497 0.21424016283499991 0 0 0
1655 7 26.890640378664003 18.260535909001497 0.21424016283499991 0 0 0
1659 5 31.372413775108 18.260535909001497 0.21424016283499991 0 0 0
1663 7 35.854187171552 18.260535909001497 0.21424016283499991 0 0 0
1667 5 40.335960567996 18.260535909001497 0.21424016283499991 0 0 0
1671 7 44.81773396444001 18.260535909001497 0.21424016283499991 0 0 0
1587 5 49.299507360884 18.260535909001497 0.21424016283499991 -1 0 0
1591 7 53.781280757328005 18.260535909001497 0.21424016283499991 -1 0 0
1595 5 58.263054153772 18.260535909001497 0.21424016283499991 -1 0 0
1599 7 62.744827550216 18.260535909001497 0.21424016283499991 -1 0 0
1603 5 67.22660094666 18.260535909001497 0.21424016283499991 -1 0 0
1607 7 71.708374343104 18.260535909001497 0.21424016283499991 -1 0 0
1611 5 76.190147739548 18.260535909001497 0.21424016283499991 -1 0 0
1615 7 80.67192113599201 18.260535909001497 0.21424016283499991 -1 0 0
1619 5 85.153694532436 18.260535909001497 0.21424016283499991 -1 0 0
1623 7 89.63546792888 18.260535909001497 0.21424016283499991 -1 0 0
1627 5 94.117241325324 18.260535909001497 0.21424016283499991 -1 0 0
1718 4 2.835432278480006 20.0865113964665 0 0 0 0
1722 2 7.317205674924004 20.0865113964665 0 0 0 0
1726 4 11.798979071368002 20.0865113964665 0 0 0 0
1730 2 16.280752467812007 20.0865113964665 0 0 0 0
1734 4 20.762525864256006 20.0865113964665 0 0 0 0
1738 2 25.244299260700004 20.0865113964665 0 0 0 0
1742 4 29.726072657144 20.0865113964665 0 0 0 0
1746 2 34.207846053588 20.0865113964665 0 0 0 0
1750 4 38.689619450032 20.0865113964665 0 0 0 0
1754 2 43.17139284647601 20.0865113964665 0 0 0 0
1758 4 47.65316624292001 20.0865113964665 0 0 0 0
1674 2 52.134939639364006 20.0865113964665 0 -1 0 0
1678 4 56.616713035808004 20.0865113964665 0 -1 0 0
1682 2 61.098486432252 20.0865113964665 0 -1 0 0
1686 4 65.580259828696 20.0865113964665 0 -1 0 0
1690 2 70.06203322514 20.0865113964665 0 -1 0 0
1694 4 74.543806621584 20.0865113964665 0 -1 0 0
1698 2 79.025580018028 20.0865113964665 0 -1 0 0
1702 4 83.50735341447199 20.0865113964665 0 -1 0 0
1706 2 87.989126810916 20.0865113964665 0 -1 0 0
1710 4 92.47090020736 20.0865113964665 0 -1 0 0
1714 2 96.952673603804 20.0865113964665 0 -1 0 0
1719 7 0 21.912624651212504 0.21424016283499991 0 0 0
1723 5 4.481773396444005 21.912624651212504 0.21424016283499991 0 0 0
1727 7 8.963546792888003 21.912624651212504 0.21424016283499991 0 0 0
1731 5 13.445320189332001 21.912624651212504 0.21424016283499991 0 0 0
1735 7 17.927093585776007 21.912624651212504 0.21424016283499991 0 0 0
1739 5 22.408866982220005 21.912624651212504 0.21424016283499991 0 0 0
1743 7 26.890640378664003 21.912624651212504 0.21424016283499991 0 0 0
1747 5 31.372413775108 21.912624651212504 0.21424016283499991 0 0 0
1751 7 35.854187171552 21.912624651212504 0.21424016283499991 0 0 0
1755 5 40.335960567996 21.912624651212504 0.21424016283499991 0 0 0
1759 7 44.81773396444001 21.912624651212504 0.21424016283499991 0 0 0
1675 5 49.299507360884 21.912624651212504 0.21424016283499991 -1 0 0
1679 7 53.781280757328005 21.912624651212504 0.21424016283499991 -1 0 0
1683 5 58.263054153772 21.912624651212504 0.21424016283499991 -1 0 0
1687 7 62.744827550216 21.912624651212504 0.21424016283499991 -1 0 0
1691 5 67.22660094666 21.912624651212504 0.21424016283499991 -1 0 0
1695 7 71.708374343104 21.912624651212504 0.21424016283499991 -1 0 0
1699 5 76.190147739548 21.912624651212504 0.21424016283499991 -1 0 0
1703 7 80.67192113599201 21.912624651212504 0.21424016283499991 -1 0 0
1707 5 85.153694532436 21.912624651212504 0.21424016283499991 -1 0 0
1711 7 89.63546792888 21.912624651212504 0.21424016283499991 -1 0 0
1715 5 94.117241325324 21.912624651212504 0.21424016283499991 -1 0 0
1806 4 2.835432278480006 23.738600138677505 0 0 0 0
1810 2 7.317205674924004 23.738600138677505 0 0 0 0
1814 4 11.798979071368002 23.738600138677505 0 0 0 0
1818 2 16.280752467812007 23.738600138677505 0 0 0 0
1822 4 20.762525864256006 23.738600138677505 0 0 0 0
1826 2 25.244299260700004 23.738600138677505 0 0 0 0
1830 4 29.726072657144 23.738600138677505 0 0 0 0
1834 2 34.207846053588 23.738600138677505 0 0 0 0
1838 4 38.689619450032 23.738600138677505 0 0 0 0
1842 2 43.17139284647601 23.738600138677505 0 0 0 0
1846 4 47.65316624292001 23.738600138677505 0 0 0 0
1762 2 52.134939639364006 23.738600138677505 0 -1 0 0
1766 4 56.616713035808004 23.738600138677505 0 -1 0 0
1770 2 61.098486432252 23.738600138677505 0 -1 0 0
1774 4 65.580259828696 23.738600138677505 0 -1 0 0
1778 2 70.06203322514 23.738600138677505 0 -1 0 0
1782 4 74.543806621584 23.738600138677505 0 -1 0 0
1786 2 79.025580018028 23.738600138677505 0 -1 0 0
1790 4 83.50735341447199 23.738600138677505 0 -1 0 0
1794 2 87.989126810916 23.738600138677505 0 -1 0 0
1798 4 92.47090020736 23.738600138677505 0 -1 0 0
1802 2 96.952673603804 23.738600138677505 0 -1 0 0
1807 7 0 25.564713393423496 0.21424016283499991 0 0 0
1811 5 4.481773396444005 25.564713393423496 0.21424016283499991 0 0 0
1815 7 8.963546792888003 25.564713393423496 0.21424016283499991 0 0 0
1819 5 13.445320189332001 25.564713393423496 0.21424016283499991 0 0 0
1823 7 17.927093585776007 25.564713393423496 0.21424016283499991 0 0 0
1827 5 22.408866982220005 25.564713393423496 0.21424016283499991 0 0 0
1831 7 26.890640378664003 25.564713393423496 0.21424016283499991 0 0 0
1835 5 31.372413775108 25.564713393423496 0.21424016283499991 0 0 0
1839 7 35.854187171552 25.564713393423496 0.21424016283499991 0 0 0
1843 5 40.335960567996 25.564713393423496 0.21424016283499991 0 0 0
1847 7 44.81773396444001 25.564713393423496 0.21424016283499991 0 0 0
1763 5 49.299507360884 25.564713393423496 0.21424016283499991 -1 0 0
1767 7 53.781280757328005 25.564713393423496 0.21424016283499991 -1 0 0
1771 5 58.263054153772 25.564713393423496 0.21424016283499991 -1 0 0
1775 7 62.744827550216 25.564713393423496 0.21424016283499991 -1 0 0
1779 5 67.22660094666 25.564713393423496 0.21424016283499991 -1 0 0
1783 7 71.708374343104 25.564713393423496 0.21424016283499991 -1 0 0
1787 5 76.190147739548 25.564713393423496 0.21424016283499991 -1 0 0
1791 7 80.67192113599201 25.564713393423496 0.21424016283499991 -1 0 0
1795 5 85.153694532436 25.564713393423496 0.21424016283499991 -1 0 0
1799 7 89.63546792888 25.564713393423496 0.21424016283499991 -1 0 0
1803 5 94.117241325324 25.564713393423496 0.21424016283499991 -1 0 0
1894 4 2.835432278480006 27.390688880888497 0 0 0 0
1898 2 7.317205674924004 27.390688880888497 0 0 0 0
1902 4 11.798979071368002 27.390688880888497 0 0 0 0
1906 2 16.280752467812007 27.390688880888497 0 0 0 0
1910 4 20.762525864256006 27.390688880888497 0 0 0 0
1914 2 25.244299260700004 27.390688880888497 0 0 0 0
1918 4 29.726072657144 27.390688880888497 0 0 0 0
1922 2 34.207846053588 27.390688880888497 0 0 0 0
1926 4 38.689619450032 27.390688880888497 0 0 0 0
1930 2 43.17139284647601 27.390688880888497 0 0 0 0
1934 4 47.65316624292001 27.390688880888497 0 0 0 0
1850 2 52.134939639364006 27.390688880888497 0 -1 0 0
1854 4 56.616713035808004 27.390688880888497 0 -1 0 0
1858 2 61.098486432252 27.390688880888497 0 -1 0 0
1862 4 65.580259828696 27.390688880888497 0 -1 0 0
1866 2 70.06203322514 27.390688880888497 0 -1 0 0
1870 4 74.543806621584 27.390688880888497 0 -1 0 0
1874 2 79.025580018028 27.390688880888497 0 -1 0 0
1878 4 83.50735341447199 27.390688880888497 0 -1 0 0
1882 2 87.989126810916 27.390688880888497 0 -1 0 0
1886 4 92.47090020736 27.390688880888497 0 -1 0 0
1890 2 96.952673603804 27.390688880888497 0 -1 0 0
1895 7 0 29.216802135634502 0.21424016283499991 0 0 0
1899 5 4.481773396444005 29.216802135634502 0.21424016283499991 0 0 0
1903 7 8.963546792888003 29.216802135634502 0.21424016283499991 0 0 0
1907 5 13.445320189332001 29.216802135634502 0.21424016283499991 0 0 0
1911 7 17.927093585776007 29.216802135634502 0.21424016283499991 0 0 0
1915 5 22.408866982220005 29.216802135634502 0.21424016283499991 0 0 0
1919 7 26.890640378664003 29.216802135634502 0.21424016283499991 0 0 0
1923 5 31.372413775108 29.216802135634502 0.21424016283499991 0 0 0
1927 7 35.854187171552 29.216802135634502 0.21424016283499991 0 0 0
1931 5 40.335960567996 29.216802135634502 0.21424016283499991 0 0 0
1935 7 44.81773396444001 29.216802135634502 0.21424016283499991 0 0 0
1851 5 49.299507360884 29.216802135634502 0.21424016283499991 -1 0 0
1855 7 53.781280757328005 29.216802135634502 0.21424016283499991 -1 0 0
1859 5 58.263054153772 29.216802135634502 0.21424016283499991 -1 0 0
1863 7 62.744827550216 29.216802135634502 0.21424016283499991 -1 0 0
1867 5 67.22660094666 29.216802135634502 0.21424016283499991 -1 0 0
1871 7 71.708374343104 29.216802135634502 0.21424016283499991 -1 0 0
1875 5 76.190147739548 29.216802135634502 0.21424016283499991 -1 0 0
1879 7 80.67192113599201 29.216802135634502 0.21424016283499991 -1 0 0
1883 5 85.153694532436 29.216802135634502 0.21424016283499991 -1 0 0
1887 7 89.63546792888 29.216802135634502 0.21424016283499991 -1 0 0
1891 5 94.117241325324 29.216802135634502 0.21424016283499991 -1 0 0
1982 4 2.835432278480006 31.042777623099504 0 0 0 0
1986 2 7.317205674924004 31.042777623099504 0 0 0 0
1990 4 11.798979071368002 31.042777623099504 0 0 0 0
1994 2 16.280752467812007 31.042777623099504 0 0 0 0
1998 4 20.762525864256006 31.042777623099504 0 0 0 0
2002 2 25.244299260700004 31.042777623099504 0 0 0 0
2006 4 29.726072657144 31.042777623099504 0 0 0 0
2010 2 34.207846053588 31.042777623099504 0 0 0 0
2014 4 38.689619450032 31.042777623099504 0 0 0 0
2018 2 43.17139284647601 31.042777623099504 0 0 0 0
2022 4 47.65316624292001 31.042777623099504 0 0 0 0
1938 2 52.134939639364006 31.042777623099504 0 -1 0 0
1942 4 56.616713035808004 31.042777623099504 0 -1 0 0
1946 2 61.098486432252 31.042777623099504 0 -1 0 0
1950 4 65.580259828696 31.042777623099504 0 -1 0 0
1954 2 70.06203322514 31.042777623099504 0 -1 0 0
1958 4 74.543806621584 31.042777623099504 0 -1 0 0
1962 2 79.025580018028 31.042777623099504 0 -1 0 0
1966 4 83.50735341447199 31.042777623099504 0 -1 0 0
1970 2 87.989126810916 31.042777623099504 0 -1 0 0
1974 4 92.47090020736 31.042777623099504 0 -1 0 0
1978 2 96.952673603804 31.042777623099504 0 -1 0 0
1983 7 0 32.868890877845494 0.21424016283499991 0 0 0
1987 5 4.481773396444005 32.868890877845494 0.21424016283499991 0 0 0
1991 7 8.963546792888003 32.868890877845494 0.21424016283499991 0 0 0
1995 5 13.445320189332001 32.868890877845494 0.21424016283499991 0 0 0
1999 7 17.927093585776007 32.868890877845494 0.21424016283499991 0 0 0
2003 5 22.408866982220005 32.868890877845494 0.21424016283499991 0 0 0
2007 7 26.890640378664003 32.868890877845494 0.21424016283499991 0 0 0
2011 5 31.372413775108 32.868890877845494 0.21424016283499991 0 0 0
2015 7 35.854187171552 32.868890877845494 0.21424016283499991 0 0 0
2019 5 40.335960567996 32.868890877845494 0.21424016283499991 0 0 0
2023 7 44.81773396444001 32.868890877845494 0.21424016283499991 0 0 0
1939 5 49.299507360884 32.868890877845494 0.21424016283499991 -1 0 0
1943 7 53.781280757328005 32.868890877845494 0.21424016283499991 -1 0 0
1947 5 58.263054153772 32.868890877845494 0.21424016283499991 -1 0 0
1951 7 62.744827550216 32.868890877845494 0.21424016283499991 -1 0 0
1955 5 67.22660094666 32.868890877845494 0.21424016283499991 -1 0 0
1959 7 71.708374343104 32.868890877845494 0.21424016283499991 -1 0 0
1963 5 76.190147739548 32.868890877845494 0.21424016283499991 -1 0 0
1967 7 80.67192113599201 32.868890877845494 0.21424016283499991 -1 0 0
1971 5 85.153694532436 32.868890877845494 0.21424016283499991 -1 0 0
1975 7 89.63546792888 32.868890877845494 0.21424016283499991 -1 0 0
1979 5 94.117241325324 32.868890877845494 0.21424016283499991 -1 0 0
2070 4 2.835432278480006 34.694866365310496 0 0 0 0
2074 2 7.317205674924004 34.694866365310496 0 0 0 0
2078 4 11.798979071368002 34.694866365310496 0 0 0 0
2082 2 16.280752467812007 34.694866365310496 0 0 0 0
2086 4 20.762525864256006 34.694866365310496 0 0 0 0
2090 2 25.244299260700004 34.694866365310496 0 0 0 0
2094 4 29.726072657144 34.694866365310496 0 0 0 0
2098 2 34.207846053588 34.694866365310496 0 0 0 0
2102 4 38.689619450032 34.694866365310496 0 0 0 0
2106 2 43.17139284647601 34.694866365310496 0 0 0 0
2110 4 47.65316624292001 34.694866365310496 0 0 0 0
2026 2 52.134939639364006 34.694866365310496 0 -1 0 0
2030 4 56.616713035808004 34.694866365310496 0 -1 0 0
2034 2 61.098486432252 34.694866365310496 0 -1 0 0
2038 4 65.580259828696 34.694866365310496 0 -1 0 0
2042 2 70.06203322514 34.694866365310496 0 -1 0 0
2046 4 74.543806621584 34.694866365310496 0 -1 0 0
2050 2 79.025580018028 34.694866365310496 0 -1 0 0
2054 4 83.50735341447199 34.694866365310496 0 -1 0 0
2058 2 87.989126810916 34.694866365310496 0 -1 0 0
2062 4 92.47090020736 34.694866365310496 0 -1 0 0
2066 2 96.952673603804 34.694866365310496 0 -1 0 0
2071 7 0 36.5209796200565 0.21424016283499991 0 0 0
2075 5 4.481773396444005 36.5209796200565 0.21424016283499991 0 0 0
2079 7 8.963546792888003 36.5209796200565 0.21424016283499991 0 0 0
2083 5 13.445320189332001 36.5209796200565 0.21424016283499991 0 0 0
2087 7 17.927093585776007 36.5209796200565 0.21424016283499991 0 0 0
2091 5 22.408866982220005 36.5209796200565 0.21424016283499991 0 0 0
2095 7 26.890640378664003 36.5209796200565 0.21424016283499991 0 0 0
2099 5 31.372413775108 36.5209796200565 0.21424016283499991 0 0 0
2103 7 35.854187171552 36.5209796200565 0.21424016283499991 0 0 0
2107 5 40.335960567996 36.5209796200565 0.21424016283499991 0 0 0
2111 7 44.81773396444001 36.5209796200565 0.21424016283499991 0 0 0
2027 5 49.299507360884 36.5209796200565 0.21424016283499991 -1 0 0
2031 7 53.781280757328005 36.5209796200565 0.21424016283499991 -1 0 0
2035 5 58.263054153772 36.5209796200565 0.21424016283499991 -1 0 0
2039 7 62.744827550216 36.5209796200565 0.21424016283499991 -1 0 0
2043 5 67.22660094666 36.5209796200565 0.21424016283499991 -1 0 0
2047 7 71.708374343104 36.5209796200565 0.21424016283499991 -1 0 0
2051 5 76.190147739548 36.5209796200565 0.21424016283499991 -1 0 0
2055 7 80.67192113599201 36.5209796200565 0.21424016283499991 -1 0 0
2059 5 85.153694532436 36.5209796200565 0.21424016283499991 -1 0 0
2063 7 89.63546792888 36.5209796200565 0.21424016283499991 -1 0 0
2067 5 94.117241325324 36.5209796200565 0.21424016283499991 -1 0 0
2158 4 2.835432278480006 38.3469551075215 0 0 0 0
2162 2 7.317205674924004 38.3469551075215 0 0 0 0
2166 4 11.798979071368002 38.3469551075215 0 0 0 0
2170 2 16.280752467812007 38.3469551075215 0 0 0 0
2174 4 20.762525864256006 38.3469551075215 0 0 0 0
2178 2 25.244299260700004 38.3469551075215 0 0 0 0
2182 4 29.726072657144 38.3469551075215 0 0 0 0
2186 2 34.207846053588 38.3469551075215 0 0 0 0
2190 4 38.689619450032 38.3469551075215 0 0 0 0
2194 2 43.17139284647601 38.3469551075215 0 0 0 0
2198 4 47.65316624292001 38.3469551075215 0 0 0 0
2114 2 52.134939639364006 38.3469551075215 0 -1 0 0
2118 4 56.616713035808004 38.3469551075215 0 -1 0 0
2122 2 61.098486432252 38.3469551075215 0 -1 0 0
2126 4 65.580259828696 38.3469551075215 0 -1 0 0
2130 2 70.06203322514 38.3469551075215 0 -1 0 0
2134 4 74.543806621584 38.3469551075215 0 -1 0 0
2138 2 79.025580018028 38.3469551075215 0 -1 0 0
2142 4 83.50735341447199 38.3469551075215 0 -1 0 0
2146 2 87.989126810916 38.3469551075215 0 -1 0 0
2150 4 92.47090020736 38.3469551075215 0 -1 0 0
2154 2 96.952673603804 38.3469551075215 0 -1 0 0
2159 7 0 40.17306836226749 0.21424016283499991 0 0 0
2163 5 4.481773396444005 40.17306836226749 0.21424016283499991 0 0 0
2167 7 8.963546792888003 40.17306836226749 0.21424016283499991 0 0 0
2171 5 13.445320189332001 40.17306836226749 0.21424016283499991 0 0 0
2175 7 17.927093585776007 40.17306836226749 0.21424016283499991 0 0 0
2179 5 22.408866982220005 40.17306836226749 0.21424016283499991 0 0 0
2183 7 26.890640378664003 40.17306836226749 0.21424016283499991 0 0 0
2187 5 31.372413775108 40.17306836226749 0.21424016283499991 0 0 0
2191 7 35.854187171552 40.17306836226749 0.21424016283499991 0 0 0
2195 5 40.335960567996 40.17306836226749 0.21424016283499991 0 0 0
2199 7 44.81773396444001 40.17306836226749 0.21424016283499991 0 0 0
2115 5 49.299507360884 40.17306836226749 0.21424016283499991 -1 0 0