LAMMPS data file via write_data, version 29 Aug 2024, timestep = 5, units = metal

7128 atoms
24 atom types

0 98.599014721768 xlo xhi
0 98.606396039697 ylo yhi
-50 50 zlo zhi

Masses

1 72.63
2 72.63
3 72.63
4 72.63
5 72.63
6 72.63
7 72.63
8 72.63
9 72.63
10 72.63
11 72.63
12 72.63
13 32.06
14 32.06
15 32.06
16 32.06
17 32.06
18 32.06
19 32.06
20 32.06
21 32.06
22 32.06
23 32.06
24 32.06

Atoms # atomic

1278 4 2.841043088836911 1.8260679576501277 0.062282208264575444 0 0 0
1195 13 4.418023823553599 9.247583173244182e-05 0.03987241375541512 0 0 0
1283 13 4.4180238235535985 3.652181218042732 0.03987241375541596 0 0 0
1366 4 2.841043088836911 5.478156699861127 0.062282208264575444 0 0 0
1189 3 0.5917888380372702 7.450723781374044e-05 2.3695267283606527 0 0 0
1280 16 2.285466118381596 1.8260478591136542 2.41839420415219 0 0 0
1193 1 5.07356223448127 7.45072378137861e-05 2.3695267283606567 0 0 0
1277 3 0.5917888380372706 3.652163249448813 2.369526728360653 0 0 0
1281 1 5.073562234481268 3.652163249448813 2.369526728360656 0 0 0
1368 16 2.285466118381596 5.478136601324653 2.41839420415219 0 0 0
1282 2 7.322816485280909 1.8260679576501277 0.062282208264574625 0 0 0
1199 15 8.899797219997595 9.247583173244077e-05 0.039872413755418265 0 0 0
1287 15 8.899797219997595 3.652181218042732 0.039872413755418584 0 0 0
1370 2 7.322816485280909 5.478156699861127 0.06228220826457461 0 0 0
1284 14 6.767239514825593 1.8260478591136537 2.41839420415219 0 0 0
1197 3 9.555335630925276 7.450723781358012e-05 2.369526728360654 0 0 0
1288 16 11.249012911269597 1.8260478591136537 2.418394204152191 0 0 0
1285 3 9.555335630925274 3.652163249448813 2.3695267283606536 0 0 0
1372 14 6.767239514825593 5.478136601324653 2.41839420415219 0 0 0
1376 16 11.249012911269597 5.478136601324653 2.418394204152191 0 0 0
1286 4 11.804589881724906 1.8260679576501277 0.0622822082645742 0 0 0
1203 13 13.381570616441593 9.247583173243886e-05 0.03987241375541873 0 0 0
1290 2 16.286363278168913 1.8260679576501277 0.06228220826457687 0 0 0
1291 13 13.381570616441591 3.652181218042732 0.0398724137554197 0 0 0
1374 4 11.804589881724906 5.478156699861127 0.062282208264574195 0 0 0
1378 2 16.286363278168913 5.478156699861127 0.06228220826457686 0 0 0
1201 1 14.037109027369272 7.450723781376766e-05 2.3695267283606563 0 0 0
1292 14 15.730786307713588 1.8260478591136537 2.418394204152187 0 0 0
1289 1 14.037109027369272 3.6521632494488134 2.3695267283606554 0 0 0
1380 14 15.730786307713588 5.478136601324653 2.418394204152187 0 0 0
1207 15 17.863344012885598 9.247583173243936e-05 0.039872413755415434 0 0 0
1294 4 20.768136674612908 1.8260679576501277 0.06228220826457154 0 0 0
1211 13 22.345117409329596 9.247583173243471e-05 0.039872413755414775 0 0 0
1295 15 17.863344012885598 3.652181218042732 0.039872413755414955 0 0 0
1299 13 22.345117409329596 3.652181218042732 0.039872413755414365 0 0 0
1382 4 20.768136674612908 5.478156699861127 0.06228220826457153 0 0 0
1205 3 18.518882423813277 7.45072378137216e-05 2.369526728360657 0 0 0
1296 16 20.212559704157602 1.826047859113654 2.4183942041521935 0 0 0
1209 1 23.000655820257276 7.450723781394673e-05 2.3695267283606554 0 0 0
1293 3 18.518882423813277 3.652163249448813 2.3695267283606576 0 0 0
1297 1 23.000655820257276 3.652163249448813 2.369526728360656 0 0 0
1384 16 20.212559704157602 5.478136601324653 2.4183942041521935 0 0 0
1298 2 25.249910071056906 1.8260679576501277 0.062282208264571745 0 0 0
1215 15 26.826890805773594 9.247583173243336e-05 0.03987241375541523 0 0 0
1303 15 26.826890805773594 3.652181218042732 0.03987241375541454 0 0 0
1386 2 25.249910071056906 5.478156699861127 0.06228220826457175 0 0 0
1300 14 24.6943331006016 1.826047859113654 2.4183942041521926 0 0 0
1213 3 27.48242921670127 7.45072378138837e-05 2.3695267283606563 0 0 0
1301 3 27.48242921670127 3.652163249448813 2.369526728360657 0 0 0
1388 14 24.6943331006016 5.478136601324653 2.4183942041521926 0 0 0
1302 4 29.731683467500904 1.8260679576501277 0.062282208264571516 0 0 0
1219 13 31.308664202217592 9.247583173243782e-05 0.039872413755415795 0 0 0
1306 2 34.213456863944906 1.8260679576501277 0.06228220826457781 0 0 0
1307 13 31.308664202217592 3.652181218042732 0.03987241375541516 0 0 0
1390 4 29.731683467500904 5.478156699861127 0.06228220826457152 0 0 0
1394 2 34.213456863944906 5.478156699861127 0.06228220826457805 0 0 0
1304 16 29.1761064970456 1.8260478591136537 2.418394204152192 0 0 0
1217 1 31.96420261314527 7.45072378137917e-05 2.3695267283606567 0 0 0
1308 14 33.6578798934896 1.826047859113654 2.418394204152186 0 0 0
1305 1 31.96420261314527 3.652163249448813 2.3695267283606567 0 0 0
1392 16 29.1761064970456 5.478136601324653 2.4183942041521926 0 0 0
1396 14 33.6578798934896 5.478136601324653 2.4183942041521864 0 0 0
1223 15 35.7904375986616 9.247583173244514e-05 0.03987241375541958 0 0 0
1310 4 38.695230260388904 1.8260679576501277 0.06228220826457769 0 0 0
1227 13 40.27221099510559 9.247583173243756e-05 0.039872413755422415 0 0 0
1311 15 35.7904375986616 3.652181218042732 0.039872413755419625 0 0 0
1315 13 40.27221099510559 3.652181218042732 0.03987241375542223 0 0 0
1398 4 38.695230260388904 5.478156699861127 0.06228220826457793 0 0 0
1221 3 36.44597600958927 7.450723781358952e-05 2.3695267283606523 0 0 0
1312 16 38.1396532899336 1.826047859113654 2.4183942041521864 0 0 0
1309 3 36.44597600958927 3.652163249448813 2.369526728360652 0 0 0
1400 16 38.1396532899336 5.478136601324653 2.4183942041521864 0 0 0
1314 2 43.17700365683291 1.8260679576501277 0.06228220826457479 0 0 0
1231 15 44.7539843915496 9.247583173243692e-05 0.03987241375541722 0 0 0
1319 15 44.7539843915496 3.652181218042732 0.039872413755417356 0 0 0
1402 2 43.17700365683291 5.478156699861127 0.06228220826457476 0 0 0
1225 1 40.92774940603328 7.450723781375789e-05 2.3695267283606563 0 0 0
1316 14 42.62142668637759 1.826047859113654 2.4183942041521878 0 0 0
1229 3 45.40952280247728 7.450723781385949e-05 2.3695267283606563 0 0 0
1313 1 40.92774940603328 3.652163249448813 2.3695267283606563 0 0 0
1317 3 45.40952280247728 3.652163249448813 2.3695267283606567 0 0 0
1404 14 42.62142668637759 5.478136601324653 2.4183942041521878 0 0 0
1318 4 47.65877705327691 1.8260679576501277 0.06228220826457485 0 0 0
1147 13 49.2357577879936 9.247583173244301e-05 0.03987241375542098 -1 0 0
1234 2 52.140550449720905 1.8260679576501277 0.06228220826457353 -1 0 0
1235 13 49.2357577879936 3.652181218042732 0.03987241375542109 -1 0 0
1406 4 47.65877705327691 5.478156699861127 0.062282208264574854 0 0 0
1322 2 52.140550449720905 5.478156699861127 0.06228220826457354 -1 0 0
1320 16 47.10320008282159 1.826047859113654 2.4183942041521878 0 0 0
1145 1 49.891296198921275 7.450723781373527e-05 2.369526728360654 -1 0 0
1236 14 51.58497347926559 1.826047859113654 2.418394204152189 -1 0 0
1233 1 49.891296198921275 3.652163249448813 2.3695267283606545 -1 0 0
1408 16 47.10320008282159 5.478136601324653 2.418394204152188 0 0 0
1324 14 51.58497347926559 5.478136601324653 2.418394204152189 -1 0 0
1151 15 53.7175311844376 9.247583173244382e-05 0.039872413755418265 -1 0 0
1238 4 56.6223238461649 1.8260679576501277 0.06228220826457358 -1 0 0
1239 15 53.71753118443759 3.652181218042732 0.039872413755418334 -1 0 0
1326 4 56.6223238461649 5.478156699861127 0.06228220826457358 -1 0 0
1149 3 54.37306959536528 7.450723781380964e-05 2.369526728360654 -1 0 0
1240 16 56.06674687570959 1.826047859113654 2.418394204152189 -1 0 0
1237 3 54.37306959536527 3.652163249448813 2.3695267283606554 -1 0 0
1328 16 56.06674687570959 5.478136601324653 2.418394204152189 -1 0 0
1155 13 58.1993045808816 9.247583173244637e-05 0.03987241375541971 -1 0 0
1242 2 61.10409724260891 1.8260679576501277 0.062282208264577914 -1 0 0
1159 15 62.6810779773256 9.24758317324367e-05 0.03987241375541893 -1 0 0
1243 13 58.199304580881595 3.652181218042732 0.03987241375542119 -1 0 0
1247 15 62.6810779773256 3.652181218042732 0.03987241375541911 -1 0 0
1330 2 61.10409724260891 5.478156699861127 0.06228220826457791 -1 0 0
1153 1 58.85484299180928 7.450723781352364e-05 2.3695267283606527 -1 0 0
1244 14 60.5485202721536 1.826047859113654 2.4183942041521864 -1 0 0
1157 3 63.336616388253276 7.450723781397757e-05 2.3695267283606514 -1 0 0
1241 1 58.85484299180928 3.652163249448813 2.3695267283606505 -1 0 0
1245 3 63.336616388253276 3.652163249448813 2.369526728360652 -1 0 0
1332 14 60.5485202721536 5.478136601324653 2.4183942041521864 -1 0 0
1246 4 65.5858706390529 1.8260679576501277 0.06228220826457286 -1 0 0
1163 13 67.16285137376958 9.247583173244232e-05 0.039872413755413436 -1 0 0
1251 13 67.16285137376958 3.652181218042732 0.03987241375541355 -1 0 0
1334 4 65.5858706390529 5.478156699861127 0.06228220826457286 -1 0 0
1248 16 65.03029366859761 1.8260478591136537 2.4183942041521913 -1 0 0
1161 1 67.81838978469727 7.450723781359745e-05 2.3695267283606585 -1 0 0
1252 14 69.5120670650416 1.8260478591136537 2.4183942041521904 -1 0 0
1249 1 67.81838978469727 3.652163249448813 2.369526728360658 -1 0 0
1336 16 65.03029366859761 5.478136601324653 2.4183942041521913 -1 0 0
1340 14 69.5120670650416 5.478136601324653 2.4183942041521904 -1 0 0
1250 2 70.0676440354969 1.8260679576501277 0.06228220826457214 -1 0 0
1167 15 71.64462477021358 9.247583173244382e-05 0.03987241375541227 -1 0 0
1254 4 74.5494174319409 1.8260679576501277 0.062282208264572675 -1 0 0
1255 15 71.64462477021358 3.652181218042732 0.03987241375541252 -1 0 0
1338 2 70.0676440354969 5.478156699861127 0.06228220826457213 -1 0 0
1342 4 74.5494174319409 5.478156699861127 0.06228220826457272 -1 0 0
1165 3 72.30016318114127 7.450723781354594e-05 2.3695267283606576 -1 0 0
1256 16 73.9938404614856 1.826047859113654 2.418394204152191 -1 0 0
1253 3 72.30016318114127 3.652163249448813 2.369526728360657 -1 0 0
1344 16 73.9938404614856 5.478136601324653 2.418394204152191 -1 0 0
1171 13 76.1263981666576 9.247583173244074e-05 0.03987241375541735 -1 0 0
1258 2 79.0311908283849 1.8260679576501277 0.06228220826457208 -1 0 0
1175 15 80.60817156310159 9.24758317324395e-05 0.0398724137554122 -1 0 0
1259 13 76.1263981666576 3.652181218042732 0.03987241375541723 -1 0 0
1263 15 80.60817156310159 3.652181218042732 0.039872413755412686 -1 0 0
1346 2 79.0311908283849 5.478156699861127 0.06228220826457207 -1 0 0
1169 1 76.78193657758527 7.450723781373303e-05 2.3695267283606545 -1 0 0
1260 14 78.4756138579296 1.826047859113654 2.4183942041521904 -1 0 0
1257 1 76.78193657758527 3.652163249448813 2.369526728360655 -1 0 0
1348 14 78.4756138579296 5.478136601324653 2.4183942041521904 -1 0 0
1262 4 83.51296422482889 1.8260679576501277 0.06228220826457219 -1 0 0
1179 13 85.08994495954559 9.247583173243917e-05 0.03987241375541235 -1 0 0
1267 13 85.08994495954559 3.652181218042732 0.03987241375541202 -1 0 0
1350 4 83.51296422482889 5.478156699861127 0.062282208264572717 -1 0 0
1173 3 81.26370997402928 7.450723781353478e-05 2.3695267283606576 -1 0 0
1264 16 82.9573872543736 1.826047859113654 2.418394204152191 -1 0 0
1177 1 85.74548337047328 7.450723781383614e-05 2.3695267283606554 -1 0 0
1261 3 81.26370997402928 3.652163249448813 2.3695267283606567 -1 0 0
1265 1 85.74548337047328 3.652163249448813 2.3695267283606554 -1 0 0
1352 16 82.9573872543736 5.478136601324653 2.418394204152191 -1 0 0
1266 2 87.9947376212729 1.8260679576501277 0.06228220826457515 -1 0 0
1183 15 89.57171835598959 9.247583173244129e-05 0.03987241375541232 -1 0 0
1270 4 92.4765110177169 1.8260679576501277 0.06228220826457557 -1 0 0
1271 15 89.57171835598959 3.652181218042732 0.03987241375541226 -1 0 0
1354 2 87.9947376212729 5.478156699861127 0.062282208264575145 -1 0 0
1358 4 92.4765110177169 5.478156699861127 0.06228220826457557 -1 0 0
1268 14 87.43916065081758 1.8260478591136537 2.4183942041521886 -1 0 0
1181 3 90.22725676691728 7.450723781375721e-05 2.3695267283606554 -1 0 0
1272 16 91.92093404726158 1.8260478591136537 2.4183942041521886 -1 0 0
1269 3 90.22725676691728 3.652163249448813 2.369526728360656 -1 0 0
1356 14 87.43916065081758 5.478136601324653 2.4183942041521886 -1 0 0
1360 16 91.92093404726158 5.478136601324653 2.4183942041521886 -1 0 0
1191 15 98.5352651488776 9.247583173244261e-05 0.03987241375541863 -1 0 0
1279 15 98.5352651488776 3.652181218042732 0.03987241375541869 -1 0 0
1187 13 94.0534917524336 9.247583173243891e-05 0.03987241375541106 -1 0 0
1274 2 96.9582844141609 1.8260679576501277 0.062282208264572425 -1 0 0
1275 13 94.05349175243359 3.652181218042732 0.03987241375541312 -1 0 0
1362 2 96.9582844141609 5.478156699861127 0.06228220826457241 -1 0 0
1185 1 94.70903016336128 7.450723781371852e-05 2.369526728360661 -1 0 0
1276 14 96.40270744370561 1.8260478591136537 2.4183942041521913 -1 0 0
1273 1 94.70903016336128 3.652163249448813 2.369526728360659 -1 0 0
1364 14 96.40270744370561 5.478136601324653 2.4183942041521913 -1 0 0
1371 13 4.4180238235535985 7.30426996025373 0.0398724137554166 0 0 0
1454 4 2.841043088836911 9.130245442072127 0.06228220826457544 0 0 0
1459 13 4.4180238235535985 10.95635870246473 0.03987241375541629 0 0 0
1365 3 0.5917888380372707 7.304251991659813 2.369526728360653 0 0 0
1369 1 5.073562234481268 7.304251991659813 2.369526728360655 0 0 0
1456 16 2.285466118381596 9.130225343535654 2.41839420415219 0 0 0
1453 3 0.5917888380372708 10.956340733870812 2.3695267283606527 0 0 0
1457 1 5.073562234481268 10.956340733870812 2.369526728360655 0 0 0
1375 15 8.899797219997595 7.30426996025373 0.03987241375541827 0 0 0
1458 2 7.322816485280909 9.130245442072127 0.06228220826457459 0 0 0
1463 15 8.899797219997593 10.95635870246473 0.03987241375541796 0 0 0
1373 3 9.555335630925276 7.304251991659812 2.369526728360653 0 0 0
1460 14 6.767239514825593 9.130225343535654 2.41839420415219 0 0 0
1464 16 11.249012911269597 9.130225343535654 2.418394204152191 0 0 0
1461 3 9.555335630925276 10.956340733870812 2.369526728360653 0 0 0
1379 13 13.381570616441591 7.30426996025373 0.03987241375541943 0 0 0
1462 4 11.804589881724906 9.130245442072127 0.062282208264574174 0 0 0
1466 2 16.286363278168913 9.130245442072127 0.06228220826457684 0 0 0
1467 13 13.381570616441593 10.95635870246473 0.03987241375541968 0 0 0
1377 1 14.037109027369272 7.304251991659813 2.3695267283606554 0 0 0
1468 14 15.730786307713588 9.130225343535654 2.418394204152187 0 0 0
1465 1 14.03710902736927 10.956340733870812 2.3695267283606545 0 0 0
1383 15 17.863344012885598 7.30426996025373 0.03987241375541497 0 0 0
1387 13 22.345117409329596 7.30426996025373 0.03987241375541408 0 0 0
1470 4 20.768136674612908 9.130245442072127 0.062282208264571516 0 0 0
1471 15 17.863344012885598 10.95635870246473 0.039872413755414615 0 0 0
1475 13 22.345117409329596 10.95635870246473 0.03987241375541405 0 0 0
1381 3 18.518882423813277 7.304251991659813 2.3695267283606576 0 0 0
1385 1 23.000655820257276 7.304251991659813 2.369526728360656 0 0 0
1472 16 20.212559704157602 9.130225343535654 2.4183942041521935 0 0 0
1469 3 18.518882423813277 10.956340733870812 2.369526728360657 0 0 0
1473 1 23.000655820257276 10.956340733870812 2.369526728360655 0 0 0
1391 15 26.826890805773594 7.30426996025373 0.03987241375541428 0 0 0
1474 2 25.249910071056906 9.130245442072127 0.06228220826457116 0 0 0
1479 15 26.826890805773594 10.95635870246473 0.03987241375541452 0 0 0
1389 3 27.48242921670127 7.304251991659813 2.3695267283606563 0 0 0
1476 14 24.6943331006016 9.130225343535654 2.418394204152193 0 0 0
1477 3 27.48242921670127 10.956340733870812 2.3695267283606563 0 0 0
1395 13 31.308664202217592 7.30426996025373 0.039872413755414914 0 0 0
1478 4 29.731683467500904 9.130245442072127 0.06228220826457148 0 0 0
1482 2 34.213456863944906 9.130245442072127 0.06228220826457801 0 0 0
1483 13 31.308664202217592 10.95635870246473 0.03987241375541487 0 0 0
1393 1 31.96420261314527 7.304251991659813 2.3695267283606567 0 0 0
1480 16 29.1761064970456 9.130225343535654 2.4183942041521926 0 0 0
1484 14 33.6578798934896 9.130225343535654 2.418394204152186 0 0 0
1481 1 31.96420261314527 10.956340733870812 2.3695267283606567 0 0 0
1399 15 35.7904375986616 7.30426996025373 0.03987241375541913 0 0 0
1403 13 40.27221099510559 7.30426996025373 0.03987241375542221 0 0 0
1486 4 38.695230260388904 9.130245442072127 0.062282208264577914 0 0 0
1487 15 35.7904375986616 10.95635870246473 0.03987241375541913 0 0 0
1491 13 40.27221099510559 10.95635870246473 0.0398724137554219 0 0 0
1397 3 36.44597600958927 7.304251991659812 2.3695267283606523 0 0 0
1488 16 38.1396532899336 9.130225343535654 2.4183942041521864 0 0 0
1485 3 36.44597600958927 10.956340733870812 2.369526728360652 0 0 0
1407 15 44.7539843915496 7.30426996025373 0.03987241375541677 0 0 0
1490 2 43.17700365683291 9.130245442072127 0.062282208264574736 0 0 0
1495 15 44.7539843915496 10.95635870246473 0.03987241375541685 0 0 0
1401 1 40.92774940603328 7.304251991659813 2.3695267283606563 0 0 0
1405 3 45.40952280247728 7.304251991659813 2.3695267283606567 0 0 0
1492 14 42.62142668637759 9.130225343535654 2.4183942041521878 0 0 0
1489 1 40.92774940603328 10.956340733870812 2.3695267283606563 0 0 0
1493 3 45.40952280247728 10.956340733870812 2.3695267283606563 0 0 0
1323 13 49.2357577879936 7.30426996025373 0.03987241375542085 -1 0 0
1494 4 47.65877705327691 9.130245442072127 0.06228220826457484 0 0 0
1410 2 52.140550449720905 9.130245442072127 0.0622822082645735 -1 0 0
1411 13 49.2357577879936 10.95635870246473 0.03987241375542084 -1 0 0
1321 1 49.891296198921275 7.304251991659813 2.3695267283606536 -1 0 0
1496 16 47.10320008282159 9.130225343535654 2.418394204152188 0 0 0
1412 14 51.58497347926559 9.130225343535653 2.418394204152189 -1 0 0
1409 1 49.891296198921275 10.956340733870812 2.3695267283606536 -1 0 0
1327 15 53.71753118443759 7.30426996025373 0.03987241375541807 -1 0 0
1414 4 56.6223238461649 9.130245442072127 0.062282208264573556 -1 0 0
1415 15 53.71753118443759 10.95635870246473 0.03987241375541775 -1 0 0
1325 3 54.37306959536527 7.304251991659813 2.3695267283606554 -1 0 0
1416 16 56.06674687570959 9.130225343535654 2.418394204152189 -1 0 0
1413 3 54.37306959536527 10.956340733870812 2.369526728360655 -1 0 0
1331 13 58.1993045808816 7.30426996025373 0.03987241375541919 -1 0 0
1335 15 62.6810779773256 7.30426996025373 0.03987241375541916 -1 0 0
1418 2 61.10409724260891 9.130245442072127 0.06228220826457816 -1 0 0
1419 13 58.199304580881595 10.95635870246473 0.03987241375542092 -1 0 0
1423 15 62.6810779773256 10.95635870246473 0.039872413755419146 -1 0 0
1329 1 58.85484299180928 7.304251991659812 2.3695267283606523 -1 0 0
1333 3 63.336616388253276 7.304251991659813 2.3695267283606514 -1 0 0
1420 14 60.5485202721536 9.130225343535654 2.418394204152187 -1 0 0
1417 1 58.85484299180928 10.956340733870812 2.3695267283606505 -1 0 0
1421 3 63.336616388253276 10.956340733870812 2.3695267283606514 -1 0 0
1339 13 67.16285137376958 7.30426996025373 0.039872413755413554 -1 0 0
1422 4 65.5858706390529 9.130245442072127 0.062282208264572834 -1 0 0
1427 13 67.16285137376958 10.95635870246473 0.0398724137554135 -1 0 0
1337 1 67.81838978469727 7.304251991659813 2.369526728360657 -1 0 0
1424 16 65.03029366859761 9.130225343535654 2.4183942041521913 -1 0 0
1428 14 69.5120670650416 9.130225343535654 2.4183942041521904 -1 0 0
1425 1 67.81838978469727 10.956340733870812 2.369526728360657 -1 0 0
1343 15 71.64462477021358 7.30426996025373 0.03987241375541252 -1 0 0
1426 2 70.0676440354969 9.130245442072127 0.062282208264572106 -1 0 0
1430 4 74.5494174319409 9.130245442072127 0.062282208264572717 -1 0 0
1431 15 71.64462477021358 10.95635870246473 0.039872413755411944 -1 0 0
1341 3 72.30016318114127 7.304251991659813 2.3695267283606567 -1 0 0
1432 16 73.9938404614856 9.130225343535654 2.418394204152191 -1 0 0
1429 3 72.30016318114127 10.956340733870812 2.3695267283606567 -1 0 0
1347 13 76.1263981666576 7.30426996025373 0.03987241375541666 -1 0 0
1351 15 80.60817156310159 7.30426996025373 0.039872413755412395 -1 0 0
1434 2 79.0311908283849 9.130245442072127 0.06228220826457207 -1 0 0
1435 13 76.1263981666576 10.95635870246473 0.039872413755416634 -1 0 0
1439 15 80.60817156310159 10.95635870246473 0.03987241375541238 -1 0 0
1345 1 76.78193657758527 7.304251991659813 2.369526728360655 -1 0 0
1436 14 78.4756138579296 9.130225343535653 2.4183942041521904 -1 0 0
1433 1 76.78193657758527 10.956340733870812 2.369526728360655 -1 0 0
1355 13 85.08994495954559 7.30426996025373 0.03987241375541201 -1 0 0
1438 4 83.51296422482889 9.130245442072127 0.0622822082645727 -1 0 0
1443 13 85.08994495954559 10.95635870246473 0.0398724137554122 -1 0 0
1349 3 81.26370997402928 7.304251991659813 2.3695267283606567 -1 0 0
1353 1 85.74548337047328 7.304251991659813 2.3695267283606554 -1 0 0
1440 16 82.9573872543736 9.130225343535654 2.418394204152191 -1 0 0
1437 3 81.26370997402928 10.956340733870812 2.3695267283606567 -1 0 0
1441 1 85.74548337047328 10.956340733870812 2.369526728360655 -1 0 0
1359 15 89.57171835598959 7.30426996025373 0.039872413755412 -1 0 0
1442 2 87.9947376212729 9.130245442072127 0.062282208264575374 -1 0 0
1446 4 92.4765110177169 9.130245442072127 0.06228220826457554 -1 0 0
1447 15 89.57171835598959 10.95635870246473 0.03987241375541216 -1 0 0
1357 3 90.22725676691728 7.304251991659813 2.369526728360656 -1 0 0
1444 14 87.43916065081758 9.130225343535654 2.418394204152188 -1 0 0
1448 16 91.92093404726158 9.130225343535654 2.4183942041521886 -1 0 0
1445 3 90.22725676691728 10.956340733870812 2.369526728360655 -1 0 0
1367 15 98.5352651488776 7.30426996025373 0.039872413755418355 -1 0 0
1455 15 98.5352651488776 10.95635870246473 0.03987241375541809 -1 0 0
1363 13 94.05349175243359 7.30426996025373 0.03987241375541312 -1 0 0
1450 2 96.9582844141609 9.130245442072127 0.062282208264572404 -1 0 0
1451 13 94.05349175243359 10.95635870246473 0.039872413755412915 -1 0 0
1361 1 94.70903016336128 7.304251991659813 2.3695267283606585 -1 0 0
1452 14 96.40270744370561 9.130225343535654 2.4183942041521913 -1 0 0
1449 1 94.70903016336128 10.956340733870812 2.369526728360658 -1 0 0
1542 4 2.841043088836911 12.782334184283126 0.06228220826457564 0 0 0
1547 13 4.418023823553599 14.608447444675736 0.03987241375541717 0 0 0
1630 4 2.841043088836911 16.434422926494133 0.06228220826457512 0 0 0
1544 16 2.285466118381596 12.782314085746654 2.41839420415219 0 0 0
1541 3 0.5917888380372694 14.608429476081819 2.3695267283606536 0 0 0
1545 1 5.073562234481268 14.608429476081819 2.3695267283606576 0 0 0
1632 16 2.285466118381596 16.434402827957648 2.4183942041521895 0 0 0
1546 2 7.322816485280909 12.782334184283126 0.06228220826457455 0 0 0
1551 15 8.899797219997597 14.608447444675736 0.039872413755420326 0 0 0
1634 2 7.322816485280909 16.434422926494133 0.06228220826457429 0 0 0
1548 14 6.767239514825593 12.782314085746654 2.41839420415219 0 0 0
1552 16 11.249012911269597 12.782314085746654 2.4183942041521913 0 0 0
1549 3 9.555335630925274 14.608429476081819 2.369526728360656 0 0 0
1636 14 6.767239514825593 16.434402827957648 2.4183942041521895 0 0 0
1640 16 11.249012911269597 16.434402827957648 2.418394204152191 0 0 0
1550 4 11.804589881724906 12.782334184283126 0.06228220826457438 0 0 0
1554 2 16.286363278168913 12.782334184283126 0.06228220826457707 0 0 0
1555 13 13.381570616441595 14.608447444675736 0.039872413755421644 0 0 0
1638 4 11.804589881724906 16.434422926494133 0.062282208264574174 0 0 0
1642 2 16.286363278168913 16.434422926494133 0.06228220826457686 0 0 0
1556 14 15.730786307713588 12.782314085746654 2.4183942041521864 0 0 0
1553 1 14.03710902736927 14.608429476081819 2.3695267283606563 0 0 0
1644 14 15.730786307713588 16.434402827957648 2.418394204152187 0 0 0
1558 4 20.768136674612908 12.782334184283126 0.06228220826457173 0 0 0
1559 15 17.8633440128856 14.608447444675736 0.03987241375541911 0 0 0
1563 13 22.345117409329596 14.608447444675736 0.0398724137554152 0 0 0
1646 4 20.768136674612908 16.434422926494133 0.062282208264571544 0 0 0
1560 16 20.212559704157602 12.782314085746654 2.418394204152194 0 0 0
1557 3 18.51888242381327 14.608429476081819 2.3695267283606576 0 0 0
1561 1 23.000655820257276 14.608429476081819 2.3695267283606576 0 0 0
1648 16 20.212559704157602 16.434402827957648 2.4183942041521935 0 0 0
1562 2 25.249910071056906 12.782334184283126 0.06228220826457143 0 0 0
1567 15 26.826890805773594 14.608447444675736 0.03987241375541882 0 0 0
1650 2 25.249910071056906 16.434422926494133 0.062282208264571454 0 0 0
1564 14 24.694333100601604 12.782314085746654 2.418394204152193 0 0 0
1565 3 27.482429216701266 14.608429476081819 2.369526728360657 0 0 0
1652 14 24.6943331006016 16.434402827957648 2.418394204152192 0 0 0
1566 4 29.731683467500904 12.782334184283126 0.062282208264570864 0 0 0
1570 2 34.21345686394491 12.782334184283126 0.06228220826457911 0 0 0
1571 13 31.308664202217592 14.608447444675736 0.03987241375541934 0 0 0
1654 4 29.731683467500904 16.434422926494133 0.06228220826457125 0 0 0
1658 2 34.21345686394491 16.434422926494133 0.06228220826457887 0 0 0
1568 16 29.1761064970456 12.782314085746652 2.418394204152193 0 0 0
1572 14 33.6578798934896 12.782314085746654 2.418394204152185 0 0 0
1569 1 31.964202613145265 14.608429476081819 2.3695267283606567 0 0 0
1656 16 29.1761064970456 16.434402827957648 2.418394204152192 0 0 0
1660 14 33.6578798934896 16.434402827957648 2.4183942041521846 0 0 0
1574 4 38.695230260388904 12.782334184283126 0.062282208264577865 0 0 0
1575 15 35.79043759866158 14.608447444675736 0.039872413755421623 0 0 0
1579 13 40.272210995105596 14.608447444675736 0.03987241375542412 0 0 0
1662 4 38.695230260388904 16.434422926494133 0.06228220826457741 0 0 0
1576 16 38.1396532899336 12.782314085746654 2.4183942041521864 0 0 0
1573 3 36.44597600958928 14.608429476081819 2.369526728360654 0 0 0
1664 16 38.1396532899336 16.434402827957648 2.4183942041521864 0 0 0
1578 2 43.17700365683291 12.782334184283126 0.06228220826457496 0 0 0
1583 15 44.7539843915496 14.608447444675736 0.03987241375541808 0 0 0
1666 2 43.17700365683291 16.434422926494133 0.06228220826457477 0 0 0
1580 14 42.62142668637759 12.782314085746654 2.418394204152188 0 0 0
1577 1 40.927749406033264 14.608429476081819 2.3695267283606576 0 0 0
1581 3 45.40952280247727 14.608429476081819 2.369526728360658 0 0 0
1668 14 42.62142668637759 16.434402827957648 2.4183942041521878 0 0 0
1582 4 47.65877705327691 12.782334184283126 0.0622822082645748 0 0 0
1498 2 52.140550449720905 12.782334184283126 0.0622822082645737 -1 0 0
1499 13 49.2357577879936 14.608447444675736 0.03987241375542349 -1 0 0
1670 4 47.65877705327691 16.434422926494133 0.06228220826457484 0 0 0
1586 2 52.140550449720905 16.434422926494133 0.06228220826457352 -1 0 0
1584 16 47.10320008282159 12.782314085746654 2.418394204152188 0 0 0
1500 14 51.58497347926559 12.782314085746654 2.4183942041521895 -1 0 0
1497 1 49.891296198921275 14.608429476081819 2.3695267283606545 -1 0 0
1672 16 47.10320008282159 16.434402827957648 2.4183942041521873 0 0 0
1588 14 51.58497347926559 16.434402827957648 2.418394204152189 -1 0 0
1502 4 56.6223238461649 12.782334184283126 0.0622822082645735 -1 0 0
1503 15 53.717531184437604 14.608447444675736 0.03987241375542097 -1 0 0
1590 4 56.6223238461649 16.434422926494133 0.06228220826457355 -1 0 0
1504 16 56.06674687570959 12.782314085746654 2.418394204152189 -1 0 0
1501 3 54.37306959536527 14.608429476081819 2.3695267283606554 -1 0 0
1592 16 56.06674687570959 16.434402827957648 2.418394204152189 -1 0 0
1506 2 61.10409724260891 12.782334184283126 0.06228220826457809 -1 0 0
1507 13 58.19930458088159 14.608447444675736 0.03987241375542181 -1 0 0
1511 15 62.68107797732559 14.608447444675736 0.039872413755420284 -1 0 0
1594 2 61.10409724260891 16.434422926494133 0.062282208264578046 -1 0 0
1508 14 60.5485202721536 12.782314085746654 2.418394204152187 -1 0 0
1505 1 58.854842991809285 14.608429476081819 2.369526728360654 -1 0 0
1509 3 63.33661638825328 14.608429476081819 2.3695267283606536 -1 0 0
1596 14 60.5485202721536 16.434402827957648 2.4183942041521864 -1 0 0
1510 4 65.5858706390529 12.782334184283126 0.06228220826457278 -1 0 0
1515 13 67.16285137376958 14.608447444675736 0.039872413755415344 -1 0 0
1598 4 65.5858706390529 16.434422926494133 0.06228220826457258 -1 0 0
1512 16 65.03029366859761 12.782314085746654 2.4183942041521913 -1 0 0
1516 14 69.5120670650416 12.782314085746654 2.4183942041521904 -1 0 0
1513 1 67.81838978469727 14.608429476081819 2.369526728360659 -1 0 0
1600 16 65.03029366859761 16.434402827957648 2.418394204152191 -1 0 0
1604 14 69.5120670650416 16.434402827957648 2.4183942041521904 -1 0 0
1514 2 70.0676440354969 12.782334184283126 0.06228220826457235 -1 0 0
1518 4 74.5494174319409 12.782334184283126 0.06228220826457261 -1 0 0
1519 15 71.64462477021358 14.608447444675736 0.03987241375541511 -1 0 0
1602 2 70.0676440354969 16.434422926494133 0.06228220826457213 -1 0 0
1606 4 74.5494174319409 16.434422926494133 0.06228220826457271 -1 0 0
1520 16 73.9938404614856 12.782314085746654 2.418394204152191 -1 0 0
1517 3 72.30016318114127 14.608429476081819 2.3695267283606585 -1 0 0
1608 16 73.9938404614856 16.434402827957648 2.418394204152191 -1 0 0
1522 2 79.0311908283849 12.782334184283126 0.062282208264572016 -1 0 0
1523 13 76.1263981666576 14.608447444675736 0.03987241375541932 -1 0 0
1527 15 80.60817156310159 14.608447444675736 0.03987241375541479 -1 0 0
1610 2 79.0311908283849 16.434422926494133 0.062282208264571766 -1 0 0
1524 14 78.4756138579296 12.782314085746654 2.4183942041521904 -1 0 0
1521 1 76.78193657758527 14.608429476081819 2.3695267283606554 -1 0 0
1612 14 78.4756138579296 16.434402827957648 2.4183942041521904 -1 0 0
1526 4 83.51296422482889 12.782334184283126 0.06228220826457267 -1 0 0
1531 13 85.08994495954559 14.608447444675736 0.03987241375541403 -1 0 0
1614 4 83.51296422482889 16.434422926494133 0.06228220826457219 -1 0 0
1528 16 82.9573872543736 12.782314085746654 2.418394204152191 -1 0 0
1525 3 81.26370997402928 14.608429476081819 2.369526728360658 -1 0 0
1529 1 85.74548337047328 14.608429476081819 2.369526728360657 -1 0 0