LAMMPS data file via write_data, version 29 Aug 2024, timestep = 36, units = metal

4752 atoms
16 atom types

0 98.599014721768 xlo xhi
0 98.606396039697 ylo yhi
-50 50 zlo zhi

Masses

1 72.63
2 72.63
3 72.63
4 72.63
5 72.63
6 72.63
7 72.63
8 72.63
9 32.06
10 32.06
11 32.06
12 32.06
13 32.06
14 32.06
15 32.06
16 32.06

Atoms # atomic

1191 11 0.5984503859399843 7.580120679597713e-05 0.13218454282435282 0 0 0
1278 4 2.236989071752911 1.8261202015204936 -0.08863272356052938 0 0 0
1195 9 5.080223782383997 7.580120679611809e-05 0.13218454282434097 0 0 0
1279 11 0.5984503859399812 3.6521645434177974 0.13218454282435474 0 0 0
1283 9 5.080223782383997 3.652164543417797 0.13218454282434283 0 0 0
1366 4 2.2369890717529115 5.478208943731491 -0.08863272356052912 0 0 0
1280 12 2.837858810445437 1.8261197910604396 2.2585920555439127 0 0 0
1193 1 4.479293053316149 7.512163529037407e-05 2.471604581202599 0 0 0
1281 1 4.479293053316149 3.6521638638462868 2.4716045812026 0 0 0
1368 12 2.8378588104454363 5.478208533271437 2.258592055543914 0 0 0
1282 2 6.718762468196926 1.826120201520492 -0.08863272356054007 0 0 0
1199 11 9.561997178827996 7.580120679717592e-05 0.13218454282434586 0 0 0
1287 11 9.561997178827998 3.6521645434177965 0.1321845428243488 0 0 0
1370 2 6.718762468196926 5.478208943731492 -0.08863272356053768 0 0 0
1284 10 7.319632206889435 1.8261197910604374 2.258592055543907 0 0 0
1197 3 8.96106644976014 7.512163528517919e-05 2.471604581202601 0 0 0
1285 3 8.961066449760143 3.652163863846286 2.4716045812026026 0 0 0
1372 10 7.319632206889434 5.478208533271437 2.2585920555439096 0 0 0
1286 4 11.200535864640925 1.826120201520491 -0.08863272356053478 0 0 0
1374 4 11.200535864640925 5.478208943731491 -0.08863272356053155 0 0 0
1288 12 11.801405603333441 1.8261197910604372 2.258592055543912 0 0 0
1376 12 11.801405603333441 5.478208533271438 2.258592055543914 0 0 0
1203 9 14.043770575271996 7.580120679698622e-05 0.132184542824342 0 0 0
1290 2 15.682309261084924 1.8261202015204916 -0.08863272356053989 0 0 0
1291 9 14.043770575271996 3.6521645434177956 0.13218454282434502 0 0 0
1378 2 15.682309261084924 5.478208943731491 -0.08863272356053693 0 0 0
1201 1 13.44283984620415 7.512163528583053e-05 2.4716045812025986 0 0 0
1292 10 16.283178999777437 1.8261197910604376 2.258592055543906 0 0 0
1289 1 13.44283984620415 3.6521638638462854 2.4716045812026017 0 0 0
1380 10 16.283178999777437 5.478208533271438 2.2585920555439083 0 0 0
1207 11 18.525543971715997 7.580120679749269e-05 0.1321845428243422 0 0 0
1294 4 20.16408265752893 1.8261202015204918 -0.08863272356053584 0 0 0
1211 9 23.007317368160003 7.580120679663362e-05 0.1321845428243452 0 0 0
1295 11 18.525543971716 3.6521645434177974 0.13218454282434597 0 0 0
1299 9 23.007317368160003 3.6521645434177974 0.1321845428243484 0 0 0
1382 4 20.16408265752893 5.478208943731491 -0.08863272356053364 0 0 0
1205 3 17.924613242648146 7.512163528460923e-05 2.4716045812025973 0 0 0
1296 12 20.76495239622144 1.8261197910604388 2.2585920555439096 0 0 0
1209 1 22.406386639092144 7.512163528398975e-05 2.471604581202601 0 0 0
1293 3 17.924613242648146 3.6521638638462868 2.471604581202601 0 0 0
1297 1 22.40638663909215 3.652163863846286 2.4716045812026035 0 0 0
1384 12 20.764952396221442 5.478208533271438 2.2585920555439123 0 0 0
1298 2 24.64585605397293 1.8261202015204907 -0.08863272356053345 0 0 0
1215 11 27.489090764603997 7.580120679710792e-05 0.1321845428243479 0 0 0
1303 11 27.489090764603997 3.6521645434177974 0.13218454282435077 0 0 0
1386 2 24.64585605397293 5.478208943731492 -0.08863272356053145 0 0 0
1300 10 25.24672579266544 1.8261197910604388 2.258592055543915 0 0 0
1213 3 26.888160035536146 7.512163528488256e-05 2.471604581202605 0 0 0
1301 3 26.88816003553615 3.6521638638462863 2.471604581202607 0 0 0
1388 10 25.24672579266544 5.478208533271439 2.2585920555439145 0 0 0
1302 4 29.127629450416926 1.8261202015204927 -0.0886327235605336 0 0 0
1219 9 31.970864161048 7.58012067924679e-05 0.13218454282433867 0 0 0
1306 2 33.609402846860924 1.8261202015204911 -0.08863272356054176 0 0 0
1307 9 31.970864161047995 3.6521645434177965 0.13218454282434164 0 0 0
1390 4 29.127629450416926 5.478208943731491 -0.0886327235605322 0 0 0
1394 2 33.609402846860924 5.478208943731491 -0.08863272356054237 0 0 0
1304 12 29.728499189109442 1.8261197910604396 2.258592055543911 0 0 0
1217 1 31.36993343198015 7.512163528941317e-05 2.471604581202599 0 0 0
1308 10 34.21027258555343 1.8261197910604376 2.2585920555439034 0 0 0
1305 1 31.369933431980154 3.6521638638462868 2.471604581202599 0 0 0
1392 12 29.728499189109446 5.478208533271439 2.2585920555439123 0 0 0
1396 10 34.21027258555343 5.478208533271438 2.2585920555439043 0 0 0
1223 11 36.45263755749199 7.580120679888845e-05 0.13218454282434525 0 0 0
1310 4 38.09117624330492 1.8261202015204925 -0.08863272356053566 0 0 0
1311 11 36.452637557492 3.652164543417798 0.13218454282434522 0 0 0
1398 4 38.09117624330492 5.478208943731492 -0.08863272356053238 0 0 0
1221 3 35.85170682842414 7.512163528810629e-05 2.471604581202596 0 0 0
1312 12 38.69204598199744 1.8261197910604363 2.2585920555439083 0 0 0
1309 3 35.85170682842414 3.6521638638462868 2.4716045812026004 0 0 0
1400 12 38.69204598199743 5.478208533271438 2.2585920555439123 0 0 0
1225 1 40.333480224868154 7.512163528832557e-05 2.4716045812025986 0 0 0
1313 1 40.33348022486815 3.6521638638462868 2.4716045812026017 0 0 0
1227 9 40.934410953935995 7.580120679343749e-05 0.13218454282433884 0 0 0
1315 9 40.934410953935995 3.652164543417796 0.13218454282434225 0 0 0
1314 2 42.57294963974892 1.8261202015204925 -0.08863272356054165 0 0 0
1231 11 45.41618435037999 7.58012067969498e-05 0.13218454282434003 0 0 0
1319 11 45.41618435037999 3.6521645434177965 0.13218454282434194 0 0 0
1402 2 42.57294963974892 5.478208943731492 -0.08863272356054051 0 0 0
1316 10 43.173819378441436 1.8261197910604385 2.2585920555439047 0 0 0
1229 3 44.81525362131214 7.512163528601314e-05 2.4716045812025946 0 0 0
1317 3 44.81525362131214 3.652163863846288 2.4716045812025973 0 0 0
1404 10 43.17381937844143 5.47820853327144 2.2585920555439047 0 0 0
1318 4 47.054723036192925 1.826120201520492 -0.08863272356053907 0 0 0
1147 9 49.89795774682399 7.580120679621893e-05 0.13218454282434672 -1 0 0
1234 2 51.536496432636916 1.8261202015204911 -0.08863272356053324 -1 0 0
1235 9 49.89795774682399 3.6521645434177947 0.132184542824351 -1 0 0
1406 4 47.054723036192925 5.478208943731489 -0.08863272356053672 0 0 0
1322 2 51.53649643263692 5.478208943731491 -0.08863272356053097 -1 0 0
1320 12 47.655592774885434 1.826119791060437 2.2585920555439114 0 0 0
1145 1 49.297027017756136 7.512163528795615e-05 2.4716045812026026 -1 0 0
1236 10 52.13736617132944 1.8261197910604379 2.258592055543913 -1 0 0
1233 1 49.29702701775614 3.6521638638462854 2.471604581202605 -1 0 0
1408 12 47.655592774885434 5.478208533271435 2.2585920555439114 0 0 0
1324 10 52.13736617132943 5.478208533271437 2.2585920555439136 -1 0 0
1151 11 54.379731143268 7.580120679487768e-05 0.1321845428243452 -1 0 0
1238 4 56.01826982908093 1.826120201520494 -0.08863272356053545 -1 0 0
1239 11 54.379731143267996 3.6521645434177947 0.13218454282435005 -1 0 0
1326 4 56.01826982908093 5.4782089437314925 -0.08863272356053352 -1 0 0
1149 3 53.77880041420015 7.51216352851433e-05 2.471604581202602 -1 0 0
1240 12 56.619139567773445 1.8261197910604419 2.25859205554391 -1 0 0
1237 3 53.77880041420015 3.6521638638462863 2.471604581202605 -1 0 0
1328 12 56.619139567773445 5.478208533271437 2.258592055543909 -1 0 0
1155 9 58.861504539711994 7.58012067981235e-05 0.13218454282433825 -1 0 0
1242 2 60.50004322552492 1.8261202015204945 -0.08863272356054921 -1 0 0
1159 11 63.343277936156 7.580120679506966e-05 0.13218454282432954 -1 0 0
1243 9 58.861504539712 3.6521645434178014 0.1321845428243397 -1 0 0
1247 11 63.34327793615601 3.652164543417801 0.13218454282432993 -1 0 0
1330 2 60.50004322552493 5.478208943731492 -0.08863272356054597 -1 0 0
1153 1 58.26057381064415 7.512163529170598e-05 2.4716045812025955 -1 0 0
1244 10 61.10091296421744 1.826119791060442 2.2585920555438963 -1 0 0
1157 3 62.742347207088145 7.512163528540592e-05 2.471604581202584 -1 0 0
1241 1 58.26057381064415 3.6521638638462885 2.4716045812025986 -1 0 0
1245 3 62.74234720708816 3.652163863846287 2.471604581202587 -1 0 0
1332 10 61.10091296421745 5.478208533271439 2.258592055543899 -1 0 0
1246 4 64.98181662196893 1.826120201520491 -0.08863272356054354 -1 0 0
1163 9 67.82505133259998 7.580120679732609e-05 0.13218454282434947 -1 0 0
1251 9 67.82505133259998 3.652164543417795 0.13218454282434794 -1 0 0
1334 4 64.98181662196893 5.478208943731493 -0.08863272356054305 -1 0 0
1248 12 65.58268636066143 1.8261197910604405 2.2585920555439083 -1 0 0
1161 1 67.22412060353213 7.512163528606659e-05 2.471604581202605 -1 0 0
1249 1 67.22412060353213 3.652163863846288 2.4716045812026053 -1 0 0
1336 12 65.58268636066143 5.478208533271439 2.2585920555439074 -1 0 0
1250 2 69.4635900184129 1.8261202015204905 -0.08863272356053457 -1 0 0
1338 2 69.46359001841292 5.478208943731492 -0.08863272356053388 -1 0 0
1252 10 70.06445975710541 1.8261197910604383 2.258592055543906 -1 0 0
1340 10 70.06445975710541 5.478208533271437 2.2585920555439096 -1 0 0
1167 11 72.306824729044 7.580120679941084e-05 0.132184542824345 -1 0 0
1254 4 73.94536341485693 1.8261202015204971 -0.08863272356053076 -1 0 0
1255 11 72.30682472904398 3.6521645434177974 0.1321845428243524 -1 0 0
1342 4 73.94536341485691 5.478208943731489 -0.0886327235605279 -1 0 0
1165 3 71.70589399997614 7.512163528722724e-05 2.471604581202597 -1 0 0
1256 12 74.54623315354944 1.826119791060444 2.2585920555439096 -1 0 0
1253 3 71.70589399997613 3.652163863846285 2.471604581202604 -1 0 0
1344 12 74.54623315354944 5.478208533271438 2.2585920555439114 -1 0 0
1171 9 76.78859812548801 7.580120679547643e-05 0.13218454282434378 -1 0 0
1258 2 78.42713681130094 1.826120201520488 -0.08863272356053772 -1 0 0
1259 9 76.78859812548801 3.652164543417799 0.13218454282434783 -1 0 0
1346 2 78.42713681130094 5.478208943731494 -0.08863272356053291 -1 0 0
1169 1 76.18766739642015 7.512163528880559e-05 2.4716045812026013 -1 0 0
1260 10 79.02800654999345 1.8261197910604356 2.2585920555439087 -1 0 0
1257 1 76.18766739642015 3.652163863846288 2.4716045812026013 -1 0 0
1348 10 79.02800654999345 5.478208533271437 2.2585920555439154 -1 0 0
1173 3 80.66944079286415 7.512163527696364e-05 2.471604581202597 -1 0 0
1261 3 80.66944079286415 3.6521638638462837 2.471604581202605 -1 0 0
1175 11 81.27037152193199 7.580120679148076e-05 0.13218454282434136 -1 0 0
1263 11 81.270371521932 3.652164543417798 0.13218454282434872 -1 0 0
1262 4 82.90891020774492 1.826120201520489 -0.08863272356054215 -1 0 0
1179 9 85.752144918376 7.580120679282522e-05 0.13218454282433376 -1 0 0
1267 9 85.752144918376 3.6521645434177974 0.13218454282434464 -1 0 0
1350 4 82.90891020774492 5.478208943731489 -0.08863272356053199 -1 0 0
1264 12 83.50977994643745 1.8261197910604376 2.258592055543907 -1 0 0
1177 1 85.15121418930815 7.512163528370649e-05 2.4716045812025937 -1 0 0
1265 1 85.15121418930815 3.652163863846281 2.4716045812026013 -1 0 0
1352 12 83.50977994643745 5.478208533271433 2.2585920555439145 -1 0 0
1266 2 87.39068360418894 1.8261202015204905 -0.08863272356053833 -1 0 0
1183 11 90.23391831482 7.580120679788288e-05 0.13218454282434142 -1 0 0
1270 4 91.87245700063293 1.8261202015204938 -0.0886327235605385 -1 0 0
1271 11 90.23391831482 3.652164543417793 0.1321845428243419 -1 0 0
1354 2 87.39068360418892 5.47820894373149 -0.0886327235605389 -1 0 0
1358 4 91.87245700063292 5.478208943731488 -0.08863272356053634 -1 0 0
1268 10 87.99155334288145 1.8261197910604396 2.2585920555439083 -1 0 0
1181 3 89.63298758575216 7.512163528962443e-05 2.471604581202599 -1 0 0
1272 12 92.47332673932544 1.8261197910604376 2.258592055543908 -1 0 0
1269 3 89.63298758575215 3.652163863846287 2.471604581202599 -1 0 0
1356 10 87.99155334288145 5.478208533271438 2.2585920555439083 -1 0 0
1360 12 92.47332673932543 5.478208533271436 2.258592055543905 -1 0 0
1189 3 98.59653437864013 7.512163529004645e-05 2.4716045812026084 -1 0 0
1277 3 98.59653437864013 3.6521638638462877 2.4716045812026106 -1 0 0
1187 9 94.715691711264 7.580120679902189e-05 0.13218454282433423 -1 0 0
1274 2 96.35423039707692 1.8261202015204954 -0.08863272356053938 -1 0 0
1275 9 94.715691711264 3.6521645434177974 0.13218454282434006 -1 0 0
1362 2 96.35423039707692 5.478208943731499 -0.08863272356053459 -1 0 0
1185 1 94.11476098219616 7.51216352906114e-05 2.471604581202594 -1 0 0
1276 10 96.95510013576941 1.8261197910604408 2.2585920555439105 -1 0 0
1273 1 94.11476098219615 3.652163863846287 2.471604581202598 -1 0 0
1364 10 96.95510013576941 5.478208533271441 2.258592055543911 -1 0 0
1367 11 0.5984503859399861 7.3042532856287945 0.1321845428243541 0 0 0
1371 9 5.080223782383997 7.304253285628795 0.1321845428243451 0 0 0
1454 4 2.236989071752917 9.130297685942487 -0.08863272356052776 0 0 0
1455 11 0.5984503859399899 10.956342027839794 0.13218454282435316 0 0 0
1459 9 5.080223782383996 10.956342027839794 0.13218454282434694 0 0 0
1369 1 4.479293053316148 7.304252606057283 2.471604581202603 0 0 0
1456 12 2.837858810445437 9.130297275482436 2.2585920555439154 0 0 0
1457 1 4.479293053316147 10.956341348268284 2.4716045812026044 0 0 0
1375 11 9.561997178827998 7.304253285628795 0.1321845428243514 0 0 0
1458 2 6.718762468196926 9.13029768594249 -0.08863272356053464 0 0 0
1463 11 9.561997178827998 10.956342027839796 0.13218454282435166 0 0 0
1373 3 8.961066449760143 7.304252606057286 2.4716045812026053 0 0 0
1460 10 7.319632206889436 9.13029727548244 2.258592055543912 0 0 0
1461 3 8.961066449760144 10.956341348268287 2.4716045812026057 0 0 0
1462 4 11.200535864640925 9.130297685942491 -0.08863272356053045 0 0 0
1464 12 11.801405603333443 9.13029727548244 2.2585920555439154 0 0 0
1379 9 14.043770575271996 7.304253285628796 0.13218454282434722 0 0 0
1466 2 15.682309261084926 9.13029768594249 -0.0886327235605369 0 0 0
1467 9 14.043770575272 10.956342027839796 0.13218454282434625 0 0 0
1377 1 13.44283984620415 7.304252606057286 2.471604581202604 0 0 0
1468 10 16.283178999777437 9.130297275482437 2.2585920555439096 0 0 0
1465 1 13.442839846204151 10.956341348268287 2.4716045812026026 0 0 0
1383 11 18.525543971716 7.304253285628796 0.13218454282434747 0 0 0
1387 9 23.007317368160003 7.304253285628795 0.1321845428243491 0 0 0
1470 4 20.16408265752893 9.130297685942491 -0.08863272356053202 0 0 0
1471 11 18.525543971716 10.956342027839796 0.13218454282434713 0 0 0
1475 9 23.00731736816 10.956342027839794 0.13218454282434974 0 0 0
1381 3 17.924613242648146 7.304252606057287 2.471604581202603 0 0 0
1385 1 22.40638663909215 7.304252606057286 2.4716045812026057 0 0 0
1472 12 20.764952396221442 9.130297275482437 2.258592055543913 0 0 0
1469 3 17.924613242648146 10.956341348268287 2.4716045812026026 0 0 0
1473 1 22.40638663909215 10.956341348268287 2.4716045812026044 0 0 0
1391 11 27.489090764603997 7.304253285628795 0.13218454282435224 0 0 0
1474 2 24.64585605397293 9.13029768594249 -0.08863272356053166 0 0 0
1479 11 27.489090764603997 10.956342027839796 0.13218454282435294 0 0 0
1389 3 26.88816003553615 7.304252606057287 2.4716045812026075 0 0 0
1476 10 25.24672579266544 9.13029727548244 2.258592055543916 0 0 0
1477 3 26.888160035536146 10.956341348268287 2.471604581202608 0 0 0
1395 9 31.970864161047995 7.304253285628795 0.13218454282434255 0 0 0
1478 4 29.127629450416926 9.130297685942491 -0.08863272356053133 0 0 0
1482 2 33.609402846860924 9.130297685942491 -0.08863272356053957 0 0 0
1483 9 31.970864161047995 10.956342027839794 0.13218454282434328 0 0 0
1393 1 31.369933431980154 7.304252606057286 2.4716045812026 0 0 0
1480 12 29.728499189109442 9.130297275482436 2.2585920555439136 0 0 0
1484 10 34.210272585553426 9.130297275482437 2.2585920555439074 0 0 0
1481 1 31.36993343198015 10.956341348268285 2.4716045812026004 0 0 0
1399 11 36.452637557492 7.304253285628796 0.1321845428243482 0 0 0
1486 4 38.09117624330492 9.130297685942491 -0.0886327235605298 0 0 0
1487 11 36.45263755749199 10.956342027839796 0.1321845428243501 0 0 0
1397 3 35.85170682842414 7.304252606057286 2.4716045812026026 0 0 0
1488 12 38.69204598199744 9.13029727548244 2.2585920555439136 0 0 0
1485 3 35.851706828424135 10.956341348268285 2.4716045812026044 0 0 0
1401 1 40.33348022486815 7.304252606057285 2.471604581202603 0 0 0
1489 1 40.33348022486815 10.956341348268287 2.471604581202602 0 0 0
1403 9 40.93441095393599 7.3042532856287945 0.13218454282434552 0 0 0
1491 9 40.93441095393599 10.956342027839796 0.13218454282434508 0 0 0
1407 11 45.41618435037999 7.3042532856287945 0.13218454282434433 0 0 0
1490 2 42.57294963974891 9.13029768594249 -0.08863272356053986 0 0 0
1495 11 45.41618435037999 10.956342027839794 0.13218454282434508 0 0 0
1405 3 44.81525362131214 7.304252606057286 2.4716045812025973 0 0 0
1492 10 43.17381937844143 9.130297275482436 2.258592055543906 0 0 0
1493 3 44.81525362131214 10.956341348268284 2.4716045812025986 0 0 0
1323 9 49.89795774682399 7.304253285628796 0.13218454282435255 -1 0 0
1494 4 47.054723036192925 9.13029768594249 -0.0886327235605318 0 0 0
1410 2 51.53649643263692 9.130297685942491 -0.08863272356052909 -1 0 0
1411 9 49.89795774682399 10.956342027839794 0.13218454282435343 -1 0 0
1321 1 49.29702701775614 7.304252606057284 2.471604581202606 -1 0 0
1496 12 47.65559277488543 9.130297275482437 2.2585920555439154 0 0 0
1412 10 52.13736617132944 9.13029727548244 2.2585920555439167 -1 0 0
1409 1 49.297027017756136 10.956341348268287 2.47160458120261 -1 0 0
1327 11 54.379731143267996 7.304253285628798 0.13218454282435205 -1 0 0
1414 4 56.01826982908093 9.130297685942491 -0.08863272356053217 -1 0 0
1415 11 54.379731143267996 10.956342027839797 0.13218454282435194 -1 0 0
1325 3 53.77880041420015 7.304252606057286 2.4716045812026057 -1 0 0
1416 12 56.619139567773445 9.13029727548244 2.2585920555439114 -1 0 0
1413 3 53.77880041420015 10.956341348268289 2.4716045812026057 -1 0 0
1331 9 58.861504539712 7.304253285628796 0.13218454282434217 -1 0 0
1335 11 63.34327793615601 7.304253285628793 0.13218454282433154 -1 0 0
1418 2 60.50004322552493 9.130297685942491 -0.08863272356054232 -1 0 0
1419 9 58.861504539712 10.956342027839794 0.13218454282434197 -1 0 0
1423 11 63.343277936156 10.956342027839796 0.13218454282433587 -1 0 0
1329 1 58.26057381064415 7.304252606057286 2.4716045812025995 -1 0 0
1333 3 62.74234720708815 7.304252606057287 2.471604581202591 -1 0 0
1420 10 61.10091296421744 9.130297275482436 2.258592055543904 -1 0 0
1417 1 58.26057381064415 10.956341348268287 2.471604581202601 -1 0 0
1421 3 62.74234720708815 10.956341348268285 2.471604581202593 -1 0 0
1339 9 67.82505133259998 7.304253285628797 0.13218454282434874 -1 0 0
1422 4 64.98181662196892 9.13029768594249 -0.0886327235605423 -1 0 0
1427 9 67.82505133259997 10.956342027839796 0.13218454282434872 -1 0 0
1337 1 67.22412060353213 7.304252606057285 2.4716045812026035 -1 0 0
1424 12 65.58268636066143 9.130297275482437 2.2585920555439087 -1 0 0
1425 1 67.22412060353213 10.956341348268289 2.471604581202604 -1 0 0
1426 2 69.46359001841292 9.130297685942494 -0.0886327235605333 -1 0 0
1428 10 70.06445975710542 9.130297275482441 2.258592055543912 -1 0 0
1343 11 72.30682472904398 7.304253285628796 0.1321845428243528 -1 0 0
1430 4 73.94536341485691 9.130297685942487 -0.08863272356052822 -1 0 0
1431 11 72.306824729044 10.956342027839796 0.13218454282435133 -1 0 0
1341 3 71.70589399997613 7.304252606057287 2.4716045812026053 -1 0 0
1432 12 74.54623315354944 9.130297275482432 2.2585920555439127 -1 0 0
1429 3 71.70589399997613 10.95634134826829 2.4716045812026053 -1 0 0
1347 9 76.78859812548801 7.3042532856287945 0.13218454282434589 -1 0 0
1434 2 78.42713681130094 9.13029768594249 -0.0886327235605321 -1 0 0
1435 9 76.78859812548801 10.956342027839788 0.13218454282434708 -1 0 0
1345 1 76.18766739642015 7.304252606057283 2.4716045812026026 -1 0 0
1436 10 79.02800654999345 9.130297275482436 2.2585920555439167 -1 0 0
1433 1 76.18766739642015 10.956341348268285 2.471604581202604 -1 0 0
1349 3 80.66944079286417 7.304252606057287 2.4716045812026093 -1 0 0
1437 3 80.66944079286415 10.95634134826829 2.4716045812026124 -1 0 0
1351 11 81.270371521932 7.304253285628797 0.13218454282435277 -1 0 0
1439 11 81.270371521932 10.956342027839796 0.13218454282435155 -1 0 0
1355 9 85.752144918376 7.304253285628791 0.13218454282434686 -1 0 0
1438 4 82.90891020774492 9.130297685942496 -0.08863272356052844 -1 0 0
1443 9 85.752144918376 10.9563420278398 0.13218454282434539 -1 0 0
1353 1 85.15121418930815 7.304252606057285 2.471604581202606 -1 0 0
1440 12 83.50977994643745 9.130297275482437 2.258592055543917 -1 0 0
1441 1 85.15121418930816 10.956341348268287 2.4716045812026017 -1 0 0
1359 11 90.23391831482 7.304253285628797 0.13218454282434097 -1 0 0
1442 2 87.39068360418892 9.130297685942486 -0.08863272356053895 -1 0 0
1446 4 91.87245700063292 9.13029768594249 -0.08863272356053757 -1 0 0
1447 11 90.23391831482 10.9563420278398 0.13218454282433975 -1 0 0
1357 3 89.63298758575215 7.304252606057283 2.4716045812025995 -1 0 0
1444 10 87.99155334288145 9.130297275482437 2.2585920555439047 -1 0 0
1448 12 92.47332673932543 9.13029727548244 2.258592055543909 -1 0 0
1445 3 89.63298758575215 10.956341348268287 2.4716045812026 -1 0 0
1365 3 98.59653437864013 7.304252606057291 2.47160458120261 -1 0 0
1453 3 98.59653437864013 10.956341348268284 2.4716045812026075 -1 0 0
1363 9 94.71569171126399 7.3042532856288 0.13218454282434441 -1 0 0
1450 2 96.35423039707692 9.130297685942491 -0.08863272356053553 -1 0 0
1451 9 94.71569171126399 10.956342027839794 0.13218454282434755 -1 0 0
1361 1 94.11476098219613 7.30425260605729 2.4716045812026026 -1 0 0
1452 10 96.95510013576943 9.130297275482436 2.2585920555439154 -1 0 0
1449 1 94.11476098219613 10.956341348268285 2.471604581202605 -1 0 0
1542 4 2.2369890717529177 12.78238642815349 -0.08863272356052815 0 0 0
1543 11 0.5984503859399907 14.608430770050795 0.1321845428243535 0 0 0
1547 9 5.080223782383996 14.608430770050795 0.13218454282434708 0 0 0
1630 4 2.236989071752917 16.434475170364493 -0.08863272356052783 0 0 0
1544 12 2.8378588104454376 12.782386017693439 2.258592055543916 0 0 0
1545 1 4.479293053316149 14.608430090479287 2.4716045812026035 0 0 0
1632 12 2.837858810445439 16.43447475990444 2.258592055543916 0 0 0
1546 2 6.718762468196924 12.78238642815349 -0.08863272356053549 0 0 0
1551 11 9.561997178827998 14.608430770050797 0.13218454282435044 0 0 0
1634 2 6.718762468196925 16.43447517036449 -0.08863272356053545 0 0 0
1548 10 7.319632206889435 12.782386017693439 2.258592055543912 0 0 0
1549 3 8.961066449760143 14.608430090479287 2.471604581202606 0 0 0
1636 10 7.319632206889434 16.43447475990444 2.2585920555439105 0 0 0
1550 4 11.200535864640926 12.782386428153492 -0.08863272356053094 0 0 0
1638 4 11.200535864640923 16.434475170364493 -0.08863272356053194 0 0 0
1552 12 11.801405603333443 12.78238601769344 2.2585920555439127 0 0 0
1640 12 11.801405603333444 16.43447475990444 2.258592055543912 0 0 0
1554 2 15.682309261084926 12.78238642815349 -0.08863272356053858 0 0 0
1555 9 14.043770575272 14.608430770050795 0.13218454282434286 0 0 0
1642 2 15.682309261084928 16.434475170364493 -0.08863272356054051 0 0 0
1556 10 16.283178999777437 12.782386017693439 2.258592055543907 0 0 0
1553 1 13.442839846204153 14.608430090479288 2.4716045812025995 0 0 0
1644 10 16.283178999777434 16.43447475990444 2.2585920555439065 0 0 0
1558 4 20.164082657528926 12.78238642815349 -0.08863272356053378 0 0 0
1559 11 18.525543971716 14.608430770050797 0.13218454282434675 0 0 0
1563 9 23.007317368160003 14.608430770050797 0.1321845428243476 0 0 0
1646 4 20.164082657528926 16.434475170364493 -0.08863272356053163 0 0 0
1560 12 20.764952396221442 12.78238601769344 2.2585920555439123 0 0 0
1557 3 17.924613242648146 14.60843009047929 2.471604581202602 0 0 0
1561 1 22.40638663909215 14.608430090479287 2.471604581202604 0 0 0
1648 12 20.764952396221442 16.43447475990444 2.2585920555439127 0 0 0
1562 2 24.64585605397293 12.78238642815349 -0.08863272356053227 0 0 0
1567 11 27.489090764603993 14.608430770050797 0.13218454282435316 0 0 0
1650 2 24.645856053972928 16.434475170364493 -0.08863272356053305 0 0 0
1564 10 25.246725792665437 12.782386017693439 2.2585920555439136 0 0 0
1565 3 26.888160035536142 14.60843009047929 2.4716045812026084 0 0 0
1652 10 25.246725792665437 16.43447475990444 2.258592055543915 0 0 0
1566 4 29.127629450416922 12.782386428153492 -0.08863272356053198 0 0 0
1570 2 33.609402846860924 12.782386428153488 -0.08863272356053971 0 0 0
1571 9 31.970864161047995 14.608430770050797 0.132184542824343 0 0 0
1654 4 29.127629450416922 16.434475170364493 -0.08863272356053033 0 0 0
1658 2 33.60940284686092 16.43447517036449 -0.08863272356053861 0 0 0
1568 12 29.728499189109442 12.782386017693439 2.2585920555439123 0 0 0
1572 10 34.21027258555343 12.782386017693439 2.2585920555439074 0 0 0
1569 1 31.36993343198015 14.608430090479287 2.4716045812026017 0 0 0
1656 12 29.728499189109442 16.43447475990444 2.2585920555439127 0 0 0
1660 10 34.21027258555343 16.43447475990444 2.2585920555439083 0 0 0
1574 4 38.09117624330492 12.782386428153488 -0.08863272356053033 0 0 0
1575 11 36.45263755749199 14.608430770050797 0.13218454282435005 0 0 0
1662 4 38.09117624330492 16.43447517036449 -0.08863272356053205 0 0 0
1576 12 38.69204598199744 12.782386017693439 2.258592055543912 0 0 0
1573 3 35.851706828424135 14.608430090479285 2.471604581202605 0 0 0
1664 12 38.69204598199743 16.43447475990444 2.258592055543912 0 0 0
1577 1 40.33348022486815 14.608430090479288 2.4716045812026013 0 0 0
1579 9 40.93441095393599 14.608430770050793 0.1321845428243424 0 0 0
1578 2 42.57294963974892 12.782386428153488 -0.08863272356054078 0 0 0
1583 11 45.41618435037999 14.608430770050795 0.1321845428243415 0 0 0
1666 2 42.57294963974891 16.43447517036449 -0.08863272356054253 0 0 0
1580 10 43.17381937844143 12.782386017693437 2.2585920555439034 0 0 0
1581 3 44.81525362131214 14.608430090479287 2.4716045812025973 0 0 0
1668 10 43.17381937844143 16.43447475990444 2.2585920555439025 0 0 0
1582 4 47.05472303619292 12.782386428153488 -0.0886327235605335 0 0 0
1498 2 51.536496432636916 12.782386428153488 -0.0886327235605306 -1 0 0
1499 9 49.897957746823984 14.608430770050795 0.13218454282435277 -1 0 0
1670 4 47.05472303619292 16.43447517036449 -0.08863272356053607 0 0 0
1586 2 51.536496432636916 16.43447517036449 -0.08863272356053263 -1 0 0
1584 12 47.65559277488543 12.782386017693439 2.2585920555439145 0 0 0
1500 10 52.13736617132943 12.782386017693437 2.2585920555439154 -1 0 0
1497 1 49.29702701775613 14.608430090479287 2.471604581202608 -1 0 0
1672 12 47.65559277488543 16.43447475990444 2.2585920555439114 0 0 0
1588 10 52.137366171329425 16.434474759904443 2.2585920555439123 -1 0 0
1502 4 56.01826982908093 12.78238642815349 -0.08863272356053362 -1 0 0
1503 11 54.379731143267996 14.608430770050795 0.13218454282435155 -1 0 0
1590 4 56.01826982908092 16.434475170364493 -0.08863272356053246 -1 0 0
1504 12 56.619139567773445 12.782386017693439 2.258592055543912 -1 0 0
1501 3 53.77880041420014 14.608430090479288 2.471604581202605 -1 0 0
1592 12 56.61913956777344 16.434474759904436 2.2585920555439136 -1 0 0
1506 2 60.50004322552492 12.782386428153488 -0.08863272356054451 -1 0 0
1507 9 58.861504539711994 14.608430770050798 0.1321845428243429 -1 0 0
1511 11 63.343277936156 14.608430770050797 0.13218454282433256 -1 0 0
1594 2 60.50004322552492 16.434475170364493 -0.08863272356054261 -1 0 0
1508 10 61.10091296421744 12.782386017693439 2.2585920555439016 -1 0 0
1505 1 58.26057381064415 14.608430090479288 2.4716045812026004 -1 0 0
1509 3 62.742347207088145 14.608430090479288 2.4716045812025933 -1 0 0
1596 10 61.10091296421744 16.43447475990444 2.2585920555439007 -1 0 0
1510 4 64.98181662196892 12.782386428153492 -0.08863272356054422 -1 0 0
1515 9 67.82505133259998 14.608430770050797 0.1321845428243449 -1 0 0
1598 4 64.98181662196892 16.43447517036449 -0.08863272356054364 -1 0 0
1512 12 65.58268636066143 12.78238601769344 2.2585920555439056 -1 0 0
1513 1 67.22412060353214 14.60843009047929 2.4716045812025977 -1 0 0
1600 12 65.58268636066143 16.43447475990444 2.258592055543904 -1 0 0
1514 2 69.4635900184129 12.782386428153488 -0.08863272356053621 -1 0 0
1602 2 69.46359001841292 16.43447517036449 -0.08863272356053961 -1 0 0
1516 10 70.06445975710542 12.78238601769344 2.2585920555439105 -1 0 0
1604 10 70.06445975710542 16.43447475990444 2.2585920555439083 -1 0 0
1518 4 73.94536341485693 12.78238642815349 -0.08863272356053246 -1 0 0
1519 11 72.306824729044 14.608430770050797 0.13218454282435135 -1 0 0
1606 4 73.94536341485693 16.434475170364497 -0.08863272356053109 -1 0 0
1520 12 74.54623315354945 12.78238601769344 2.2585920555439167 -1 0 0
1517 3 71.70589399997614 14.608430090479288 2.4716045812026026 -1 0 0
1608 12 74.54623315354945 16.434474759904443 2.2585920555439167 -1 0 0
1522 2 78.42713681130093 12.78238642815349 -0.0886327235605341 -1 0 0
1523 9 76.78859812548801 14.6084307700508 0.13218454282434391 -1 0 0
1610 2 78.42713681130093 16.43447517036449 -0.08863272356053797 -1 0 0
1524 10 79.02800654999344 12.782386017693442 2.2585920555439127 -1 0 0
1521 1 76.18766739642015 14.608430090479287 2.4716045812026035 -1 0 0
1612 10 79.02800654999344 16.434474759904443 2.258592055543906 -1 0 0
1525 3 80.66944079286415 14.608430090479287 2.471604581202606 -1 0 0
1527 11 81.270371521932 14.608430770050797 0.13218454282435085 -1 0 0
1526 4 82.90891020774492 12.782386428153488 -0.08863272356053009 -1 0 0
1531 9 85.752144918376 14.608430770050797 0.13218454282434094 -1 0 0
1614 4 82.90891020774492 16.43447517036449 -0.08863272356053381 -1 0 0
1528 12 83.50977994643745 12.782386017693442 2.2585920555439123 -1 0 0
1529 1 85.15121418930816 14.60843009047929 2.4716045812025995 -1 0 0