LAMMPS data file via write_data, version 29 Aug 2024, timestep = 6, units = metal

5544 atoms
8 atom types

0 97.979641912551 xlo xhi
0 99.042054002595 ylo yhi
-50 50 zlo zhi

Masses

1 72.63
2 72.63
3 72.63
4 72.63
5 15.999
6 15.999
7 15.999
8 15.999

Atoms # atomic

1472 6 1.051831499797787 1.5006371818578033 0.7235972604300723 0 0 0
1390 5 3.3958691336754168 2.1508574193215036e-13 1.4911949701864085 0 0 0
1391 2 4.648374866641482 1.805035603953439e-13 -0.012345620729974659 0 0 0
1476 6 5.7175287337287894 1.5006371818578055 0.7235972604300704 0 0 0
1474 5 3.395869133675418 3.0012743637152144 1.4911949701864113 0 0 0
1475 2 4.648374866641489 3.001274363715177 -0.012345620729976949 0 0 0
1556 6 1.0518314997977887 4.5019115455728 0.7235972604300687 0 0 0
1560 6 5.717528733728789 4.501911545572804 0.723597260430069 0 0 0
1473 1 2.318464912303664 1.5006371818578184 2.215963013841108 0 0 0
1557 1 2.3184649123036674 4.501911545572826 2.2159630138411157 0 0 0
1394 5 8.061566367606417 2.158311137735586e-13 1.4911949701864105 0 0 0
1395 2 9.314072100572478 1.8295718479636088e-13 -0.012345620729982222 0 0 0
1480 6 10.383225967659788 1.5006371818578048 0.7235972604300738 0 0 0
1478 5 8.061566367606419 3.0012743637152153 1.4911949701864105 0 0 0
1479 2 9.314072100572483 3.001274363715175 -0.012345620729979004 0 0 0
1564 6 10.383225967659785 4.501911545572802 0.7235972604300713 0 0 0
1477 1 6.984162146234666 1.5006371818578177 2.2159630138411077 0 0 0
1561 1 6.984162146234667 4.501911545572824 2.215963013841111 0 0 0
1399 2 13.979769334503482 1.848654151065878e-13 -0.012345620729975203 0 0 0
1398 5 12.72726360153742 2.139357840418384e-13 1.4911949701864067 0 0 0
1484 6 15.048923201590789 1.5006371818577988 0.7235972604300679 0 0 0
1483 2 13.979769334503485 3.0012743637151784 -0.012345620729975526 0 0 0
1482 5 12.727263601537418 3.001274363715213 1.4911949701864105 0 0 0
1568 6 15.048923201590789 4.5019115455728 0.7235972604300673 0 0 0
1481 1 11.64985938016567 1.5006371818578217 2.2159630138411095 0 0 0
1485 1 16.31555661409666 1.5006371818578261 2.2159630138411095 0 0 0
1565 1 11.649859380165672 4.501911545572826 2.2159630138411135 0 0 0
1569 1 16.315556614096664 4.5019115455728285 2.2159630138411126 0 0 0
1402 5 17.392960835468415 2.077095176654927e-13 1.4911949701864142 0 0 0
1403 2 18.64546656843449 1.932555166597024e-13 -0.012345620729986975 0 0 0
1488 6 19.714620435521784 1.5006371818577955 0.7235972604300697 0 0 0
1406 5 22.058658069399417 2.047408029415231e-13 1.491194970186415 0 0 0
1486 5 17.39296083546842 3.0012743637152104 1.4911949701864142 0 0 0
1487 2 18.64546656843449 3.001274363715179 -0.012345620729980463 0 0 0
1490 5 22.058658069399424 3.001274363715212 1.4911949701864133 0 0 0
1572 6 19.714620435521784 4.5019115455728 0.723597260430069 0 0 0
1489 1 20.981253848027656 1.5006371818578277 2.2159630138411073 0 0 0
1573 1 20.98125384802766 4.5019115455728285 2.2159630138411095 0 0 0
1407 2 23.31116380236549 1.907339846865445e-13 -0.012345620729987726 0 0 0
1492 6 24.380317669452783 1.500637181857797 0.7235972604300757 0 0 0
1411 2 27.976861036296484 1.9357371096654757e-13 -0.012345620729980869 0 0 0
1410 5 26.72435530333041 2.042892705732642e-13 1.4911949701864122 0 0 0
1491 2 23.31116380236549 3.001274363715177 -0.012345620729983103 0 0 0
1495 2 27.976861036296487 3.001274363715177 -0.012345620729978465 0 0 0
1494 5 26.724355303330416 3.0012743637152113 1.4911949701864116 0 0 0
1576 6 24.380317669452783 4.501911545572803 0.7235972604300758 0 0 0
1493 1 25.64695108195867 1.5006371818578268 2.2159630138411073 0 0 0
1577 1 25.646951081958672 4.501911545572825 2.215963013841111 0 0 0
1496 6 29.046014903383785 1.5006371818577968 0.7235972604300689 0 0 0
1414 5 31.39005253726141 2.0642438999329832e-13 1.4911949701864156 0 0 0
1415 2 32.6425582702275 1.8731474978897557e-13 -0.012345620729979207 0 0 0
1500 6 33.71171213731479 1.5006371818578028 0.7235972604300699 0 0 0
1498 5 31.39005253726142 3.001274363715211 1.4911949701864098 0 0 0
1499 2 32.6425582702275 3.0012743637151784 -0.01234562072997452 0 0 0
1580 6 29.04601490338379 4.501911545572802 0.7235972604300698 0 0 0
1584 6 33.71171213731479 4.501911545572799 0.7235972604300708 0 0 0
1497 1 30.31264831588967 1.5006371818578244 2.2159630138411117 0 0 0
1581 1 30.31264831588967 4.5019115455728285 2.215963013841114 0 0 0
1418 5 36.0557497711924 2.1344551276819695e-13 1.491194970186409 0 0 0
1419 2 37.308255504158474 1.9345591757274602e-13 -0.01234562072998149 0 0 0
1504 6 38.37740937124579 1.500637181857809 0.7235972604300704 0 0 0
1502 5 36.05574977119242 3.0012743637152157 1.49119497018641 0 0 0
1503 2 37.30825550415849 3.001274363715175 -0.01234562072997763 0 0 0
1588 6 38.37740937124579 4.501911545572797 0.7235972604300679 0 0 0
1501 1 34.978345549820666 1.500637181857815 2.215963013841106 0 0 0
1505 1 39.64404278375167 1.5006371818578097 2.2159630138411064 0 0 0
1585 1 34.978345549820666 4.501911545572831 2.2159630138411077 0 0 0
1589 1 39.64404278375167 4.501911545572832 2.2159630138411113 0 0 0
1423 2 41.97395273808947 1.8799841172792446e-13 -0.012345620729979332 0 0 0
1422 5 40.72144700512341 2.2029742676224504e-13 1.4911949701864038 0 0 0
1508 6 43.04310660517679 1.5006371818578101 0.7235972604300714 0 0 0
1426 5 45.38714423905441 2.1741759606785885e-13 1.4911949701864098 0 0 0
1507 2 41.973952738089494 3.001274363715175 -0.012345620729980621 0 0 0
1506 5 40.721447005123416 3.0012743637152157 1.4911949701864131 0 0 0
1510 5 45.387144239054415 3.001274363715216 1.491194970186415 0 0 0
1592 6 43.04310660517679 4.5019115455727965 0.7235972604300678 0 0 0
1509 1 44.30974001768267 1.5006371818578086 2.215963013841107 0 0 0
1593 1 44.30974001768267 4.50191154557283 2.215963013841111 0 0 0
1427 2 46.63964997202047 1.8868177739458702e-13 -0.012345620729983213 0 0 0
1512 6 47.70880383910779 1.5006371818578061 0.7235972604300703 0 0 0
1346 5 50.052841472985406 2.123366445274728e-13 1.491194970186404 -1 0 0
1347 2 51.305347205951485 1.9190243267195246e-13 -0.012345620729976532 -1 0 0
1511 2 46.639649972020486 3.0012743637151744 -0.012345620729981894 0 0 0
1430 5 50.05284147298541 3.001274363715217 1.4911949701864111 -1 0 0
1431 2 51.30534720595149 3.00127436371518 -0.012345620729976919 -1 0 0
1596 6 47.70880383910779 4.501911545572799 0.7235972604300676 0 0 0
1429 1 48.97543725161366 1.5006371818578168 2.215963013841115 -1 0 0
1513 1 48.97543725161366 4.501911545572826 2.215963013841114 -1 0 0
1432 6 52.374501073038786 1.5006371818578013 0.7235972604300752 -1 0 0
1351 2 55.97104443988248 1.826031870299378e-13 -0.012345620729980133 -1 0 0
1350 5 54.71853870691642 2.1758870260687e-13 1.491194970186411 -1 0 0
1436 6 57.04019830696979 1.5006371818578028 0.7235972604300721 -1 0 0
1435 2 55.97104443988248 3.0012743637151793 -0.012345620729978694 -1 0 0
1434 5 54.71853870691642 3.0012743637152135 1.4911949701864118 -1 0 0
1516 6 52.374501073038786 4.501911545572802 0.7235972604300721 -1 0 0
1520 6 57.040198306969785 4.501911545572798 0.7235972604300731 -1 0 0
1433 1 53.64113448554467 1.500637181857817 2.215963013841105 -1 0 0
1517 1 53.64113448554467 4.501911545572824 2.2159630138411126 -1 0 0
1354 5 59.38423594084742 2.1279057280955829e-13 1.4911949701864085 -1 0 0
1355 2 60.63674167381348 1.8274382156698417e-13 -0.01234562072997494 -1 0 0
1440 6 61.7058955409008 1.5006371818578033 0.7235972604300717 -1 0 0
1438 5 59.38423594084742 3.0012743637152135 1.4911949701864111 -1 0 0
1439 2 60.63674167381348 3.001274363715179 -0.012345620729974891 -1 0 0
1524 6 61.7058955409008 4.501911545572803 0.7235972604300669 -1 0 0
1437 1 58.30683171947568 1.5006371818578224 2.2159630138411135 -1 0 0
1441 1 62.97252895340668 1.5006371818578215 2.2159630138411126 -1 0 0
1521 1 58.306831719475674 4.5019115455728205 2.2159630138411117 -1 0 0
1525 1 62.97252895340668 4.501911545572824 2.2159630138411175 -1 0 0
1358 5 64.04993317477842 2.1451415996556484e-13 1.4911949701864038 -1 0 0
1359 2 65.30243890774449 1.7908503812834474e-13 -0.012345620729976001 -1 0 0
1444 6 66.3715927748318 1.500637181857803 0.7235972604300651 -1 0 0
1362 5 68.71563040870942 2.1363452275933388e-13 1.4911949701864142 -1 0 0
1442 5 64.04993317477842 3.001274363715213 1.4911949701864056 -1 0 0
1443 2 65.30243890774449 3.001274363715176 -0.012345620729975498 -1 0 0
1446 5 68.71563040870942 3.001274363715214 1.49119497018641 -1 0 0
1528 6 66.3715927748318 4.501911545572802 0.723597260430068 -1 0 0
1445 1 67.63822618733768 1.5006371818578208 2.215963013841118 -1 0 0
1529 1 67.63822618733768 4.501911545572828 2.215963013841114 -1 0 0
1363 2 69.96813614167547 1.829941378766858e-13 -0.012345620729978878 -1 0 0
1448 6 71.0372900087628 1.5006371818578044 0.7235972604300699 -1 0 0
1366 5 73.38132764264041 2.2235084657431615e-13 1.4911949701864007 -1 0 0
1367 2 74.63383337560647 1.7144909386261892e-13 -0.012345620729968598 -1 0 0
1447 2 69.96813614167547 3.0012743637151753 -0.0123456207299705 -1 0 0
1450 5 73.38132764264041 3.0012743637152117 1.4911949701864105 -1 0 0
1451 2 74.63383337560649 3.001274363715177 -0.01234562072997626 -1 0 0
1532 6 71.0372900087628 4.501911545572802 0.7235972604300641 -1 0 0
1449 1 72.30392342126868 1.500637181857821 2.215963013841105 -1 0 0
1533 1 72.30392342126868 4.501911545572824 2.2159630138411157 -1 0 0
1452 6 75.7029872426938 1.500637181857806 0.723597260430071 -1 0 0
1370 5 78.04702487657143 2.1664709247755532e-13 1.4911949701864011 -1 0 0
1371 2 79.29953060953747 1.8885548170401579e-13 -0.01234562072998179 -1 0 0
1456 6 80.3686844766248 1.5006371818578141 0.7235972604300779 -1 0 0
1454 5 78.04702487657141 3.0012743637152184 1.4911949701864078 -1 0 0
1455 2 79.29953060953748 3.0012743637151744 -0.012345620729976699 -1 0 0
1536 6 75.7029872426938 4.501911545572802 0.723597260430069 -1 0 0
1540 6 80.36868447662478 4.5019115455728 0.7235972604300728 -1 0 0
1453 1 76.96962065519968 1.500637181857819 2.2159630138411135 -1 0 0
1537 1 76.96962065519968 4.501911545572823 2.215963013841116 -1 0 0
1375 2 83.96522784346847 1.7229292222306937e-13 -0.012345620729970468 -1 0 0
1374 5 82.71272211050243 2.251379800970868e-13 1.4911949701864062 -1 0 0
1460 6 85.03438171055579 1.5006371818578015 0.7235972604300681 -1 0 0
1459 2 83.96522784346848 3.0012743637151793 -0.012345620729981585 -1 0 0
1458 5 82.71272211050243 3.0012743637152153 1.4911949701864158 -1 0 0
1544 6 85.03438171055579 4.501911545572802 0.7235972604300666 -1 0 0
1457 1 81.63531788913066 1.5006371818578155 2.2159630138411 -1 0 0
1461 1 86.30101512306167 1.5006371818578184 2.215963013841112 -1 0 0
1541 1 81.63531788913066 4.501911545572823 2.2159630138411055 -1 0 0
1545 1 86.30101512306167 4.501911545572827 2.215963013841116 -1 0 0
1378 5 87.37841934443342 2.1301827090408645e-13 1.4911949701864082 -1 0 0
1379 2 88.63092507739948 1.8463509158486253e-13 -0.012345620729982219 -1 0 0
1464 6 89.70007894448679 1.5006371818578013 0.7235972604300795 -1 0 0
1382 5 92.04411657836442 2.128820351014469e-13 1.4911949701863971 -1 0 0
1462 5 87.37841934443342 3.0012743637152135 1.4911949701864038 -1 0 0
1463 2 88.63092507739948 3.0012743637151784 -0.012345620729976546 -1 0 0
1466 5 92.04411657836442 3.0012743637152135 1.491194970186401 -1 0 0
1548 6 89.70007894448679 4.5019115455728045 0.7235972604300772 -1 0 0
1465 1 90.9667123569927 1.500637181857818 2.215963013841109 -1 0 0
1549 1 90.96671235699269 4.501911545572828 2.2159630138411095 -1 0 0
1383 2 93.29662231133048 1.8309561931401991e-13 -0.012345620729967602 -1 0 0
1468 6 94.36577617841779 1.5006371818578046 0.7235972604300644 -1 0 0
1387 2 97.9623195452615 1.8381436211014733e-13 -0.012345620729988484 -1 0 0
1386 5 96.70981381229541 2.1166541384688238e-13 1.491194970186418 -1 0 0
1467 2 93.2966223113305 3.0012743637151775 -0.01234562072996768 -1 0 0
1471 2 97.9623195452615 3.0012743637151744 -0.01234562072998458 -1 0 0
1470 5 96.70981381229542 3.0012743637152144 1.4911949701864167 -1 0 0
1552 6 94.36577617841779 4.501911545572799 0.723597260430066 -1 0 0
1469 1 95.63240959092366 1.5006371818578252 2.215963013841113 -1 0 0
1553 1 95.63240959092366 4.50191154557283 2.2159630138411113 -1 0 0
1558 5 3.395869133675415 6.002548727430215 1.4911949701864113 0 0 0
1559 2 4.648374866641487 6.002548727430177 -0.01234562072997808 0 0 0
1640 6 1.0518314997977911 7.503185909287801 0.723597260430071 0 0 0
1644 6 5.7175287337287894 7.503185909287801 0.723597260430069 0 0 0
1642 5 3.3958691336754154 9.00382309114521 1.4911949701864111 0 0 0
1643 2 4.648374866641488 9.003823091145177 -0.01234562072997808 0 0 0
1724 6 1.0518314997977902 10.504460273002804 0.7235972604300728 0 0 0
1728 6 5.717528733728788 10.504460273002804 0.7235972604300713 0 0 0
1641 1 2.318464912303665 7.503185909287823 2.2159630138411144 0 0 0
1725 1 2.3184649123036647 10.504460273002824 2.215963013841116 0 0 0
1562 5 8.061566367606416 6.002548727430215 1.4911949701864118 0 0 0
1563 2 9.314072100572483 6.002548727430177 -0.012345620729981067 0 0 0
1648 6 10.383225967659786 7.503185909287802 0.7235972604300704 0 0 0
1646 5 8.061566367606417 9.003823091145211 1.4911949701864102 0 0 0
1647 2 9.314072100572483 9.003823091145177 -0.012345620729980852 0 0 0
1732 6 10.383225967659786 10.504460273002804 0.7235972604300738 0 0 0
1645 1 6.984162146234667 7.503185909287824 2.215963013841113 0 0 0
1729 1 6.984162146234664 10.504460273002824 2.2159630138411126 0 0 0
1567 2 13.979769334503482 6.002548727430176 -0.012345620729976949 0 0 0
1566 5 12.727263601537414 6.002548727430214 1.4911949701864118 0 0 0
1652 6 15.048923201590787 7.503185909287801 0.7235972604300672 0 0 0
1651 2 13.979769334503482 9.00382309114518 -0.012345620729976279 0 0 0
1650 5 12.727263601537414 9.00382309114521 1.4911949701864102 0 0 0
1736 6 15.048923201590787 10.504460273002804 0.7235972604300689 0 0 0
1649 1 11.649859380165672 7.503185909287824 2.2159630138411153 0 0 0
1653 1 16.315556614096664 7.503185909287824 2.215963013841117 0 0 0
1733 1 11.649859380165669 10.504460273002822 2.2159630138411153 0 0 0
1737 1 16.315556614096657 10.504460273002818 2.215963013841113 0 0 0
1570 5 17.392960835468415 6.002548727430216 1.4911949701864124 0 0 0
1571 2 18.645466568434486 6.002548727430176 -0.012345620729978524 0 0 0
1574 5 22.058658069399417 6.002548727430214 1.4911949701864144 0 0 0
1656 6 19.714620435521784 7.503185909287802 0.7235972604300694 0 0 0
1654 5 17.392960835468415 9.003823091145211 1.491194970186412 0 0 0
1655 2 18.645466568434486 9.003823091145179 -0.012345620729977596 0 0 0
1658 5 22.058658069399417 9.003823091145215 1.4911949701864131 0 0 0
1740 6 19.71462043552178 10.504460273002802 0.7235972604300721 0 0 0
1657 1 20.98125384802766 7.503185909287822 2.2159630138411144 0 0 0
1741 1 20.981253848027656 10.504460273002818 2.2159630138411095 0 0 0
1575 2 23.311163802365485 6.002548727430175 -0.012345620729982411 0 0 0
1579 2 27.97686103629648 6.002548727430175 -0.01234562072997598 0 0 0
1578 5 26.724355303330412 6.002548727430215 1.491194970186408 0 0 0
1660 6 24.380317669452783 7.5031859092878 0.7235972604300759 0 0 0
1659 2 23.31116380236549 9.003823091145179 -0.012345620729981839 0 0 0
1663 2 27.976861036296484 9.003823091145179 -0.01234562072997554 0 0 0
1662 5 26.724355303330412 9.003823091145211 1.4911949701864058 0 0 0
1744 6 24.380317669452783 10.504460273002804 0.7235972604300787 0 0 0
1661 1 25.64695108195867 7.503185909287823 2.2159630138411157 0 0 0
1745 1 25.646951081958665 10.504460273002822 2.215963013841112 0 0 0
1582 5 31.390052537261415 6.002548727430213 1.4911949701864091 0 0 0
1583 2 32.64255827022749 6.0025487274301765 -0.012345620729974567 0 0 0
1664 6 29.04601490338379 7.5031859092878 0.7235972604300717 0 0 0
1668 6 33.71171213731479 7.503185909287801 0.7235972604300718 0 0 0
1666 5 31.39005253726141 9.003823091145213 1.4911949701864105 0 0 0
1667 2 32.64255827022749 9.003823091145179 -0.01234562072997479 0 0 0
1748 6 29.046014903383785 10.504460273002804 0.7235972604300722 0 0 0
1752 6 33.71171213731479 10.504460273002806 0.7235972604300742 0 0 0
1665 1 30.312648315889668 7.503185909287824 2.2159630138411197 0 0 0
1749 1 30.312648315889664 10.50446027300282 2.215963013841114 0 0 0
1586 5 36.05574977119241 6.0025487274302085 1.4911949701864091 0 0 0
1587 2 37.30825550415848 6.002548727430179 -0.012345620729973117 0 0 0
1672 6 38.3774093712458 7.5031859092877955 0.7235972604300667 0 0 0
1670 5 36.05574977119241 9.003823091145215 1.491194970186409 0 0 0
1671 2 37.30825550415849 9.003823091145183 -0.012345620729971547 0 0 0
1756 6 38.37740937124579 10.504460273002804 0.7235972604300701 0 0 0
1669 1 34.978345549820666 7.503185909287827 2.215963013841118 0 0 0
1673 1 39.644042783751665 7.503185909287824 2.2159630138411215 0 0 0
1753 1 34.978345549820666 10.504460273002817 2.2159630138411086 0 0 0
1757 1 39.644042783751665 10.504460273002815 2.215963013841112 0 0 0
1591 2 41.97395273808948 6.00254872743018 -0.012345620729974369 0 0 0
1590 5 40.721447005123416 6.0025487274302085 1.4911949701864093 0 0 0
1594 5 45.387144239054415 6.002548727430209 1.4911949701864087 0 0 0
1676 6 43.043106605176796 7.503185909287796 0.7235972604300674 0 0 0
1675 2 41.97395273808949 9.003823091145183 -0.012345620729973267 0 0 0
1674 5 40.72144700512341 9.003823091145213 1.4911949701864087 0 0 0
1678 5 45.38714423905441 9.003823091145211 1.4911949701864111 0 0 0
1760 6 43.04310660517679 10.504460273002806 0.7235972604300708 0 0 0
1677 1 44.309740017682664 7.503185909287825 2.2159630138411206 0 0 0
1761 1 44.30974001768266 10.504460273002817 2.215963013841112 0 0 0
1595 2 46.63964997202048 6.002548727430181 -0.012345620729974234 0 0 0
1514 5 50.05284147298541 6.00254872743021 1.4911949701864047 -1 0 0
1515 2 51.30534720595149 6.0025487274301765 -0.012345620729974308 -1 0 0
1680 6 47.708803839107794 7.503185909287797 0.723597260430071 0 0 0
1679 2 46.63964997202048 9.00382309114518 -0.012345620729975151 0 0 0
1598 5 50.05284147298541 9.00382309114521 1.4911949701864042 -1 0 0
1599 2 51.30534720595149 9.003823091145177 -0.012345620729974027 -1 0 0
1764 6 47.70880383910779 10.5044602730028 0.723597260430073 0 0 0
1597 1 48.97543725161366 7.503185909287828 2.215963013841119 -1 0 0
1681 1 48.97543725161366 10.50446027300282 2.2159630138411157 -1 0 0
1519 2 55.97104443988249 6.002548727430181 -0.012345620729985128 -1 0 0
1518 5 54.71853870691642 6.002548727430213 1.4911949701864105 -1 0 0
1600 6 52.374501073038786 7.5031859092878 0.7235972604300748 -1 0 0
1604 6 57.04019830696979 7.503185909287803 0.7235972604300771 -1 0 0
1603 2 55.97104443988249 9.003823091145176 -0.01234562072998159 -1 0 0
1602 5 54.71853870691642 9.00382309114521 1.4911949701864073 -1 0 0
1684 6 52.374501073038786 10.5044602730028 0.723597260430075 -1 0 0
1688 6 57.04019830696979 10.504460273002806 0.7235972604300791 -1 0 0
1601 1 53.64113448554466 7.503185909287825 2.2159630138411113 -1 0 0
1685 1 53.64113448554467 10.504460273002827 2.215963013841113 -1 0 0
1522 5 59.38423594084742 6.002548727430214 1.4911949701864082 -1 0 0
1523 2 60.636741673813475 6.002548727430175 -0.012345620729972607 -1 0 0
1608 6 61.7058955409008 7.503185909287803 0.7235972604300699 -1 0 0
1606 5 59.38423594084742 9.003823091145211 1.4911949701864107 -1 0 0
1607 2 60.636741673813475 9.003823091145179 -0.012345620729973797 -1 0 0
1692 6 61.7058955409008 10.504460273002804 0.7235972604300692 -1 0 0
1605 1 58.30683171947568 7.503185909287825 2.2159630138411104 -1 0 0
1609 1 62.97252895340668 7.503185909287824 2.2159630138411175 -1 0 0
1689 1 58.306831719475674 10.504460273002827 2.215963013841113 -1 0 0
1693 1 62.97252895340667 10.504460273002824 2.2159630138411175 -1 0 0
1526 5 64.04993317477842 6.002548727430216 1.4911949701864051 -1 0 0
1527 2 65.30243890774449 6.0025487274301765 -0.012345620729977367 -1 0 0
1530 5 68.71563040870942 6.002548727430215 1.491194970186416 -1 0 0
1612 6 66.3715927748318 7.503185909287803 0.723597260430068 -1 0 0
1610 5 64.04993317477842 9.00382309114521 1.4911949701864058 -1 0 0
1611 2 65.30243890774447 9.003823091145172 -0.012345620729977894 -1 0 0
1614 5 68.71563040870942 9.003823091145211 1.4911949701864098 -1 0 0
1696 6 66.37159277483178 10.504460273002804 0.7235972604300761 -1 0 0
1613 1 67.63822618733768 7.50318590928782 2.215963013841115 -1 0 0
1697 1 67.63822618733768 10.504460273002822 2.215963013841116 -1 0 0
1531 2 69.96813614167547 6.002548727430171 -0.012345620729976355 -1 0 0
1534 5 73.38132764264041 6.002548727430214 1.4911949701864071 -1 0 0
1535 2 74.63383337560647 6.0025487274301765 -0.012345620729978636 -1 0 0
1616 6 71.0372900087628 7.503185909287804 0.7235972604300713 -1 0 0
1615 2 69.96813614167547 9.00382309114518 -0.012345620729973014 -1 0 0
1618 5 73.3813276426404 9.003823091145213 1.4911949701864031 -1 0 0
1619 2 74.63383337560647 9.003823091145179 -0.012345620729975054 -1 0 0
1700 6 71.0372900087628 10.504460273002802 0.7235972604300671 -1 0 0
1617 1 72.30392342126868 7.50318590928782 2.215963013841116 -1 0 0
1701 1 72.30392342126868 10.504460273002824 2.215963013841113 -1 0 0
1538 5 78.04702487657141 6.002548727430213 1.4911949701864073 -1 0 0
1539 2 79.29953060953747 6.002548727430175 -0.012345620729977297 -1 0 0
1620 6 75.7029872426938 7.503185909287803 0.7235972604300716 -1 0 0
1624 6 80.36868447662478 7.503185909287802 0.7235972604300732 -1 0 0
1622 5 78.04702487657141 9.003823091145213 1.4911949701864038 -1 0 0
1623 2 79.29953060953747 9.003823091145177 -0.012345620729978336 -1 0 0
1704 6 75.7029872426938 10.504460273002804 0.7235972604300684 -1 0 0
1708 6 80.36868447662478 10.504460273002802 0.7235972604300716 -1 0 0
1621 1 76.96962065519968 7.503185909287827 2.215963013841116 -1 0 0
1705 1 76.96962065519968 10.504460273002822 2.2159630138411166 -1 0 0
1543 2 83.96522784346848 6.002548727430178 -0.012345620729981892 -1 0 0
1542 5 82.71272211050241 6.002548727430216 1.4911949701864167 -1 0 0
1628 6 85.03438171055579 7.503185909287801 0.7235972604300658 -1 0 0
1627 2 83.96522784346848 9.003823091145176 -0.012345620729976602 -1 0 0
1626 5 82.71272211050241 9.003823091145213 1.4911949701864131 -1 0 0
1712 6 85.03438171055579 10.504460273002806 0.7235972604300664 -1 0 0
1625 1 81.63531788913066 7.503185909287822 2.2159630138411086 -1 0 0
1629 1 86.30101512306167 7.503185909287825 2.215963013841115 -1 0 0
1709 1 81.63531788913066 10.504460273002826 2.215963013841111 -1 0 0
1713 1 86.30101512306167 10.504460273002822 2.2159630138411157 -1 0 0
1546 5 87.37841934443341 6.002548727430215 1.4911949701864111 -1 0 0
1547 2 88.63092507739948 6.002548727430171 -0.0123456207299822 -1 0 0
1550 5 92.04411657836441 6.002548727430216 1.4911949701864013 -1 0 0
1632 6 89.70007894448679 7.503185909287797 0.7235972604300848 -1 0 0
1630 5 87.37841934443341 9.003823091145208 1.4911949701864098 -1 0 0
1631 2 88.63092507739948 9.00382309114518 -0.01234562072998314 -1 0 0
1634 5 92.04411657836441 9.003823091145204 1.4911949701863965 -1 0 0
1716 6 89.70007894448679 10.504460273002797 0.7235972604300804 -1 0 0
1633 1 90.96671235699269 7.503185909287826 2.2159630138411086 -1 0 0
1717 1 90.96671235699269 10.504460273002833 2.215963013841111 -1 0 0
1551 2 93.29662231133048 6.002548727430177 -0.012345620729971736 -1 0 0
1555 2 97.9623195452615 6.0025487274301765 -0.01234562072997891 -1 0 0
1554 5 96.70981381229542 6.002548727430207 1.4911949701864133 -1 0 0
1636 6 94.3657761784178 7.503185909287803 0.7235972604300714 -1 0 0
1635 2 93.29662231133048 9.00382309114518 -0.012345620729963336 -1 0 0
1639 2 97.9623195452615 9.003823091145177 -0.012345620729979518 -1 0 0
1638 5 96.70981381229542 9.00382309114522 1.4911949701864085 -1 0 0
1720 6 94.36577617841779 10.50446027300281 0.7235972604300674 -1 0 0
1637 1 95.63240959092367 7.503185909287822 2.2159630138411237 -1 0 0
1721 1 95.63240959092366 10.504460273002815 2.215963013841114 -1 0 0
1726 5 3.3958691336754194 12.005097454860216 1.4911949701864127 0 0 0
1727 2 4.648374866641488 12.005097454860174 -0.012345620729978852 0 0 0
1808 6 1.0518314997977878 13.505734636717804 0.7235972604300724 0 0 0
1812 6 5.717528733728789 13.505734636717802 0.7235972604300704 0 0 0
1810 5 3.3958691336754163 15.006371818575216 1.4911949701864118 0 0 0
1811 2 4.648374866641488 15.006371818575172 -0.01234562072997679 0 0 0
1892 6 1.0518314997977867 16.5070090004328 0.7235972604300693 0 0 0
1896 6 5.71752873372879 16.507009000432802 0.7235972604300672 0 0 0
1809 1 2.3184649123036642 13.505734636717822 2.215963013841113 0 0 0
1893 1 2.3184649123036656 16.507009000432824 2.215963013841114 0 0 0
1730 5 8.06156636760642 12.005097454860215 1.4911949701864116 0 0 0
1731 2 9.314072100572485 12.005097454860175 -0.012345620729982038 0 0 0
1816 6 10.383225967659786 13.5057346367178 0.7235972604300728 0 0 0
1814 5 8.061566367606417 15.006371818575213 1.4911949701864127 0 0 0
1815 2 9.314072100572483 15.006371818575172 -0.012345620729981145 0 0 0
1900 6 10.383225967659786 16.5070090004328 0.7235972604300702 0 0 0
1813 1 6.984162146234665 13.505734636717824 2.215963013841112 0 0 0
1897 1 6.9841621462346675 16.50700900043282 2.215963013841111 0 0 0
1735 2 13.979769334503484 12.005097454860175 -0.01234562072997787 0 0 0
1734 5 12.727263601537418 12.005097454860215 1.4911949701864118 0 0 0
1820 6 15.048923201590787 13.505734636717799 0.723597260430068 0 0 0
1819 2 13.979769334503484 15.006371818575174 -0.012345620729973873 0 0 0
1818 5 12.727263601537418 15.00637181857521 1.4911949701864105 0 0 0
1904 6 15.048923201590789 16.5070090004328 0.7235972604300661 0 0 0
1817 1 11.649859380165669 13.505734636717824 2.2159630138411153 0 0 0
1821 1 16.315556614096657 13.505734636717827 2.215963013841114 0 0 0
1901 1 11.649859380165672 16.507009000432824 2.215963013841115 0 0 0
1905 1 16.31555661409666 16.507009000432824 2.2159630138411126 0 0 0
1738 5 17.39296083546842 12.005097454860213 1.491194970186412 0 0 0
1739 2 18.64546656843449 12.005097454860175 -0.012345620729984328 0 0 0
1742 5 22.058658069399424 12.005097454860215 1.4911949701864138 0 0 0
1824 6 19.71462043552178 13.505734636717799 0.7235972604300718 0 0 0
1822 5 17.39296083546842 15.006371818575213 1.4911949701864138 0 0 0
1823 2 18.64546656843449 15.006371818575174 -0.012345620729978333 0 0 0
1826 5 22.05865806939942 15.006371818575213 1.4911949701864142 0 0 0
1908 6 19.714620435521784 16.507009000432802 0.7235972604300688 0 0 0
1825 1 20.981253848027652 13.505734636717827 2.2159630138411086 0 0 0
1909 1 20.98125384802766 16.507009000432824 2.2159630138411095 0 0 0
1743 2 23.311163802365485 12.005097454860175 -0.012345620729984895 0 0 0
1747 2 27.976861036296487 12.005097454860175 -0.012345620729982321 0 0 0
1746 5 26.724355303330416 12.005097454860216 1.4911949701864111 0 0 0
1828 6 24.380317669452783 13.505734636717802 0.7235972604300756 0 0 0
1827 2 23.31116380236549 15.006371818575174 -0.012345620729980435 0 0 0
1831 2 27.976861036296484 15.006371818575174 -0.01234562072997746 0 0 0
1830 5 26.724355303330412 15.006371818575214 1.4911949701864093 0 0 0
1912 6 24.380317669452786 16.507009000432802 0.7235972604300733 0 0 0
1829 1 25.646951081958665 13.505734636717824 2.215963013841114 0 0 0
1913 1 25.64695108195867 16.507009000432827 2.2159630138411126 0 0 0
1750 5 31.390052537261415 12.005097454860215 1.491194970186412 0 0 0
1751 2 32.64255827022749 12.005097454860177 -0.012345620729976156 0 0 0
1832 6 29.046014903383785 13.5057346367178 0.7235972604300738 0 0 0
1836 6 33.71171213731479 13.505734636717799 0.7235972604300676 0 0 0
1834 5 31.390052537261415 15.006371818575214 1.4911949701864118 0 0 0
1835 2 32.64255827022749 15.00637181857517 -0.012345620729974057 0 0 0
1916 6 29.04601490338379 16.507009000432802 0.7235972604300694 0 0 0
1920 6 33.71171213731479 16.507009000432802 0.7235972604300717 0 0 0
1833 1 30.312648315889664 13.505734636717822 2.215963013841114 0 0 0
1917 1 30.31264831588967 16.507009000432824 2.2159630138411153 0 0 0
1754 5 36.05574977119242 12.005097454860216 1.491194970186412 0 0 0
1755 2 37.30825550415849 12.005097454860174 -0.012345620729983502 0 0 0
1840 6 38.37740937124579 13.505734636717799 0.72359726043007 0 0 0
1838 5 36.05574977119242 15.00637181857521 1.4911949701864133 0 0 0
1839 2 37.30825550415849 15.006371818575174 -0.01234562072997758 0 0 0
1924 6 38.37740937124579 16.507009000432806 0.7235972604300666 0 0 0
1837 1 34.97834554982066 13.505734636717827 2.2159630138411117 0 0 0
1841 1 39.64404278375166 13.505734636717833 2.215963013841112 0 0 0
1921 1 34.978345549820666 16.50700900043282 2.215963013841108 0 0 0
1925 1 39.644042783751665 16.507009000432824 2.2159630138411197 0 0 0
1759 2 41.97395273808949 12.005097454860174 -0.012345620729983884 0 0 0
1758 5 40.721447005123416 12.005097454860216 1.491194970186414 0 0 0
1762 5 45.387144239054415 12.005097454860216 1.4911949701864122 0 0 0
1844 6 43.04310660517678 13.505734636717799 0.7235972604300692 0 0 0
1843 2 41.97395273808949 15.006371818575172 -0.012345620729973925 0 0 0
1842 5 40.721447005123416 15.00637181857521 1.4911949701864124 0 0 0
1846 5 45.387144239054415 15.006371818575209 1.4911949701864131 0 0 0
1928 6 43.04310660517679 16.507009000432802 0.7235972604300656 0 0 0
1845 1 44.30974001768266 13.505734636717829 2.2159630138411126 0 0 0
1929 1 44.309740017682664 16.507009000432824 2.215963013841117 0 0 0
1763 2 46.639649972020486 12.005097454860174 -0.012345620729983565 0 0 0
1682 5 50.05284147298542 12.005097454860213 1.4911949701864087 -1 0 0
1683 2 51.30534720595149 12.005097454860175 -0.012345620729975915 -1 0 0
1848 6 47.70880383910779 13.505734636717802 0.7235972604300703 0 0 0
1847 2 46.63964997202048 15.006371818575172 -0.0123456207299752 0 0 0
1766 5 50.05284147298541 15.006371818575213 1.4911949701864091 -1 0 0
1767 2 51.30534720595149 15.006371818575177 -0.012345620729973738 -1 0 0
1932 6 47.70880383910779 16.507009000432806 0.7235972604300657 0 0 0
1765 1 48.97543725161366 13.505734636717825 2.215963013841117 -1 0 0
1849 1 48.97543725161366 16.50700900043282 2.215963013841119 -1 0 0
1687 2 55.97104443988248 12.005097454860175 -0.012345620729980218 -1 0 0