LAMMPS data file via write_data, version 29 Aug 2024, timestep = 0, units = metal

2772 atoms
4 atom types

0 97.979641912551 xlo xhi
0 99.042054002595 ylo yhi
0 32.15 zlo zhi

Masses

1 72.63
2 72.63
3 15.999
4 15.999

Atoms # atomic

1472 4 0.9952023892494992 1.5006371818575062 0.7909640823329998 0 0 0
1390 3 3.3280510062145012 5.044853423896711e-13 1.4460581280590006 0 0 0
1391 2 4.665697233930501 5.044853423896711e-13 0 0 0 0
1476 4 5.660899623180498 1.5006371818575062 0.7909640823329998 0 0 0
1394 3 7.9937482401455 5.044853423896711e-13 1.4460581280590006 0 0 0
1395 2 9.3313944678615 5.044853423896711e-13 0 0 0 0
1480 4 10.326596857111504 1.5006371818575062 0.7909640823329998 0 0 0
1399 2 13.997091701792499 5.044853423896711e-13 0 0 0 0
1398 3 12.659445474076499 5.044853423896711e-13 1.4460581280590006 0 0 0
1484 4 14.992294091042503 1.5006371818575062 0.7909640823329998 0 0 0
1402 3 17.325142708007498 5.044853423896711e-13 1.4460581280590006 0 0 0
1403 2 18.662788935723505 5.044853423896711e-13 0 0 0 0
1488 4 19.6579913249735 1.5006371818575062 0.7909640823329998 0 0 0
1406 3 21.990839941938496 5.044853423896711e-13 1.4460581280590006 0 0 0
1407 2 23.328486169654504 5.044853423896711e-13 0 0 0 0
1492 4 24.3236885589045 1.5006371818575062 0.7909640823329998 0 0 0
1411 2 27.994183403585502 5.044853423896711e-13 0 0 0 0
1410 3 26.656537175869495 5.044853423896711e-13 1.4460581280590006 0 0 0
1496 4 28.9893857928355 1.5006371818575062 0.7909640823329998 0 0 0
1414 3 31.322234409800494 5.044853423896711e-13 1.4460581280590006 0 0 0
1415 2 32.6598806375165 5.044853423896711e-13 0 0 0 0
1500 4 33.6550830267665 1.5006371818575062 0.7909640823329998 0 0 0
1418 3 35.98793164373151 5.044853423896711e-13 1.4460581280590006 0 0 0
1419 2 37.3255778714475 5.044853423896711e-13 0 0 0 0
1504 4 38.3207802606975 1.5006371818575062 0.7909640823329998 0 0 0
1423 2 41.9912751053785 5.044853423896711e-13 0 0 0 0
1422 3 40.653628877662506 5.044853423896711e-13 1.4460581280590006 0 0 0
1508 4 42.986477494628495 1.5006371818575062 0.7909640823329998 0 0 0
1426 3 45.319326111593504 5.044853423896711e-13 1.4460581280590006 0 0 0
1427 2 46.6569723393095 5.044853423896711e-13 0 0 0 0
1512 4 47.652174728559494 1.5006371818575062 0.7909640823329998 0 0 0
1346 3 49.9850233455245 5.044853423896711e-13 1.4460581280590006 -1 0 0
1347 2 51.3226695732405 5.044853423896711e-13 0 -1 0 0
1432 4 52.3178719624905 1.5006371818575062 0.7909640823329998 -1 0 0
1351 2 55.9883668071715 5.044853423896711e-13 0 -1 0 0
1350 3 54.6507205794555 5.044853423896711e-13 1.4460581280590006 -1 0 0
1436 4 56.983569196421506 1.5006371818575062 0.7909640823329998 -1 0 0
1354 3 59.31641781338651 5.044853423896711e-13 1.4460581280590006 -1 0 0
1355 2 60.6540640411025 5.044853423896711e-13 0 -1 0 0
1440 4 61.649266430352505 1.5006371818575062 0.7909640823329998 -1 0 0
1358 3 63.98211504731751 5.044853423896711e-13 1.4460581280590006 -1 0 0
1359 2 65.3197612750335 5.044853423896711e-13 0 -1 0 0
1444 4 66.31496366428351 1.5006371818575062 0.7909640823329998 -1 0 0
1363 2 69.9854585089645 5.044853423896711e-13 0 -1 0 0
1362 3 68.6478122812485 5.044853423896711e-13 1.4460581280590006 -1 0 0
1448 4 70.9806608982145 1.5006371818575062 0.7909640823329998 -1 0 0
1366 3 73.3135095151795 5.044853423896711e-13 1.4460581280590006 -1 0 0
1367 2 74.6511557428955 5.044853423896711e-13 0 -1 0 0
1452 4 75.64635813214551 1.5006371818575062 0.7909640823329998 -1 0 0
1370 3 77.9792067491105 5.044853423896711e-13 1.4460581280590006 -1 0 0
1371 2 79.31685297682651 5.044853423896711e-13 0 -1 0 0
1456 4 80.3120553660765 1.5006371818575062 0.7909640823329998 -1 0 0
1375 2 83.9825502107575 5.044853423896711e-13 0 -1 0 0
1374 3 82.6449039830415 5.044853423896711e-13 1.4460581280590006 -1 0 0
1460 4 84.9777526000075 1.5006371818575062 0.7909640823329998 -1 0 0
1378 3 87.3106012169725 5.044853423896711e-13 1.4460581280590006 -1 0 0
1379 2 88.64824744468851 5.044853423896711e-13 0 -1 0 0
1464 4 89.6434498339385 1.5006371818575062 0.7909640823329998 -1 0 0
1382 3 91.9762984509035 5.044853423896711e-13 1.4460581280590006 -1 0 0
1383 2 93.3139446786195 5.044853423896711e-13 0 -1 0 0
1468 4 94.3091470678695 1.5006371818575062 0.7909640823329998 -1 0 0
1387 2 97.9796419125505 5.044853423896711e-13 0 -1 0 0
1386 3 96.64199568483451 5.044853423896711e-13 1.4460581280590006 -1 0 0
1474 3 3.3280510062145012 3.0012743637155026 1.4460581280590006 0 0 0
1475 2 4.665697233930501 3.0012743637155026 0 0 0 0
1478 3 7.9937482401455 3.0012743637155026 1.4460581280590006 0 0 0
1479 2 9.3313944678615 3.0012743637155026 0 0 0 0
1483 2 13.997091701792499 3.0012743637155026 0 0 0 0
1482 3 12.659445474076499 3.0012743637155026 1.4460581280590006 0 0 0
1486 3 17.325142708007498 3.0012743637155026 1.4460581280590006 0 0 0
1487 2 18.662788935723505 3.0012743637155026 0 0 0 0
1490 3 21.990839941938496 3.0012743637155026 1.4460581280590006 0 0 0
1491 2 23.328486169654504 3.0012743637155026 0 0 0 0
1495 2 27.994183403585502 3.0012743637155026 0 0 0 0
1494 3 26.656537175869495 3.0012743637155026 1.4460581280590006 0 0 0
1498 3 31.322234409800494 3.0012743637155026 1.4460581280590006 0 0 0
1499 2 32.6598806375165 3.0012743637155026 0 0 0 0
1502 3 35.98793164373151 3.0012743637155026 1.4460581280590006 0 0 0
1503 2 37.3255778714475 3.0012743637155026 0 0 0 0
1507 2 41.9912751053785 3.0012743637155026 0 0 0 0
1506 3 40.653628877662506 3.0012743637155026 1.4460581280590006 0 0 0
1510 3 45.319326111593504 3.0012743637155026 1.4460581280590006 0 0 0
1511 2 46.6569723393095 3.0012743637155026 0 0 0 0
1430 3 49.9850233455245 3.0012743637155026 1.4460581280590006 -1 0 0
1431 2 51.3226695732405 3.0012743637155026 0 -1 0 0
1435 2 55.9883668071715 3.0012743637155026 0 -1 0 0
1434 3 54.6507205794555 3.0012743637155026 1.4460581280590006 -1 0 0
1438 3 59.31641781338651 3.0012743637155026 1.4460581280590006 -1 0 0
1439 2 60.6540640411025 3.0012743637155026 0 -1 0 0
1442 3 63.98211504731751 3.0012743637155026 1.4460581280590006 -1 0 0
1443 2 65.3197612750335 3.0012743637155026 0 -1 0 0
1447 2 69.9854585089645 3.0012743637155026 0 -1 0 0
1446 3 68.6478122812485 3.0012743637155026 1.4460581280590006 -1 0 0
1450 3 73.3135095151795 3.0012743637155026 1.4460581280590006 -1 0 0
1451 2 74.6511557428955 3.0012743637155026 0 -1 0 0
1454 3 77.9792067491105 3.0012743637155026 1.4460581280590006 -1 0 0
1455 2 79.31685297682651 3.0012743637155026 0 -1 0 0
1459 2 83.9825502107575 3.0012743637155026 0 -1 0 0
1458 3 82.6449039830415 3.0012743637155026 1.4460581280590006 -1 0 0
1462 3 87.3106012169725 3.0012743637155026 1.4460581280590006 -1 0 0
1463 2 88.64824744468851 3.0012743637155026 0 -1 0 0
1466 3 91.9762984509035 3.0012743637155026 1.4460581280590006 -1 0 0
1467 2 93.3139446786195 3.0012743637155026 0 -1 0 0
1471 2 97.9796419125505 3.0012743637155026 0 -1 0 0
1470 3 96.64199568483451 3.0012743637155026 1.4460581280590006 -1 0 0
1556 4 0.9952023892494992 4.501911545572504 0.7909640823329998 0 0 0
1560 4 5.660899623180498 4.501911545572504 0.7909640823329998 0 0 0
1564 4 10.326596857111504 4.501911545572504 0.7909640823329998 0 0 0
1568 4 14.992294091042503 4.501911545572504 0.7909640823329998 0 0 0
1572 4 19.6579913249735 4.501911545572504 0.7909640823329998 0 0 0
1576 4 24.3236885589045 4.501911545572504 0.7909640823329998 0 0 0
1580 4 28.9893857928355 4.501911545572504 0.7909640823329998 0 0 0
1584 4 33.6550830267665 4.501911545572504 0.7909640823329998 0 0 0
1588 4 38.3207802606975 4.501911545572504 0.7909640823329998 0 0 0
1592 4 42.986477494628495 4.501911545572504 0.7909640823329998 0 0 0
1596 4 47.652174728559494 4.501911545572504 0.7909640823329998 0 0 0
1516 4 52.3178719624905 4.501911545572504 0.7909640823329998 -1 0 0
1520 4 56.983569196421506 4.501911545572504 0.7909640823329998 -1 0 0
1524 4 61.649266430352505 4.501911545572504 0.7909640823329998 -1 0 0
1528 4 66.31496366428351 4.501911545572504 0.7909640823329998 -1 0 0
1532 4 70.9806608982145 4.501911545572504 0.7909640823329998 -1 0 0
1536 4 75.64635813214551 4.501911545572504 0.7909640823329998 -1 0 0
1540 4 80.3120553660765 4.501911545572504 0.7909640823329998 -1 0 0
1544 4 84.9777526000075 4.501911545572504 0.7909640823329998 -1 0 0
1548 4 89.6434498339385 4.501911545572504 0.7909640823329998 -1 0 0
1552 4 94.3091470678695 4.501911545572504 0.7909640823329998 -1 0 0
1558 3 3.3280510062145012 6.002548727430501 1.4460581280590006 0 0 0
1559 2 4.665697233930501 6.002548727430501 0 0 0 0
1562 3 7.9937482401455 6.002548727430501 1.4460581280590006 0 0 0
1563 2 9.3313944678615 6.002548727430501 0 0 0 0
1567 2 13.997091701792499 6.002548727430501 0 0 0 0
1566 3 12.659445474076499 6.002548727430501 1.4460581280590006 0 0 0
1570 3 17.325142708007498 6.002548727430501 1.4460581280590006 0 0 0
1571 2 18.662788935723505 6.002548727430501 0 0 0 0
1574 3 21.990839941938496 6.002548727430501 1.4460581280590006 0 0 0
1575 2 23.328486169654504 6.002548727430501 0 0 0 0
1579 2 27.994183403585502 6.002548727430501 0 0 0 0
1578 3 26.656537175869495 6.002548727430501 1.4460581280590006 0 0 0
1582 3 31.322234409800494 6.002548727430501 1.4460581280590006 0 0 0
1583 2 32.6598806375165 6.002548727430501 0 0 0 0
1586 3 35.98793164373151 6.002548727430501 1.4460581280590006 0 0 0
1587 2 37.3255778714475 6.002548727430501 0 0 0 0
1591 2 41.9912751053785 6.002548727430501 0 0 0 0
1590 3 40.653628877662506 6.002548727430501 1.4460581280590006 0 0 0
1594 3 45.319326111593504 6.002548727430501 1.4460581280590006 0 0 0
1595 2 46.6569723393095 6.002548727430501 0 0 0 0
1514 3 49.9850233455245 6.002548727430501 1.4460581280590006 -1 0 0
1515 2 51.3226695732405 6.002548727430501 0 -1 0 0
1519 2 55.9883668071715 6.002548727430501 0 -1 0 0
1518 3 54.6507205794555 6.002548727430501 1.4460581280590006 -1 0 0
1522 3 59.31641781338651 6.002548727430501 1.4460581280590006 -1 0 0
1523 2 60.6540640411025 6.002548727430501 0 -1 0 0
1526 3 63.98211504731751 6.002548727430501 1.4460581280590006 -1 0 0
1527 2 65.3197612750335 6.002548727430501 0 -1 0 0
1531 2 69.9854585089645 6.002548727430501 0 -1 0 0
1530 3 68.6478122812485 6.002548727430501 1.4460581280590006 -1 0 0
1534 3 73.3135095151795 6.002548727430501 1.4460581280590006 -1 0 0
1535 2 74.6511557428955 6.002548727430501 0 -1 0 0
1538 3 77.9792067491105 6.002548727430501 1.4460581280590006 -1 0 0
1539 2 79.31685297682651 6.002548727430501 0 -1 0 0
1543 2 83.9825502107575 6.002548727430501 0 -1 0 0
1542 3 82.6449039830415 6.002548727430501 1.4460581280590006 -1 0 0
1546 3 87.3106012169725 6.002548727430501 1.4460581280590006 -1 0 0
1547 2 88.64824744468851 6.002548727430501 0 -1 0 0
1550 3 91.9762984509035 6.002548727430501 1.4460581280590006 -1 0 0
1551 2 93.3139446786195 6.002548727430501 0 -1 0 0
1555 2 97.9796419125505 6.002548727430501 0 -1 0 0
1554 3 96.64199568483451 6.002548727430501 1.4460581280590006 -1 0 0
1640 4 0.9952023892494992 7.503185909287502 0.7909640823329998 0 0 0
1644 4 5.660899623180498 7.503185909287502 0.7909640823329998 0 0 0
1648 4 10.326596857111504 7.503185909287502 0.7909640823329998 0 0 0
1652 4 14.992294091042503 7.503185909287502 0.7909640823329998 0 0 0
1656 4 19.6579913249735 7.503185909287502 0.7909640823329998 0 0 0
1660 4 24.3236885589045 7.503185909287502 0.7909640823329998 0 0 0
1664 4 28.9893857928355 7.503185909287502 0.7909640823329998 0 0 0
1668 4 33.6550830267665 7.503185909287502 0.7909640823329998 0 0 0
1672 4 38.3207802606975 7.503185909287502 0.7909640823329998 0 0 0
1676 4 42.986477494628495 7.503185909287502 0.7909640823329998 0 0 0
1680 4 47.652174728559494 7.503185909287502 0.7909640823329998 0 0 0
1600 4 52.3178719624905 7.503185909287502 0.7909640823329998 -1 0 0
1604 4 56.983569196421506 7.503185909287502 0.7909640823329998 -1 0 0
1608 4 61.649266430352505 7.503185909287502 0.7909640823329998 -1 0 0
1612 4 66.31496366428351 7.503185909287502 0.7909640823329998 -1 0 0
1616 4 70.9806608982145 7.503185909287502 0.7909640823329998 -1 0 0
1620 4 75.64635813214551 7.503185909287502 0.7909640823329998 -1 0 0
1624 4 80.3120553660765 7.503185909287502 0.7909640823329998 -1 0 0
1628 4 84.9777526000075 7.503185909287502 0.7909640823329998 -1 0 0
1632 4 89.6434498339385 7.503185909287502 0.7909640823329998 -1 0 0
1636 4 94.3091470678695 7.503185909287502 0.7909640823329998 -1 0 0
1642 3 3.3280510062145012 9.003823091145506 1.4460581280590006 0 0 0
1643 2 4.665697233930501 9.003823091145506 0 0 0 0
1646 3 7.9937482401455 9.003823091145506 1.4460581280590006 0 0 0
1647 2 9.3313944678615 9.003823091145506 0 0 0 0
1651 2 13.997091701792499 9.003823091145506 0 0 0 0
1650 3 12.659445474076499 9.003823091145506 1.4460581280590006 0 0 0
1654 3 17.325142708007498 9.003823091145506 1.4460581280590006 0 0 0
1655 2 18.662788935723505 9.003823091145506 0 0 0 0
1658 3 21.990839941938496 9.003823091145506 1.4460581280590006 0 0 0
1659 2 23.328486169654504 9.003823091145506 0 0 0 0
1663 2 27.994183403585502 9.003823091145506 0 0 0 0
1662 3 26.656537175869495 9.003823091145506 1.4460581280590006 0 0 0
1666 3 31.322234409800494 9.003823091145506 1.4460581280590006 0 0 0
1667 2 32.6598806375165 9.003823091145506 0 0 0 0
1670 3 35.98793164373151 9.003823091145506 1.4460581280590006 0 0 0
1671 2 37.3255778714475 9.003823091145506 0 0 0 0
1675 2 41.9912751053785 9.003823091145506 0 0 0 0
1674 3 40.653628877662506 9.003823091145506 1.4460581280590006 0 0 0
1678 3 45.319326111593504 9.003823091145506 1.4460581280590006 0 0 0
1679 2 46.6569723393095 9.003823091145506 0 0 0 0
1598 3 49.9850233455245 9.003823091145506 1.4460581280590006 -1 0 0
1599 2 51.3226695732405 9.003823091145506 0 -1 0 0
1603 2 55.9883668071715 9.003823091145506 0 -1 0 0
1602 3 54.6507205794555 9.003823091145506 1.4460581280590006 -1 0 0
1606 3 59.31641781338651 9.003823091145506 1.4460581280590006 -1 0 0
1607 2 60.6540640411025 9.003823091145506 0 -1 0 0
1610 3 63.98211504731751 9.003823091145506 1.4460581280590006 -1 0 0
1611 2 65.3197612750335 9.003823091145506 0 -1 0 0
1615 2 69.9854585089645 9.003823091145506 0 -1 0 0
1614 3 68.6478122812485 9.003823091145506 1.4460581280590006 -1 0 0
1618 3 73.3135095151795 9.003823091145506 1.4460581280590006 -1 0 0
1619 2 74.6511557428955 9.003823091145506 0 -1 0 0
1622 3 77.9792067491105 9.003823091145506 1.4460581280590006 -1 0 0
1623 2 79.31685297682651 9.003823091145506 0 -1 0 0
1627 2 83.9825502107575 9.003823091145506 0 -1 0 0
1626 3 82.6449039830415 9.003823091145506 1.4460581280590006 -1 0 0
1630 3 87.3106012169725 9.003823091145506 1.4460581280590006 -1 0 0
1631 2 88.64824744468851 9.003823091145506 0 -1 0 0
1634 3 91.9762984509035 9.003823091145506 1.4460581280590006 -1 0 0
1635 2 93.3139446786195 9.003823091145506 0 -1 0 0
1639 2 97.9796419125505 9.003823091145506 0 -1 0 0
1638 3 96.64199568483451 9.003823091145506 1.4460581280590006 -1 0 0
1724 4 0.9952023892494992 10.5044602730025 0.7909640823329998 0 0 0
1726 3 3.3280510062145012 12.005097454860504 1.4460581280590006 0 0 0
1727 2 4.665697233930501 12.005097454860504 0 0 0 0
1728 4 5.660899623180498 10.5044602730025 0.7909640823329998 0 0 0
1730 3 7.9937482401455 12.005097454860504 1.4460581280590006 0 0 0
1731 2 9.3313944678615 12.005097454860504 0 0 0 0
1732 4 10.326596857111504 10.5044602730025 0.7909640823329998 0 0 0
1735 2 13.997091701792499 12.005097454860504 0 0 0 0
1734 3 12.659445474076499 12.005097454860504 1.4460581280590006 0 0 0
1736 4 14.992294091042503 10.5044602730025 0.7909640823329998 0 0 0
1738 3 17.325142708007498 12.005097454860504 1.4460581280590006 0 0 0
1739 2 18.662788935723505 12.005097454860504 0 0 0 0
1740 4 19.6579913249735 10.5044602730025 0.7909640823329998 0 0 0
1742 3 21.990839941938496 12.005097454860504 1.4460581280590006 0 0 0
1743 2 23.328486169654504 12.005097454860504 0 0 0 0
1744 4 24.3236885589045 10.5044602730025 0.7909640823329998 0 0 0
1747 2 27.994183403585502 12.005097454860504 0 0 0 0
1746 3 26.656537175869495 12.005097454860504 1.4460581280590006 0 0 0
1748 4 28.9893857928355 10.5044602730025 0.7909640823329998 0 0 0
1750 3 31.322234409800494 12.005097454860504 1.4460581280590006 0 0 0
1751 2 32.6598806375165 12.005097454860504 0 0 0 0
1752 4 33.6550830267665 10.5044602730025 0.7909640823329998 0 0 0
1754 3 35.98793164373151 12.005097454860504 1.4460581280590006 0 0 0
1755 2 37.3255778714475 12.005097454860504 0 0 0 0
1756 4 38.3207802606975 10.5044602730025 0.7909640823329998 0 0 0
1759 2 41.9912751053785 12.005097454860504 0 0 0 0
1758 3 40.653628877662506 12.005097454860504 1.4460581280590006 0 0 0
1760 4 42.986477494628495 10.5044602730025 0.7909640823329998 0 0 0
1762 3 45.319326111593504 12.005097454860504 1.4460581280590006 0 0 0
1763 2 46.6569723393095 12.005097454860504 0 0 0 0
1764 4 47.652174728559494 10.5044602730025 0.7909640823329998 0 0 0
1682 3 49.9850233455245 12.005097454860504 1.4460581280590006 -1 0 0
1683 2 51.3226695732405 12.005097454860504 0 -1 0 0
1684 4 52.3178719624905 10.5044602730025 0.7909640823329998 -1 0 0
1687 2 55.9883668071715 12.005097454860504 0 -1 0 0
1686 3 54.6507205794555 12.005097454860504 1.4460581280590006 -1 0 0
1688 4 56.983569196421506 10.5044602730025 0.7909640823329998 -1 0 0
1690 3 59.31641781338651 12.005097454860504 1.4460581280590006 -1 0 0
1691 2 60.6540640411025 12.005097454860504 0 -1 0 0
1692 4 61.649266430352505 10.5044602730025 0.7909640823329998 -1 0 0
1694 3 63.98211504731751 12.005097454860504 1.4460581280590006 -1 0 0
1695 2 65.3197612750335 12.005097454860504 0 -1 0 0
1696 4 66.31496366428351 10.5044602730025 0.7909640823329998 -1 0 0
1699 2 69.9854585089645 12.005097454860504 0 -1 0 0
1698 3 68.6478122812485 12.005097454860504 1.4460581280590006 -1 0 0
1700 4 70.9806608982145 10.5044602730025 0.7909640823329998 -1 0 0
1702 3 73.3135095151795 12.005097454860504 1.4460581280590006 -1 0 0
1703 2 74.6511557428955 12.005097454860504 0 -1 0 0
1704 4 75.64635813214551 10.5044602730025 0.7909640823329998 -1 0 0
1706 3 77.9792067491105 12.005097454860504 1.4460581280590006 -1 0 0
1707 2 79.31685297682651 12.005097454860504 0 -1 0 0
1708 4 80.3120553660765 10.5044602730025 0.7909640823329998 -1 0 0
1711 2 83.9825502107575 12.005097454860504 0 -1 0 0
1710 3 82.6449039830415 12.005097454860504 1.4460581280590006 -1 0 0
1712 4 84.9777526000075 10.5044602730025 0.7909640823329998 -1 0 0
1714 3 87.3106012169725 12.005097454860504 1.4460581280590006 -1 0 0
1715 2 88.64824744468851 12.005097454860504 0 -1 0 0
1716 4 89.6434498339385 10.5044602730025 0.7909640823329998 -1 0 0
1718 3 91.9762984509035 12.005097454860504 1.4460581280590006 -1 0 0
1719 2 93.3139446786195 12.005097454860504 0 -1 0 0
1720 4 94.3091470678695 10.5044602730025 0.7909640823329998 -1 0 0
1723 2 97.9796419125505 12.005097454860504 0 -1 0 0
1722 3 96.64199568483451 12.005097454860504 1.4460581280590006 -1 0 0
1808 4 0.9952023892494992 13.505734636717506 0.7909640823329998 0 0 0
1812 4 5.660899623180498 13.505734636717506 0.7909640823329998 0 0 0
1816 4 10.326596857111504 13.505734636717506 0.7909640823329998 0 0 0
1820 4 14.992294091042503 13.505734636717506 0.7909640823329998 0 0 0
1824 4 19.6579913249735 13.505734636717506 0.7909640823329998 0 0 0
1828 4 24.3236885589045 13.505734636717506 0.7909640823329998 0 0 0
1832 4 28.9893857928355 13.505734636717506 0.7909640823329998 0 0 0
1836 4 33.6550830267665 13.505734636717506 0.7909640823329998 0 0 0
1840 4 38.3207802606975 13.505734636717506 0.7909640823329998 0 0 0
1844 4 42.986477494628495 13.505734636717506 0.7909640823329998 0 0 0
1848 4 47.652174728559494 13.505734636717506 0.7909640823329998 0 0 0
1768 4 52.3178719624905 13.505734636717506 0.7909640823329998 -1 0 0
1772 4 56.983569196421506 13.505734636717506 0.7909640823329998 -1 0 0
1776 4 61.649266430352505 13.505734636717506 0.7909640823329998 -1 0 0
1780 4 66.31496366428351 13.505734636717506 0.7909640823329998 -1 0 0
1784 4 70.9806608982145 13.505734636717506 0.7909640823329998 -1 0 0
1788 4 75.64635813214551 13.505734636717506 0.7909640823329998 -1 0 0
1792 4 80.3120553660765 13.505734636717506 0.7909640823329998 -1 0 0
1796 4 84.9777526000075 13.505734636717506 0.7909640823329998 -1 0 0
1800 4 89.6434498339385 13.505734636717506 0.7909640823329998 -1 0 0
1804 4 94.3091470678695 13.505734636717506 0.7909640823329998 -1 0 0
1810 3 3.3280510062145012 15.006371818575502 1.4460581280590006 0 0 0
1811 2 4.665697233930501 15.006371818575502 0 0 0 0
1814 3 7.9937482401455 15.006371818575502 1.4460581280590006 0 0 0
1815 2 9.3313944678615 15.006371818575502 0 0 0 0
1819 2 13.997091701792499 15.006371818575502 0 0 0 0
1818 3 12.659445474076499 15.006371818575502 1.4460581280590006 0 0 0
1822 3 17.325142708007498 15.006371818575502 1.4460581280590006 0 0 0
1823 2 18.662788935723505 15.006371818575502 0 0 0 0
1826 3 21.990839941938496 15.006371818575502 1.4460581280590006 0 0 0
1827 2 23.328486169654504 15.006371818575502 0 0 0 0
1831 2 27.994183403585502 15.006371818575502 0 0 0 0
1830 3 26.656537175869495 15.006371818575502 1.4460581280590006 0 0 0
1834 3 31.322234409800494 15.006371818575502 1.4460581280590006 0 0 0
1835 2 32.6598806375165 15.006371818575502 0 0 0 0
1838 3 35.98793164373151 15.006371818575502 1.4460581280590006 0 0 0
1839 2 37.3255778714475 15.006371818575502 0 0 0 0
1843 2 41.9912751053785 15.006371818575502 0 0 0 0
1842 3 40.653628877662506 15.006371818575502 1.4460581280590006 0 0 0
1846 3 45.319326111593504 15.006371818575502 1.4460581280590006 0 0 0
1847 2 46.6569723393095 15.006371818575502 0 0 0 0
1766 3 49.9850233455245 15.006371818575502 1.4460581280590006 -1 0 0
1767 2 51.3226695732405 15.006371818575502 0 -1 0 0
1771 2 55.9883668071715 15.006371818575502 0 -1 0 0
1770 3 54.6507205794555 15.006371818575502 1.4460581280590006 -1 0 0
1774 3 59.31641781338651 15.006371818575502 1.4460581280590006 -1 0 0
1775 2 60.6540640411025 15.006371818575502 0 -1 0 0
1778 3 63.98211504731751 15.006371818575502 1.4460581280590006 -1 0 0
1779 2 65.3197612750335 15.006371818575502 0 -1 0 0
1783 2 69.9854585089645 15.006371818575502 0 -1 0 0
1782 3 68.6478122812485 15.006371818575502 1.4460581280590006 -1 0 0
1786 3 73.3135095151795 15.006371818575502 1.4460581280590006 -1 0 0
1787 2 74.6511557428955 15.006371818575502 0 -1 0 0
1790 3 77.9792067491105 15.006371818575502 1.4460581280590006 -1 0 0
1791 2 79.31685297682651 15.006371818575502 0 -1 0 0
1795 2 83.9825502107575 15.006371818575502 0 -1 0 0
1794 3 82.6449039830415 15.006371818575502 1.4460581280590006 -1 0 0
1798 3 87.3106012169725 15.006371818575502 1.4460581280590006 -1 0 0
1799 2 88.64824744468851 15.006371818575502 0 -1 0 0
1802 3 91.9762984509035 15.006371818575502 1.4460581280590006 -1 0 0
1803 2 93.3139446786195 15.006371818575502 0 -1 0 0
1807 2 97.9796419125505 15.006371818575502 0 -1 0 0
1806 3 96.64199568483451 15.006371818575502 1.4460581280590006 -1 0 0
1892 4 0.9952023892494992 16.507009000432504 0.7909640823329998 0 0 0
1896 4 5.660899623180498 16.507009000432504 0.7909640823329998 0 0 0
1900 4 10.326596857111504 16.507009000432504 0.7909640823329998 0 0 0
1904 4 14.992294091042503 16.507009000432504 0.7909640823329998 0 0 0
1908 4 19.6579913249735 16.507009000432504 0.7909640823329998 0 0 0
1912 4 24.3236885589045 16.507009000432504 0.7909640823329998 0 0 0
1916 4 28.9893857928355 16.507009000432504 0.7909640823329998 0 0 0
1920 4 33.6550830267665 16.507009000432504 0.7909640823329998 0 0 0
1924 4 38.3207802606975 16.507009000432504 0.7909640823329998 0 0 0
1928 4 42.986477494628495 16.507009000432504 0.7909640823329998 0 0 0
1932 4 47.652174728559494 16.507009000432504 0.7909640823329998 0 0 0
1852 4 52.3178719624905 16.507009000432504 0.7909640823329998 -1 0 0
1856 4 56.983569196421506 16.507009000432504 0.7909640823329998 -1 0 0
1860 4 61.649266430352505 16.507009000432504 0.7909640823329998 -1 0 0
1864 4 66.31496366428351 16.507009000432504 0.7909640823329998 -1 0 0
1868 4 70.9806608982145 16.507009000432504 0.7909640823329998 -1 0 0
1872 4 75.64635813214551 16.507009000432504 0.7909640823329998 -1 0 0
1876 4 80.3120553660765 16.507009000432504 0.7909640823329998 -1 0 0
1880 4 84.9777526000075 16.507009000432504 0.7909640823329998 -1 0 0
1884 4 89.6434498339385 16.507009000432504 0.7909640823329998 -1 0 0
1888 4 94.3091470678695 16.507009000432504 0.7909640823329998 -1 0 0
1894 3 3.3280510062145012 18.0076461822905 1.4460581280590006 0 0 0
1895 2 4.665697233930501 18.0076461822905 0 0 0 0
1898 3 7.9937482401455 18.0076461822905 1.4460581280590006 0 0 0
1899 2 9.3313944678615 18.0076461822905 0 0 0 0
1903 2 13.997091701792499 18.0076461822905 0 0 0 0
1902 3 12.659445474076499 18.0076461822905 1.4460581280590006 0 0 0
1906 3 17.325142708007498 18.0076461822905 1.4460581280590006 0 0 0
1907 2 18.662788935723505 18.0076461822905 0 0 0 0
1910 3 21.990839941938496 18.0076461822905 1.4460581280590006 0 0 0
1911 2 23.328486169654504 18.0076461822905 0 0 0 0
1915 2 27.994183403585502 18.0076461822905 0 0 0 0
1914 3 26.656537175869495 18.0076461822905 1.4460581280590006 0 0 0
1918 3 31.322234409800494 18.0076461822905 1.4460581280590006 0 0 0
1919 2 32.6598806375165 18.0076461822905 0 0 0 0
1922 3 35.98793164373151 18.0076461822905 1.4460581280590006 0 0 0
1923 2 37.3255778714475 18.0076461822905 0 0 0 0
1927 2 41.9912751053785 18.0076461822905 0 0 0 0
1926 3 40.653628877662506 18.0076461822905 1.4460581280590006 0 0 0
1930 3 45.319326111593504 18.0076461822905 1.4460581280590006 0 0 0
1931 2 46.6569723393095 18.0076461822905 0 0 0 0
1850 3 49.9850233455245 18.0076461822905 1.4460581280590006 -1 0 0
1851 2 51.3226695732405 18.0076461822905 0 -1 0 0
1855 2 55.9883668071715 18.0076461822905 0 -1 0 0
1854 3 54.6507205794555 18.0076461822905 1.4460581280590006 -1 0 0
1858 3 59.31641781338651 18.0076461822905 1.4460581280590006 -1 0 0
1859 2 60.6540640411025 18.0076461822905 0 -1 0 0
1862 3 63.98211504731751 18.0076461822905 1.4460581280590006 -1 0 0
1863 2 65.3197612750335 18.0076461822905 0 -1 0 0
1867 2 69.9854585089645 18.0076461822905 0 -1 0 0
1866 3 68.6478122812485 18.0076461822905 1.4460581280590006 -1 0 0
1870 3 73.3135095151795 18.0076461822905 1.4460581280590006 -1 0 0
1871 2 74.6511557428955 18.0076461822905 0 -1 0 0
1874 3 77.9792067491105 18.0076461822905 1.4460581280590006 -1 0 0
1875 2 79.31685297682651 18.0076461822905 0 -1 0 0
1879 2 83.9825502107575 18.0076461822905 0 -1 0 0
1878 3 82.6449039830415 18.0076461822905 1.4460581280590006 -1 0 0
1882 3 87.3106012169725 18.0076461822905 1.4460581280590006 -1 0 0
1883 2 88.64824744468851 18.0076461822905 0 -1 0 0
1886 3 91.9762984509035 18.0076461822905 1.4460581280590006 -1 0 0
1887 2 93.3139446786195 18.0076461822905 0 -1 0 0
1891 2 97.9796419125505 18.0076461822905 0 -1 0 0
1890 3 96.64199568483451 18.0076461822905 1.4460581280590006 -1 0 0
1976 4 0.9952023892494992 19.508283364147502 0.7909640823329998 0 0 0
1980 4 5.660899623180498 19.508283364147502 0.7909640823329998 0 0 0
1984 4 10.326596857111504 19.508283364147502 0.7909640823329998 0 0 0
1988 4 14.992294091042503 19.508283364147502 0.7909640823329998 0 0 0
1992 4 19.6579913249735 19.508283364147502 0.7909640823329998 0 0 0
1996 4 24.3236885589045 19.508283364147502 0.7909640823329998 0 0 0
2000 4 28.9893857928355 19.508283364147502 0.7909640823329998 0 0 0
2004 4 33.6550830267665 19.508283364147502 0.7909640823329998 0 0 0
2008 4 38.3207802606975 19.508283364147502 0.7909640823329998 0 0 0
2012 4 42.986477494628495 19.508283364147502 0.7909640823329998 0 0 0
2016 4 47.652174728559494 19.508283364147502 0.7909640823329998 0 0 0
1936 4 52.3178719624905 19.508283364147502 0.7909640823329998 -1 0 0
1940 4 56.983569196421506 19.508283364147502 0.7909640823329998 -1 0 0
1944 4 61.649266430352505 19.508283364147502 0.7909640823329998 -1 0 0
1948 4 66.31496366428351 19.508283364147502 0.7909640823329998 -1 0 0
1952 4 70.9806608982145 19.508283364147502 0.7909640823329998 -1 0 0
1956 4 75.64635813214551 19.508283364147502 0.7909640823329998 -1 0 0
1960 4 80.3120553660765 19.508283364147502 0.7909640823329998 -1 0 0
1964 4 84.9777526000075 19.508283364147502 0.7909640823329998 -1 0 0
1968 4 89.6434498339385 19.508283364147502 0.7909640823329998 -1 0 0
1972 4 94.3091470678695 19.508283364147502 0.7909640823329998 -1 0 0
2060 4 0.9952023892494992 22.5095577278625 0.7909640823329998 0 0 0
1978 3 3.3280510062145012 21.0089205460055 1.4460581280590006 0 0 0
1979 2 4.665697233930501 21.0089205460055 0 0 0 0
2064 4 5.660899623180498 22.5095577278625 0.7909640823329998 0 0 0
1982 3 7.9937482401455 21.0089205460055 1.4460581280590006 0 0 0
1983 2 9.3313944678615 21.0089205460055 0 0 0 0
2068 4 10.326596857111504 22.5095577278625 0.7909640823329998 0 0 0
1987 2 13.997091701792499 21.0089205460055 0 0 0 0
1986 3 12.659445474076499 21.0089205460055 1.4460581280590006 0 0 0
2072 4 14.992294091042503 22.5095577278625 0.7909640823329998 0 0 0
1990 3 17.325142708007498 21.0089205460055 1.4460581280590006 0 0 0
1991 2 18.662788935723505 21.0089205460055 0 0 0 0
2076 4 19.6579913249735 22.5095577278625 0.7909640823329998 0 0 0
1994 3 21.990839941938496 21.0089205460055 1.4460581280590006 0 0 0
1995 2 23.328486169654504 21.0089205460055 0 0 0 0
2080 4 24.3236885589045 22.5095577278625 0.7909640823329998 0 0 0
1999 2 27.994183403585502 21.0089205460055 0 0 0 0
1998 3 26.656537175869495 21.0089205460055 1.4460581280590006 0 0 0
2084 4 28.9893857928355 22.5095577278625 0.7909640823329998 0 0 0
2002 3 31.322234409800494 21.0089205460055 1.4460581280590006 0 0 0
2003 2 32.6598806375165 21.0089205460055 0 0 0 0
2088 4 33.6550830267665 22.5095577278625 0.7909640823329998 0 0 0
2006 3 35.98793164373151 21.0089205460055 1.4460581280590006 0 0 0
2007 2 37.3255778714475 21.0089205460055 0 0 0 0
2092 4 38.3207802606975 22.5095577278625 0.7909640823329998 0 0 0
2011 2 41.9912751053785 21.0089205460055 0 0 0 0
2010 3 40.653628877662506 21.0089205460055 1.4460581280590006 0 0 0
2096 4 42.986477494628495 22.5095577278625 0.7909640823329998 0 0 0
2014 3 45.319326111593504 21.0089205460055 1.4460581280590006 0 0 0
2015 2 46.6569723393095 21.0089205460055 0 0 0 0