LAMMPS data file via write_data, version 29 Aug 2024, timestep = 6, units = metal

8316 atoms
12 atom types

0 97.979641912551 xlo xhi
0 99.042054002595 ylo yhi
-50 50 zlo zhi

Masses

1 72.63
2 72.63
3 72.63
4 72.63
5 72.63
6 72.63
7 15.999
8 15.999
9 15.999
10 15.999
11 15.999
12 15.999

Atoms # atomic

1472 8 1.0483687328209996 1.5006371818577393 0.7272625043927686 0 0 0
1390 7 3.3961131125352506 3.126388037344441e-13 1.4909372750163656 0 0 0
1391 2 4.645605815158017 1.9895196601282805e-13 -0.011177683161665538 0 0 0
1476 8 5.7140659667520035 1.5006371818577393 0.7272625043927679 0 0 0
1474 7 3.396113112535244 3.0012743637152894 1.4909372750163725 0 0 0
1475 2 4.645605815158016 3.0012743637152224 -0.011177683161671592 0 0 0
1556 8 1.048368732820992 4.501911545572729 0.7272625043927604 0 0 0
1560 8 5.714065966751996 4.501911545572727 0.7272625043927592 0 0 0
1473 1 2.3204942255755077 1.5006371818577693 2.2144797955102082 0 0 0
1557 1 2.320494225575512 4.50191154557278 2.2144797955102096 0 0 0
1394 7 8.061810346466256 3.126388037344441e-13 1.4909372750163679 0 0 0
1395 2 9.311303049089016 1.9895196601282805e-13 -0.01117768316166806 0 0 0
1480 8 10.379763200683 1.50063718185774 0.7272625043927713 0 0 0
1478 7 8.06181034646625 3.001274363715289 1.4909372750163756 0 0 0
1479 2 9.311303049089016 3.0012743637152215 -0.011177683161673706 0 0 0
1564 8 10.379763200682993 4.501911545572728 0.7272625043927619 0 0 0
1477 1 6.986191459506512 1.5006371818577693 2.214479795510205 0 0 0
1561 1 6.986191459506516 4.50191154557278 2.2144797955102073 0 0 0
1399 2 13.977000283020013 1.9895196601282805e-13 -0.011177683161667961 0 0 0
1398 7 12.727507580397255 3.126388037344441e-13 1.4909372750163687 0 0 0
1484 8 15.045460434614006 1.5006371818577429 0.7272625043927683 0 0 0
1483 2 13.977000283020015 3.0012743637152197 -0.011177683161670282 0 0 0
1482 7 12.727507580397253 3.0012743637152903 1.4909372750163725 0 0 0
1568 8 15.045460434613998 4.501911545572729 0.7272625043927592 0 0 0
1481 1 11.651888693437515 1.500637181857761 2.214479795510206 0 0 0
1485 1 16.317585927368512 1.500637181857768 2.2144797955102042 0 0 0
1565 1 11.651888693437517 4.5019115455727805 2.21447979551021 0 0 0
1569 1 16.317585927368512 4.50191154557278 2.2144797955102073 0 0 0
1402 7 17.393204814328257 2.984279490192421e-13 1.4909372750163694 0 0 0
1403 2 18.642697516951014 1.9895196601282805e-13 -0.011177683161671748 0 0 0
1488 8 19.711157668544992 1.5006371818577384 0.7272625043927669 0 0 0
1406 7 22.05890204825926 3.126388037344441e-13 1.49093727501637 0 0 0
1486 7 17.393204814328246 3.0012743637152917 1.490937275016378 0 0 0
1487 2 18.642697516951014 3.0012743637152184 -0.011177683161676406 0 0 0
1490 7 22.05890204825925 3.001274363715288 1.4909372750163792 0 0 0
1572 8 19.711157668544995 4.501911545572727 0.7272625043927664 0 0 0
1489 1 20.983283161299507 1.5006371818577693 2.214479795510203 0 0 0
1573 1 20.98328316129951 4.5019115455727805 2.2144797955102016 0 0 0
1407 2 23.308394750882016 1.9895196601282805e-13 -0.011177683161669411 0 0 0
1492 8 24.37685490247599 1.5006371818577364 0.7272625043927711 0 0 0
1411 2 27.97409198481301 1.9895196601282805e-13 -0.011177683161666464 0 0 0
1410 7 26.724599282190255 3.126388037344441e-13 1.4909372750163663 0 0 0
1491 2 23.30839475088202 3.0012743637152224 -0.011177683161676534 0 0 0
1495 2 27.974091984813015 3.001274363715222 -0.011177683161672508 0 0 0
1494 7 26.72459928219025 3.00127436371529 1.4909372750163745 0 0 0
1576 8 24.376854902475987 4.50191154557273 0.7272625043927623 0 0 0
1493 1 25.648980395230513 1.5006371818577688 2.214479795510207 0 0 0
1577 1 25.64898039523052 4.501911545572778 2.21447979551021 0 0 0
1496 8 29.042552136407 1.500637181857735 0.7272625043927676 0 0 0
1414 7 31.390296516121257 2.984279490192421e-13 1.4909372750163676 0 0 0
1415 2 32.63978921874401 2.1316282072803006e-13 -0.01117768316166667 0 0 0
1500 8 33.708249370338 1.5006371818577295 0.7272625043927666 0 0 0
1498 7 31.39029651612125 3.001274363715286 1.4909372750163765 0 0 0
1499 2 32.63978921874403 3.001274363715227 -0.011177683161668272 0 0 0
1580 8 29.042552136406993 4.50191154557273 0.7272625043927626 0 0 0
1584 8 33.708249370337995 4.501911545572727 0.7272625043927583 0 0 0
1497 1 30.314677629161515 1.5006371818577737 2.214479795510207 0 0 0
1581 1 30.31467762916152 4.50191154557278 2.2144797955102082 0 0 0
1418 7 36.055993750052245 2.984279490192421e-13 1.4909372750163636 0 0 0
1419 2 37.30548645267502 1.9895196601282805e-13 -0.011177683161661183 0 0 0
1504 8 38.37394660426901 1.500637181857738 0.7272625043927595 0 0 0
1502 7 36.055993750052245 3.001274363715287 1.4909372750163676 0 0 0
1503 2 37.30548645267502 3.0012743637152215 -0.011177683161664884 0 0 0
1588 8 38.373946604269 4.501911545572729 0.7272625043927574 0 0 0
1501 1 34.98037486309251 1.5006371818577773 2.214479795510218 0 0 0
1505 1 39.646072097023506 1.500637181857768 2.214479795510214 0 0 0
1585 1 34.980374863092514 4.50191154557278 2.2144797955102185 0 0 0
1589 1 39.64607209702351 4.501911545572779 2.214479795510215 0 0 0
1423 2 41.97118368660602 1.9895196601282805e-13 -0.011177683161658097 0 0 0
1422 7 40.72169098398325 3.126388037344441e-13 1.4909372750163574 0 0 0
1508 8 43.03964383820001 1.5006371818577378 0.7272625043927597 0 0 0
1426 7 45.38738821791425 2.984279490192421e-13 1.4909372750163592 0 0 0
1507 2 41.97118368660602 3.0012743637152215 -0.011177683161663617 0 0 0
1506 7 40.721690983983244 3.0012743637152868 1.490937275016366 0 0 0
1510 7 45.38738821791424 3.0012743637152877 1.490937275016367 0 0 0
1592 8 43.0396438382 4.501911545572726 0.7272625043927591 0 0 0
1509 1 44.311769330954505 1.5006371818577677 2.2144797955102145 0 0 0
1593 1 44.31176933095451 4.50191154557278 2.2144797955102153 0 0 0
1427 2 46.63688092053702 1.9895196601282805e-13 -0.011177683161655825 0 0 0
1512 8 47.705341072131006 1.500637181857739 0.7272625043927616 0 0 0
1346 7 50.053085451845256 3.126388037344441e-13 1.4909372750163605 -1 0 0
1347 2 51.302578154468016 1.9823800226353063e-13 -0.011177683161664564 -1 0 0
1511 2 46.63688092053702 3.0012743637152206 -0.011177683161663737 0 0 0
1430 7 50.05308545184525 3.0012743637152903 1.490937275016366 -1 0 0
1431 2 51.302578154468016 3.00127436371522 -0.011177683161665375 -1 0 0
1596 8 47.705341072131006 4.501911545572726 0.7272625043927566 0 0 0
1429 1 48.97746656488551 1.500637181857761 2.2144797955102113 -1 0 0
1513 1 48.97746656488551 4.5019115455727805 2.214479795510213 -1 0 0
1432 8 52.371038306062005 1.5006371818577433 0.7272625043927703 -1 0 0
1351 2 55.96827538839902 1.9895196601282805e-13 -0.011177683161677094 -1 0 0
1350 7 54.718782685776254 3.126388037344441e-13 1.4909372750163759 -1 0 0
1436 8 57.03673553999301 1.5006371818577449 0.7272625043927744 -1 0 0
1435 2 55.968275388399015 3.0012743637152166 -0.011177683161669718 -1 0 0
1434 7 54.718782685776254 3.001274363715293 1.4909372750163714 -1 0 0
1516 8 52.37103830606199 4.501911545572726 0.7272625043927604 -1 0 0
1520 8 57.036735539993 4.50191154557273 0.7272625043927656 -1 0 0
1433 1 53.64316379881652 1.500637181857761 2.2144797955102056 -1 0 0
1517 1 53.64316379881652 4.50191154557278 2.2144797955102105 -1 0 0
1354 7 59.38447991970727 3.126388037344441e-13 1.4909372750163667 -1 0 0
1355 2 60.63397262233002 1.9895196601282805e-13 -0.01117768316166617 -1 0 0
1440 8 61.702432773924016 1.5006371818577433 0.7272625043927688 -1 0 0
1438 7 59.38447991970726 3.0012743637152934 1.4909372750163647 -1 0 0
1439 2 60.63397262233001 3.001274363715216 -0.011177683161667864 -1 0 0
1524 8 61.702432773924016 4.501911545572732 0.7272625043927641 -1 0 0
1437 1 58.308861032747515 1.5006371818577595 2.2144797955102065 -1 0 0
1441 1 62.97455826667851 1.5006371818577735 2.214479795510209 -1 0 0
1521 1 58.308861032747515 4.501911545572776 2.2144797955102127 -1 0 0
1525 1 62.974558266678514 4.50191154557278 2.214479795510208 -1 0 0
1358 7 64.05017715363827 3.126388037344441e-13 1.4909372750163583 -1 0 0
1359 2 65.299669856261 1.9895196601282805e-13 -0.011177683161661641 -1 0 0
1444 8 66.368130007855 1.5006371818577382 0.7272625043927712 -1 0 0
1362 7 68.71587438756927 3.126388037344441e-13 1.4909372750163712 -1 0 0
1442 7 64.05017715363826 3.00127436371529 1.4909372750163687 -1 0 0
1443 2 65.29966985626102 3.0012743637152304 -0.011177683161670535 -1 0 0
1446 7 68.71587438756924 3.0012743637152792 1.4909372750163832 -1 0 0
1528 8 66.368130007855 4.501911545572728 0.7272625043927657 -1 0 0
1445 1 67.64025550060951 1.5006371818577733 2.214479795510212 -1 0 0
1529 1 67.64025550060951 4.501911545572788 2.2144797955102096 -1 0 0
1363 2 69.96536709019202 2.1316282072803006e-13 -0.011177683161653743 -1 0 0
1448 8 71.03382724178601 1.5006371818577358 0.7272625043927514 -1 0 0
1366 7 73.38157162150026 2.984279490192421e-13 1.4909372750163654 -1 0 0
1367 2 74.63106432412302 2.1316282072803006e-13 -0.011177683161668605 -1 0 0
1447 2 69.96536709019202 3.0012743637152295 -0.011177683161659959 -1 0 0
1450 7 73.38157162150023 3.0012743637152854 1.4909372750163754 -1 0 0
1451 2 74.63106432412302 3.0012743637152206 -0.011177683161676168 -1 0 0
1532 8 71.033827241786 4.501911545572726 0.7272625043927416 -1 0 0
1449 1 72.30595273454053 1.500637181857774 2.214479795510215 -1 0 0
1533 1 72.30595273454053 4.501911545572779 2.2144797955102122 -1 0 0
1452 8 75.69952447571701 1.5006371818577373 0.7272625043927656 -1 0 0
1370 7 78.04726885543127 2.984279490192421e-13 1.490937275016371 -1 0 0
1371 2 79.29676155805402 1.9895196601282805e-13 -0.011177683161670386 -1 0 0
1456 8 80.36522170964801 1.5006371818577335 0.7272625043927762 -1 0 0
1454 7 78.04726885543126 3.001274363715288 1.4909372750163803 -1 0 0
1455 2 79.29676155805402 3.0012743637152295 -0.011177683161675396 -1 0 0
1536 8 75.699524475717 4.501911545572728 0.727262504392765 -1 0 0
1540 8 80.36522170964801 4.501911545572728 0.7272625043927617 -1 0 0
1453 1 76.97164996847152 1.5006371818577697 2.2144797955102087 -1 0 0
1537 1 76.97164996847151 4.5019115455727805 2.2144797955102082 -1 0 0
1375 2 83.96245879198501 2.1316282072803006e-13 -0.011177683161668601 -1 0 0
1374 7 82.71296608936228 2.984279490192421e-13 1.4909372750163663 -1 0 0
1460 8 85.030918943579 1.5006371818577398 0.7272625043927694 -1 0 0
1459 2 83.96245879198501 3.001274363715224 -0.011177683161675908 -1 0 0
1458 7 82.71296608936224 3.0012743637152846 1.4909372750163807 -1 0 0
1544 8 85.030918943579 4.501911545572727 0.727262504392761 -1 0 0
1457 1 81.63734720240251 1.500637181857775 2.2144797955102016 -1 0 0
1461 1 86.30304443633351 1.500637181857768 2.214479795510204 -1 0 0
1541 1 81.63734720240252 4.501911545572782 2.2144797955102042 -1 0 0
1545 1 86.30304443633352 4.501911545572785 2.2144797955102042 -1 0 0
1378 7 87.37866332329327 3.126388037344441e-13 1.4909372750163694 -1 0 0
1379 2 88.62815602591601 2.1316282072803006e-13 -0.011177683161670594 -1 0 0
1464 8 89.69661617751002 1.5006371818577418 0.7272625043927723 -1 0 0
1382 7 92.04436055722425 3.126388037344441e-13 1.490937275016362 -1 0 0
1462 7 87.37866332329325 3.001274363715284 1.4909372750163812 -1 0 0
1463 2 88.62815602591601 3.001274363715222 -0.0111776831616749 -1 0 0
1466 7 92.04436055722425 3.001274363715289 1.4909372750163772 -1 0 0
1548 8 89.69661617751001 4.501911545572723 0.7272625043927698 -1 0 0
1465 1 90.96874167026452 1.5006371818577677 2.2144797955102002 -1 0 0
1549 1 90.96874167026452 4.501911545572784 2.214479795510198 -1 0 0
1383 2 93.29385325984701 1.9895196601282805e-13 -0.011177683161668062 -1 0 0
1468 8 94.36231341144102 1.5006371818577406 0.7272625043927833 -1 0 0
1387 2 97.95955049377801 1.9895196601282805e-13 -0.011177683161672248 -1 0 0
1386 7 96.71005779115525 3.126388037344441e-13 1.4909372750163739 -1 0 0
1467 2 93.29385325984701 3.001274363715223 -0.011177683161677701 -1 0 0
1471 2 97.95955049377801 3.001274363715222 -0.011177683161673571 -1 0 0
1470 7 96.71005779115525 3.0012743637152925 1.49093727501638 -1 0 0
1552 8 94.36231341144101 4.501911545572727 0.7272625043927646 -1 0 0
1469 1 95.63443890419552 1.5006371818577586 2.2144797955101967 -1 0 0
1553 1 95.63443890419552 4.5019115455727805 2.2144797955102025 -1 0 0
1558 7 3.3961131125352395 6.002548727430284 1.4909372750163759 0 0 0
1559 2 4.645605815158018 6.002548727430226 -0.01117768316167356 0 0 0
1640 8 1.0483687328209927 7.503185909287726 0.72726250439276 0 0 0
1644 8 5.7140659667519955 7.503185909287725 0.7272625043927569 0 0 0
1642 7 3.396113112535238 9.003823091145282 1.4909372750163747 0 0 0
1643 2 4.645605815158018 9.003823091145224 -0.011177683161671956 0 0 0
1724 8 1.0483687328209899 10.504460273002728 0.7272625043927595 0 0 0
1728 8 5.7140659667519955 10.504460273002726 0.7272625043927607 0 0 0
1641 1 2.3204942255755103 7.5031859092877795 2.2144797955102122 0 0 0
1725 1 2.320494225575512 10.50446027300278 2.2144797955102105 0 0 0
1562 7 8.061810346466245 6.002548727430284 1.490937275016378 0 0 0
1563 2 9.311303049089018 6.002548727430227 -0.011177683161675288 0 0 0
1648 8 10.379763200682993 7.503185909287725 0.7272625043927601 0 0 0
1646 7 8.061810346466244 9.003823091145282 1.490937275016377 0 0 0
1647 2 9.311303049089018 9.003823091145224 -0.01117768316167418 0 0 0
1732 8 10.379763200682993 10.504460273002728 0.727262504392766 0 0 0
1645 1 6.986191459506515 7.50318590928778 2.2144797955102113 0 0 0
1729 1 6.986191459506516 10.504460273002781 2.2144797955102082 0 0 0
1567 2 13.977000283020017 6.002548727430227 -0.011177683161674097 0 0 0
1566 7 12.727507580397246 6.002548727430283 1.4909372750163774 0 0 0
1652 8 15.045460434613995 7.503185909287724 0.7272625043927547 0 0 0
1651 2 13.977000283020018 9.003823091145224 -0.011177683161674418 0 0 0
1650 7 12.727507580397242 9.003823091145284 1.4909372750163785 0 0 0
1736 8 15.045460434613993 10.50446027300273 0.7272625043927569 0 0 0
1649 1 11.651888693437519 7.503185909287781 2.2144797955102127 0 0 0
1653 1 16.317585927368512 7.503185909287782 2.2144797955102096 0 0 0
1733 1 11.651888693437517 10.504460273002778 2.2144797955102082 0 0 0
1737 1 16.317585927368516 10.504460273002776 2.2144797955102096 0 0 0
1570 7 17.393204814328246 6.002548727430283 1.4909372750163796 0 0 0
1571 2 18.642697516951017 6.00254872743023 -0.011177683161677445 0 0 0
1574 7 22.058902048259245 6.002548727430285 1.490937275016383 0 0 0
1656 8 19.71115766854499 7.503185909287724 0.7272625043927585 0 0 0
1654 7 17.39320481432824 9.003823091145284 1.4909372750163852 0 0 0
1655 2 18.642697516951017 9.003823091145224 -0.011177683161677934 0 0 0
1658 7 22.05890204825924 9.003823091145282 1.4909372750163825 0 0 0
1740 8 19.71115766854499 10.504460273002728 0.7272625043927623 0 0 0
1657 1 20.983283161299514 7.503185909287781 2.214479795510209 0 0 0
1741 1 20.983283161299514 10.504460273002778 2.214479795510206 0 0 0
1575 2 23.30839475088202 6.002548727430224 -0.011177683161677786 0 0 0
1579 2 27.97409198481302 6.002548727430225 -0.011177683161674518 0 0 0
1578 7 26.724599282190248 6.002548727430284 1.4909372750163747 0 0 0
1660 8 24.37685490247599 7.503185909287726 0.7272625043927667 0 0 0
1659 2 23.30839475088202 9.003823091145227 -0.011177683161678099 0 0 0
1663 2 27.97409198481302 9.003823091145229 -0.011177683161674008 0 0 0
1662 7 26.724599282190248 9.003823091145282 1.4909372750163752 0 0 0
1744 8 24.376854902475984 10.504460273002726 0.7272625043927641 0 0 0
1661 1 25.648980395230517 7.503185909287781 2.214479795510209 0 0 0
1745 1 25.648980395230517 10.504460273002783 2.2144797955102105 0 0 0
1582 7 31.39029651612125 6.002548727430285 1.4909372750163774 0 0 0
1583 2 32.63978921874402 6.002548727430224 -0.011177683161670605 0 0 0
1664 8 29.042552136406997 7.503185909287725 0.727262504392764 0 0 0
1668 8 33.708249370338 7.503185909287726 0.7272625043927649 0 0 0
1666 7 31.390296516121246 9.003823091145282 1.4909372750163785 0 0 0
1667 2 32.63978921874402 9.003823091145229 -0.011177683161670433 0 0 0
1748 8 29.04255213640699 10.504460273002726 0.7272625043927605 0 0 0
1752 8 33.708249370337995 10.504460273002726 0.7272625043927627 0 0 0
1665 1 30.314677629161515 7.503185909287782 2.2144797955102087 0 0 0
1749 1 30.31467762916152 10.50446027300278 2.2144797955102122 0 0 0
1586 7 36.055993750052245 6.002548727430282 1.490937275016369 0 0 0
1587 2 37.30548645267502 6.002548727430228 -0.011177683161665059 0 0 0
1672 8 38.373946604269 7.5031859092877236 0.7272625043927552 0 0 0
1670 7 36.055993750052245 9.003823091145282 1.4909372750163685 0 0 0
1671 2 37.30548645267502 9.003823091145225 -0.011177683161665262 0 0 0
1756 8 38.373946604269 10.504460273002728 0.7272625043927565 0 0 0
1669 1 34.98037486309251 7.503185909287781 2.214479795510217 0 0 0
1673 1 39.646072097023506 7.503185909287781 2.2144797955102176 0 0 0
1753 1 34.98037486309251 10.504460273002781 2.214479795510218 0 0 0
1757 1 39.646072097023506 10.50446027300278 2.2144797955102176 0 0 0
1591 2 41.97118368660602 6.002548727430228 -0.011177683161665168 0 0 0
1590 7 40.721690983983244 6.002548727430283 1.4909372750163659 0 0 0
1594 7 45.38738821791424 6.002548727430283 1.4909372750163663 0 0 0
1676 8 43.0396438382 7.503185909287725 0.7272625043927561 0 0 0
1675 2 41.97118368660602 9.003823091145225 -0.011177683161665126 0 0 0
1674 7 40.721690983983244 9.003823091145284 1.4909372750163683 0 0 0
1678 7 45.38738821791424 9.003823091145284 1.490937275016368 0 0 0
1760 8 43.0396438382 10.50446027300273 0.7272625043927571 0 0 0
1677 1 44.311769330954505 7.503185909287781 2.2144797955102185 0 0 0
1761 1 44.311769330954505 10.50446027300278 2.2144797955102176 0 0 0
1595 2 46.63688092053702 6.002548727430228 -0.011177683161665267 0 0 0
1514 7 50.05308545184524 6.002548727430282 1.4909372750163699 -1 0 0
1515 2 51.30257815446802 6.002548727430226 -0.01117768316166941 -1 0 0
1680 8 47.705341072131 7.503185909287725 0.7272625043927567 0 0 0
1679 2 46.63688092053702 9.003823091145225 -0.011177683161665354 0 0 0
1598 7 50.05308545184524 9.003823091145284 1.4909372750163703 -1 0 0
1599 2 51.30257815446802 9.003823091145225 -0.011177683161668938 -1 0 0
1764 8 47.705341072131 10.504460273002728 0.7272625043927567 0 0 0
1597 1 48.97746656488551 7.503185909287781 2.2144797955102136 -1 0 0
1681 1 48.97746656488551 10.504460273002781 2.214479795510214 -1 0 0
1519 2 55.968275388399015 6.002548727430224 -0.011177683161674837 -1 0 0
1518 7 54.71878268577625 6.002548727430283 1.4909372750163776 -1 0 0
1600 8 52.37103830606199 7.503185909287726 0.7272625043927611 -1 0 0
1604 8 57.036735539993 7.503185909287725 0.7272625043927677 -1 0 0
1603 2 55.96827538839902 9.003823091145225 -0.011177683161675703 -1 0 0
1602 7 54.71878268577625 9.003823091145284 1.4909372750163759 -1 0 0
1684 8 52.37103830606199 10.50446027300273 0.7272625043927623 -1 0 0
1688 8 57.036735539993 10.504460273002726 0.7272625043927691 -1 0 0
1601 1 53.64316379881652 7.50318590928778 2.214479795510212 -1 0 0
1685 1 53.64316379881652 10.50446027300278 2.2144797955102127 -1 0 0
1522 7 59.38447991970725 6.002548727430286 1.490937275016367 -1 0 0
1523 2 60.63397262233001 6.002548727430227 -0.011177683161669845 -1 0 0
1608 8 61.70243277392401 7.5031859092877236 0.7272625043927633 -1 0 0
1606 7 59.38447991970726 9.00382309114528 1.490937275016366 -1 0 0
1607 2 60.63397262233001 9.003823091145229 -0.011177683161666636 -1 0 0
1692 8 61.70243277392401 10.50446027300273 0.7272625043927604 -1 0 0
1605 1 58.30886103274751 7.503185909287782 2.2144797955102127 -1 0 0
1609 1 62.974558266678514 7.503185909287785 2.2144797955102087 -1 0 0
1689 1 58.30886103274751 10.504460273002785 2.2144797955102122 -1 0 0
1693 1 62.97455826667852 10.504460273002774 2.2144797955102082 -1 0 0
1526 7 64.05017715363826 6.002548727430283 1.4909372750163739 -1 0 0
1527 2 65.29966985626102 6.002548727430228 -0.01117768316167243 -1 0 0
1530 7 68.71587438756924 6.002548727430281 1.4909372750163927 -1 0 0
1612 8 66.368130007855 7.503185909287724 0.7272625043927621 -1 0 0
1610 7 64.05017715363826 9.003823091145284 1.4909372750163798 -1 0 0
1611 2 65.29966985626102 9.003823091145218 -0.01117768316167564 -1 0 0
1614 7 68.71587438756924 9.003823091145293 1.490937275016392 -1 0 0
1696 8 66.368130007855 10.504460273002733 0.7272625043927649 -1 0 0
1613 1 67.64025550060951 7.5031859092877795 2.2144797955102087 -1 0 0
1697 1 67.64025550060951 10.504460273002762 2.2144797955102153 -1 0 0
1531 2 69.96536709019203 6.002548727430225 -0.011177683161675781 -1 0 0
1534 7 73.38157162150023 6.0025487274302805 1.4909372750163785 -1 0 0
1535 2 74.63106432412302 6.002548727430229 -0.011177683161677604 -1 0 0
1616 8 71.033827241786 7.503185909287727 0.7272625043927535 -1 0 0
1615 2 69.96536709019203 9.00382309114522 -0.011177683161672633 -1 0 0
1618 7 73.38157162150023 9.00382309114529 1.4909372750163778 -1 0 0
1619 2 74.63106432412302 9.003823091145224 -0.01117768316167585 -1 0 0
1700 8 71.03382724178601 10.504460273002731 0.727262504392747 -1 0 0
1617 1 72.30595273454053 7.503185909287777 2.2144797955102105 -1 0 0
1701 1 72.30595273454053 10.504460273002776 2.2144797955102176 -1 0 0
1538 7 78.04726885543126 6.002548727430284 1.4909372750163796 -1 0 0
1539 2 79.29676155805402 6.002548727430223 -0.01117768316167687 -1 0 0
1620 8 75.699524475717 7.503185909287725 0.727262504392755 -1 0 0
1624 8 80.36522170964801 7.503185909287725 0.727262504392769 -1 0 0
1622 7 78.04726885543126 9.003823091145282 1.490937275016378 -1 0 0
1623 2 79.29676155805402 9.003823091145224 -0.0111776831616766 -1 0 0
1704 8 75.699524475717 10.504460273002728 0.7272625043927654 -1 0 0
1708 8 80.365221709648 10.50446027300273 0.727262504392762 -1 0 0
1621 1 76.97164996847152 7.5031859092877795 2.214479795510212 -1 0 0
1705 1 76.97164996847152 10.504460273002781 2.2144797955102096 -1 0 0
1543 2 83.96245879198501 6.002548727430225 -0.011177683161682394 -1 0 0
1542 7 82.71296608936224 6.002548727430285 1.4909372750163898 -1 0 0
1628 8 85.030918943579 7.503185909287728 0.7272625043927581 -1 0 0
1627 2 83.96245879198501 9.003823091145224 -0.011177683161680618 -1 0 0
1626 7 82.71296608936224 9.003823091145287 1.4909372750163896 -1 0 0
1712 8 85.030918943579 10.504460273002726 0.7272625043927626 -1 0 0
1625 1 81.63734720240251 7.503185909287779 2.2144797955102047 -1 0 0
1629 1 86.30304443633351 7.503185909287777 2.214479795510208 -1 0 0
1709 1 81.63734720240252 10.504460273002774 2.214479795510208 -1 0 0
1713 1 86.30304443633351 10.504460273002776 2.214479795510208 -1 0 0
1546 7 87.37866332329324 6.002548727430284 1.4909372750163894 -1 0 0
1547 2 88.62815602591601 6.0025487274302325 -0.011177683161679776 -1 0 0
1550 7 92.04436055722424 6.002548727430283 1.490937275016383 -1 0 0
1632 8 89.69661617751 7.503185909287725 0.7272625043927611 -1 0 0
1630 7 87.37866332329324 9.003823091145284 1.490937275016383 -1 0 0
1631 2 88.62815602591601 9.00382309114522 -0.011177683161674968 -1 0 0
1634 7 92.04436055722424 9.003823091145282 1.4909372750163845 -1 0 0
1716 8 89.69661617751001 10.504460273002728 0.7272625043927718 -1 0 0
1633 1 90.96874167026454 7.503185909287781 2.2144797955102113 -1 0 0
1717 1 90.96874167026452 10.504460273002778 2.214479795510199 -1 0 0
1551 2 93.29385325984701 6.002548727430224 -0.01117768316168099 -1 0 0
1555 2 97.95955049377801 6.0025487274302245 -0.01117768316167891 -1 0 0
1554 7 96.71005779115524 6.002548727430286 1.490937275016389 -1 0 0
1636 8 94.36231341144101 7.503185909287727 0.7272625043927681 -1 0 0
1635 2 93.29385325984701 9.003823091145225 -0.011177683161681646 -1 0 0
1639 2 97.95955049377801 9.003823091145225 -0.011177683161679292 -1 0 0
1638 7 96.71005779115524 9.003823091145284 1.4909372750163896 -1 0 0
1720 8 94.36231341144101 10.504460273002728 0.727262504392769 -1 0 0
1637 1 95.6344389041955 7.5031859092877795 2.2144797955101976 -1 0 0
1721 1 95.6344389041955 10.50446027300278 2.2144797955102007 -1 0 0
1726 7 3.396113112535242 12.005097454860284 1.4909372750163752 0 0 0
1727 2 4.645605815158017 12.005097454860227 -0.011177683161673878 0 0 0
1808 8 1.0483687328209932 13.505734636717726 0.7272625043927609 0 0 0
1812 8 5.714065966751994 13.505734636717726 0.7272625043927585 0 0 0
1810 7 3.3961131125352386 15.006371818575284 1.490937275016378 0 0 0
1811 2 4.645605815158018 15.006371818575222 -0.01117768316167317 0 0 0
1892 8 1.0483687328209896 16.507009000432728 0.7272625043927562 0 0 0
1896 8 5.714065966751996 16.507009000432728 0.7272625043927584 0 0 0
1809 1 2.320494225575511 13.505734636717781 2.2144797955102113 0 0 0
1893 1 2.3204942255755125 16.507009000432777 2.2144797955102105 0 0 0
1730 7 8.061810346466249 12.005097454860284 1.4909372750163774 0 0 0
1731 2 9.311303049089014 12.005097454860225 -0.011177683161676624 0 0 0
1816 8 10.379763200682993 13.505734636717726 0.7272625043927643 0 0 0
1814 7 8.061810346466244 15.006371818575284 1.4909372750163805 0 0 0
1815 2 9.311303049089016 15.006371818575227 -0.011177683161675467 0 0 0
1900 8 10.37976320068299 16.507009000432728 0.727262504392758 0 0 0
1813 1 6.986191459506516 13.505734636717783 2.214479795510211 0 0 0
1897 1 6.986191459506514 16.507009000432777 2.214479795510208 0 0 0
1735 2 13.977000283020017 12.005097454860222 -0.011177683161674962 0 0 0
1734 7 12.727507580397248 12.005097454860287 1.4909372750163792 0 0 0
1820 8 15.045460434613995 13.505734636717728 0.7272625043927579 0 0 0
1819 2 13.977000283020015 15.00637181857522 -0.011177683161673006 0 0 0
1818 7 12.727507580397248 15.006371818575287 1.4909372750163787 0 0 0
1904 8 15.045460434613998 16.507009000432728 0.7272625043927591 0 0 0
1817 1 11.651888693437515 13.505734636717778 2.2144797955102105 0 0 0
1821 1 16.317585927368512 13.505734636717781 2.2144797955102105 0 0 0
1901 1 11.651888693437519 16.507009000432774 2.2144797955102122 0 0 0
1905 1 16.317585927368512 16.507009000432777 2.2144797955102065 0 0 0
1738 7 17.39320481432825 12.005097454860287 1.490937275016377 0 0 0
1739 2 18.642697516951014 12.005097454860223 -0.011177683161674454 0 0 0
1742 7 22.05890204825925 12.005097454860287 1.4909372750163796 0 0 0
1824 8 19.71115766854499 13.505734636717726 0.7272625043927586 0 0 0
1822 7 17.393204814328246 15.006371818575287 1.490937275016381 0 0 0
1823 2 18.642697516951017 15.00637181857522 -0.011177683161677285 0 0 0
1826 7 22.058902048259252 15.006371818575285 1.4909372750163776 0 0 0
1908 8 19.711157668544995 16.507009000432728 0.7272625043927644 0 0 0
1825 1 20.98328316129951 13.505734636717778 2.2144797955102105 0 0 0
1909 1 20.983283161299507 16.507009000432777 2.2144797955102047 0 0 0
1743 2 23.308394750882016 12.005097454860223 -0.011177683161677722 0 0 0
1747 2 27.974091984813015 12.005097454860225 -0.011177683161674721 0 0 0
1746 7 26.724599282190248 12.005097454860284 1.4909372750163756 0 0 0
1828 8 24.376854902475987 13.505734636717724 0.7272625043927656 0 0 0
1827 2 23.308394750882016 15.006371818575225 -0.011177683161672915 0 0 0
1831 2 27.97409198481302 15.006371818575225 -0.011177683161674537 0 0 0
1830 7 26.724599282190248 15.006371818575284 1.4909372750163792 0 0 0
1912 8 24.376854902475987 16.507009000432728 0.7272625043927605 0 0 0
1829 1 25.648980395230517 13.505734636717781 2.2144797955102105 0 0 0
1913 1 25.64898039523052 16.507009000432777 2.2144797955102105 0 0 0
1750 7 31.39029651612125 12.005097454860284 1.4909372750163747 0 0 0
1751 2 32.63978921874402 12.005097454860225 -0.011177683161670436 0 0 0
1832 8 29.042552136406993 13.505734636717724 0.7272625043927622 0 0 0
1836 8 33.708249370337995 13.505734636717726 0.7272625043927566 0 0 0
1834 7 31.390296516121246 15.006371818575287 1.4909372750163778 0 0 0
1835 2 32.63978921874403 15.00637181857522 -0.0111776831616685 0 0 0
1916 8 29.04255213640699 16.507009000432728 0.7272625043927565 0 0 0
1920 8 33.708249370338 16.507009000432728 0.7272625043927634 0 0 0
1833 1 30.314677629161515 13.50573463671778 2.2144797955102113 0 0 0
1917 1 30.31467762916152 16.507009000432777 2.2144797955102105 0 0 0
1754 7 36.055993750052245 12.005097454860286 1.4909372750163676 0 0 0
1755 2 37.30548645267502 12.005097454860222 -0.011177683161665083 0 0 0
1840 8 38.373946604269 13.505734636717728 0.7272625043927565 0 0 0
1838 7 36.055993750052245 15.006371818575284 1.490937275016369 0 0 0
1839 2 37.30548645267502 15.006371818575223 -0.011177683161664167 0 0 0
1924 8 38.373946604268994 16.507009000432728 0.7272625043927506 0 0 0
1837 1 34.98037486309251 13.505734636717778 2.214479795510221 0 0 0
1841 1 39.646072097023506 13.505734636717778 2.214479795510219 0 0 0
1921 1 34.98037486309251 16.507009000432777 2.2144797955102176 0 0 0
1925 1 39.646072097023506 16.507009000432777 2.214479795510217 0 0 0
1759 2 41.97118368660602 12.005097454860222 -0.011177683161665636 0 0 0
1758 7 40.721690983983244 12.005097454860287 1.4909372750163665 0 0 0
1762 7 45.38738821791424 12.005097454860287 1.4909372750163676 0 0 0
1844 8 43.03964383820001 13.505734636717728 0.7272625043927555 0 0 0
1843 2 41.97118368660602 15.006371818575223 -0.011177683161664106 0 0 0
1842 7 40.721690983983244 15.006371818575287 1.4909372750163672 0 0 0
1846 7 45.38738821791424 15.006371818575285 1.4909372750163674 0 0 0
1928 8 43.0396438382 16.507009000432728 0.7272625043927511 0 0 0
1845 1 44.311769330954505 13.50573463671778 2.214479795510217 0 0 0
1929 1 44.311769330954505 16.507009000432777 2.214479795510217 0 0 0
1763 2 46.63688092053702 12.005097454860222 -0.011177683161666554 0 0 0
1682 7 50.05308545184524 12.005097454860286 1.4909372750163712 -1 0 0
1683 2 51.30257815446802 12.005097454860222 -0.011177683161669677 -1 0 0
1848 8 47.705341072131006 13.505734636717724 0.727262504392757 0 0 0
1847 2 46.63688092053702 15.006371818575225 -0.011177683161662478 0 0 0
1766 7 50.05308545184524 15.006371818575282 1.4909372750163719 -1 0 0
1767 2 51.30257815446802 15.006371818575225 -0.01117768316166618 -1 0 0
1932 8 47.705341072131 16.507009000432728 0.7272625043927488 0 0 0
1765 1 48.97746656488551 13.505734636717781 2.2144797955102153 -1 0 0
1849 1 48.97746656488551 16.507009000432777 2.214479795510217 -1 0 0