LAMMPS data file via write_data, version 29 Aug 2024, timestep = 11, units = metal

10032 atoms
24 atom types

0 101.359716777996 xlo xhi
0 101.640103805416 ylo yhi
-50 50 zlo zhi

Masses

1 54.938044
2 54.938044
3 54.938044
4 54.938044
5 54.938044
6 54.938044
7 54.938044
8 54.938044
9 15.999
10 15.999
11 15.999
12 15.999
13 15.999
14 15.999
15 15.999
16 15.999
17 15.999
18 15.999
19 15.999
20 15.999
21 15.999
22 15.999
23 15.999
24 15.999

Atoms # atomic

2625 10 1.333646537277011 0.7699926135336043 0.0036124730424007944 0 0 0
2631 2 4.018435317303313 0.7599617211082713 0.015898686350361044 0 0 0
2635 15 5.317230772384984 0.010044260744806707 1.1314529285302433 0 0 0
2626 16 1.3782868506633916 2.3975391590092037 1.1208454138122614 0 0 0
2632 14 3.9595085878371705 2.812120119777031 1.092245408711348 0 0 0
2634 4 2.640734332825425 2.687732390996436 -0.22759346114114248 0 0 0
2640 12 5.334693028032575 3.079995798324314 0.0036927502671314383 0 0 0
2853 10 1.333646537277011 5.389997331961604 0.003612473042400792 0 0 0
2857 13 2.6703517985086105 4.6034145303847955 1.2985415698653346 0 0 0
2859 2 4.018435317303313 5.379966439536271 0.015898686350360843 0 0 0
2863 15 5.317230772384984 4.630048979172806 1.1314529285302435 0 0 0
2624 9 1.3343724599826552 0.7699980533998705 2.292609885401785 0 0 0
2630 1 4.078703066791661 0.6041297857002372 2.3585366936229066 0 0 0
2627 11 0.0005028235236969928 3.0800370051584918 2.2921922330529747 0 0 0
2633 3 2.6105028797201597 3.0650380412140863 2.3600833664924856 0 0 0
2639 11 5.335224759207699 3.0800370051584918 2.2921922330529747 0 0 0
2852 9 1.3343724599826552 5.390002771827869 2.292609885401785 0 0 0
2858 1 4.078703066791663 5.224134504128232 2.3585366936229115 0 0 0
2637 10 6.668368472961013 0.7699926135336043 0.003612473042400796 0 0 0
2643 2 9.353157252987316 0.7599617211082714 0.01589868635036077 0 0 0
2647 15 10.651952708068984 0.010044260744806525 1.1314529285302437 0 0 0
2638 16 6.713008786347392 2.3975391590092046 1.120845413812262 0 0 0
2644 14 9.294230523521172 2.812120119777031 1.0922454087113478 0 0 0
2646 4 7.975456268509426 2.687732390996436 -0.22759346114114234 0 0 0
2652 12 10.66941496371658 3.079995798324314 0.0036927502671314388 0 0 0
2865 10 6.668368472961013 5.389997331961604 0.003612473042400793 0 0 0
2869 13 8.005073734192612 4.6034145303847955 1.298541569865334 0 0 0
2871 2 9.353157252987316 5.379966439536272 0.015898686350361024 0 0 0
2875 15 10.651952708068984 4.630048979172807 1.1314529285302435 0 0 0
2636 9 6.669094395666657 0.7699980533998705 2.292609885401785 0 0 0
2642 1 9.413425002475666 0.6041297857002355 2.3585366936229106 0 0 0
2645 3 7.945224815404162 3.065038041214087 2.3600833664924856 0 0 0
2651 11 10.6699466948917 3.0800370051584918 2.2921922330529747 0 0 0
2864 9 6.669094395666657 5.390002771827869 2.292609885401785 0 0 0
2870 1 9.413425002475662 5.224134504128232 2.3585366936229124 0 0 0
2649 10 12.003090408645017 0.7699926135336043 0.0036124730424007966 0 0 0
2655 2 14.687879188671317 0.7599617211082714 0.01589868635036077 0 0 0
2659 15 15.986674643752986 0.010044260744806525 1.1314529285302437 0 0 0
2661 10 17.337812344329013 0.7699926135336043 0.0036124730424007957 0 0 0
2650 16 12.047730722031394 2.397539159009205 1.1208454138122623 0 0 0
2656 14 14.628952459205173 2.812120119777032 1.0922454087113482 0 0 0
2662 16 17.382452657715394 2.3975391590092032 1.1208454138122605 0 0 0
2658 4 13.310178204193427 2.6877323909964375 -0.22759346114114204 0 0 0
2664 12 16.004136899400578 3.079995798324314 0.0036927502671314383 0 0 0
2877 10 12.003090408645017 5.389997331961604 0.003612473042400793 0 0 0
2881 13 13.339795669876613 4.603414530384795 1.2985415698653346 0 0 0
2883 2 14.687879188671317 5.379966439536272 0.015898686350361024 0 0 0
2887 15 15.986674643752986 4.630048979172807 1.1314529285302435 0 0 0
2889 10 17.337812344329013 5.389997331961604 0.003612473042400793 0 0 0
2648 9 12.003816331350656 0.7699980533998705 2.292609885401785 0 0 0
2654 1 14.74814693815967 0.6041297857002347 2.3585366936229106 0 0 0
2660 9 17.338538267034657 0.7699980533998705 2.292609885401785 0 0 0
2657 3 13.279946751088163 3.0650380412140863 2.360083366492486 0 0 0
2663 11 16.004668630575697 3.0800370051584918 2.2921922330529747 0 0 0
2876 9 12.003816331350656 5.390002771827869 2.292609885401785 0 0 0
2882 1 14.748146938159666 5.224134504128231 2.3585366936229115 0 0 0
2888 9 17.338538267034657 5.390002771827869 2.292609885401785 0 0 0
2667 2 20.02260112435532 0.7599617211082715 0.01589868635036045 0 0 0
2671 15 21.321396579436986 0.010044260744806301 1.1314529285302442 0 0 0
2673 10 22.672534280013014 0.7699926135336043 0.0036124730424007987 0 0 0
2668 14 19.963674394889175 2.81212011977703 1.0922454087113491 0 0 0
2674 16 22.717174593399395 2.3975391590092032 1.1208454138122605 0 0 0
2670 4 18.644900139877432 2.687732390996436 -0.22759346114114237 0 0 0
2676 12 21.33885883508458 3.079995798324314 0.0036927502671314397 0 0 0
2893 13 18.674517605560617 4.603414530384796 1.2985415698653338 0 0 0
2895 2 20.02260112435532 5.379966439536272 0.01589868635036029 0 0 0
2899 15 21.321396579436986 4.630048979172806 1.1314529285302442 0 0 0
2901 10 22.672534280013014 5.389997331961604 0.003612473042400796 0 0 0
2666 1 20.08286887384367 0.6041297857002355 2.3585366936229124 0 0 0
2672 9 22.67326020271866 0.7699980533998705 2.292609885401785 0 0 0
2669 3 18.614668686772163 3.065038041214088 2.360083366492485 0 0 0
2675 11 21.3393905662597 3.0800370051584918 2.2921922330529747 0 0 0
2894 1 20.08286887384367 5.224134504128229 2.3585366936229133 0 0 0
2900 9 22.67326020271866 5.390002771827869 2.292609885401785 0 0 0
2679 2 25.35732306003932 0.7599617211082715 0.01589868635036045 0 0 0
2683 15 26.656118515120987 0.0100442607448063 1.1314529285302442 0 0 0
2685 10 28.007256215697016 0.7699926135336043 0.0036124730424007983 0 0 0
2680 14 25.298396330573176 2.81212011977703 1.0922454087113491 0 0 0
2686 16 28.051896529083386 2.3975391590092023 1.1208454138122619 0 0 0
2682 4 23.979622075561434 2.687732390996436 -0.22759346114114237 0 0 0
2688 12 26.67358077076858 3.079995798324314 0.0036927502671314405 0 0 0
2694 4 29.31434401124542 2.6877323909964366 -0.22759346114114282 0 0 0
2905 13 24.009239541244618 4.603414530384796 1.2985415698653338 0 0 0
2907 2 25.35732306003932 5.379966439536272 0.01589868635036029 0 0 0
2911 15 26.656118515120987 4.630048979172806 1.1314529285302442 0 0 0
2913 10 28.007256215697016 5.389997331961604 0.0036124730424007953 0 0 0
2917 13 29.343961476928605 4.603414530384795 1.2985415698653355 0 0 0
2678 1 25.41759080952767 0.6041297857002355 2.3585366936229124 0 0 0
2684 9 28.00798213840266 0.7699980533998705 2.292609885401785 0 0 0
2681 3 23.949390622456164 3.065038041214088 2.360083366492485 0 0 0
2687 11 26.6741125019437 3.0800370051584918 2.2921922330529747 0 0 0
2693 3 29.284112558140155 3.065038041214085 2.3600833664924856 0 0 0
2906 1 25.41759080952767 5.224134504128229 2.3585366936229133 0 0 0
2912 9 28.00798213840266 5.390002771827869 2.292609885401785 0 0 0
2691 2 30.692044995723307 0.7599617211082715 0.015898686350360458 0 0 0
2695 15 31.990840450804974 0.010044260744806306 1.1314529285302442 0 0 0
2697 10 33.341978151381 0.7699926135336043 0.0036124730424007983 0 0 0
2692 14 30.633118266257167 2.812120119777031 1.0922454087113473 0 0 0
2698 16 33.38661846476739 2.3975391590092063 1.1208454138122634 0 0 0
2700 12 32.008302706452575 3.079995798324314 0.00369275026713144 0 0 0
2706 4 34.64906594692942 2.6877323909964357 -0.22759346114114143 0 0 0
2919 2 30.692044995723307 5.379966439536272 0.015898686350360302 0 0 0
2923 15 31.990840450804974 4.630048979172806 1.1314529285302442 0 0 0
2925 10 33.341978151381 5.389997331961604 0.0036124730424007957 0 0 0
2929 13 34.67868341261261 4.6034145303847955 1.2985415698653349 0 0 0
2690 1 30.752312745211658 0.6041297857002386 2.3585366936229075 0 0 0
2696 9 33.34270407408665 0.7699980533998705 2.292609885401785 0 0 0
2699 11 32.00883443762769 3.0800370051584918 2.2921922330529747 0 0 0
2705 3 34.61883449382415 3.0650380412140867 2.3600833664924865 0 0 0
2918 1 30.752312745211658 5.224134504128231 2.3585366936229133 0 0 0
2924 9 33.34270407408665 5.390002771827869 2.292609885401785 0 0 0
2703 2 36.02676693140731 0.7599617211082729 0.01589868635035858 0 0 0
2707 15 37.325562386488976 0.010044260744805036 1.1314529285302461 0 0 0
2709 10 38.676700087065 0.7699926135336043 0.0036124730424007966 0 0 0
2715 2 41.36148886709131 0.7599617211082729 0.01589868635035858 0 0 0
2704 14 35.967840201941165 2.8121201197770294 1.0922454087113471 0 0 0
2710 16 38.72134040045139 2.3975391590092063 1.1208454138122634 0 0 0
2716 14 41.302562137625166 2.8121201197770294 1.0922454087113471 0 0 0
2712 12 37.34302464213658 3.079995798324314 0.0036927502671314383 0 0 0
2718 4 39.98378788261342 2.6877323909964357 -0.22759346114114137 0 0 0
2931 2 36.0267669314073 5.379966439536271 0.015898686350361308 0 0 0
2935 15 37.325562386488976 4.630048979172806 1.1314529285302433 0 0 0
2937 10 38.676700087065 5.389997331961604 0.003612473042400794 0 0 0
2943 2 41.3614888670913 5.379966439536271 0.015898686350361308 0 0 0
2941 13 40.01340534829661 4.6034145303847955 1.298541569865335 0 0 0
2702 1 36.08703468089566 0.6041297857002357 2.3585366936229093 0 0 0
2708 9 38.67742600977065 0.7699980533998705 2.292609885401785 0 0 0
2714 1 41.421756616579664 0.6041297857002357 2.3585366936229093 0 0 0
2711 11 37.34355637331169 3.0800370051584918 2.2921922330529747 0 0 0
2717 3 39.95355642950816 3.0650380412140867 2.3600833664924865 0 0 0
2930 1 36.08703468089566 5.224134504128229 2.358536693622909 0 0 0
2936 9 38.67742600977065 5.390002771827869 2.292609885401785 0 0 0
2942 1 41.421756616579664 5.224134504128229 2.358536693622909 0 0 0
2719 15 42.66028432217298 0.010044260744805035 1.1314529285302461 0 0 0
2721 10 44.011422022749 0.7699926135336043 0.0036124730424007966 0 0 0
2727 2 46.69621080277531 0.7599617211082729 0.01589868635035858 0 0 0
2722 16 44.05606233613539 2.3975391590092063 1.1208454138122634 0 0 0
2728 14 46.63728407330917 2.8121201197770294 1.0922454087113471 0 0 0
2724 12 42.67774657782058 3.079995798324314 0.0036927502671314383 0 0 0
2730 4 45.31850981829742 2.6877323909964357 -0.22759346114114137 0 0 0
2947 15 42.66028432217298 4.630048979172806 1.1314529285302433 0 0 0
2949 10 44.011422022749 5.389997331961604 0.003612473042400794 0 0 0
2953 13 45.34812728398061 4.6034145303847955 1.298541569865335 0 0 0
2955 2 46.696210802775305 5.379966439536271 0.015898686350361308 0 0 0
2720 9 44.01214794545465 0.7699980533998705 2.292609885401785 0 0 0
2726 1 46.756478552263665 0.6041297857002357 2.3585366936229093 0 0 0
2723 11 42.678278308995694 3.0800370051584918 2.2921922330529747 0 0 0
2729 3 45.28827836519216 3.0650380412140867 2.3600833664924865 0 0 0
2948 9 44.01214794545465 5.390002771827869 2.292609885401785 0 0 0
2954 1 46.756478552263665 5.224134504128229 2.358536693622909 0 0 0
2731 15 47.99500625785698 0.010044260744805035 1.1314529285302461 0 0 0
2733 10 49.346143958433004 0.7699926135336043 0.0036124730424007987 0 0 0
2511 2 52.03093273845931 0.7599617211082729 0.01589868635035858 -1 0 0
2515 15 53.32972819354098 0.01004426074480503 1.1314529285302461 -1 0 0
2734 16 49.39078427181939 2.3975391590092063 1.1208454138122634 0 0 0
2512 14 51.97200600899317 2.8121201197770294 1.0922454087113471 -1 0 0
2736 12 48.01246851350458 3.079995798324314 0.0036927502671314383 0 0 0
2514 4 50.65323175398142 2.6877323909964357 -0.22759346114114137 -1 0 0
2520 12 53.34719044918858 3.079995798324314 0.0036927502671314436 -1 0 0
2959 15 47.99500625785698 4.630048979172806 1.1314529285302433 0 0 0
2961 10 49.346143958433004 5.389997331961604 0.0036124730424007953 0 0 0
2737 13 50.68284921966461 4.6034145303847955 1.298541569865335 -1 0 0
2739 2 52.030932738459306 5.379966439536271 0.015898686350361308 -1 0 0
2743 15 53.32972819354098 4.630048979172806 1.1314529285302433 -1 0 0
2732 9 49.34686988113865 0.7699980533998705 2.292609885401785 0 0 0
2510 1 52.09120048794767 0.6041297857002375 2.358536693622911 -1 0 0
2735 11 48.013000244679695 3.0800370051584918 2.2921922330529747 0 0 0
2513 3 50.623000300876164 3.0650380412140867 2.3600833664924865 -1 0 0
2519 11 53.3477221803637 3.0800370051584918 2.2921922330529747 -1 0 0
2960 9 49.34686988113865 5.390002771827869 2.292609885401785 0 0 0
2738 1 52.09120048794767 5.224134504128229 2.358536693622909 -1 0 0
2517 10 54.680865894117005 0.7699926135336043 0.0036124730424008026 -1 0 0
2523 2 57.365654674143315 0.7599617211082729 0.015898686350358578 -1 0 0
2527 15 58.66445012922498 0.010044260744805031 1.1314529285302461 -1 0 0
2518 16 54.72550620750339 2.3975391590092063 1.1208454138122634 -1 0 0
2524 14 57.30672794467717 2.8121201197770294 1.0922454087113471 -1 0 0
2526 4 55.987953689665424 2.6877323909964357 -0.22759346114114137 -1 0 0
2532 12 58.68191238487258 3.079995798324314 0.0036927502671314405 -1 0 0
2745 10 54.680865894117005 5.389997331961604 0.0036124730424008005 -1 0 0
2749 13 56.01757115534861 4.6034145303847955 1.298541569865335 -1 0 0
2751 2 57.36565467414331 5.379966439536271 0.015898686350361308 -1 0 0
2755 15 58.66445012922498 4.630048979172806 1.1314529285302433 -1 0 0
2516 9 54.68159181682265 0.7699980533998705 2.292609885401785 -1 0 0
2522 1 57.42592242363167 0.6041297857002357 2.3585366936229093 -1 0 0
2525 3 55.957722236560166 3.0650380412140867 2.3600833664924865 -1 0 0
2531 11 58.6824441160477 3.0800370051584918 2.2921922330529747 -1 0 0
2744 9 54.68159181682265 5.390002771827869 2.292609885401785 -1 0 0
2750 1 57.42592242363167 5.224134504128229 2.358536693622909 -1 0 0
2529 10 60.01558782980101 0.7699926135336043 0.0036124730424007996 -1 0 0
2535 2 62.700376609827316 0.7599617211082716 0.01589868635036059 -1 0 0
2539 15 63.99917206490898 0.010044260744806396 1.1314529285302442 -1 0 0
2541 10 65.35030976548498 0.7699926135336043 0.0036124730424007996 -1 0 0
2530 16 60.060228143187395 2.3975391590092063 1.1208454138122634 -1 0 0
2536 14 62.64144988036117 2.8121201197770294 1.0922454087113471 -1 0 0
2542 16 65.3949500788714 2.397539159009201 1.1208454138122574 -1 0 0
2538 4 61.322675625349426 2.6877323909964357 -0.2275934611411414 -1 0 0
2544 12 64.01663432055659 3.079995798324314 0.0036927502671314414 -1 0 0
2757 10 60.01558782980101 5.389997331961604 0.003612473042400796 -1 0 0
2761 13 61.352293091032614 4.6034145303847955 1.298541569865335 -1 0 0
2763 2 62.700376609827316 5.379966439536274 0.015898686350356933 -1 0 0
2767 15 63.99917206490898 4.630048979172803 1.1314529285302473 -1 0 0
2769 10 65.35030976548498 5.389997331961604 0.003612473042400796 -1 0 0
2528 9 60.016313752506655 0.7699980533998705 2.292609885401785 -1 0 0
2534 1 62.76064435931567 0.6041297857002357 2.3585366936229093 -1 0 0
2540 9 65.35103568819066 0.7699980533998705 2.292609885401785 -1 0 0
2537 3 61.29244417224417 3.0650380412140867 2.3600833664924865 -1 0 0
2543 11 64.01716605173172 3.0800370051584918 2.2921922330529747 -1 0 0
2756 9 60.016313752506655 5.390002771827869 2.292609885401785 -1 0 0
2762 1 62.76064435931567 5.224134504128229 2.358536693622909 -1 0 0
2768 9 65.35103568819066 5.390002771827869 2.292609885401785 -1 0 0
2547 2 68.03509854551132 0.759961721108271 0.015898686350361464 -1 0 0
2551 15 69.33389400059299 0.01004426074480698 1.1314529285302433 -1 0 0
2553 10 70.68503170116897 0.7699926135336043 0.0036124730424007974 -1 0 0
2548 14 67.97617181604518 2.8121201197770294 1.09224540871135 -1 0 0
2554 16 70.72967201455539 2.397539159009201 1.1208454138122574 -1 0 0
2550 4 66.65739756103345 2.687732390996436 -0.22759346114114332 -1 0 0
2556 12 69.35135625624059 3.079995798324314 0.0036927502671314383 -1 0 0
2773 13 66.68701502671664 4.6034145303848 1.298541569865337 -1 0 0
2775 2 68.03509854551132 5.379966439536271 0.015898686350361707 -1 0 0
2779 15 69.33389400059299 4.6300489791728054 1.1314529285302426 -1 0 0
2781 10 70.68503170116897 5.389997331961604 0.0036124730424007944 -1 0 0
2546 1 68.09536629499968 0.6041297857002323 2.358536693622904 -1 0 0
2552 9 70.68575762387465 0.7699980533998705 2.292609885401785 -1 0 0
2549 3 66.62716610792818 3.0650380412140867 2.3600833664924834 -1 0 0
2555 11 69.35188798741572 3.0800370051584918 2.2921922330529747 -1 0 0
2774 1 68.09536629499968 5.224134504128229 2.358536693622915 -1 0 0
2780 9 70.68575762387465 5.390002771827869 2.292609885401785 -1 0 0
2559 2 73.3698204811953 0.759961721108271 0.015898686350361468 -1 0 0
2563 15 74.66861593627698 0.010044260744806983 1.1314529285302433 -1 0 0
2565 10 76.01975363685297 0.7699926135336043 0.0036124730424007974 -1 0 0
2560 14 73.31089375172917 2.8121201197770294 1.09224540871135 -1 0 0
2566 16 76.06439395023939 2.397539159009201 1.1208454138122574 -1 0 0
2562 4 71.99211949671744 2.687732390996436 -0.22759346114114332 -1 0 0
2568 12 74.68607819192458 3.079995798324314 0.003692750267131437 -1 0 0
2574 4 77.32684143240144 2.687732390996436 -0.22759346114114332 -1 0 0
2785 13 72.02173696240062 4.6034145303848 1.298541569865337 -1 0 0
2787 2 73.3698204811953 5.379966439536271 0.01589868635036171 -1 0 0
2791 15 74.66861593627698 4.6300489791728054 1.1314529285302426 -1 0 0
2793 10 76.01975363685297 5.389997331961604 0.0036124730424007944 -1 0 0
2797 13 77.35645889808463 4.6034145303848 1.298541569865337 -1 0 0
2558 1 73.43008823068367 0.6041297857002323 2.358536693622904 -1 0 0
2564 9 76.02047955955865 0.7699980533998705 2.292609885401785 -1 0 0
2561 3 71.96188804361216 3.0650380412140867 2.3600833664924834 -1 0 0
2567 11 74.68660992309971 3.0800370051584918 2.2921922330529747 -1 0 0
2573 3 77.29660997929616 3.0650380412140867 2.3600833664924834 -1 0 0
2786 1 73.43008823068367 5.224134504128229 2.358536693622915 -1 0 0
2792 9 76.02047955955865 5.390002771827869 2.292609885401785 -1 0 0
2571 2 78.7045424168793 0.759961721108271 0.015898686350361468 -1 0 0
2577 10 81.35447557253697 0.7699926135336043 0.0036124730424007974 -1 0 0
2575 15 80.00333787196098 0.010044260744806983 1.1314529285302433 -1 0 0
2572 14 78.64561568741317 2.8121201197770294 1.09224540871135 -1 0 0
2578 16 81.3991158859234 2.397539159009201 1.1208454138122574 -1 0 0
2580 12 80.02080012760858 3.079995798324314 0.0036927502671314383 -1 0 0
2586 4 82.66156336808544 2.687732390996436 -0.22759346114114332 -1 0 0
2799 2 78.7045424168793 5.379966439536271 0.01589868635036171 -1 0 0
2805 10 81.35447557253697 5.389997331961604 0.0036124730424007944 -1 0 0
2803 15 80.00333787196098 4.6300489791728054 1.1314529285302426 -1 0 0
2809 13 82.69118083376863 4.6034145303848 1.298541569865337 -1 0 0
2570 1 78.76481016636767 0.6041297857002323 2.358536693622904 -1 0 0
2576 9 81.35520149524265 0.7699980533998705 2.292609885401785 -1 0 0
2579 11 80.02133185878371 3.0800370051584918 2.2921922330529747 -1 0 0
2585 3 82.63133191498017 3.0650380412140867 2.3600833664924834 -1 0 0
2798 1 78.76481016636767 5.224134504128229 2.358536693622915 -1 0 0
2804 9 81.35520149524265 5.390002771827869 2.292609885401785 -1 0 0
2583 2 84.03926435256331 0.759961721108271 0.015898686350361468 -1 0 0
2587 15 85.33805980764498 0.010044260744806983 1.1314529285302433 -1 0 0
2589 10 86.68919750822097 0.7699926135336043 0.0036124730424007974 -1 0 0
2595 2 89.37398628824731 0.759961721108271 0.015898686350361468 -1 0 0
2584 14 83.98033762309717 2.8121201197770294 1.09224540871135 -1 0 0
2590 16 86.7338378216074 2.397539159009201 1.1208454138122574 -1 0 0
2596 14 89.31505955878117 2.8121201197770294 1.09224540871135 -1 0 0
2592 12 85.35552206329258 3.079995798324314 0.0036927502671314383 -1 0 0
2598 4 87.99628530376944 2.687732390996436 -0.22759346114114332 -1 0 0
2811 2 84.03926435256331 5.379966439536271 0.01589868635036171 -1 0 0
2815 15 85.33805980764498 4.6300489791728054 1.1314529285302426 -1 0 0
2817 10 86.68919750822097 5.389997331961604 0.0036124730424007944 -1 0 0
2821 13 88.02590276945263 4.6034145303848 1.298541569865337 -1 0 0
2823 2 89.37398628824731 5.379966439536271 0.01589868635036171 -1 0 0
2582 1 84.09953210205167 0.6041297857002323 2.358536693622904 -1 0 0
2588 9 86.68992343092665 0.7699980533998705 2.292609885401785 -1 0 0
2594 1 89.43425403773567 0.6041297857002323 2.358536693622904 -1 0 0
2591 11 85.35605379446771 3.0800370051584918 2.2921922330529747 -1 0 0
2597 3 87.96605385066417 3.0650380412140867 2.3600833664924834 -1 0 0
2810 1 84.09953210205167 5.224134504128229 2.358536693622915 -1 0 0
2816 9 86.68992343092665 5.390002771827869 2.292609885401785 -1 0 0
2822 1 89.43425403773567 5.224134504128229 2.358536693622915 -1 0 0
2599 15 90.67278174332898 0.010044260744806983 1.1314529285302433 -1 0 0
2601 10 92.02391944390497 0.7699926135336043 0.003612473042400797 -1 0 0
2607 2 94.70870822393131 0.759961721108271 0.015898686350361468 -1 0 0
2602 16 92.0685597572914 2.397539159009201 1.1208454138122574 -1 0 0
2608 14 94.64978149446517 2.8121201197770294 1.09224540871135 -1 0 0
2604 12 90.69024399897658 3.079995798324314 0.0036927502671314383 -1 0 0
2610 4 93.33100723945344 2.687732390996436 -0.22759346114114332 -1 0 0
2827 15 90.67278174332898 4.6300489791728054 1.1314529285302426 -1 0 0
2829 10 92.02391944390497 5.389997331961604 0.0036124730424007944 -1 0 0
2833 13 93.36062470513663 4.6034145303848 1.298541569865337 -1 0 0
2835 2 94.70870822393131 5.379966439536271 0.01589868635036171 -1 0 0
2600 9 92.02464536661066 0.7699980533998705 2.292609885401785 -1 0 0
2606 1 94.76897597341967 0.6041297857002323 2.358536693622904 -1 0 0
2603 11 90.69077573015171 3.0800370051584918 2.2921922330529747 -1 0 0
2609 3 93.30077578634817 3.0650380412140867 2.3600833664924834 -1 0 0
2828 9 92.02464536661066 5.390002771827869 2.292609885401785 -1 0 0
2834 1 94.76897597341967 5.224134504128229 2.358536693622915 -1 0 0
2623 15 101.34222561469699 0.010044260744806908 1.131452928530243 -1 0 0
2628 12 101.35968787034459 3.079995798324314 0.0036927502671314366 -1 0 0
2851 15 101.34222561469699 4.6300489791728054 1.1314529285302426 -1 0 0
2611 15 96.00750367901298 0.010044260744806984 1.1314529285302433 -1 0 0
2613 10 97.35864137958897 0.7699926135336043 0.003612473042400797 -1 0 0
2619 2 100.04343015961531 0.7599617211082712 0.015898686350361343 -1 0 0
2614 16 97.4032816929754 2.397539159009201 1.1208454138122574 -1 0 0
2620 14 99.98450343014918 2.8121201197770294 1.09224540871135 -1 0 0
2616 12 96.02496593466059 3.079995798324314 0.003692750267131438 -1 0 0
2622 4 98.66572917513744 2.687732390996436 -0.22759346114114332 -1 0 0
2839 15 96.00750367901298 4.6300489791728054 1.1314529285302426 -1 0 0
2841 10 97.35864137958897 5.389997331961604 0.0036124730424007944 -1 0 0
2845 13 98.69534664082063 4.6034145303848 1.298541569865337 -1 0 0
2847 2 100.04343015961531 5.379966439536271 0.01589868635036171 -1 0 0
2612 9 97.35936730229466 0.7699980533998705 2.292609885401785 -1 0 0
2618 1 100.10369790910367 0.6041297857002323 2.358536693622904 -1 0 0
2615 11 96.02549766583572 3.0800370051584918 2.2921922330529747 -1 0 0
2621 3 98.63549772203217 3.0650380412140867 2.3600833664924834 -1 0 0
2840 9 97.35936730229466 5.390002771827869 2.292609885401785 -1 0 0
2846 1 100.10369790910367 5.224134504128229 2.358536693622915 -1 0 0
2854 16 1.3782868506633912 7.0175438774372045 1.1208454138122614 0 0 0
2860 14 3.9595085878371705 7.432124838205031 1.0922454087113478 0 0 0
2862 4 2.640734332825425 7.307737109424436 -0.22759346114114243 0 0 0
2868 12 5.334693028032575 7.700000516752312 0.003692750267131436 0 0 0
3081 10 1.333646537277011 10.010002050389605 0.0036124730424007922 0 0 0
3085 13 2.670351798508611 9.223419248812794 1.2985415698653349 0 0 0
3087 2 4.018435317303313 9.99997115796427 0.015898686350361256 0 0 0
3091 15 5.317230772384984 9.250053697600805 1.131452928530243 0 0 0
3082 16 1.3782868506633916 11.637548595865205 1.1208454138122605 0 0 0
2855 11 0.0005028235236969934 7.700041723586493 2.2921922330529747 0 0 0
2861 3 2.61050287972016 7.685042759642085 2.3600833664924865 0 0 0
2867 11 5.335224759207699 7.700041723586493 2.2921922330529747 0 0 0
3080 9 1.3343724599826552 10.01000749025587 2.292609885401785 0 0 0
3086 1 4.078703066791664 9.84413922255623 2.358536693622911 0 0 0
3090 4 2.640734332825427 11.927741827852437 -0.2275934611411417 0 0 0
2866 16 6.713008786347393 7.0175438774372045 1.1208454138122619 0 0 0
2872 14 9.294230523521172 7.43212483820503 1.0922454087113482 0 0 0
2874 4 7.9754562685094275 7.307737109424435 -0.22759346114114204 0 0 0
2880 12 10.66941496371658 7.700000516752312 0.0036927502671314375 0 0 0
3093 10 6.668368472961013 10.010002050389605 0.003612473042400793 0 0 0
3097 13 8.005073734192614 9.223419248812794 1.2985415698653342 0 0 0
3099 2 9.353157252987312 9.99997115796427 0.015898686350360555 0 0 0
3103 15 10.651952708068984 9.250053697600807 1.131452928530244 0 0 0
3094 16 6.713008786347395 11.637548595865203 1.1208454138122612 0 0 0
2873 3 7.9452248154041625 7.685042759642085 2.360083366492486 0 0 0
2879 11 10.6699466948917 7.700041723586493 2.2921922330529747 0 0 0
3092 9 6.669094395666657 10.01000749025587 2.292609885401785 0 0 0
3098 1 9.413425002475666 9.844139222556231 2.358536693622911 0 0 0
3102 4 7.975456268509428 11.927741827852438 -0.22759346114114157 0 0 0
2878 16 12.047730722031394 7.017543877437204 1.1208454138122623 0 0 0
2884 14 14.628952459205173 7.432124838205031 1.0922454087113478 0 0 0
2890 16 17.382452657715394 7.0175438774372045 1.1208454138122617 0 0 0
2886 4 13.310178204193429 7.307737109424434 -0.22759346114114223 0 0 0
2892 12 16.004136899400578 7.700000516752312 0.0036927502671314375 0 0 0
3105 10 12.003090408645017 10.010002050389605 0.003612473042400793 0 0 0
3109 13 13.339795669876612 9.223419248812794 1.2985415698653349 0 0 0
3111 2 14.687879188671314 9.99997115796427 0.015898686350360555 0 0 0
3115 15 15.986674643752986 9.250053697600807 1.131452928530244 0 0 0
3117 10 17.337812344329013 10.010002050389605 0.003612473042400794 0 0 0
3106 16 12.047730722031396 11.637548595865203 1.1208454138122619 0 0 0
3118 16 17.382452657715394 11.637548595865205 1.1208454138122625 0 0 0
2885 3 13.279946751088163 7.685042759642085 2.3600833664924865 0 0 0
2891 11 16.004668630575697 7.700041723586493 2.2921922330529747 0 0 0
3104 9 12.003816331350656 10.01000749025587 2.292609885401785 0 0 0
3110 1 14.748146938159664 9.844139222556231 2.358536693622911 0 0 0
3116 9 17.338538267034657 10.01000749025587 2.292609885401785 0 0 0
3114 4 13.310178204193429 11.927741827852437 -0.22759346114114118 0 0 0
2896 14 19.963674394889175 7.43212483820503 1.092245408711347 0 0 0
2902 16 22.717174593399395 7.0175438774372045 1.1208454138122617 0 0 0
2898 4 18.64490013987743 7.307737109424435 -0.2275934611411428 0 0 0
2904 12 21.33885883508458 7.700000516752312 0.003692750267131439 0 0 0
3121 13 18.674517605560617 9.223419248812796 1.2985415698653342 0 0 0
3123 2 20.02260112435532 9.99997115796427 0.015898686350360326 0 0 0
3127 15 21.321396579436986 9.250053697600805 1.1314529285302444 0 0 0
3129 10 22.672534280013014 10.010002050389605 0.0036124730424007966 0 0 0
3130 16 22.717174593399395 11.637548595865205 1.1208454138122625 0 0 0
2897 3 18.614668686772163 7.685042759642086 2.360083366492485 0 0 0
2903 11 21.3393905662597 7.700041723586493 2.2921922330529747 0 0 0
3122 1 20.08286887384367 9.844139222556231 2.3585366936229137 0 0 0
3128 9 22.67326020271866 10.01000749025587 2.292609885401785 0 0 0
3126 4 18.64490013987743 11.927741827852438 -0.22759346114114137 0 0 0
2908 14 25.298396330573176 7.43212483820503 1.092245408711347 0 0 0
2914 16 28.051896529083386 7.017543877437203 1.1208454138122603 0 0 0
2910 4 23.97962207556143 7.307737109424435 -0.2275934611411428 0 0 0
2916 12 26.67358077076858 7.700000516752312 0.003692750267131439 0 0 0
2922 4 29.31434401124542 7.307737109424439 -0.2275934611411423 0 0 0
3133 13 24.009239541244618 9.223419248812796 1.2985415698653342 0 0 0
3135 2 25.35732306003932 9.99997115796427 0.015898686350360326 0 0 0
3139 15 26.656118515120987 9.250053697600805 1.1314529285302444 0 0 0
3141 10 28.007256215697016 10.010002050389605 0.0036124730424007953 0 0 0
3145 13 29.3439614769286 9.223419248812794 1.2985415698653349 0 0 0
3142 16 28.05189652908339 11.637548595865201 1.12084541381226 0 0 0
2909 3 23.949390622456164 7.685042759642086 2.360083366492485 0 0 0
2915 11 26.6741125019437 7.700041723586493 2.2921922330529747 0 0 0
2921 3 29.28411255814015 7.685042759642085 2.360083366492486 0 0 0
3134 1 25.41759080952767 9.844139222556231 2.3585366936229137 0 0 0
3140 9 28.00798213840266 10.01000749025587 2.292609885401785 0 0 0
3138 4 23.97962207556143 11.927741827852438 -0.22759346114114137 0 0 0
3150 4 29.314344011245424 11.927741827852438 -0.22759346114114196 0 0 0
2920 14 30.633118266257163 7.4321248382050324 1.0922454087113498 0 0 0
2926 16 33.38661846476739 7.017543877437205 1.1208454138122634 0 0 0
2928 12 32.008302706452575 7.700000516752312 0.003692750267131439 0 0 0
2934 4 34.649065946929426 7.307737109424435 -0.22759346114114118 0 0 0
3147 2 30.692044995723307 9.99997115796427 0.01589868635036033 0 0 0
3151 15 31.990840450804974 9.250053697600805 1.1314529285302444 0 0 0
3153 10 33.341978151381 10.010002050389605 0.0036124730424007953 0 0 0
3157 13 34.67868341261261 9.223419248812794 1.298541569865336 0 0 0
3154 16 33.38661846476739 11.637548595865203 1.120845413812264 0 0 0
2927 11 32.00883443762769 7.700041723586493 2.2921922330529747 0 0 0
2933 3 34.61883449382416 7.685042759642085 2.360083366492487 0 0 0
3146 1 30.752312745211654 9.84413922255623 2.358536693622912 0 0 0
3152 9 33.34270407408665 10.01000749025587 2.292609885401785 0 0 0
3162 4 34.64906594692942 11.927741827852437 -0.22759346114114037 0 0 0
2932 14 35.967840201941165 7.432124838205031 1.0922454087113471 0 0 0
2938 16 38.72134040045139 7.017543877437205 1.1208454138122634 0 0 0
2944 14 41.302562137625166 7.432124838205031 1.0922454087113471 0 0 0
2940 12 37.34302464213658 7.700000516752312 0.0036927502671314375 0 0 0