LAMMPS data file via write_data, version 29 Aug 2024, timestep = 0, units = metal

5016 atoms
12 atom types

0 101.359716777996 xlo xhi
0 101.640103805416 ylo yhi
0 17.239875437147 zlo zhi

Masses

1 15.999
2 15.999
3 15.999
4 54.938044
5 15.999
6 15.999
7 15.999
8 15.999
9 54.938045
10 54.938045
11 54.938045
12 15.999

Atoms # atomic

2625 6 1.3336804839210004 0.7700007864049994 0 0 0 0
2623 11 0 0 1.136919986613 0 0 0
2629 9 2.6673609678420007 0 1.136919986613 0 0 0
2631 2 4.001041451763001 0.7700007864049994 0 0 0 0
2635 11 5.334721935684001 0 1.136919986613 0 0 0
2637 6 6.668402419605002 0.7700007864049994 0 0 0 0
2641 9 8.002082903526002 0 1.136919986613 0 0 0
2643 2 9.335763387447003 0.7700007864049994 0 0 0 0
2647 11 10.669443871368003 0 1.136919986613 0 0 0
2649 6 12.003124355289003 0.7700007864049994 0 0 0 0
2653 9 13.336804839210004 0 1.136919986613 0 0 0
2655 2 14.670485323131004 0.7700007864049994 0 0 0 0
2659 11 16.004165807052004 0 1.136919986613 0 0 0
2661 6 17.337846290973005 0.7700007864049994 0 0 0 0
2665 9 18.671526774894005 0 1.136919986613 0 0 0
2667 2 20.005207258815005 0.7700007864049994 0 0 0 0
2671 11 21.338887742736006 0 1.136919986613 0 0 0
2673 6 22.672568226657006 0.7700007864049994 0 0 0 0
2677 9 24.006248710578006 0 1.136919986613 0 0 0
2679 2 25.339929194499007 0.7700007864049994 0 0 0 0
2683 11 26.673609678420007 0 1.136919986613 0 0 0
2685 6 28.007290162341008 0.7700007864049994 0 0 0 0
2689 9 29.340970646261994 0 1.136919986613 0 0 0
2691 2 30.674651130182994 0.7700007864049994 0 0 0 0
2695 11 32.008331614103994 0 1.136919986613 0 0 0
2697 6 33.342012098024995 0.7700007864049994 0 0 0 0
2701 9 34.675692581945995 0 1.136919986613 0 0 0
2703 2 36.009373065866995 0.7700007864049994 0 0 0 0
2707 11 37.343053549787996 0 1.136919986613 0 0 0
2709 6 38.676734033708996 0.7700007864049994 0 0 0 0
2715 2 41.344095001551 0.7700007864049994 0 0 0 0
2713 9 40.01041451763 0 1.136919986613 0 0 0
2719 11 42.677775485472 0 1.136919986613 0 0 0
2721 6 44.011455969393 0.7700007864049994 0 0 0 0
2725 9 45.345136453314 0 1.136919986613 0 0 0
2727 2 46.678816937235 0.7700007864049994 0 0 0 0
2731 11 48.012497421156 0 1.136919986613 0 0 0
2733 6 49.346177905077 0.7700007864049994 0 0 0 0
2509 9 50.679858388998 0 1.136919986613 -1 0 0
2511 2 52.013538872919 0.7700007864049994 0 -1 0 0
2515 11 53.34721935684 0 1.136919986613 -1 0 0
2517 6 54.680899840761 0.7700007864049994 0 -1 0 0
2521 9 56.014580324682 0 1.136919986613 -1 0 0
2523 2 57.348260808603 0.7700007864049994 0 -1 0 0
2527 11 58.681941292524 0 1.136919986613 -1 0 0
2529 6 60.015621776445 0.7700007864049994 0 -1 0 0
2533 9 61.349302260366 0 1.136919986613 -1 0 0
2535 2 62.682982744287 0.7700007864049994 0 -1 0 0
2539 11 64.016663228208 0 1.136919986613 -1 0 0
2541 6 65.350343712129 0.7700007864049994 0 -1 0 0
2545 9 66.68402419605 0 1.136919986613 -1 0 0
2547 2 68.017704679971 0.7700007864049994 0 -1 0 0
2551 11 69.351385163892 0 1.136919986613 -1 0 0
2553 6 70.68506564781299 0.7700007864049994 0 -1 0 0
2557 9 72.01874613173399 0 1.136919986613 -1 0 0
2559 2 73.35242661565499 0.7700007864049994 0 -1 0 0
2563 11 74.68610709957599 0 1.136919986613 -1 0 0
2565 6 76.01978758349699 0.7700007864049994 0 -1 0 0
2569 9 77.35346806741799 0 1.136919986613 -1 0 0
2571 2 78.68714855133899 0.7700007864049994 0 -1 0 0
2577 6 81.354509519181 0.7700007864049994 0 -1 0 0
2575 11 80.02082903526 0 1.136919986613 -1 0 0
2581 9 82.688190003102 0 1.136919986613 -1 0 0
2583 2 84.021870487023 0.7700007864049994 0 -1 0 0
2587 11 85.355550970944 0 1.136919986613 -1 0 0
2589 6 86.689231454865 0.7700007864049994 0 -1 0 0
2593 9 88.022911938786 0 1.136919986613 -1 0 0
2595 2 89.356592422707 0.7700007864049994 0 -1 0 0
2599 11 90.690272906628 0 1.136919986613 -1 0 0
2601 6 92.023953390549 0.7700007864049994 0 -1 0 0
2605 9 93.35763387447 0 1.136919986613 -1 0 0
2607 2 94.691314358391 0.7700007864049994 0 -1 0 0
2611 11 96.024994842312 0 1.136919986613 -1 0 0
2613 6 97.358675326233 0.7700007864049994 0 -1 0 0
2617 9 98.692355810154 0 1.136919986613 -1 0 0
2619 2 100.026036294075 0.7700007864049994 0 -1 0 0
2626 12 1.3336804839210004 2.310002359213996 1.136919986613 0 0 0
2632 10 4.001041451763001 2.310002359213996 1.136919986613 0 0 0
2638 12 6.668402419605002 2.310002359213996 1.136919986613 0 0 0
2644 10 9.335763387447003 2.310002359213996 1.136919986613 0 0 0
2650 12 12.003124355289003 2.310002359213996 1.136919986613 0 0 0
2656 10 14.670485323131004 2.310002359213996 1.136919986613 0 0 0
2662 12 17.337846290973005 2.310002359213996 1.136919986613 0 0 0
2668 10 20.005207258815005 2.310002359213996 1.136919986613 0 0 0
2674 12 22.672568226657006 2.310002359213996 1.136919986613 0 0 0
2680 10 25.339929194499007 2.310002359213996 1.136919986613 0 0 0
2686 12 28.007290162341008 2.310002359213996 1.136919986613 0 0 0
2692 10 30.674651130182994 2.310002359213996 1.136919986613 0 0 0
2698 12 33.342012098024995 2.310002359213996 1.136919986613 0 0 0
2704 10 36.009373065866995 2.310002359213996 1.136919986613 0 0 0
2710 12 38.676734033708996 2.310002359213996 1.136919986613 0 0 0
2716 10 41.344095001551 2.310002359213996 1.136919986613 0 0 0
2722 12 44.011455969393 2.310002359213996 1.136919986613 0 0 0
2728 10 46.678816937235 2.310002359213996 1.136919986613 0 0 0
2734 12 49.346177905077 2.310002359213996 1.136919986613 0 0 0
2512 10 52.013538872919 2.310002359213996 1.136919986613 -1 0 0
2518 12 54.680899840761 2.310002359213996 1.136919986613 -1 0 0
2524 10 57.348260808603 2.310002359213996 1.136919986613 -1 0 0
2530 12 60.015621776445 2.310002359213996 1.136919986613 -1 0 0
2536 10 62.682982744287 2.310002359213996 1.136919986613 -1 0 0
2542 12 65.350343712129 2.310002359213996 1.136919986613 -1 0 0
2548 10 68.017704679971 2.310002359213996 1.136919986613 -1 0 0
2554 12 70.68506564781299 2.310002359213996 1.136919986613 -1 0 0
2560 10 73.35242661565499 2.310002359213996 1.136919986613 -1 0 0
2566 12 76.01978758349699 2.310002359213996 1.136919986613 -1 0 0
2572 10 78.68714855133899 2.310002359213996 1.136919986613 -1 0 0
2578 12 81.354509519181 2.310002359213996 1.136919986613 -1 0 0
2584 10 84.021870487023 2.310002359213996 1.136919986613 -1 0 0
2590 12 86.689231454865 2.310002359213996 1.136919986613 -1 0 0
2596 10 89.356592422707 2.310002359213996 1.136919986613 -1 0 0
2602 12 92.023953390549 2.310002359213996 1.136919986613 -1 0 0
2608 10 94.691314358391 2.310002359213996 1.136919986613 -1 0 0
2614 12 97.358675326233 2.310002359213996 1.136919986613 -1 0 0
2620 10 100.026036294075 2.310002359213996 1.136919986613 -1 0 0
2628 8 0 3.0800031456189956 0 0 0 0
2634 4 2.6673609678420007 3.0800031456189956 0 0 0 0
2640 8 5.334721935684001 3.0800031456189956 0 0 0 0
2646 4 8.002082903526002 3.0800031456189956 0 0 0 0
2652 8 10.669443871368003 3.0800031456189956 0 0 0 0
2658 4 13.336804839210004 3.0800031456189956 0 0 0 0
2664 8 16.004165807052004 3.0800031456189956 0 0 0 0
2670 4 18.671526774894005 3.0800031456189956 0 0 0 0
2676 8 21.338887742736006 3.0800031456189956 0 0 0 0
2682 4 24.006248710578006 3.0800031456189956 0 0 0 0
2688 8 26.673609678420007 3.0800031456189956 0 0 0 0
2694 4 29.340970646261994 3.0800031456189956 0 0 0 0
2700 8 32.008331614103994 3.0800031456189956 0 0 0 0
2706 4 34.675692581945995 3.0800031456189956 0 0 0 0
2712 8 37.343053549787996 3.0800031456189956 0 0 0 0
2718 4 40.01041451763 3.0800031456189956 0 0 0 0
2724 8 42.677775485472 3.0800031456189956 0 0 0 0
2730 4 45.345136453314 3.0800031456189956 0 0 0 0
2736 8 48.012497421156 3.0800031456189956 0 0 0 0
2514 4 50.679858388998 3.0800031456189956 0 -1 0 0
2520 8 53.34721935684 3.0800031456189956 0 -1 0 0
2526 4 56.014580324682 3.0800031456189956 0 -1 0 0
2532 8 58.681941292524 3.0800031456189956 0 -1 0 0
2538 4 61.349302260366 3.0800031456189956 0 -1 0 0
2544 8 64.016663228208 3.0800031456189956 0 -1 0 0
2550 4 66.68402419605 3.0800031456189956 0 -1 0 0
2556 8 69.351385163892 3.0800031456189956 0 -1 0 0
2562 4 72.01874613173399 3.0800031456189956 0 -1 0 0
2568 8 74.68610709957599 3.0800031456189956 0 -1 0 0
2574 4 77.35346806741799 3.0800031456189956 0 -1 0 0
2580 8 80.02082903526 3.0800031456189956 0 -1 0 0
2586 4 82.688190003102 3.0800031456189956 0 -1 0 0
2592 8 85.355550970944 3.0800031456189956 0 -1 0 0
2598 4 88.022911938786 3.0800031456189956 0 -1 0 0
2604 8 90.690272906628 3.0800031456189956 0 -1 0 0
2610 4 93.35763387447 3.0800031456189956 0 -1 0 0
2616 8 96.024994842312 3.0800031456189956 0 -1 0 0
2622 4 98.692355810154 3.0800031456189956 0 -1 0 0
2853 6 1.3336804839210004 5.390005504832999 0 0 0 0
2851 11 0 4.6200047184279995 1.136919986613 0 0 0
2857 9 2.6673609678420007 4.6200047184279995 1.136919986613 0 0 0
2859 2 4.001041451763001 5.390005504832999 0 0 0 0
2863 11 5.334721935684001 4.6200047184279995 1.136919986613 0 0 0
2865 6 6.668402419605002 5.390005504832999 0 0 0 0
2869 9 8.002082903526002 4.6200047184279995 1.136919986613 0 0 0
2871 2 9.335763387447003 5.390005504832999 0 0 0 0
2875 11 10.669443871368003 4.6200047184279995 1.136919986613 0 0 0
2877 6 12.003124355289003 5.390005504832999 0 0 0 0
2881 9 13.336804839210004 4.6200047184279995 1.136919986613 0 0 0
2883 2 14.670485323131004 5.390005504832999 0 0 0 0
2887 11 16.004165807052004 4.6200047184279995 1.136919986613 0 0 0
2889 6 17.337846290973005 5.390005504832999 0 0 0 0
2893 9 18.671526774894005 4.6200047184279995 1.136919986613 0 0 0
2895 2 20.005207258815005 5.390005504832999 0 0 0 0
2899 11 21.338887742736006 4.6200047184279995 1.136919986613 0 0 0
2901 6 22.672568226657006 5.390005504832999 0 0 0 0
2905 9 24.006248710578006 4.6200047184279995 1.136919986613 0 0 0
2907 2 25.339929194499007 5.390005504832999 0 0 0 0
2911 11 26.673609678420007 4.6200047184279995 1.136919986613 0 0 0
2913 6 28.007290162341008 5.390005504832999 0 0 0 0
2917 9 29.340970646261994 4.6200047184279995 1.136919986613 0 0 0
2919 2 30.674651130182994 5.390005504832999 0 0 0 0
2923 11 32.008331614103994 4.6200047184279995 1.136919986613 0 0 0
2925 6 33.342012098024995 5.390005504832999 0 0 0 0
2929 9 34.675692581945995 4.6200047184279995 1.136919986613 0 0 0
2931 2 36.009373065866995 5.390005504832999 0 0 0 0
2935 11 37.343053549787996 4.6200047184279995 1.136919986613 0 0 0
2937 6 38.676734033708996 5.390005504832999 0 0 0 0
2943 2 41.344095001551 5.390005504832999 0 0 0 0
2941 9 40.01041451763 4.6200047184279995 1.136919986613 0 0 0
2947 11 42.677775485472 4.6200047184279995 1.136919986613 0 0 0
2949 6 44.011455969393 5.390005504832999 0 0 0 0
2953 9 45.345136453314 4.6200047184279995 1.136919986613 0 0 0
2955 2 46.678816937235 5.390005504832999 0 0 0 0
2959 11 48.012497421156 4.6200047184279995 1.136919986613 0 0 0
2961 6 49.346177905077 5.390005504832999 0 0 0 0
2737 9 50.679858388998 4.6200047184279995 1.136919986613 -1 0 0
2739 2 52.013538872919 5.390005504832999 0 -1 0 0
2743 11 53.34721935684 4.6200047184279995 1.136919986613 -1 0 0
2745 6 54.680899840761 5.390005504832999 0 -1 0 0
2749 9 56.014580324682 4.6200047184279995 1.136919986613 -1 0 0
2751 2 57.348260808603 5.390005504832999 0 -1 0 0
2755 11 58.681941292524 4.6200047184279995 1.136919986613 -1 0 0
2757 6 60.015621776445 5.390005504832999 0 -1 0 0
2761 9 61.349302260366 4.6200047184279995 1.136919986613 -1 0 0
2763 2 62.682982744287 5.390005504832999 0 -1 0 0
2767 11 64.016663228208 4.6200047184279995 1.136919986613 -1 0 0
2769 6 65.350343712129 5.390005504832999 0 -1 0 0
2773 9 66.68402419605 4.6200047184279995 1.136919986613 -1 0 0
2775 2 68.017704679971 5.390005504832999 0 -1 0 0
2779 11 69.351385163892 4.6200047184279995 1.136919986613 -1 0 0
2781 6 70.68506564781299 5.390005504832999 0 -1 0 0
2785 9 72.01874613173399 4.6200047184279995 1.136919986613 -1 0 0
2787 2 73.35242661565499 5.390005504832999 0 -1 0 0
2791 11 74.68610709957599 4.6200047184279995 1.136919986613 -1 0 0
2793 6 76.01978758349699 5.390005504832999 0 -1 0 0
2797 9 77.35346806741799 4.6200047184279995 1.136919986613 -1 0 0
2799 2 78.68714855133899 5.390005504832999 0 -1 0 0
2805 6 81.354509519181 5.390005504832999 0 -1 0 0
2803 11 80.02082903526 4.6200047184279995 1.136919986613 -1 0 0
2809 9 82.688190003102 4.6200047184279995 1.136919986613 -1 0 0
2811 2 84.021870487023 5.390005504832999 0 -1 0 0
2815 11 85.355550970944 4.6200047184279995 1.136919986613 -1 0 0
2817 6 86.689231454865 5.390005504832999 0 -1 0 0
2821 9 88.022911938786 4.6200047184279995 1.136919986613 -1 0 0
2823 2 89.356592422707 5.390005504832999 0 -1 0 0
2827 11 90.690272906628 4.6200047184279995 1.136919986613 -1 0 0
2829 6 92.023953390549 5.390005504832999 0 -1 0 0
2833 9 93.35763387447 4.6200047184279995 1.136919986613 -1 0 0
2835 2 94.691314358391 5.390005504832999 0 -1 0 0
2839 11 96.024994842312 4.6200047184279995 1.136919986613 -1 0 0
2841 6 97.358675326233 5.390005504832999 0 -1 0 0
2845 9 98.692355810154 4.6200047184279995 1.136919986613 -1 0 0
2847 2 100.026036294075 5.390005504832999 0 -1 0 0
2854 12 1.3336804839210004 6.930007077641996 1.136919986613 0 0 0
2860 10 4.001041451763001 6.930007077641996 1.136919986613 0 0 0
2866 12 6.668402419605002 6.930007077641996 1.136919986613 0 0 0
2872 10 9.335763387447003 6.930007077641996 1.136919986613 0 0 0
2878 12 12.003124355289003 6.930007077641996 1.136919986613 0 0 0
2884 10 14.670485323131004 6.930007077641996 1.136919986613 0 0 0
2890 12 17.337846290973005 6.930007077641996 1.136919986613 0 0 0
2896 10 20.005207258815005 6.930007077641996 1.136919986613 0 0 0
2902 12 22.672568226657006 6.930007077641996 1.136919986613 0 0 0
2908 10 25.339929194499007 6.930007077641996 1.136919986613 0 0 0
2914 12 28.007290162341008 6.930007077641996 1.136919986613 0 0 0
2920 10 30.674651130182994 6.930007077641996 1.136919986613 0 0 0
2926 12 33.342012098024995 6.930007077641996 1.136919986613 0 0 0
2932 10 36.009373065866995 6.930007077641996 1.136919986613 0 0 0
2938 12 38.676734033708996 6.930007077641996 1.136919986613 0 0 0
2944 10 41.344095001551 6.930007077641996 1.136919986613 0 0 0
2950 12 44.011455969393 6.930007077641996 1.136919986613 0 0 0
2956 10 46.678816937235 6.930007077641996 1.136919986613 0 0 0
2962 12 49.346177905077 6.930007077641996 1.136919986613 0 0 0
2740 10 52.013538872919 6.930007077641996 1.136919986613 -1 0 0
2746 12 54.680899840761 6.930007077641996 1.136919986613 -1 0 0
2752 10 57.348260808603 6.930007077641996 1.136919986613 -1 0 0
2758 12 60.015621776445 6.930007077641996 1.136919986613 -1 0 0
2764 10 62.682982744287 6.930007077641996 1.136919986613 -1 0 0
2770 12 65.350343712129 6.930007077641996 1.136919986613 -1 0 0
2776 10 68.017704679971 6.930007077641996 1.136919986613 -1 0 0
2782 12 70.68506564781299 6.930007077641996 1.136919986613 -1 0 0
2788 10 73.35242661565499 6.930007077641996 1.136919986613 -1 0 0
2794 12 76.01978758349699 6.930007077641996 1.136919986613 -1 0 0
2800 10 78.68714855133899 6.930007077641996 1.136919986613 -1 0 0
2806 12 81.354509519181 6.930007077641996 1.136919986613 -1 0 0
2812 10 84.021870487023 6.930007077641996 1.136919986613 -1 0 0
2818 12 86.689231454865 6.930007077641996 1.136919986613 -1 0 0
2824 10 89.356592422707 6.930007077641996 1.136919986613 -1 0 0
2830 12 92.023953390549 6.930007077641996 1.136919986613 -1 0 0
2836 10 94.691314358391 6.930007077641996 1.136919986613 -1 0 0
2842 12 97.358675326233 6.930007077641996 1.136919986613 -1 0 0
2848 10 100.026036294075 6.930007077641996 1.136919986613 -1 0 0
2856 8 0 7.700007864046995 0 0 0 0
2862 4 2.6673609678420007 7.700007864046995 0 0 0 0
2868 8 5.334721935684001 7.700007864046995 0 0 0 0
2874 4 8.002082903526002 7.700007864046995 0 0 0 0
2880 8 10.669443871368003 7.700007864046995 0 0 0 0
2886 4 13.336804839210004 7.700007864046995 0 0 0 0
2892 8 16.004165807052004 7.700007864046995 0 0 0 0
2898 4 18.671526774894005 7.700007864046995 0 0 0 0
2904 8 21.338887742736006 7.700007864046995 0 0 0 0
2910 4 24.006248710578006 7.700007864046995 0 0 0 0
2916 8 26.673609678420007 7.700007864046995 0 0 0 0
2922 4 29.340970646261994 7.700007864046995 0 0 0 0
2928 8 32.008331614103994 7.700007864046995 0 0 0 0
2934 4 34.675692581945995 7.700007864046995 0 0 0 0
2940 8 37.343053549787996 7.700007864046995 0 0 0 0
2946 4 40.01041451763 7.700007864046995 0 0 0 0
2952 8 42.677775485472 7.700007864046995 0 0 0 0
2958 4 45.345136453314 7.700007864046995 0 0 0 0
2964 8 48.012497421156 7.700007864046995 0 0 0 0
2742 4 50.679858388998 7.700007864046995 0 -1 0 0
2748 8 53.34721935684 7.700007864046995 0 -1 0 0
2754 4 56.014580324682 7.700007864046995 0 -1 0 0
2760 8 58.681941292524 7.700007864046995 0 -1 0 0
2766 4 61.349302260366 7.700007864046995 0 -1 0 0
2772 8 64.016663228208 7.700007864046995 0 -1 0 0
2778 4 66.68402419605 7.700007864046995 0 -1 0 0
2784 8 69.351385163892 7.700007864046995 0 -1 0 0
2790 4 72.01874613173399 7.700007864046995 0 -1 0 0
2796 8 74.68610709957599 7.700007864046995 0 -1 0 0
2802 4 77.35346806741799 7.700007864046995 0 -1 0 0
2808 8 80.02082903526 7.700007864046995 0 -1 0 0
2814 4 82.688190003102 7.700007864046995 0 -1 0 0
2820 8 85.355550970944 7.700007864046995 0 -1 0 0
2826 4 88.022911938786 7.700007864046995 0 -1 0 0
2832 8 90.690272906628 7.700007864046995 0 -1 0 0
2838 4 93.35763387447 7.700007864046995 0 -1 0 0
2844 8 96.024994842312 7.700007864046995 0 -1 0 0
2850 4 98.692355810154 7.700007864046995 0 -1 0 0
3081 6 1.3336804839210004 10.010010223260998 0 0 0 0
3079 11 0 9.240009436855999 1.136919986613 0 0 0
3085 9 2.6673609678420007 9.240009436855999 1.136919986613 0 0 0
3087 2 4.001041451763001 10.010010223260998 0 0 0 0
3091 11 5.334721935684001 9.240009436855999 1.136919986613 0 0 0
3093 6 6.668402419605002 10.010010223260998 0 0 0 0
3097 9 8.002082903526002 9.240009436855999 1.136919986613 0 0 0
3099 2 9.335763387447003 10.010010223260998 0 0 0 0
3103 11 10.669443871368003 9.240009436855999 1.136919986613 0 0 0
3105 6 12.003124355289003 10.010010223260998 0 0 0 0
3109 9 13.336804839210004 9.240009436855999 1.136919986613 0 0 0
3111 2 14.670485323131004 10.010010223260998 0 0 0 0
3115 11 16.004165807052004 9.240009436855999 1.136919986613 0 0 0
3117 6 17.337846290973005 10.010010223260998 0 0 0 0
3121 9 18.671526774894005 9.240009436855999 1.136919986613 0 0 0
3123 2 20.005207258815005 10.010010223260998 0 0 0 0
3127 11 21.338887742736006 9.240009436855999 1.136919986613 0 0 0
3129 6 22.672568226657006 10.010010223260998 0 0 0 0
3133 9 24.006248710578006 9.240009436855999 1.136919986613 0 0 0
3135 2 25.339929194499007 10.010010223260998 0 0 0 0
3139 11 26.673609678420007 9.240009436855999 1.136919986613 0 0 0
3141 6 28.007290162341008 10.010010223260998 0 0 0 0
3145 9 29.340970646261994 9.240009436855999 1.136919986613 0 0 0
3147 2 30.674651130182994 10.010010223260998 0 0 0 0
3151 11 32.008331614103994 9.240009436855999 1.136919986613 0 0 0
3153 6 33.342012098024995 10.010010223260998 0 0 0 0
3157 9 34.675692581945995 9.240009436855999 1.136919986613 0 0 0
3159 2 36.009373065866995 10.010010223260998 0 0 0 0
3163 11 37.343053549787996 9.240009436855999 1.136919986613 0 0 0
3165 6 38.676734033708996 10.010010223260998 0 0 0 0
3171 2 41.344095001551 10.010010223260998 0 0 0 0
3169 9 40.01041451763 9.240009436855999 1.136919986613 0 0 0
3175 11 42.677775485472 9.240009436855999 1.136919986613 0 0 0
3177 6 44.011455969393 10.010010223260998 0 0 0 0
3181 9 45.345136453314 9.240009436855999 1.136919986613 0 0 0
3183 2 46.678816937235 10.010010223260998 0 0 0 0
3187 11 48.012497421156 9.240009436855999 1.136919986613 0 0 0
3189 6 49.346177905077 10.010010223260998 0 0 0 0
2965 9 50.679858388998 9.240009436855999 1.136919986613 -1 0 0
2967 2 52.013538872919 10.010010223260998 0 -1 0 0
2971 11 53.34721935684 9.240009436855999 1.136919986613 -1 0 0
2973 6 54.680899840761 10.010010223260998 0 -1 0 0
2977 9 56.014580324682 9.240009436855999 1.136919986613 -1 0 0
2979 2 57.348260808603 10.010010223260998 0 -1 0 0
2983 11 58.681941292524 9.240009436855999 1.136919986613 -1 0 0
2985 6 60.015621776445 10.010010223260998 0 -1 0 0
2989 9 61.349302260366 9.240009436855999 1.136919986613 -1 0 0
2991 2 62.682982744287 10.010010223260998 0 -1 0 0
2995 11 64.016663228208 9.240009436855999 1.136919986613 -1 0 0
2997 6 65.350343712129 10.010010223260998 0 -1 0 0
3001 9 66.68402419605 9.240009436855999 1.136919986613 -1 0 0
3003 2 68.017704679971 10.010010223260998 0 -1 0 0
3007 11 69.351385163892 9.240009436855999 1.136919986613 -1 0 0
3009 6 70.68506564781299 10.010010223260998 0 -1 0 0
3013 9 72.01874613173399 9.240009436855999 1.136919986613 -1 0 0
3015 2 73.35242661565499 10.010010223260998 0 -1 0 0
3019 11 74.68610709957599 9.240009436855999 1.136919986613 -1 0 0
3021 6 76.01978758349699 10.010010223260998 0 -1 0 0
3025 9 77.35346806741799 9.240009436855999 1.136919986613 -1 0 0
3027 2 78.68714855133899 10.010010223260998 0 -1 0 0
3033 6 81.354509519181 10.010010223260998 0 -1 0 0
3031 11 80.02082903526 9.240009436855999 1.136919986613 -1 0 0
3037 9 82.688190003102 9.240009436855999 1.136919986613 -1 0 0
3039 2 84.021870487023 10.010010223260998 0 -1 0 0
3043 11 85.355550970944 9.240009436855999 1.136919986613 -1 0 0
3045 6 86.689231454865 10.010010223260998 0 -1 0 0
3049 9 88.022911938786 9.240009436855999 1.136919986613 -1 0 0
3051 2 89.356592422707 10.010010223260998 0 -1 0 0
3055 11 90.690272906628 9.240009436855999 1.136919986613 -1 0 0
3057 6 92.023953390549 10.010010223260998 0 -1 0 0
3061 9 93.35763387447 9.240009436855999 1.136919986613 -1 0 0
3063 2 94.691314358391 10.010010223260998 0 -1 0 0
3067 11 96.024994842312 9.240009436855999 1.136919986613 -1 0 0
3069 6 97.358675326233 10.010010223260998 0 -1 0 0
3073 9 98.692355810154 9.240009436855999 1.136919986613 -1 0 0
3075 2 100.026036294075 10.010010223260998 0 -1 0 0
3084 8 0 12.320012582474995 0 0 0 0
3082 12 1.3336804839210004 11.550011796069995 1.136919986613 0 0 0
3090 4 2.6673609678420007 12.320012582474995 0 0 0 0
3088 10 4.001041451763001 11.550011796069995 1.136919986613 0 0 0
3096 8 5.334721935684001 12.320012582474995 0 0 0 0
3094 12 6.668402419605002 11.550011796069995 1.136919986613 0 0 0
3102 4 8.002082903526002 12.320012582474995 0 0 0 0
3100 10 9.335763387447003 11.550011796069995 1.136919986613 0 0 0
3108 8 10.669443871368003 12.320012582474995 0 0 0 0
3106 12 12.003124355289003 11.550011796069995 1.136919986613 0 0 0
3114 4 13.336804839210004 12.320012582474995 0 0 0 0
3112 10 14.670485323131004 11.550011796069995 1.136919986613 0 0 0
3120 8 16.004165807052004 12.320012582474995 0 0 0 0
3118 12 17.337846290973005 11.550011796069995 1.136919986613 0 0 0
3126 4 18.671526774894005 12.320012582474995 0 0 0 0
3132 8 21.338887742736006 12.320012582474995 0 0 0 0
3124 10 20.005207258815005 11.550011796069995 1.136919986613 0 0 0
3130 12 22.672568226657006 11.550011796069995 1.136919986613 0 0 0
3138 4 24.006248710578006 12.320012582474995 0 0 0 0
3136 10 25.339929194499007 11.550011796069995 1.136919986613 0 0 0
3144 8 26.673609678420007 12.320012582474995 0 0 0 0
3142 12 28.007290162341008 11.550011796069995 1.136919986613 0 0 0
3150 4 29.340970646261994 12.320012582474995 0 0 0 0
3148 10 30.674651130182994 11.550011796069995 1.136919986613 0 0 0
3156 8 32.008331614103994 12.320012582474995 0 0 0 0
3154 12 33.342012098024995 11.550011796069995 1.136919986613 0 0 0
3162 4 34.675692581945995 12.320012582474995 0 0 0 0
3160 10 36.009373065866995 11.550011796069995 1.136919986613 0 0 0
3168 8 37.343053549787996 12.320012582474995 0 0 0 0
3166 12 38.676734033708996 11.550011796069995 1.136919986613 0 0 0
3174 4 40.01041451763 12.320012582474995 0 0 0 0
3172 10 41.344095001551 11.550011796069995 1.136919986613 0 0 0
3180 8 42.677775485472 12.320012582474995 0 0 0 0
3178 12 44.011455969393 11.550011796069995 1.136919986613 0 0 0
3186 4 45.345136453314 12.320012582474995 0 0 0 0
3184 10 46.678816937235 11.550011796069995 1.136919986613 0 0 0
3192 8 48.012497421156 12.320012582474995 0 0 0 0
3190 12 49.346177905077 11.550011796069995 1.136919986613 0 0 0
2970 4 50.679858388998 12.320012582474995 0 -1 0 0
2968 10 52.013538872919 11.550011796069995 1.136919986613 -1 0 0
2976 8 53.34721935684 12.320012582474995 0 -1 0 0
2974 12 54.680899840761 11.550011796069995 1.136919986613 -1 0 0
2982 4 56.014580324682 12.320012582474995 0 -1 0 0
2980 10 57.348260808603 11.550011796069995 1.136919986613 -1 0 0
2988 8 58.681941292524 12.320012582474995 0 -1 0 0
2994 4 61.349302260366 12.320012582474995 0 -1 0 0
2986 12 60.015621776445 11.550011796069995 1.136919986613 -1 0 0
2992 10 62.682982744287 11.550011796069995 1.136919986613 -1 0 0
3000 8 64.016663228208 12.320012582474995 0 -1 0 0
2998 12 65.350343712129 11.550011796069995 1.136919986613 -1 0 0
3006 4 66.68402419605 12.320012582474995 0 -1 0 0
3004 10 68.017704679971 11.550011796069995 1.136919986613 -1 0 0
3012 8 69.351385163892 12.320012582474995 0 -1 0 0
3010 12 70.68506564781299 11.550011796069995 1.136919986613 -1 0 0
3018 4 72.01874613173399 12.320012582474995 0 -1 0 0
3016 10 73.35242661565499 11.550011796069995 1.136919986613 -1 0 0
3024 8 74.68610709957599 12.320012582474995 0 -1 0 0
3022 12 76.01978758349699 11.550011796069995 1.136919986613 -1 0 0
3030 4 77.35346806741799 12.320012582474995 0 -1 0 0
3028 10 78.68714855133899 11.550011796069995 1.136919986613 -1 0 0
3036 8 80.02082903526 12.320012582474995 0 -1 0 0
3034 12 81.354509519181 11.550011796069995 1.136919986613 -1 0 0
3042 4 82.688190003102 12.320012582474995 0 -1 0 0
3040 10 84.021870487023 11.550011796069995 1.136919986613 -1 0 0
3048 8 85.355550970944 12.320012582474995 0 -1 0 0
3046 12 86.689231454865 11.550011796069995 1.136919986613 -1 0 0
3054 4 88.022911938786 12.320012582474995 0 -1 0 0
3052 10 89.356592422707 11.550011796069995 1.136919986613 -1 0 0
3060 8 90.690272906628 12.320012582474995 0 -1 0 0
3058 12 92.023953390549 11.550011796069995 1.136919986613 -1 0 0
3066 4 93.35763387447 12.320012582474995 0 -1 0 0
3064 10 94.691314358391 11.550011796069995 1.136919986613 -1 0 0
3072 8 96.024994842312 12.320012582474995 0 -1 0 0
3070 12 97.358675326233 11.550011796069995 1.136919986613 -1 0 0
3078 4 98.692355810154 12.320012582474995 0 -1 0 0
3076 10 100.026036294075 11.550011796069995 1.136919986613 -1 0 0
3307 11 0 13.860014155283991 1.136919986613 0 0 0
3313 9 2.6673609678420007 13.860014155283991 1.136919986613 0 0 0
3319 11 5.334721935684001 13.860014155283991 1.136919986613 0 0 0
3325 9 8.002082903526002 13.860014155283991 1.136919986613 0 0 0
3331 11 10.669443871368003 13.860014155283991 1.136919986613 0 0 0
3337 9 13.336804839210004 13.860014155283991 1.136919986613 0 0 0
3343 11 16.004165807052004 13.860014155283991 1.136919986613 0 0 0
3349 9 18.671526774894005 13.860014155283991 1.136919986613 0 0 0
3355 11 21.338887742736006 13.860014155283991 1.136919986613 0 0 0
3361 9 24.006248710578006 13.860014155283991 1.136919986613 0 0 0
3367 11 26.673609678420007 13.860014155283991 1.136919986613 0 0 0
3373 9 29.340970646261994 13.860014155283991 1.136919986613 0 0 0
3379 11 32.008331614103994 13.860014155283991 1.136919986613 0 0 0
3385 9 34.675692581945995 13.860014155283991 1.136919986613 0 0 0
3391 11 37.343053549787996 13.860014155283991 1.136919986613 0 0 0
3397 9 40.01041451763 13.860014155283991 1.136919986613 0 0 0
3403 11 42.677775485472 13.860014155283991 1.136919986613 0 0 0
3409 9 45.345136453314 13.860014155283991 1.136919986613 0 0 0
3415 11 48.012497421156 13.860014155283991 1.136919986613 0 0 0
3193 9 50.679858388998 13.860014155283991 1.136919986613 -1 0 0
3199 11 53.34721935684 13.860014155283991 1.136919986613 -1 0 0
3205 9 56.014580324682 13.860014155283991 1.136919986613 -1 0 0
3211 11 58.681941292524 13.860014155283991 1.136919986613 -1 0 0
3217 9 61.349302260366 13.860014155283991 1.136919986613 -1 0 0
3223 11 64.016663228208 13.860014155283991 1.136919986613 -1 0 0
3229 9 66.68402419605 13.860014155283991 1.136919986613 -1 0 0
3235 11 69.351385163892 13.860014155283991 1.136919986613 -1 0 0
3241 9 72.01874613173399 13.860014155283991 1.136919986613 -1 0 0
3247 11 74.68610709957599 13.860014155283991 1.136919986613 -1 0 0
3253 9 77.35346806741799 13.860014155283991 1.136919986613 -1 0 0
3259 11 80.02082903526 13.860014155283991 1.136919986613 -1 0 0
3265 9 82.688190003102 13.860014155283991 1.136919986613 -1 0 0
3271 11 85.355550970944 13.860014155283991 1.136919986613 -1 0 0
3277 9 88.022911938786 13.860014155283991 1.136919986613 -1 0 0
3283 11 90.690272906628 13.860014155283991 1.136919986613 -1 0 0
3289 9 93.35763387447 13.860014155283991 1.136919986613 -1 0 0
3295 11 96.024994842312 13.860014155283991 1.136919986613 -1 0 0
3301 9 98.692355810154 13.860014155283991 1.136919986613 -1 0 0
3309 6 1.3336804839210004 14.630014941688998 0 0 0 0
3315 2 4.001041451763001 14.630014941688998 0 0 0 0
3321 6 6.668402419605002 14.630014941688998 0 0 0 0
3327 2 9.335763387447003 14.630014941688998 0 0 0 0
3333 6 12.003124355289003 14.630014941688998 0 0 0 0
3339 2 14.670485323131004 14.630014941688998 0 0 0 0
3345 6 17.337846290973005 14.630014941688998 0 0 0 0
3351 2 20.005207258815005 14.630014941688998 0 0 0 0
3357 6 22.672568226657006 14.630014941688998 0 0 0 0
3363 2 25.339929194499007 14.630014941688998 0 0 0 0
3369 6 28.007290162341008 14.630014941688998 0 0 0 0
3375 2 30.674651130182994 14.630014941688998 0 0 0 0
3381 6 33.342012098024995 14.630014941688998 0 0 0 0
3387 2 36.009373065866995 14.630014941688998 0 0 0 0
3393 6 38.676734033708996 14.630014941688998 0 0 0 0
3399 2 41.344095001551 14.630014941688998 0 0 0 0
3405 6 44.011455969393 14.630014941688998 0 0 0 0
3411 2 46.678816937235 14.630014941688998 0 0 0 0
3417 6 49.346177905077 14.630014941688998 0 0 0 0
3195 2 52.013538872919 14.630014941688998 0 -1 0 0
3201 6 54.680899840761 14.630014941688998 0 -1 0 0
3207 2 57.348260808603 14.630014941688998 0 -1 0 0
3213 6 60.015621776445 14.630014941688998 0 -1 0 0
3219 2 62.682982744287 14.630014941688998 0 -1 0 0
3225 6 65.350343712129 14.630014941688998 0 -1 0 0
3231 2 68.017704679971 14.630014941688998 0 -1 0 0
3237 6 70.68506564781299 14.630014941688998 0 -1 0 0