LAMMPS data file via write_data, version 29 Aug 2024, timestep = 11, units = metal

15048 atoms
36 atom types

0 101.359716777996 xlo xhi
0 101.640103805416 ylo yhi
-50 50 zlo zhi

Masses

1 54.938044
2 54.938044
3 54.938044
4 54.938044
5 54.938044
6 54.938044
7 54.938044
8 54.938044
9 54.938044
10 54.938044
11 54.938044
12 54.938044
13 15.999
14 15.999
15 15.999
16 15.999
17 15.999
18 15.999
19 15.999
20 15.999
21 15.999
22 15.999
23 15.999
24 15.999
25 15.999
26 15.999
27 15.999
28 15.999
29 15.999
30 15.999
31 15.999
32 15.999
33 15.999
34 15.999
35 15.999
36 15.999

Atoms # atomic

2625 14 1.333646662857037 0.7699926279367393 0.003600807941750888 0 0 0
2631 2 4.018430982445816 0.759964209323532 0.015891493769459263 0 0 0
2635 19 5.31723465408791 0.010042553119749604 1.1314396782940666 0 0 0
2626 20 1.3783015569828876 2.397536918368122 1.1208335067049766 0 0 0
2632 18 3.959514817788974 2.8120356454555315 1.0922554626799759 0 0 0
2634 4 2.640730687850997 2.6878143236593677 -0.22760109730002284 0 0 0
2640 16 5.33469308973676 3.079995828888858 0.003680730620742813 0 0 0
2853 14 1.333646662857037 5.389997346364739 0.0036008079417508897 0 0 0
2857 17 2.6703542784196577 4.603387386290016 1.2985400692335107 0 0 0
2859 2 4.018430982445816 5.3799689277515315 0.015891493769459072 0 0 0
2863 19 5.317234654087909 4.630047271547749 1.1314396782940668 0 0 0
2624 13 1.3343634650349174 0.7699998272198352 2.2926830456097824 0 0 0
2630 1 4.078698289116887 0.6041802690829692 2.358519785812939 0 0 0
2627 15 0.0005009157849026402 3.0800347302321938 2.292281779855907 0 0 0
2633 3 2.6104896350340816 3.0650188328802486 2.360099076123541 0 0 0
2639 15 5.335222851468905 3.0800347302321938 2.292281779855907 0 0 0
2852 13 1.3343634650349174 5.390004545647834 2.2926830456097824 0 0 0
2858 1 4.078698289116886 5.224184987510967 2.358519785812938 0 0 0
2637 14 6.668368598541038 0.7699926279367393 0.0036008079417508875 0 0 0
2643 2 9.353152918129817 0.7599642093235327 0.01589149376945843 0 0 0
2647 19 10.65195658977191 0.01004255311974904 1.131439678294067 0 0 0
2638 20 6.713023492666889 2.3975369183681225 1.1208335067049766 0 0 0
2644 18 9.294236753472974 2.8120356454555324 1.0922554626799759 0 0 0
2646 4 7.9754526235349985 2.687814323659368 -0.2276010973000227 0 0 0
2652 16 10.66941502542076 3.079995828888858 0.0036807306207428136 0 0 0
2865 14 6.668368598541038 5.389997346364739 0.003600807941750889 0 0 0
2869 17 8.005076214103658 4.6033873862900165 1.298540069233511 0 0 0
2871 2 9.353152918129817 5.3799689277515315 0.015891493769458635 0 0 0
2875 19 10.65195658977191 4.630047271547748 1.131439678294067 0 0 0
2636 13 6.6690854007189175 0.7699998272198352 2.2926830456097824 0 0 0
2642 1 9.41342022480089 0.6041802690829684 2.358519785812939 0 0 0
2645 3 7.945211570718082 3.065018832880249 2.3600990761235416 0 0 0
2651 15 10.669944787152904 3.0800347302321938 2.292281779855907 0 0 0
2864 13 6.6690854007189175 5.390004545647834 2.2926830456097824 0 0 0
2870 1 9.413420224800888 5.224184987510967 2.3585197858129376 0 0 0
2649 14 12.00309053422504 0.7699926279367393 0.0036008079417508892 0 0 0
2655 2 14.687874853813819 0.7599642093235327 0.01589149376945843 0 0 0
2659 19 15.986678525455911 0.010042553119749041 1.131439678294067 0 0 0
2661 14 17.337812469909043 0.7699926279367393 0.003600807941750889 0 0 0
2650 20 12.04774542835089 2.397536918368122 1.1208335067049766 0 0 0
2656 18 14.628958689156976 2.812035645455532 1.0922554626799759 0 0 0
2662 20 17.382467364034895 2.3975369183681217 1.1208335067049762 0 0 0
2658 4 13.310174559219 2.6878143236593677 -0.22760109730002298 0 0 0
2664 16 16.004136961104763 3.079995828888858 0.003680730620742814 0 0 0
2877 14 12.00309053422504 5.389997346364739 0.0036008079417508897 0 0 0
2881 17 13.339798149787661 4.603387386290016 1.2985400692335103 0 0 0
2883 2 14.687874853813819 5.3799689277515315 0.015891493769458635 0 0 0
2887 19 15.986678525455911 4.630047271547748 1.131439678294067 0 0 0
2889 14 17.337812469909043 5.389997346364739 0.00360080794175089 0 0 0
2648 13 12.003807336402922 0.7699998272198352 2.2926830456097824 0 0 0
2654 1 14.74814216048489 0.6041802690829688 2.358519785812939 0 0 0
2660 13 17.338529272086923 0.7699998272198352 2.2926830456097824 0 0 0
2657 3 13.279933506402084 3.065018832880249 2.360099076123541 0 0 0
2663 15 16.00466672283691 3.0800347302321938 2.292281779855907 0 0 0
2876 13 12.003807336402922 5.390004545647834 2.2926830456097824 0 0 0
2882 1 14.74814216048489 5.2241849875109665 2.3585197858129368 0 0 0
2888 13 17.338529272086923 5.390004545647834 2.2926830456097824 0 0 0
2667 2 20.022596789497822 0.7599642093235325 0.01589149376945873 0 0 0
2671 19 21.321400461139916 0.010042553119749243 1.1314396782940672 0 0 0
2673 14 22.672534405593044 0.7699926279367393 0.0036008079417508905 0 0 0
2668 18 19.96368062484098 2.8120356454555315 1.0922554626799763 0 0 0
2674 20 22.717189299718896 2.3975369183681225 1.1208335067049766 0 0 0
2670 4 18.644896494903 2.687814323659368 -0.227601097300023 0 0 0
2676 16 21.338858896788764 3.079995828888858 0.003680730620742816 0 0 0
2893 17 18.674520085471666 4.6033873862900165 1.2985400692335098 0 0 0
2895 2 20.022596789497822 5.379968927751533 0.015891493769458438 0 0 0
2899 19 21.321400461139916 4.630047271547751 1.1314396782940674 0 0 0
2901 14 22.672534405593044 5.389997346364739 0.0036008079417508923 0 0 0
2666 1 20.08286409616889 0.6041802690829697 2.3585197858129403 0 0 0
2672 13 22.673251207770925 0.7699998272198352 2.2926830456097824 0 0 0
2669 3 18.614655442086086 3.06501883288025 2.3600990761235408 0 0 0
2675 15 21.33938865852091 3.0800347302321938 2.292281779855907 0 0 0
2894 1 20.082864096168894 5.224184987510967 2.358519785812938 0 0 0
2900 13 22.673251207770925 5.390004545647834 2.2926830456097824 0 0 0
2679 2 25.357318725181823 0.7599642093235325 0.01589149376945873 0 0 0
2683 19 26.656122396823918 0.010042553119749243 1.1314396782940672 0 0 0
2685 14 28.007256341277046 0.7699926279367393 0.0036008079417508883 0 0 0
2680 18 25.29840256052498 2.8120356454555306 1.0922554626799756 0 0 0
2686 20 28.051911235402887 2.3975369183681194 1.1208335067049762 0 0 0
2682 4 23.979618430587003 2.6878143236593677 -0.22760109730002315 0 0 0
2688 16 26.673580832472766 3.079995828888858 0.0036807306207428153 0 0 0
2694 4 29.314340366270994 2.6878143236593677 -0.227601097300023 0 0 0
2905 17 24.009242021155668 4.6033873862900165 1.2985400692335092 0 0 0
2907 2 25.357318725181823 5.379968927751533 0.015891493769458438 0 0 0
2911 19 26.656122396823918 4.630047271547751 1.1314396782940674 0 0 0
2913 14 28.007256341277046 5.389997346364739 0.00360080794175089 0 0 0
2917 17 29.34396395683965 4.603387386290015 1.2985400692335112 0 0 0
2678 1 25.417586031852892 0.6041802690829697 2.3585197858129403 0 0 0
2684 13 28.007973143454926 0.7699998272198352 2.2926830456097824 0 0 0
2681 3 23.949377377770087 3.06501883288025 2.3600990761235408 0 0 0
2687 15 26.67411059420491 3.0800347302321938 2.292281779855907 0 0 0
2693 3 29.284099313454078 3.065018832880248 2.360099076123541 0 0 0
2906 1 25.417586031852892 5.224184987510968 2.3585197858129394 0 0 0
2912 13 28.007973143454926 5.390004545647834 2.292683045609783 0 0 0
2691 2 30.692040660865807 0.7599642093235325 0.015891493769458823 0 0 0
2695 19 31.9908443325079 0.010042553119749305 1.1314396782940672 0 0 0
2697 14 33.34197827696102 0.7699926279367393 0.0036008079417508892 0 0 0
2692 18 30.63312449620897 2.812035645455534 1.092255462679976 0 0 0
2698 20 33.386633171086885 2.3975369183681234 1.120833506704974 0 0 0
2700 16 32.008302768156746 3.079995828888858 0.0036807306207428145 0 0 0
2706 4 34.649062301955 2.687814323659366 -0.2276010973000232 0 0 0
2919 2 30.69204066086581 5.379968927751532 0.01589149376945826 0 0 0
2923 19 31.9908443325079 4.630047271547749 1.1314396782940677 0 0 0
2925 14 33.34197827696102 5.389997346364739 0.0036008079417508897 0 0 0
2929 17 34.67868589252365 4.603387386290016 1.2985400692335118 0 0 0
2690 1 30.752307967536876 0.6041802690829728 2.358519785812938 0 0 0
2696 13 33.34269507913892 0.7699998272198352 2.292683045609783 0 0 0
2699 15 32.0088325298889 3.0800347302321938 2.292281779855907 0 0 0
2705 3 34.61882124913808 3.0650188328802463 2.3600990761235416 0 0 0
2918 1 30.75230796753688 5.22418498751097 2.358519785812938 0 0 0
2924 13 33.34269507913892 5.390004545647834 2.292683045609783 0 0 0
2703 2 36.026762596549815 0.7599642093235335 0.015891493769457442 0 0 0
2707 19 37.3255662681919 0.010042553119748361 1.1314396782940683 0 0 0
2709 14 38.676700212645024 0.7699926279367393 0.0036008079417508892 0 0 0
2715 2 41.36148453223382 0.7599642093235335 0.015891493769457442 0 0 0
2704 18 35.96784643189297 2.812035645455533 1.0922554626799765 0 0 0
2710 20 38.72135510677089 2.3975369183681217 1.1208335067049755 0 0 0
2716 18 41.30256836757698 2.812035645455534 1.0922554626799752 0 0 0
2712 16 37.34302470384075 3.079995828888858 0.003680730620742815 0 0 0
2718 4 39.983784237639 2.687814323659367 -0.22760109730002356 0 0 0
2931 2 36.026762596549815 5.379968927751532 0.015891493769457407 0 0 0
2935 19 37.3255662681919 4.630047271547747 1.1314396782940683 0 0 0
2937 14 38.676700212645024 5.389997346364739 0.00360080794175089 0 0 0
2943 2 41.36148453223382 5.379968927751532 0.015891493769457407 0 0 0
2941 17 40.013407828207654 4.603387386290015 1.2985400692335125 0 0 0
2702 1 36.08702990322088 0.6041802690829707 2.358519785812939 0 0 0
2708 13 38.67741701482292 0.7699998272198352 2.2926830456097824 0 0 0
2714 1 41.42175183890488 0.6041802690829707 2.358519785812939 0 0 0
2711 15 37.3435544655729 3.0800347302321938 2.292281779855907 0 0 0
2717 3 39.95354318482209 3.065018832880247 2.3600990761235416 0 0 0
2930 1 36.08702990322088 5.224184987510969 2.358519785812937 0 0 0
2936 13 38.67741701482292 5.390004545647834 2.292683045609783 0 0 0
2942 1 41.42175183890488 5.22418498751097 2.3585197858129368 0 0 0
2719 19 42.6602882038759 0.010042553119748363 1.1314396782940683 0 0 0
2721 14 44.011422148329025 0.7699926279367393 0.0036008079417508892 0 0 0
2727 2 46.69620646791782 0.7599642093235335 0.015891493769457442 0 0 0
2722 20 44.056077042454895 2.3975369183681217 1.1208335067049755 0 0 0
2728 18 46.63729030326098 2.812035645455534 1.0922554626799752 0 0 0
2724 16 42.67774663952475 3.079995828888858 0.003680730620742815 0 0 0
2730 4 45.318506173323 2.687814323659367 -0.22760109730002356 0 0 0
2947 19 42.6602882038759 4.630047271547747 1.1314396782940683 0 0 0
2949 14 44.011422148329025 5.389997346364739 0.00360080794175089 0 0 0
2953 17 45.348129763891656 4.603387386290015 1.2985400692335125 0 0 0
2955 2 46.69620646791782 5.379968927751532 0.015891493769457407 0 0 0
2720 13 44.01213895050692 0.7699998272198352 2.292683045609783 0 0 0
2726 1 46.75647377458888 0.6041802690829707 2.358519785812939 0 0 0
2723 15 42.6782764012569 3.0800347302321938 2.292281779855907 0 0 0
2729 3 45.28826512050609 3.065018832880247 2.3600990761235416 0 0 0
2948 13 44.01213895050692 5.390004545647834 2.292683045609783 0 0 0
2954 1 46.75647377458888 5.22418498751097 2.3585197858129368 0 0 0
2731 19 47.9950101395599 0.01004255311974836 1.1314396782940683 0 0 0
2733 14 49.34614408401303 0.7699926279367393 0.00360080794175089 0 0 0
2511 2 52.03092840360182 0.7599642093235335 0.015891493769457442 -1 0 0
2515 19 53.3297320752439 0.010042553119748367 1.1314396782940683 -1 0 0
2734 20 49.390798978138896 2.3975369183681217 1.1208335067049755 0 0 0
2512 18 51.972012238944984 2.812035645455534 1.0922554626799752 -1 0 0
2736 16 48.01246857520875 3.079995828888858 0.0036807306207428153 0 0 0
2514 4 50.653228109007 2.687814323659367 -0.22760109730002356 -1 0 0
2520 16 53.34719051089275 3.079995828888858 0.0036807306207428214 -1 0 0
2959 19 47.9950101395599 4.630047271547747 1.1314396782940683 0 0 0
2961 14 49.34614408401303 5.389997346364739 0.0036008079417508923 0 0 0
2737 17 50.68285169957566 4.603387386290015 1.2985400692335125 -1 0 0
2739 2 52.03092840360182 5.379968927751532 0.015891493769457407 -1 0 0
2743 19 53.3297320752439 4.630047271547747 1.1314396782940683 -1 0 0
2732 13 49.346860886190925 0.7699998272198352 2.292683045609783 0 0 0
2510 1 52.091195710272885 0.6041802690829707 2.358519785812939 -1 0 0
2735 15 48.0129983369409 3.0800347302321938 2.292281779855907 0 0 0
2513 3 50.62298705619009 3.065018832880247 2.3600990761235416 -1 0 0
2519 15 53.347720272624905 3.0800347302321938 2.292281779855907 -1 0 0
2960 13 49.346860886190925 5.390004545647834 2.292683045609783 0 0 0
2738 1 52.091195710272885 5.22418498751097 2.3585197858129368 -1 0 0
2517 14 54.68086601969703 0.7699926279367393 0.003600807941750896 -1 0 0
2523 2 57.36565033928582 0.7599642093235335 0.015891493769457442 -1 0 0
2527 19 58.664454010927905 0.010042553119748365 1.1314396782940683 -1 0 0
2518 20 54.72552091382289 2.397536918368122 1.1208335067049753 -1 0 0
2524 18 57.30673417462898 2.8120356454555333 1.0922554626799752 -1 0 0
2526 4 55.987950044691004 2.6878143236593672 -0.22760109730002323 -1 0 0
2532 16 58.68191244657675 3.079995828888858 0.0036807306207428175 -1 0 0
2745 14 54.68086601969703 5.389997346364739 0.0036008079417508975 -1 0 0
2749 17 56.01757363525966 4.603387386290015 1.2985400692335123 -1 0 0
2751 2 57.36565033928582 5.379968927751532 0.015891493769457407 -1 0 0
2755 19 58.664454010927905 4.630047271547747 1.1314396782940683 -1 0 0
2516 13 54.681582821874926 0.7699998272198352 2.292683045609783 -1 0 0
2522 1 57.425917645956886 0.6041802690829707 2.358519785812939 -1 0 0
2525 3 55.957708991874085 3.0650188328802472 2.360099076123542 -1 0 0
2531 15 58.682442208308906 3.0800347302321938 2.292281779855907 -1 0 0
2744 13 54.681582821874926 5.390004545647834 2.292683045609783 -1 0 0
2750 1 57.425917645956886 5.224184987510969 2.358519785812937 -1 0 0
2529 14 60.01558795538103 0.7699926279367393 0.00360080794175089 -1 0 0
2535 2 62.70037227496983 0.7599642093235315 0.015891493769460457 -1 0 0
2539 19 63.99917594661192 0.01004255311975039 1.1314396782940652 -1 0 0
2541 14 65.35030989106504 0.7699926279367393 0.003600807941750891 -1 0 0
2530 20 60.06024284950689 2.3975369183681225 1.1208335067049755 -1 0 0
2536 18 62.64145611031298 2.8120356454555333 1.0922554626799754 -1 0 0
2542 20 65.3949647851909 2.39753691836812 1.1208335067049695 -1 0 0
2538 4 61.322671980375006 2.687814323659367 -0.22760109730002342 -1 0 0
2544 16 64.01663438226078 3.079995828888858 0.003680730620742817 -1 0 0
2757 14 60.01558795538103 5.389997346364739 0.0036008079417508905 -1 0 0
2761 17 61.35229557094366 4.603387386290016 1.2985400692335123 -1 0 0
2763 2 62.70037227496983 5.379968927751531 0.015891493769460925 -1 0 0
2767 19 63.99917594661192 4.630047271547748 1.131439678294065 -1 0 0
2769 14 65.35030989106504 5.389997346364739 0.0036008079417508923 -1 0 0
2528 13 60.01630475755893 0.7699998272198352 2.292683045609783 -1 0 0
2534 1 62.76063958164089 0.6041802690829707 2.358519785812939 -1 0 0
2540 13 65.3510266932429 0.7699998272198352 2.292683045609783 -1 0 0
2537 3 61.29243092755809 3.0650188328802477 2.3600990761235416 -1 0 0
2543 15 64.01716414399291 3.0800347302321938 2.292281779855907 -1 0 0
2756 13 60.01630475755893 5.390004545647834 2.292683045609783 -1 0 0
2762 1 62.76063958164089 5.224184987510969 2.358519785812937 -1 0 0
2768 13 65.3510266932429 5.390004545647834 2.292683045609783 -1 0 0
2547 2 68.03509421065381 0.7599642093235305 0.01589149376946142 -1 0 0
2551 19 69.33389788229591 0.010042553119751057 1.1314396782940646 -1 0 0
2553 14 70.68503182674903 0.7699926279367393 0.0036008079417508883 -1 0 0
2548 18 67.97617804599699 2.8120356454555355 1.092255462679982 -1 0 0
2554 20 70.72968672087488 2.39753691836812 1.1208335067049695 -1 0 0
2550 4 66.65739391605902 2.6878143236593677 -0.22760109730002315 -1 0 0
2556 16 69.35135631794478 3.079995828888858 0.003680730620742813 -1 0 0
2773 17 66.68701750662765 4.603387386290016 1.2985400692335127 -1 0 0
2775 2 68.03509421065381 5.3799689277515315 0.015891493769461282 -1 0 0
2779 19 69.33389788229591 4.630047271547752 1.1314396782940648 -1 0 0
2781 14 70.68503182674903 5.389997346364739 0.0036008079417508892 -1 0 0
2546 1 68.09536151732489 0.6041802690829722 2.358519785812941 -1 0 0
2552 13 70.68574862892689 0.7699998272198352 2.2926830456097824 -1 0 0
2549 3 66.62715286324209 3.065018832880246 2.360099076123541 -1 0 0
2555 15 69.35188607967692 3.0800347302321938 2.292281779855907 -1 0 0
2774 1 68.09536151732489 5.224184987510968 2.358519785812937 -1 0 0
2780 13 70.68574862892689 5.390004545647834 2.2926830456097824 -1 0 0
2559 2 73.3698161463378 0.7599642093235305 0.01589149376946142 -1 0 0
2563 19 74.6686198179799 0.01004255311975106 1.1314396782940646 -1 0 0
2565 14 76.01975376243303 0.7699926279367393 0.003600807941750888 -1 0 0
2560 18 73.31089998168098 2.8120356454555355 1.092255462679982 -1 0 0
2566 20 76.06440865655888 2.39753691836812 1.1208335067049693 -1 0 0
2562 4 71.99211585174301 2.6878143236593677 -0.22760109730002315 -1 0 0
2568 16 74.68607825362876 3.079995828888858 0.003680730620742813 -1 0 0
2574 4 77.32683778742701 2.6878143236593672 -0.22760109730002342 -1 0 0
2785 17 72.02173944231164 4.603387386290016 1.2985400692335127 -1 0 0
2787 2 73.3698161463378 5.3799689277515315 0.015891493769461282 -1 0 0
2791 19 74.6686198179799 4.630047271547752 1.1314396782940648 -1 0 0
2793 14 76.01975376243303 5.389997346364739 0.003600807941750889 -1 0 0
2797 17 77.35646137799564 4.603387386290015 1.2985400692335127 -1 0 0
2558 1 73.43008345300888 0.6041802690829722 2.358519785812941 -1 0 0
2564 13 76.02047056461089 0.7699998272198352 2.2926830456097824 -1 0 0
2561 3 71.96187479892608 3.065018832880246 2.360099076123541 -1 0 0
2567 15 74.6866080153609 3.0800347302321938 2.292281779855907 -1 0 0
2573 3 77.29659673461008 3.0650188328802455 2.360099076123541 -1 0 0
2786 1 73.43008345300888 5.224184987510968 2.358519785812937 -1 0 0
2792 13 76.02047056461089 5.390004545647834 2.2926830456097824 -1 0 0
2571 2 78.7045380820218 0.7599642093235305 0.01589149376946142 -1 0 0
2577 14 81.35447569811703 0.7699926279367393 0.0036008079417508883 -1 0 0
2575 19 80.0033417536639 0.010042553119751062 1.1314396782940646 -1 0 0
2572 18 78.64562191736498 2.8120356454555355 1.0922554626799819 -1 0 0
2578 20 81.39913059224288 2.39753691836812 1.1208335067049693 -1 0 0
2580 16 80.02080018931277 3.079995828888858 0.003680730620742813 -1 0 0
2586 4 82.66155972311101 2.6878143236593672 -0.22760109730002342 -1 0 0
2799 2 78.7045380820218 5.3799689277515315 0.015891493769461286 -1 0 0
2805 14 81.35447569811703 5.389997346364739 0.0036008079417508897 -1 0 0
2803 19 80.0033417536639 4.630047271547752 1.1314396782940648 -1 0 0
2809 17 82.69118331367964 4.603387386290015 1.2985400692335127 -1 0 0
2570 1 78.76480538869288 0.6041802690829722 2.358519785812941 -1 0 0
2576 13 81.35519250029489 0.7699998272198352 2.2926830456097824 -1 0 0
2579 15 80.0213299510449 3.0800347302321938 2.292281779855907 -1 0 0
2585 3 82.63131867029408 3.0650188328802455 2.360099076123541 -1 0 0
2798 1 78.76480538869288 5.224184987510968 2.358519785812937 -1 0 0
2804 13 81.35519250029489 5.390004545647834 2.2926830456097824 -1 0 0
2583 2 84.0392600177058 0.7599642093235305 0.01589149376946142 -1 0 0
2587 19 85.3380636893479 0.010042553119751064 1.1314396782940646 -1 0 0
2589 14 86.68919763380103 0.7699926279367393 0.0036008079417508883 -1 0 0
2595 2 89.3739819533898 0.7599642093235305 0.01589149376946142 -1 0 0
2584 18 83.98034385304898 2.8120356454555355 1.0922554626799819 -1 0 0
2590 20 86.73385252792689 2.39753691836812 1.1208335067049697 -1 0 0
2596 18 89.31506578873298 2.8120356454555355 1.092255462679982 -1 0 0
2592 16 85.35552212499677 3.079995828888858 0.0036807306207428127 -1 0 0
2598 4 87.99628165879501 2.6878143236593677 -0.2276010973000234 -1 0 0
2811 2 84.0392600177058 5.3799689277515315 0.015891493769461286 -1 0 0
2815 19 85.3380636893479 4.630047271547752 1.1314396782940648 -1 0 0
2817 14 86.68919763380103 5.389997346364739 0.0036008079417508892 -1 0 0
2821 17 88.02590524936365 4.603387386290016 1.298540069233513 -1 0 0
2823 2 89.3739819533898 5.3799689277515315 0.015891493769461286 -1 0 0
2582 1 84.09952732437688 0.6041802690829722 2.358519785812941 -1 0 0
2588 13 86.68991443597889 0.7699998272198352 2.2926830456097824 -1 0 0
2594 1 89.43424926006088 0.6041802690829722 2.358519785812941 -1 0 0
2591 15 85.3560518867289 3.0800347302321938 2.292281779855907 -1 0 0
2597 3 87.96604060597808 3.065018832880246 2.360099076123541 -1 0 0
2810 1 84.09952732437688 5.224184987510968 2.358519785812937 -1 0 0
2816 13 86.68991443597889 5.390004545647834 2.2926830456097824 -1 0 0
2822 1 89.43424926006088 5.224184987510968 2.358519785812937 -1 0 0
2599 19 90.6727856250319 0.01004255311975106 1.1314396782940646 -1 0 0
2601 14 92.02391956948503 0.7699926279367393 0.003600807941750887 -1 0 0
2607 2 94.7087038890738 0.7599642093235305 0.01589149376946142 -1 0 0
2602 20 92.06857446361089 2.39753691836812 1.1208335067049697 -1 0 0
2608 18 94.64978772441698 2.8120356454555355 1.092255462679982 -1 0 0
2604 16 90.69024406068077 3.079995828888858 0.003680730620742813 -1 0 0
2610 4 93.33100359447901 2.6878143236593677 -0.2276010973000234 -1 0 0
2827 19 90.6727856250319 4.630047271547752 1.1314396782940648 -1 0 0
2829 14 92.02391956948503 5.389997346364739 0.003600807941750889 -1 0 0
2833 17 93.36062718504765 4.603387386290016 1.298540069233513 -1 0 0
2835 2 94.7087038890738 5.3799689277515315 0.015891493769461286 -1 0 0
2600 13 92.0246363716629 0.7699998272198352 2.2926830456097824 -1 0 0
2606 1 94.76897119574488 0.6041802690829722 2.358519785812941 -1 0 0
2603 15 90.69077382241291 3.0800347302321938 2.292281779855907 -1 0 0
2609 3 93.30076254166208 3.065018832880246 2.360099076123541 -1 0 0
2828 13 92.0246363716629 5.390004545647834 2.2926830456097824 -1 0 0
2834 1 94.76897119574488 5.224184987510968 2.358519785812937 -1 0 0
2623 19 101.34222949639991 0.010042553119751059 1.1314396782940646 -1 0 0
2628 16 101.35968793204877 3.079995828888858 0.003680730620742813 -1 0 0
2851 19 101.34222949639991 4.630047271547752 1.1314396782940648 -1 0 0
2611 19 96.00750756071591 0.01004255311975106 1.1314396782940646 -1 0 0
2613 14 97.35864150516903 0.7699926279367393 0.003600807941750887 -1 0 0
2619 2 100.0434258247578 0.7599642093235305 0.015891493769461418 -1 0 0
2614 20 97.40329639929489 2.39753691836812 1.1208335067049695 -1 0 0
2620 18 99.98450966010098 2.8120356454555355 1.0922554626799819 -1 0 0
2616 16 96.02496599636477 3.079995828888858 0.0036807306207428123 -1 0 0
2622 4 98.66572553016302 2.6878143236593677 -0.22760109730002312 -1 0 0
2839 19 96.00750756071591 4.630047271547752 1.1314396782940648 -1 0 0
2841 14 97.35864150516903 5.389997346364739 0.003600807941750888 -1 0 0
2845 17 98.69534912073165 4.603387386290016 1.2985400692335127 -1 0 0
2847 2 100.0434258247578 5.3799689277515315 0.015891493769461282 -1 0 0
2612 13 97.3593583073469 0.7699998272198352 2.2926830456097824 -1 0 0
2618 1 100.10369313142888 0.6041802690829722 2.358519785812941 -1 0 0
2615 15 96.02549575809691 3.0800347302321938 2.292281779855907 -1 0 0
2621 3 98.63548447734608 3.0650188328802463 2.360099076123541 -1 0 0
2840 13 97.3593583073469 5.390004545647834 2.2926830456097824 -1 0 0
2846 1 100.10369313142888 5.224184987510968 2.358519785812937 -1 0 0
2854 20 1.3783015569828878 7.017541636796123 1.1208335067049766 0 0 0
2860 18 3.9595148177889743 7.432040363883531 1.0922554626799759 0 0 0
2862 4 2.640730687850998 7.307819042087367 -0.22760109730002295 0 0 0
2868 16 5.33469308973676 7.700000547316858 0.0036807306207428136 0 0 0
3081 14 1.333646662857037 10.01000206479274 0.0036008079417508905 0 0 0
3085 17 2.6703542784196586 9.223392104718016 1.29854006923351 0 0 0
3087 2 4.018430982445816 9.999973646179532 0.015891493769459135 0 0 0
3091 19 5.317234654087908 9.250051989975747 1.1314396782940668 0 0 0
3082 20 1.3783015569828891 11.63754635522412 1.1208335067049764 0 0 0
2855 15 0.0005009157849026418 7.700039448660195 2.292281779855907 0 0 0
2861 3 2.6104896350340816 7.685023551308249 2.3600990761235416 0 0 0
2867 15 5.335222851468905 7.700039448660195 2.292281779855907 0 0 0
3080 13 1.3343634650349174 10.010009264075835 2.2926830456097824 0 0 0
3086 1 4.078698289116887 9.844189705938968 2.3585197858129376 0 0 0
3090 4 2.6407306878509993 11.927823760515366 -0.22760109730002237 0 0 0
2866 20 6.713023492666889 7.017541636796122 1.120833506704977 0 0 0
2872 18 9.294236753472976 7.432040363883531 1.0922554626799763 0 0 0
2874 4 7.9754526235349985 7.307819042087368 -0.2276010973000226 0 0 0
2880 16 10.66941502542076 7.700000547316858 0.0036807306207428153 0 0 0
3093 14 6.668368598541038 10.01000206479274 0.003600807941750888 0 0 0
3097 17 8.00507621410366 9.223392104718016 1.2985400692335103 0 0 0
3099 2 9.353152918129817 9.999973646179532 0.015891493769458993 0 0 0
3103 19 10.651956589771912 9.250051989975749 1.1314396782940668 0 0 0
3094 20 6.713023492666889 11.637546355224123 1.120833506704976 0 0 0
2873 3 7.945211570718083 7.685023551308249 2.3600990761235416 0 0 0
2879 15 10.669944787152904 7.700039448660195 2.292281779855907 0 0 0
3092 13 6.6690854007189175 10.010009264075835 2.2926830456097824 0 0 0
3098 1 9.413420224800888 9.844189705938968 2.3585197858129376 0 0 0
3102 4 7.975452623534999 11.927823760515366 -0.22760109730002237 0 0 0
2878 20 12.04774542835089 7.017541636796124 1.1208335067049773 0 0 0
2884 18 14.628958689156978 7.43204036388353 1.0922554626799752 0 0 0
2890 20 17.382467364034895 7.017541636796122 1.1208335067049762 0 0 0
2886 4 13.310174559218998 7.307819042087367 -0.22760109730002265 0 0 0
2892 16 16.004136961104763 7.700000547316858 0.003680730620742815 0 0 0
3105 14 12.00309053422504 10.01000206479274 0.0036008079417508905 0 0 0
3109 17 13.339798149787661 9.223392104718016 1.2985400692335116 0 0 0
3111 2 14.687874853813819 9.999973646179532 0.015891493769458993 0 0 0
3115 19 15.986678525455913 9.250051989975749 1.1314396782940668 0 0 0
3117 14 17.337812469909043 10.01000206479274 0.00360080794175089 0 0 0
3106 20 12.047745428350892 11.63754635522412 1.1208335067049746 0 0 0
3118 20 17.38246736403489 11.637546355224124 1.120833506704976 0 0 0
2885 3 13.279933506402084 7.685023551308249 2.3600990761235416 0 0 0
2891 15 16.00466672283691 7.700039448660195 2.292281779855907 0 0 0
3104 13 12.003807336402922 10.010009264075835 2.2926830456097824 0 0 0
3110 1 14.74814216048489 9.844189705938968 2.3585197858129385 0 0 0
3116 13 17.338529272086923 10.010009264075835 2.2926830456097824 0 0 0
3114 4 13.310174559219002 11.927823760515366 -0.22760109730002273 0 0 0
2896 18 19.96368062484098 7.432040363883532 1.0922554626799759 0 0 0
2902 20 22.717189299718896 7.017541636796122 1.1208335067049762 0 0 0
2898 4 18.644896494903 7.307819042087368 -0.22760109730002295 0 0 0
2904 16 21.338858896788764 7.700000547316858 0.0036807306207428166 0 0 0
3121 17 18.674520085471663 9.223392104718018 1.2985400692335105 0 0 0
3123 2 20.022596789497822 9.999973646179532 0.015891493769459194 0 0 0
3127 19 21.321400461139916 9.250051989975747 1.1314396782940668 0 0 0
3129 14 22.672534405593044 10.01000206479274 0.003600807941750893 0 0 0
3130 20 22.717189299718893 11.637546355224124 1.120833506704976 0 0 0
2897 3 18.614655442086086 7.68502355130825 2.360099076123541 0 0 0
2903 15 21.33938865852091 7.700039448660195 2.292281779855907 0 0 0
3122 1 20.08286409616889 9.844189705938968 2.35851978581294 0 0 0
3128 13 22.673251207770925 10.010009264075835 2.2926830456097824 0 0 0
3126 4 18.644896494903005 11.927823760515366 -0.2276010973000228 0 0 0
2908 18 25.29840256052498 7.432040363883532 1.0922554626799759 0 0 0
2914 20 28.051911235402887 7.017541636796119 1.120833506704977 0 0 0
2910 4 23.979618430587003 7.307819042087368 -0.2276010973000229 0 0 0
2916 16 26.673580832472766 7.700000547316858 0.0036807306207428158 0 0 0
2922 4 29.314340366270994 7.307819042087368 -0.22760109730002276 0 0 0
3133 17 24.009242021155664 9.223392104718018 1.2985400692335105 0 0 0
3135 2 25.357318725181823 9.999973646179532 0.015891493769459194 0 0 0
3139 19 26.656122396823918 9.250051989975747 1.1314396782940668 0 0 0
3141 14 28.007256341277046 10.01000206479274 0.00360080794175089 0 0 0
3145 17 29.343963956839655 9.223392104718014 1.29854006923351 0 0 0
3142 20 28.051911235402887 11.637546355224119 1.1208335067049775 0 0 0
2909 3 23.949377377770087 7.68502355130825 2.360099076123541 0 0 0
2915 15 26.67411059420491 7.700039448660195 2.292281779855907 0 0 0
2921 3 29.284099313454078 7.685023551308247 2.360099076123542 0 0 0
3134 1 25.417586031852892 9.844189705938968 2.35851978581294 0 0 0
3140 13 28.007973143454926 10.010009264075835 2.292683045609783 0 0 0
3138 4 23.979618430587006 11.927823760515366 -0.2276010973000228 0 0 0
3150 4 29.314340366270994 11.927823760515368 -0.22760109730002231 0 0 0
2920 18 30.63312449620897 7.432040363883532 1.0922554626799759 0 0 0
2926 20 33.386633171086885 7.017541636796122 1.120833506704973 0 0 0
2928 16 32.008302768156746 7.700000547316858 0.003680730620742815 0 0 0
2934 4 34.649062301955006 7.307819042087368 -0.22760109730002287 0 0 0
3147 2 30.692040660865807 9.999973646179534 0.015891493769458958 0 0 0
3151 19 31.9908443325079 9.25005198997575 1.1314396782940672 0 0 0
3153 14 33.34197827696102 10.01000206479274 0.003600807941750889 0 0 0
3157 17 34.67868589252365 9.22339210471801 1.2985400692335094 0 0 0
3154 20 33.38663317108689 11.637546355224123 1.1208335067049753 0 0 0
2927 15 32.0088325298889 7.700039448660195 2.292281779855907 0 0 0
2933 3 34.61882124913808 7.685023551308245 2.3600990761235416 0 0 0
3146 1 30.75230796753688 9.84418970593897 2.3585197858129385 0 0 0
3152 13 33.34269507913892 10.010009264075835 2.2926830456097824 0 0 0
3162 4 34.649062301955 11.927823760515368 -0.2276010973000225 0 0 0
2932 18 35.96784643189297 7.432040363883534 1.092255462679979 0 0 0
2938 20 38.721355106770886 7.017541636796122 1.1208335067049733 0 0 0
2944 18 41.302568367576974 7.432040363883534 1.0922554626799792 0 0 0