ITEM: TIMESTEP
0
ITEM: NUMBER OF ATOMS
13145
ITEM: BOX BOUNDS pp pp ff
0.0000000000000000e+00 1.0189012686990399e+02
0.0000000000000000e+00 9.9269368047179995e+01
-5.0000000000000000e+00 1.0000000000000000e+02
ITEM: ATOMS id type xs ys zs
9 2 0.0342246 0.0334999 0.0542284
177 3 0.0220869 0.0401381 0.0731158
697 2 0.00554404 0.0166231 0.0480812
869 2 0.041261 0.0203954 0.0648962
875 2 0.00966163 0.0382998 0.0584487
876 3 0.0294419 0.0418042 0.0686364
1040 3 0.0294784 0.00208285 0.0745165
1 2 0.0711241 0.00898309 0.0616639
10 2 0.0760775 0.041611 0.0490861
179 3 0.0517823 0.0249823 0.0693199
1041 3 0.0612952 0.0194602 0.077046
1048 3 0.0726811 0.0406978 0.0756607
11 2 0.107494 0.031469 0.0515951
180 3 0.101316 0.0306049 0.0743272
708 2 0.0958705 0.0326502 0.0481023
870 2 0.0870128 0.00700523 0.0577732
871 3 0.103113 0.0170628 0.0720264
3 2 0.140512 0.00996138 0.0543532
12 2 0.132589 0.0330366 0.0570658
174 3 0.157446 0.0185791 0.0787856
181 3 0.143076 0.0386593 0.0798733
877 2 0.126858 0.0266442 0.0659002
1050 3 0.163858 0.0405222 0.074862
4 2 0.168026 0.0118546 0.0590766
13 2 0.19053 0.021195 0.0563186
182 3 0.190114 0.0368678 0.0744464
878 2 0.175637 0.0236352 0.0647353
879 2 0.198467 0.0275297 0.065686
1396 3 0.175307 0.000309746 0.0706798
5 2 0.209224 0.00663074 0.0612572
6 2 0.246011 0.00310639 0.0516105
14 2 0.223929 0.0276317 0.0632159
15 2 0.247156 0.0276197 0.0522938
703 2 0.218743 0.00447304 0.0477289
873 3 0.213568 0.00863697 0.0689046
880 2 0.241196 0.0342047 0.0590157
1043 3 0.231668 0.0215206 0.0758877
16 2 0.269906 0.0314241 0.0566438
175 3 0.259046 0.0126005 0.0754836
176 3 0.284098 0.0190828 0.0733332
704 2 0.265884 0.0102549 0.0514461
705 2 0.289522 0.00394207 0.0503569
714 2 0.2888 0.0296793 0.0483698
881 2 0.265128 0.0343768 0.0571454
7 2 0.298809 0.0180327 0.054815
8 2 0.318324 0.00586636 0.0600467
319 3 0.301583 0.000907039 0.0714407
882 2 0.311993 0.02462 0.05628
1046 3 0.317736 0.0188985 0.078669
1402 2 0.307185 0.0429038 0.047947
6234 2 0.33279 0.0335768 0.0510911
6412 3 0.332435 0.0223228 0.0708276
6235 2 0.356179 0.037821 0.0552845
6405 3 0.347252 0.00404767 0.0796604
6413 3 0.355411 0.0306881 0.0783071
7108 3 0.354377 0.0104715 0.0681877
7109 2 0.371771 0.0154151 0.0546326
7113 3 0.339447 0.0283913 0.070816
7114 2 0.367289 0.0402062 0.0568101
6225 2 0.377039 0.00755871 0.0610271
6236 2 0.407245 0.0362952 0.0635897
6946 2 0.412619 0.0246067 0.0508663
7110 2 0.389198 0.00170811 0.0662931
6226 2 0.422971 0.0156888 0.0659934
6237 2 0.451169 0.0331355 0.0655017
6407 3 0.448135 0.0102174 0.0704034
7111 2 0.444665 0.00670087 0.0624522
7115 2 0.42995 0.024813 0.0661345
6227 2 0.464428 0.00848143 0.0501568
6228 2 0.482726 0.0217846 0.0542386
6229 2 0.499179 0.0049278 0.0591661
6415 3 0.474417 0.0389391 0.0700178
6463 3 0.488433 0.00187848 0.0747797
7116 2 0.462972 0.0321042 0.0653293
7117 2 0.488217 0.0215725 0.0602676
6230 2 0.519517 0.0113964 0.0504984
6238 2 0.522093 0.0349096 0.0583112
7118 2 0.511541 0.0234071 0.0594391
7285 3 0.524855 0.0263278 0.0773289
6231 2 0.551276 0.0146977 0.0554676
6232 2 0.576397 0.0136321 0.0529601
6239 2 0.54561 0.0390304 0.0617961
6418 3 0.573996 0.0303643 0.071225
7112 3 0.561037 0.00180128 0.0666727
7119 2 0.552034 0.0378673 0.0503736
7286 3 0.544693 0.0405052 0.0731881
6233 2 0.595554 0.00342687 0.062383
6240 2 0.62371 0.0280718 0.0504793
6410 3 0.61363 0.0170961 0.0682563
7120 3 0.593185 0.0326702 0.0694563
7121 2 0.624883 0.0243973 0.0660074
7280 3 0.593295 0.01196 0.0796888
7288 3 0.612071 0.0423174 0.0763144
5314 3 0.655888 0.00107639 0.0755977
5662 2 0.656569 0.0285872 0.0504822
6241 2 0.651247 0.0388541 0.0585516
6411 3 0.647269 0.0196623 0.0772454
6555 3 0.630852 0.000459727 0.0754216
7122 3 0.647487 0.0235165 0.0697963
4789 3 0.677845 0.000579894 0.0676031
5307 3 0.677685 0.0389908 0.0768194
5313 3 0.688175 0.017611 0.0797325
9438 2 0.680101 0.0240485 0.0649623
9445 2 0.701948 0.0203236 0.0605826
5305 3 0.744749 0.032304 0.0704271
5312 3 0.711971 0.0166073 0.0798179
5482 2 0.74266 0.0137237 0.0580627
5483 2 0.719383 0.0114592 0.0591373
6175 3 0.715545 0.0358964 0.0691211
9437 2 0.738554 0.0300845 0.0643763
5477 2 0.783262 0.0309988 0.064716
6174 3 0.776492 0.0260636 0.0776038
9443 2 0.758289 0.0129471 0.0659883
9444 2 0.773853 0.0161954 0.0484843
5302 3 0.820439 0.0230073 0.0766067
5311 3 0.797526 0.0125862 0.0724903
5481 2 0.812114 0.00481389 0.0553695
6172 3 0.825889 0.0344305 0.0683854
6180 3 0.819974 0.0123229 0.0708087
6181 3 0.796186 0.0120464 0.0758567
9442 2 0.796229 0.0142187 0.0527622
4781 2 0.87263 0.000307554 0.0534082
5301 3 0.86775 0.0266453 0.0723543
5476 2 0.834831 0.0305825 0.0603064
5480 2 0.85241 0.0144847 0.0593161
6179 3 0.86036 0.0104169 0.073263
9435 2 0.863935 0.036888 0.0533394
9436 2 0.84634 0.0214742 0.0577204
4776 3 0.890382 2.39688e-05 0.0778091
5479 2 0.888753 0.0186385 0.0622508
5651 2 0.91525 0.0313714 0.0501527
6164 3 0.912856 0.0391212 0.0784115
6171 3 0.881835 0.0206714 0.0761249
9433 2 0.908857 0.0374929 0.0567357
9434 2 0.885247 0.0263126 0.0529755
9440 2 0.91242 0.0129794 0.0616569
5299 3 0.936942 0.0380913 0.0780146
5478 2 0.932566 0.020614 0.0635949
5839 3 0.92876 0.00255781 0.0786053
9432 2 0.945903 0.0242877 0.0522676
9439 2 0.933968 0.00542454 0.0604087
3244 3 0.993631 0.0296644 0.079588
3254 2 0.986888 0.0103725 0.0531287
5297 3 0.975922 0.022501 0.074996
5475 2 0.970963 0.0226512 0.0528915
6170 3 0.958745 0.0335794 0.0684845
6176 3 0.975124 0.016465 0.0720794
22 2 0.0265791 0.0729869 0.0501136
192 3 0.0199679 0.0755991 0.0712325
889 2 0.0258403 0.0832494 0.0659248
1055 3 0.0414791 0.0636431 0.0726078
1064 3 0.00389877 0.0762084 0.0731365
23 2 0.0496556 0.0681776 0.0512999
187 3 0.0654359 0.0453478 0.0718195
193 3 0.0529212 0.0658523 0.0722449
199 3 0.0643182 0.0860927 0.0761033
883 2 0.0773976 0.0511236 0.0560034
890 2 0.0587398 0.0673968 0.0550446
898 2 0.0677376 0.0869052 0.0627222
17 2 0.0912769 0.0547767 0.0623361
194 3 0.0986957 0.0797637 0.072134
884 2 0.114039 0.0454872 0.0553937
891 2 0.0949307 0.0696588 0.0577712
1057 3 0.107109 0.0588778 0.074979
1405 2 0.113495 0.0559668 0.0477492
1412 2 0.0886454 0.0780232 0.0490738
18 2 0.147587 0.0562816 0.0610294
24 2 0.12867 0.0687122 0.062218
196 3 0.161947 0.0658581 0.0753669
885 2 0.142548 0.0457896 0.065377
900 2 0.132147 0.0854485 0.0600161
1065 3 0.13109 0.0646768 0.0740195
189 3 0.183413 0.0590188 0.0690949
892 2 0.172109 0.0771304 0.0573933
1058 3 0.176299 0.0614213 0.0736373
1059 3 0.199177 0.0609508 0.0755227
19 2 0.247171 0.0499029 0.0656932
25 2 0.229165 0.0656721 0.0644467
886 2 0.210997 0.0585571 0.0560093
887 2 0.233498 0.0577075 0.0585062
893 2 0.245337 0.079065 0.0582904
20 2 0.271142 0.0560981 0.0599126
727 2 0.28585 0.066636 0.0500599
894 2 0.27007 0.0825812 0.0584058
21 2 0.294268 0.0515158 0.065057
26 3 0.304698 0.0734436 0.0679071
721 2 0.316478 0.0494295 0.0544189
888 2 0.29364 0.0481301 0.0637113
895 2 0.30451 0.0772832 0.0662783
896 3 0.325657 0.0662373 0.0704948
7799 2 0.327464 0.0726661 0.0612897
6248 2 0.367357 0.0724588 0.0529588
6420 3 0.361966 0.0580739 0.0724655
6950 2 0.34317 0.0437424 0.0537247
6960 2 0.34116 0.0708978 0.0520198
7129 2 0.36162 0.0833389 0.0550098
7289 3 0.369691 0.048998 0.0773081
7295 3 0.362643 0.0748363 0.0781747
7305 3 0.339954 0.0851155 0.078414
6242 2 0.401597 0.0601161 0.0599469
6430 3 0.396893 0.0771387 0.0756641
6961 2 0.38355 0.0719638 0.0500057
7123 2 0.405652 0.0483821 0.0555309
7290 3 0.389817 0.061712 0.0698844
6249 2 0.421559 0.0713761 0.0572768
6422 3 0.430788 0.0440917 0.0694298
6431 3 0.429984 0.0785508 0.0773988
6432 3 0.454534 0.0856229 0.0748338
7124 3 0.421519 0.0617828 0.0682711
7125 3 0.441668 0.0451931 0.0670695
7130 2 0.422454 0.0814318 0.0551638
6243 2 0.487067 0.0575548 0.0610673
6250 2 0.468489 0.0730545 0.0590298
6424 3 0.460456 0.0582272 0.0793991
7126 2 0.480188 0.0490542 0.0648739
7131 2 0.461915 0.0821254 0.0538292
7298 3 0.468176 0.0691681 0.0728154
6251 2 0.523417 0.07234 0.0488484
6425 3 0.50404 0.0600242 0.0768812
6433 3 0.519191 0.0766093 0.0703904
6434 3 0.540528 0.0788852 0.0787592
6956 2 0.516314 0.0436482 0.0484686
6965 2 0.527165 0.0832348 0.0476883
7132 2 0.521015 0.0650427 0.0608034
7299 3 0.505332 0.0743367 0.0748336
7300 3 0.54066 0.0644858 0.0740253
6244 2 0.582764 0.0510341 0.0632569
6426 3 0.54739 0.0566772 0.0783012
6435 3 0.570931 0.066497 0.0773871
6958 2 0.569804 0.0535739 0.0483059
6966 2 0.56564 0.0778999 0.0506634
7127 3 0.573832 0.0483334 0.0715786
7301 3 0.558409 0.0822378 0.0737426
6245 3 0.60451 0.0590931 0.0675644
6246 2 0.621931 0.0509482 0.0540572
6252 3 0.601105 0.082339 0.0674841
6968 2 0.622245 0.0699067 0.0484901
7128 3 0.611634 0.0647595 0.0673651
7303 3 0.595422 0.0817571 0.0747802
5474 2 0.65837 0.0639955 0.0611052
6247 2 0.641904 0.0589381 0.0652452
6253 2 0.645745 0.083239 0.0596713
5462 2 0.706245 0.0810936 0.0528696
5463 2 0.670742 0.0831709 0.0660102
5473 2 0.673684 0.0458871 0.0544767
6162 3 0.691295 0.0786003 0.0751276
6169 3 0.672852 0.0466153 0.0671074
9426 2 0.68855 0.062723 0.0591422
5295 3 0.713397 0.0565145 0.0795148
5472 2 0.712092 0.058508 0.0571213
5649 2 0.733938 0.0598449 0.0484697
6160 3 0.744611 0.0627358 0.0758865
9425 2 0.724624 0.0709096 0.0650106
9431 2 0.709303 0.0544997 0.055145
5290 3 0.779438 0.065907 0.0798387
5291 3 0.756964 0.0708413 0.0723202
5471 2 0.750832 0.0524107 0.0602167
5648 2 0.771065 0.0466465 0.0499472
6168 3 0.774523 0.0470825 0.0684393
9429 2 0.790918 0.050325 0.0525991
9430 2 0.752268 0.0489685 0.0585826
5470 3 0.794901 0.0501587 0.071923
5639 2 0.812628 0.0830272 0.048454
5647 2 0.802661 0.0606563 0.0524872
6157 3 0.811833 0.066136 0.0760509
6173 3 0.804478 0.0439655 0.0739523
9424 2 0.81867 0.0777907 0.0571796
5289 3 0.83713 0.069228 0.0741032
5468 3 0.864849 0.0487731 0.067226
5469 2 0.844297 0.0542415 0.0586196
6156 3 0.868896 0.0695769 0.0713677
6165 3 0.86092 0.0471159 0.0729431
9415 2 0.858197 0.0858313 0.0564458
4928 2 0.88184 0.0766294 0.0476537
5287 3 0.891733 0.079135 0.0788769
5293 3 0.908221 0.0635839 0.0794898
5461 2 0.884122 0.0813999 0.0556374
5466 2 0.902448 0.0447509 0.0662822
5467 2 0.884751 0.0565811 0.057772
6155 3 0.892836 0.0708197 0.0726828
9423 2 0.906343 0.0649665 0.0544327
5460 3 0.923859 0.0753512 0.0684185
5465 3 0.941725 0.0594569 0.0699086
5644 2 0.949677 0.0586695 0.0484714
6163 3 0.930207 0.0555657 0.0796533
9422 2 0.924797 0.0827819 0.0522708
9428 2 0.935951 0.0606841 0.0580922
3219 2 0.984887 0.0765278 0.0545227
3242 2 0.992766 0.0841477 0.0665836
3243 3 0.987647 0.0525119 0.0735748
5464 3 0.978365 0.0561678 0.0684575
5643 2 0.970618 0.0463083 0.0485702
6154 3 0.969773 0.081091 0.0722661
9421 2 0.958973 0.0689004 0.0547593
9427 2 0.970892 0.0486172 0.0565722
33 2 0.00399897 0.12411 0.0528016
34 2 0.0244888 0.112492 0.0496696
208 3 0.0371504 0.112654 0.0682971
897 3 0.0358893 0.105764 0.0710377
905 2 0.00785534 0.106723 0.0567489
906 2 0.0401659 0.118925 0.0535517
913 2 0.0184544 0.127455 0.0533531
35 2 0.0593562 0.106659 0.0632582
209 3 0.0765337 0.122593 0.0680257
1070 3 0.0570226 0.100422 0.0777075
1078 3 0.065352 0.125032 0.0772125
36 2 0.0930555 0.119106 0.0523242
200 3 0.10435 0.104309 0.0694382
211 3 0.124127 0.112059 0.0782853
899 3 0.0888648 0.0882419 0.0695964
907 2 0.0988769 0.109128 0.0630846
1072 3 0.11975 0.102402 0.0716155
1079 3 0.0887986 0.126003 0.0758771
28 2 0.139055 0.089006 0.0558631
37 2 0.138885 0.114665 0.0595136
38 2 0.161399 0.124495 0.0542585
201 3 0.157589 0.0889875 0.0711588
737 2 0.133987 0.119415 0.0512844
901 2 0.154728 0.0919495 0.0655233
908 2 0.157781 0.113028 0.0567341
1080 3 0.130569 0.12503 0.0747507
29 2 0.173293 0.102934 0.0613718
202 3 0.193595 0.0982337 0.0714857
902 2 0.19279 0.0895741 0.0539509
903 3 0.205256 0.0987509 0.071582
909 2 0.182016 0.124221 0.0592761
1082 3 0.191236 0.116006 0.0797259
30 2 0.211795 0.102023 0.0577495
31 2 0.230366 0.0897638 0.0647131
39 2 0.219184 0.125554 0.0641693
213 3 0.24726 0.11846 0.0780964
910 2 0.227641 0.106896 0.0659594
911 2 0.247241 0.124784 0.0643565
1074 3 0.240888 0.0908655 0.0772652
32 2 0.263653 0.103629 0.0500574
40 2 0.286785 0.109162 0.0601567
204 3 0.252357 0.0975721 0.0698804
219 3 0.279697 0.129694 0.0708205
904 2 0.282776 0.103639 0.0578216
1084 3 0.267459 0.113527 0.0726303
41 2 0.302359 0.12378 0.050803
206 3 0.29347 0.0925388 0.0760403
531 2 0.327308 0.0932336 0.0484552
912 3 0.32573 0.105139 0.0679198
919 2 0.31781 0.12938 0.0556543
1076 3 0.301799 0.103007 0.0750289
1090 3 0.307134 0.130098 0.0783914
6436 3 0.332624 0.102139 0.0785828
6254 2 0.333688 0.0957742 0.0564107
6261 2 0.367788 0.113491 0.0548623
6449 3 0.339376 0.124705 0.0770023
6450 3 0.362205 0.127536 0.0733522
6975 2 0.35451 0.122712 0.0510664
7140 2 0.354114 0.104931 0.0665645
6271 2 0.407855 0.129736 0.0565706
6437 3 0.375284 0.089731 0.0695245
6443 3 0.394848 0.10502 0.0691558
7141 2 0.387386 0.112787 0.060092
7142 3 0.407385 0.120281 0.0690442
7306 3 0.376665 0.101352 0.0768986
6256 2 0.443767 0.105272 0.0646095
6262 2 0.419836 0.108438 0.0619533
6273 2 0.455786 0.125381 0.064288
7133 2 0.42414 0.103646 0.0647216
7312 3 0.444823 0.108962 0.075772
6257 2 0.481412 0.0898943 0.0502153
6258 2 0.487646 0.103836 0.0665061
6263 2 0.491108 0.125039 0.055213
6445 3 0.472262 0.119941 0.0795957
7134 2 0.462246 0.105092 0.0609419
7135 2 0.499251 0.0946946 0.0600031
7143 3 0.482778 0.106401 0.0715759
6259 2 0.510103 0.0983103 0.0659318
6265 2 0.533877 0.123715 0.0509399
6446 3 0.515385 0.115061 0.079142
7136 2 0.520728 0.102827 0.0610477
6260 2 0.55586 0.0871543 0.0634243
6264 2 0.549198 0.110921 0.0644581
6266 2 0.569934 0.122815 0.0637399
6440 3 0.578562 0.0912711 0.0708612
7144 3 0.561229 0.106871 0.0670534
7315 3 0.544088 0.120742 0.0749049
7316 3 0.579268 0.114356 0.0797836
6267 2 0.58687 0.108241 0.0538818
6268 3 0.603704 0.117312 0.0674913
6269 2 0.623803 0.116405 0.0547339
7137 2 0.583796 0.0946455 0.0564673
7138 2 0.612231 0.0995956 0.0647213
7145 2 0.619182 0.120826 0.0533644
7317 3 0.601445 0.118795 0.0742485
6442 3 0.632718 0.102066 0.0702008
7139 2 0.650097 0.0958634 0.0623979
7146 2 0.641679 0.121821 0.0581274
7309 3 0.630772 0.0896941 0.0745442
9406 2 0.665232 0.13001 0.0591912
9420 2 0.665428 0.0925363 0.0495795
5285 3 0.701219 0.0912363 0.073162
5451 3 0.696183 0.114505 0.0671299
6146 3 0.66873 0.106853 0.0681231
6152 3 0.692742 0.103682 0.0698561
9405 2 0.690785 0.128805 0.061246
9414 2 0.706402 0.106736 0.0502648
5284 3 0.735292 0.103633 0.0713557
5450 2 0.71846 0.110561 0.0554149
6145 3 0.746964 0.107526 0.070932
9413 2 0.737974 0.118178 0.0489188
9419 2 0.726182 0.0965407 0.0609162
5276 3 0.787213 0.119126 0.0780542
5282 3 0.791181 0.0958368 0.0760767
5449 3 0.767557 0.123074 0.0697628
5457 2 0.78559 0.0911075 0.054193
5458 2 0.764899 0.107126 0.051873
5459 2 0.750538 0.0899746 0.0605576
6151 3 0.788373 0.0968408 0.0728322
9412 2 0.774872 0.120018 0.062436
9418 2 0.766072 0.0928017 0.0646676
5456 2 0.825797 0.087963 0.0660349
5622 2 0.812799 0.125294 0.0481148
9411 2 0.827196 0.116092 0.0624856
9417 2 0.799983 0.0923572 0.0532029
5274 3 0.840343 0.124423 0.0721431
5454 2 0.864906 0.096729 0.0647665
5455 2 0.841397 0.10338 0.0595056
6144 3 0.850175 0.120183 0.0731422
9410 2 0.86497 0.108499 0.0600381
9416 2 0.835478 0.0925288 0.0647898
5273 3 0.876296 0.117772 0.0735096
5448 2 0.907241 0.123623 0.0552042
5620 2 0.886686 0.109689 0.0486771
6150 3 0.89635 0.0930414 0.0793559
9409 2 0.888194 0.108869 0.064704
5271 3 0.918639 0.114678 0.0732823
5447 3 0.957108 0.106745 0.0668411
5453 3 0.936102 0.099339 0.0699348
6147 3 0.95547 0.0983686 0.0783377
6148 3 0.934138 0.0983576 0.0676775
9408 2 0.928627 0.121519 0.060316
3199 3 0.991657 0.122455 0.0774574
3210 2 0.994179 0.120694 0.0545504
3253 2 0.995299 0.104606 0.0540958
5452 3 0.971357 0.087746 0.0702187
6143 3 0.965797 0.119241 0.0762438
9407 2 0.965878 0.125929 0.0557836
47 2 0.00288165 0.15018 0.0505922
48 2 0.0360236 0.15453 0.0483906
214 3 0.0315115 0.134316 0.0780089
221 3 0.0222231 0.152664 0.0675086
228 3 0.0320969 0.171979 0.078628
920 2 0.0107721 0.162828 0.0607708
921 2 0.031491 0.169877 0.0535385
1086 3 0.0126763 0.141618 0.07152
49 2 0.0608433 0.155102 0.0542731
215 3 0.0692685 0.144401 0.0735201
914 2 0.0568656 0.135075 0.0579932
922 2 0.0478322 0.156393 0.0642745
923 2 0.0828166 0.15573 0.0526598
927 2 0.0672567 0.170385 0.0624636
42 2 0.1089 0.136358 0.0490821
223 3 0.116946 0.146818 0.0679072
224 3 0.103656 0.164886 0.0735962
750 2 0.114472 0.149906 0.0521708
915 3 0.0960328 0.14769 0.0693962
1093 3 0.124979 0.152771 0.0729136
50 2 0.137537 0.154039 0.058693
225 3 0.155622 0.159699 0.0732842
761 2 0.158658 0.172996 0.0500762
924 2 0.147637 0.147873 0.0659274
1087 3 0.162174 0.131349 0.075337
1105 3 0.158311 0.16974 0.072947
43 2 0.201064 0.141254 0.0659438
217 3 0.167821 0.137697 0.0733824
226 3 0.205782 0.162899 0.0776766
925 2 0.184831 0.14893 0.0549358
1094 3 0.17956 0.158992 0.075591
44 2 0.241285 0.135412 0.0608779
227 3 0.241208 0.154451 0.0746782
230 3 0.225662 0.171743 0.0740881
916 2 0.208612 0.138663 0.0544336
917 3 0.224083 0.135469 0.0714697
929 2 0.225037 0.173311 0.0575187
1097 3 0.231721 0.161905 0.0767324
45 2 0.264761 0.141228 0.0567259
51 2 0.259721 0.165223 0.0660697
749 2 0.281485 0.14459 0.0526257
755 2 0.253997 0.159184 0.0513436
918 3 0.252126 0.148318 0.0723743
926 3 0.277525 0.148514 0.0743654
46 2 0.309043 0.142295 0.0634439
52 2 0.303788 0.162918 0.0522588
932 2 0.310466 0.169413 0.0558057
1100 3 0.325005 0.165743 0.0739576
7792 3 0.329953 0.171942 0.0734977
7793 2 0.331003 0.13808 0.0599564
6277 2 0.335673 0.160854 0.0550051
6278 2 0.35878 0.158873 0.0530692
6457 3 0.369196 0.15174 0.0717325
6983 2 0.338126 0.139556 0.0493241
7154 2 0.342583 0.154182 0.0653562
7160 2 0.356322 0.172082 0.0595606
7320 3 0.373941 0.141346 0.0768483
6279 3 0.391438 0.156069 0.0668455
6451 3 0.404184 0.138839 0.0785105
6991 2 0.404421 0.154827 0.0495022
7147 2 0.375539 0.132574 0.0563937
7148 2 0.415366 0.141647 0.0649677
7155 3 0.376857 0.165777 0.0703577
6272 2 0.439993 0.142287 0.0661386
6280 2 0.450825 0.163925 0.0662474
6992 2 0.435431 0.163112 0.051757
7149 2 0.438669 0.139212 0.0581355
7322 3 0.443341 0.133538 0.0789234
6274 2 0.470183 0.135088 0.0502242
6281 2 0.470563 0.158552 0.0564263
6458 3 0.486258 0.167638 0.0710092
6985 2 0.462474 0.143705 0.0522196
6995 2 0.495614 0.167848 0.0498332
7150 2 0.483487 0.13687 0.0649913
7156 3 0.497582 0.156191 0.0692733
7323 3 0.46282 0.14574 0.0798967
6275 2 0.523757 0.142722 0.0614022
6453 3 0.50541 0.133749 0.0699844
7151 2 0.532634 0.135762 0.0590501
7324 3 0.518735 0.145366 0.0753306
7685 2 0.515628 0.161508 0.0503515
6282 2 0.56784 0.154831 0.0531104
6287 2 0.553134 0.172922 0.061538
6454 3 0.578162 0.145795 0.0729195
6469 3 0.576965 0.170437 0.0787753
7157 2 0.558676 0.156557 0.0641105
7158 3 0.581958 0.163314 0.068153
6455 3 0.601796 0.141291 0.06984
6461 3 0.613512 0.162033 0.0713532
7003 2 0.591342 0.173158 0.047845
7152 2 0.590455 0.136618 0.0604376
7153 2 0.612584 0.144444 0.0561795
7334 3 0.623481 0.154089 0.075662
5263 3 0.66285 0.14962 0.0715646
6276 2 0.640873 0.132512 0.05787
6290 2 0.644297 0.168647 0.0544715
6456 3 0.632182 0.146216 0.0753113
6462 3 0.64943 0.161853 0.0761409
7159 2 0.642844 0.147102 0.0615221
5438 2 0.697828 0.156591 0.0622575
5439 2 0.676523 0.151818 0.0538713
5446 3 0.707908 0.136199 0.0714655
6135 3 0.669043 0.151989 0.0679458
6142 3 0.700561 0.144384 0.0760984
9400 2 0.678866 0.166082 0.0532428
5261 3 0.745692 0.162956 0.0773986
5445 2 0.730584 0.132735 0.0626481
6124 3 0.745968 0.170203 0.0789474
6133 3 0.741318 0.150902 0.0671349
9399 2 0.718273 0.150462 0.0615461
5259 3 0.787784 0.155646 0.07149
5437 2 0.752042 0.160856 0.0544384
5444 2 0.769818 0.145384 0.0589133
6132 3 0.786845 0.15648 0.0709341
6141 3 0.751836 0.130479 0.0760455
9391 2 0.771337 0.165882 0.0565012
9398 2 0.755454 0.150982 0.048692
5436 2 0.826897 0.160868 0.0640954
5443 3 0.803639 0.13237 0.068513
6123 3 0.804641 0.170402 0.0705404
6131 3 0.822807 0.154193 0.071091
6140 3 0.814964 0.131631 0.075438
9397 2 0.824919 0.149874 0.0481707
9403 2 0.793369 0.13435 0.066174
5427 2 0.869678 0.170292 0.0546682
5435 3 0.864518 0.151223 0.0673296
5442 2 0.843753 0.143294 0.0602041
6139 3 0.858055 0.143288 0.0756839
5426 2 0.891651 0.172695 0.0634785
5434 3 0.899108 0.150947 0.0671837
5441 2 0.881134 0.137126 0.0603416
6120 3 0.883609 0.172048 0.0729189
6129 3 0.914062 0.148727 0.0751932
6138 3 0.893359 0.132824 0.0689532
9388 2 0.904031 0.168644 0.0604165
9396 2 0.876649 0.150009 0.0644541
9402 2 0.91008 0.133672 0.0498881
5265 3 0.958111 0.131799 0.0776806
5432 2 0.948596 0.166841 0.0586411
5433 2 0.927638 0.16355 0.0664114
5440 2 0.956222 0.143513 0.057405
5603 2 0.91823 0.1468 0.0505537
6128 3 0.927199 0.170428 0.0793882
6137 3 0.930771 0.132222 0.0798468
9395 2 0.945386 0.168373 0.0650112
9401 2 0.945471 0.13222 0.0485301
3209 3 0.986864 0.159891 0.0667615
3252 2 0.997025 0.145179 0.060525
6127 3 0.964046 0.156912 0.0755608
9394 2 0.974605 0.149857 0.0560499
53 2 0.00271201 0.177469 0.065476
68 2 0.00622418 0.209764 0.0619461
765 2 0.00845225 0.201795 0.0514286
933 2 0.0285838 0.191996 0.0607117
1101 3 0.00542917 0.177619 0.0797174
54 2 0.0428927 0.177807 0.0584544
55 2 0.0648554 0.185008 0.0617262
65 2 0.0425032 0.209841 0.0595351
69 2 0.0663664 0.209306 0.0599305
758 2 0.0665678 0.189117 0.0487489
934 2 0.0482248 0.203476 0.0564478
1119 3 0.056124 0.210974 0.0766731
56 2 0.101893 0.179642 0.055963
66 2 0.104839 0.204595 0.0633942
70 2 0.0874043 0.216238 0.0498783
235 3 0.124113 0.188782 0.0698801
928 2 0.119952 0.181431 0.0530875
935 2 0.0904423 0.191372 0.0536134
1112 3 0.0950746 0.198076 0.0743684
1120 3 0.110854 0.216811 0.0758684
57 2 0.133396 0.175695 0.0520165
72 2 0.150602 0.213982 0.0496135
236 3 0.140085 0.206438 0.0696846
237 3 0.157105 0.191544 0.0765984
936 3 0.166403 0.198625 0.0715279
940 2 0.13164 0.211422 0.0657209
1104 3 0.127405 0.177388 0.0757167
1113 3 0.143939 0.19532 0.0794419
1455 2 0.153169 0.188397 0.0483888
58 2 0.168762 0.173975 0.0601265
59 2 0.20394 0.183109 0.0502679
60 3 0.191306 0.178484 0.0684629
245 3 0.199317 0.217192 0.0679123
767 2 0.172137 0.19271 0.0494992
61 2 0.226824 0.188364 0.0564549
75 2 0.222591 0.212204 0.0640031
763 2 0.246724 0.182053 0.0518546
773 2 0.242503 0.215527 0.0490796
937 2 0.210022 0.191175 0.0598761
943 2 0.220982 0.213063 0.0597884
62 2 0.251132 0.186768 0.0594945
63 2 0.281133 0.174332 0.0512654
232 3 0.285142 0.182764 0.0735636
240 3 0.252243 0.199733 0.077554
241 3 0.274695 0.203508 0.0759667
930 2 0.281022 0.186849 0.0533633
938 2 0.26188 0.193989 0.0651172
944 2 0.259959 0.216698 0.0643117
64 2 0.308893 0.183399 0.0665761
67 2 0.311585 0.201757 0.0529682
931 3 0.29645 0.182261 0.0695225
946 2 0.315837 0.214434 0.0593342
1116 3 0.309437 0.200764 0.0766823
6283 2 0.362798 0.181998 0.0534129
6291 2 0.334851 0.207319 0.0509407
6292 2 0.346748 0.19071 0.0648546
6477 3 0.353681 0.213168 0.0732712
7166 2 0.350628 0.200751 0.0536038
7342 3 0.351524 0.192598 0.0748917
6284 2 0.415142 0.185984 0.0562003
6293 2 0.383931 0.192519 0.0577422
6464 3 0.398038 0.178264 0.0721956
6471 3 0.377611 0.207711 0.0735962
7161 2 0.39538 0.174922 0.0608489
7175 3 0.398215 0.213234 0.0685795
6285 2 0.438817 0.176916 0.0505826
6294 3 0.425412 0.203211 0.0675636
6295 3 0.447303 0.194328 0.0692063
7162 2 0.419951 0.175576 0.0662344
7163 2 0.451962 0.179149 0.0599107
7167 3 0.433915 0.196389 0.0672303
7176 2 0.417498 0.209994 0.0565476
7177 2 0.449108 0.210516 0.0547339
6299 2 0.465988 0.211586 0.063167
6300 2 0.487505 0.211958 0.0531501
7000 2 0.475732 0.180702 0.0487595
7168 2 0.471311 0.202813 0.0624942
7178 2 0.491791 0.216728 0.0559577
6286 2 0.5026 0.179406 0.0586218
6296 2 0.533925 0.196606 0.0531771
6473 3 0.516902 0.195265 0.0679216
6479 3 0.504391 0.214334 0.0697697
7169 2 0.523483 0.188107 0.0653905
7180 3 0.525133 0.211583 0.0725484
7338 3 0.509473 0.17764 0.0793442
7354 3 0.502585 0.215029 0.0760158
6288 2 0.577236 0.186765 0.0605444
6297 2 0.557342 0.201283 0.0555622
7010 2 0.568213 0.199505 0.0500353
7164 2 0.543428 0.175521 0.0643825
7170 3 0.55787 0.192384 0.0694661
7339 3 0.575713 0.18279 0.0798584
6474 3 0.590423 0.205955 0.0683278
7011 2 0.591776 0.196863 0.0513977
7171 2 0.615838 0.2014 0.0552414
7349 3 0.591583 0.199993 0.0759423
5422 2 0.657874 0.19827 0.0601656
6289 2 0.625411 0.181037 0.0587972
6302 2 0.632463 0.211633 0.0595939
6476 3 0.627938 0.196916 0.0778109
7165 2 0.629343 0.178237 0.053886
7340 3 0.629511 0.178074 0.0780864
7341 3 0.651711 0.186723 0.0782646
5253 3 0.687643 0.176843 0.0743946
5414 2 0.682326 0.21401 0.0663496
5421 2 0.679603 0.189055 0.0555148
6118 3 0.668695 0.209917 0.0731884
9380 2 0.700934 0.216096 0.0572767
9386 2 0.6852 0.200375 0.0601307
9393 2 0.691932 0.179865 0.066602
5252 3 0.728672 0.17905 0.0799736
5420 2 0.729664 0.193953 0.0635722
9379 2 0.722439 0.210125 0.0635361
9385 2 0.725889 0.191781 0.0494141
9392 2 0.714673 0.174882 0.0627299
5411 2 0.773851 0.21116 0.0553023
5419 3 0.768456 0.191949 0.0675685
5430 2 0.789092 0.179304 0.0630058
5431 2 0.750567 0.185212 0.0559561
6115 3 0.790659 0.208611 0.0736781
9390 2 0.759289 0.183803 0.0663726
5247 3 0.802309 0.197368 0.0723002
5418 3 0.824912 0.201996 0.0693887
6113 2 0.82534 0.19654 0.0665576
9377 2 0.797196 0.21457 0.0524489
9389 2 0.805672 0.177508 0.0489306
4893 2 0.853342 0.175925 0.0481961
5417 2 0.865395 0.207888 0.0621568
5428 3 0.859361 0.185525 0.0687487
5429 3 0.836866 0.180833 0.0717013
6121 3 0.86319 0.187885 0.0773088
6122 3 0.84358 0.18095 0.0672779
5238 3 0.900697 0.216772 0.075724
5246 3 0.908343 0.194313 0.0773065
5409 2 0.886975 0.216723 0.0579869
9383 2 0.901536 0.196966 0.0539037
9384 2 0.880797 0.20147 0.0637448
5416 2 0.954199 0.205127 0.0611908
5424 3 0.956599 0.183651 0.0723042
5425 2 0.921138 0.186356 0.060775
5589 2 0.932557 0.204679 0.0516246
6119 3 0.917921 0.189902 0.0702659
9374 2 0.932644 0.215984 0.0531909
9382 2 0.940497 0.198186 0.0657239
9387 2 0.95664 0.183402 0.0492055
3208 3 0.988582 0.206443 0.0695006
3214 2 0.985893 0.185097 0.0483978
4786 3 0.981616 0.195003 0.0781794
5423 3 0.980443 0.183034 0.0722329
5583 2 0.974135 0.210543 0.0501847
9381 2 0.967905 0.20181 0.0601195
78 2 0.0128422 0.234498 0.0593901
79 2 0.0358877 0.232693 0.0542562
83 2 0.00236735 0.255188 0.0538584
784 2 0.0357931 0.257238 0.0517716
939 2 0.00802189 0.224698 0.0590884
84 2 0.046463 0.252307 0.0624807
249 3 0.0611078 0.248027 0.0794785
776 2 0.054036 0.241178 0.0525594
947 3 0.0606395 0.233157 0.0723924
1126 3 0.0831378 0.236138 0.0775908
71 2 0.117858 0.226241 0.0627353
80 2 0.0977849 0.237971 0.0647911
261 3 0.101683 0.260284 0.0723333
948 2 0.100583 0.233112 0.0613605
949 2 0.123145 0.24322 0.0651158
954 2 0.0915413 0.254851 0.0514978
251 3 0.130086 0.237083 0.0794683
263 3 0.145355 0.254275 0.0715912
941 2 0.164718 0.221922 0.0597992
950 3 0.144814 0.232309 0.0699618
1134 3 0.150462 0.259514 0.0748369
73 2 0.167813 0.222061 0.0647571
74 2 0.185514 0.22093 0.0488259
88 2 0.179992 0.258932 0.0588471
252 3 0.167275 0.244983 0.0715142
942 2 0.204933 0.22789 0.0529658
951 3 0.186072 0.231022 0.0673862
957 2 0.175117 0.258682 0.0560196
1127 3 0.174946 0.250929 0.0775475
254 2 0.212021 0.251676 0.0664761
265 3 0.2345 0.256775 0.0711363
780 2 0.214605 0.249486 0.0527184
959 2 0.23871 0.25254 0.0539545
1128 3 0.247748 0.247683 0.0753242
76 2 0.277124 0.218727 0.0564326
81 2 0.259685 0.234544 0.0567086
90 2 0.264746 0.256459 0.0482534
255 3 0.250022 0.23948 0.0762255
257 3 0.289842 0.246259 0.0707236
945 2 0.27895 0.227879 0.0560499
1129 3 0.288394 0.238985 0.073348
1137 3 0.271414 0.255734 0.0778015
27 3 0.325417 0.234727 0.0682068
77 2 0.29983 0.220554 0.0633715
82 2 0.313511 0.238145 0.0522506
266 3 0.31068 0.256628 0.0783102
952 3 0.306616 0.252573 0.0682195
6399 3 0.329646 0.241816 0.0771772
6305 2 0.337122 0.231062 0.0570702
6306 2 0.364387 0.233084 0.0599075
6314 3 0.36384 0.255549 0.0682191
7025 2 0.333904 0.255784 0.0510261
7172 2 0.346022 0.224604 0.0574606
7173 3 0.364923 0.231012 0.0681751
7368 3 0.365394 0.255081 0.0735128
6307 2 0.401708 0.235086 0.0605023
6316 3 0.401727 0.257903 0.0669812
6478 3 0.38404 0.230392 0.0746222
7174 2 0.382359 0.22253 0.054983
7184 3 0.414025 0.245121 0.0713718
7192 2 0.399812 0.255151 0.0559716
6298 2 0.423137 0.226678 0.0638685
6308 2 0.441835 0.244507 0.0570498
7183 2 0.426835 0.231811 0.0563975
7361 3 0.442405 0.239227 0.0756037
7370 3 0.452974 0.260399 0.0726653
6309 2 0.492486 0.24335 0.0491805
6485 3 0.45976 0.234056 0.0693213
6486 3 0.479179 0.247814 0.0678425
7185 2 0.472396 0.232978 0.0531934
7186 2 0.486968 0.249603 0.0637105
7353 3 0.461039 0.225609 0.0755396
6489 3 0.51895 0.23278 0.0696999
7179 2 0.529425 0.227603 0.0565514
7187 2 0.506659 0.237694 0.0560216
7188 2 0.539438 0.249824 0.064257
7364 3 0.51644 0.249 0.0765462
7713 2 0.517661 0.241635 0.0483875
6310 2 0.559804 0.241715 0.0549421
6481 3 0.556963 0.221336 0.0684583
6499 3 0.553725 0.258041 0.0707532
7189 2 0.558403 0.235809 0.0622664
7193 2 0.573117 0.253034 0.0562127
6301 2 0.598581 0.225356 0.0563495
6303 2 0.620563 0.230131 0.0579137
6311 2 0.583828 0.243993 0.059517
6491 3 0.624656 0.238017 0.0773563
7181 2 0.617312 0.224808 0.0593619
7194 2 0.609053 0.256311 0.0553168
7366 3 0.614782 0.237252 0.0786742
7375 3 0.589386 0.257956 0.0728233
6312 2 0.629696 0.251077 0.0493739
6501 3 0.639753 0.255311 0.0757471
7182 2 0.639048 0.232188 0.0539808
7195 3 0.625584 0.258771 0.073565
7196 2 0.645502 0.253102 0.0633194
7602 2 0.653408 0.219817 0.0587123
7790 2 0.65455 0.22116 0.0664863
7795 2 0.653274 0.243556 0.0613482
5399 3 0.666956 0.260667 0.0716865
5407 2 0.699522 0.243762 0.065141
5408 2 0.671484 0.237235 0.0575155
5588 2 0.697743 0.224508 0.0490672
6099 3 0.674886 0.244839 0.0721905
9372 2 0.69667 0.238298 0.0643338
4872 2 0.722983 0.246455 0.0500135
5232 3 0.718874 0.240134 0.0762788
5398 3 0.733575 0.256552 0.068959
5413 3 0.731472 0.218029 0.0683952
6098 3 0.720659 0.245909 0.0736567