ITEM: TIMESTEP
0
ITEM: NUMBER OF ATOMS
16601
ITEM: BOX BOUNDS pp pp ff
0.0000000000000000e+00 1.0189012686990399e+02
0.0000000000000000e+00 9.9269368047179995e+01
-3.5500000000000000e+01 1.0000000000000000e+02
ITEM: ATOMS id type xs ys zs
9 2 0.0342246 0.0334999 0.267114
697 2 0.00554404 0.0166231 0.262351
869 2 0.041261 0.0203954 0.275381
875 2 0.00966163 0.0382998 0.270385
876 3 0.0294419 0.0418042 0.278279
1 2 0.0711241 0.00898309 0.272876
10 2 0.0760775 0.041611 0.263129
179 3 0.0517823 0.0249823 0.278809
11 2 0.107494 0.031469 0.265074
708 2 0.0958705 0.0326502 0.262367
870 2 0.0870128 0.00700523 0.269861
871 3 0.103113 0.0170628 0.280906
3 2 0.140512 0.00996138 0.267211
12 2 0.132589 0.0330366 0.269313
877 2 0.126858 0.0266442 0.276159
4 2 0.168026 0.0118546 0.270871
13 2 0.19053 0.021195 0.268734
878 2 0.175637 0.0236352 0.275256
879 2 0.198467 0.0275297 0.275993
1396 3 0.175307 0.000309746 0.279863
5 2 0.209224 0.00663074 0.272561
6 2 0.246011 0.00310639 0.265086
14 2 0.223929 0.0276317 0.274079
15 2 0.247156 0.0276197 0.265615
703 2 0.218743 0.00447304 0.262078
873 3 0.213568 0.00863697 0.278487
880 2 0.241196 0.0342047 0.270824
16 2 0.269906 0.0314241 0.268986
704 2 0.265884 0.0102549 0.264958
705 2 0.289522 0.00394207 0.264114
714 2 0.2888 0.0296793 0.262574
881 2 0.265128 0.0343768 0.269375
7 2 0.298809 0.0180327 0.267569
8 2 0.318324 0.00586636 0.271623
319 3 0.301583 0.000907039 0.280452
882 2 0.311993 0.02462 0.268704
1402 2 0.307185 0.0429038 0.262247
6234 2 0.33279 0.0335768 0.264683
6412 3 0.332435 0.0223228 0.279977
6235 2 0.356179 0.037821 0.267933
7108 3 0.354377 0.0104715 0.277931
7109 2 0.371771 0.0154151 0.267427
7113 3 0.339447 0.0283913 0.279968
7114 2 0.367289 0.0402062 0.269115
6225 2 0.377039 0.00755871 0.272383
6236 2 0.407245 0.0362952 0.274368
6946 2 0.412619 0.0246067 0.264509
7110 2 0.389198 0.00170811 0.276463
6226 2 0.422971 0.0156888 0.276231
6237 2 0.451169 0.0331355 0.27585
6407 3 0.448135 0.0102174 0.279648
7111 2 0.444665 0.00670087 0.273487
7115 2 0.42995 0.024813 0.27634
6227 2 0.464428 0.00848143 0.263959
6228 2 0.482726 0.0217846 0.267122
6229 2 0.499179 0.0049278 0.27094
6415 3 0.474417 0.0389391 0.27935
7116 2 0.462972 0.0321042 0.275716
7117 2 0.488217 0.0215725 0.271794
6230 2 0.519517 0.0113964 0.264224
6238 2 0.522093 0.0349096 0.270278
7118 2 0.511541 0.0234071 0.271152
6231 2 0.551276 0.0146977 0.268075
6232 2 0.576397 0.0136321 0.266131
6239 2 0.54561 0.0390304 0.272979
6418 3 0.573996 0.0303643 0.280285
7112 3 0.561037 0.00180128 0.276757
7119 2 0.552034 0.0378673 0.264127
6233 2 0.595554 0.00342687 0.273433
6240 2 0.62371 0.0280718 0.264209
6410 3 0.61363 0.0170961 0.277985
7120 3 0.593185 0.0326702 0.278914
7121 2 0.624883 0.0243973 0.276242
5662 2 0.656569 0.0285872 0.264211
6241 2 0.651247 0.0388541 0.270464
7122 3 0.647487 0.0235165 0.279178
4789 3 0.677845 0.000579894 0.277478
9438 2 0.680101 0.0240485 0.275432
9445 2 0.701948 0.0203236 0.272038
5305 3 0.744749 0.032304 0.279667
5482 2 0.74266 0.0137237 0.270085
5483 2 0.719383 0.0114592 0.270918
6175 3 0.715545 0.0358964 0.278655
9437 2 0.738554 0.0300845 0.274978
5477 2 0.783262 0.0309988 0.275241
9443 2 0.758289 0.0129471 0.276227
9444 2 0.773853 0.0161954 0.262663
5481 2 0.812114 0.00481389 0.267999
6172 3 0.825889 0.0344305 0.278085
6180 3 0.819974 0.0123229 0.279962
9442 2 0.796229 0.0142187 0.265978
4781 2 0.87263 0.000307554 0.266479
5301 3 0.86775 0.0266453 0.28116
5476 2 0.834831 0.0305825 0.271824
5480 2 0.85241 0.0144847 0.271057
9435 2 0.863935 0.036888 0.266425
9436 2 0.84634 0.0214742 0.26982
5479 2 0.888753 0.0186385 0.273331
5651 2 0.91525 0.0313714 0.263956
9433 2 0.908857 0.0374929 0.269057
9434 2 0.885247 0.0263126 0.266143
9440 2 0.91242 0.0129794 0.272871
5478 2 0.932566 0.020614 0.274372
9432 2 0.945903 0.0242877 0.265595
9439 2 0.933968 0.00542454 0.271903
3254 2 0.986888 0.0103725 0.266262
5475 2 0.970963 0.0226512 0.266078
6170 3 0.958745 0.0335794 0.278161
6176 3 0.975124 0.016465 0.280947
22 2 0.0265791 0.0729869 0.263926
192 3 0.0199679 0.0755991 0.280291
889 2 0.0258403 0.0832494 0.276178
23 2 0.0496556 0.0681776 0.264845
187 3 0.0654359 0.0453478 0.280746
193 3 0.0529212 0.0658523 0.281075
883 2 0.0773976 0.0511236 0.26849
890 2 0.0587398 0.0673968 0.267747
898 2 0.0677376 0.0869052 0.273696
17 2 0.0912769 0.0547767 0.273397
194 3 0.0986957 0.0797637 0.280989
884 2 0.114039 0.0454872 0.268017
891 2 0.0949307 0.0696588 0.26986
1405 2 0.113495 0.0559668 0.262093
1412 2 0.0886454 0.0780232 0.26312
18 2 0.147587 0.0562816 0.272384
24 2 0.12867 0.0687122 0.273305
885 2 0.142548 0.0457896 0.275753
900 2 0.132147 0.0854485 0.271599
189 3 0.183413 0.0590188 0.278634
892 2 0.172109 0.0771304 0.269567
19 2 0.247171 0.0499029 0.275998
25 2 0.229165 0.0656721 0.275032
886 2 0.210997 0.0585571 0.268494
887 2 0.233498 0.0577075 0.270429
893 2 0.245337 0.079065 0.270262
20 2 0.271142 0.0560981 0.271519
727 2 0.28585 0.066636 0.263884
894 2 0.27007 0.0825812 0.270351
21 2 0.294268 0.0515158 0.275505
26 3 0.304698 0.0734436 0.277714
721 2 0.316478 0.0494295 0.267262
888 2 0.29364 0.0481301 0.274463
895 2 0.30451 0.0772832 0.276452
896 3 0.325657 0.0662373 0.279719
7799 2 0.327464 0.0726661 0.272586
6248 2 0.367357 0.0724588 0.26613
6420 3 0.361966 0.0580739 0.281246
6950 2 0.34317 0.0437424 0.266724
6960 2 0.34116 0.0708978 0.265403
7129 2 0.36162 0.0833389 0.26772
6242 2 0.401597 0.0601161 0.271546
6961 2 0.38355 0.0719638 0.263842
7123 2 0.405652 0.0483821 0.268124
7290 3 0.389817 0.061712 0.279246
6249 2 0.421559 0.0713761 0.269476
6422 3 0.430788 0.0440917 0.278894
7124 3 0.421519 0.0617828 0.277996
7125 3 0.441668 0.0451931 0.277065
7130 2 0.422454 0.0814318 0.267839
6243 2 0.487067 0.0575548 0.272414
6250 2 0.468489 0.0730545 0.270835
7126 2 0.480188 0.0490542 0.275364
7131 2 0.461915 0.0821254 0.266805
6251 2 0.523417 0.07234 0.262945
6433 3 0.519191 0.0766093 0.279638
6956 2 0.516314 0.0436482 0.262651
6965 2 0.527165 0.0832348 0.262046
7132 2 0.521015 0.0650427 0.272209
6244 2 0.582764 0.0510341 0.27411
6958 2 0.569804 0.0535739 0.262525
6966 2 0.56564 0.0778999 0.264352
7127 3 0.573832 0.0483334 0.280559
6245 3 0.60451 0.0590931 0.277448
6246 2 0.621931 0.0509482 0.266982
6252 3 0.601105 0.082339 0.277386
6968 2 0.622245 0.0699067 0.262668
7128 3 0.611634 0.0647595 0.277294
5474 2 0.65837 0.0639955 0.272443
6247 2 0.641904 0.0589381 0.275651
6253 2 0.645745 0.083239 0.271332
5462 2 0.706245 0.0810936 0.266061
5463 2 0.670742 0.0831709 0.276244
5473 2 0.673684 0.0458871 0.267307
6169 3 0.672852 0.0466153 0.277094
9426 2 0.68855 0.062723 0.270922
5472 2 0.712092 0.058508 0.269356
5649 2 0.733938 0.0598449 0.262652
9425 2 0.724624 0.0709096 0.275469
9431 2 0.709303 0.0544997 0.267825
5291 3 0.756964 0.0708413 0.281134
5471 2 0.750832 0.0524107 0.271755
5648 2 0.771065 0.0466465 0.263797
6168 3 0.774523 0.0470825 0.278126
9429 2 0.790918 0.050325 0.265852
9430 2 0.752268 0.0489685 0.270488
5470 3 0.794901 0.0501587 0.280826
5639 2 0.812628 0.0830272 0.26264
5647 2 0.802661 0.0606563 0.265765
9424 2 0.81867 0.0777907 0.269401
5468 3 0.864849 0.0487731 0.277186
5469 2 0.844297 0.0542415 0.270517
6156 3 0.868896 0.0695769 0.280396
9415 2 0.858197 0.0858313 0.268833
4928 2 0.88184 0.0766294 0.262019
5461 2 0.884122 0.0813999 0.268206
5466 2 0.902448 0.0447509 0.276455
5467 2 0.884751 0.0565811 0.26986
9423 2 0.906343 0.0649665 0.267273
5460 3 0.923859 0.0753512 0.27811
5465 3 0.941725 0.0594569 0.279265
5644 2 0.949677 0.0586695 0.262653
9422 2 0.924797 0.0827819 0.265597
9428 2 0.935951 0.0606841 0.270108
3219 2 0.984887 0.0765278 0.267342
3242 2 0.992766 0.0841477 0.276688
5464 3 0.978365 0.0561678 0.278141
5643 2 0.970618 0.0463083 0.26273
6154 3 0.969773 0.081091 0.281092
9421 2 0.958973 0.0689004 0.267526
9427 2 0.970892 0.0486172 0.26893
33 2 0.00399897 0.12411 0.266009
34 2 0.0244888 0.112492 0.263582
208 3 0.0371504 0.112654 0.278016
897 3 0.0358893 0.105764 0.28014
905 2 0.00785534 0.106723 0.269067
906 2 0.0401659 0.118925 0.26659
913 2 0.0184544 0.127455 0.266436
35 2 0.0593562 0.106659 0.274112
209 3 0.0765337 0.122593 0.277806
36 2 0.0930555 0.119106 0.265639
200 3 0.10435 0.104309 0.2789
899 3 0.0888648 0.0882419 0.279023
907 2 0.0988769 0.109128 0.273977
1072 3 0.11975 0.102402 0.280588
28 2 0.139055 0.089006 0.268381
37 2 0.138885 0.114665 0.27121
38 2 0.161399 0.124495 0.267138
201 3 0.157589 0.0889875 0.280234
737 2 0.133987 0.119415 0.264833
901 2 0.154728 0.0919495 0.275867
908 2 0.157781 0.113028 0.269056
29 2 0.173293 0.102934 0.27265
202 3 0.193595 0.0982337 0.280487
902 2 0.19279 0.0895741 0.266899
903 3 0.205256 0.0987509 0.280562
909 2 0.182016 0.124221 0.271026
30 2 0.211795 0.102023 0.269843
31 2 0.230366 0.0897638 0.275239
39 2 0.219184 0.125554 0.274818
910 2 0.227641 0.106896 0.276205
911 2 0.247241 0.124784 0.274963
32 2 0.263653 0.103629 0.263882
40 2 0.286785 0.109162 0.271708
204 3 0.252357 0.0975721 0.279243
219 3 0.279697 0.129694 0.279972
904 2 0.282776 0.103639 0.269899
41 2 0.302359 0.12378 0.26446
531 2 0.327308 0.0932336 0.262641
912 3 0.32573 0.105139 0.277724
919 2 0.31781 0.12938 0.268219
6254 2 0.333688 0.0957742 0.268805
6261 2 0.367788 0.113491 0.267605
6975 2 0.35451 0.122712 0.264664
7140 2 0.354114 0.104931 0.276674
6271 2 0.407855 0.129736 0.268929
6437 3 0.375284 0.089731 0.278967
6443 3 0.394848 0.10502 0.278682
7141 2 0.387386 0.112787 0.271658
7142 3 0.407385 0.120281 0.278595
6256 2 0.443767 0.105272 0.275159
6262 2 0.419836 0.108438 0.2731
6273 2 0.455786 0.125381 0.27491
7133 2 0.42414 0.103646 0.275245
6257 2 0.481412 0.0898943 0.264005
6258 2 0.487646 0.103836 0.276628
6263 2 0.491108 0.125039 0.267877
7134 2 0.462246 0.105092 0.272317
7135 2 0.499251 0.0946946 0.271589
7143 3 0.482778 0.106401 0.280557
6259 2 0.510103 0.0983103 0.276183
6265 2 0.533877 0.123715 0.264566
7136 2 0.520728 0.102827 0.272399
6260 2 0.55586 0.0871543 0.27424
6264 2 0.549198 0.110921 0.275041
6266 2 0.569934 0.122815 0.274485
6440 3 0.578562 0.0912711 0.280003
7144 3 0.561229 0.106871 0.277052
6267 2 0.58687 0.108241 0.266846
6268 3 0.603704 0.117312 0.277392
6269 2 0.623803 0.116405 0.267506
7137 2 0.583796 0.0946455 0.268849
7138 2 0.612231 0.0995956 0.275245
7145 2 0.619182 0.120826 0.266445
6442 3 0.632718 0.102066 0.279491
7139 2 0.650097 0.0958634 0.273445
7146 2 0.641679 0.121821 0.270136
9406 2 0.665232 0.13001 0.27096
9420 2 0.665428 0.0925363 0.263512
5451 3 0.696183 0.114505 0.277112
6146 3 0.66873 0.106853 0.277881
6152 3 0.692742 0.103682 0.279224
9405 2 0.690785 0.128805 0.272552
9414 2 0.706402 0.106736 0.264043
5284 3 0.735292 0.103633 0.280386
5450 2 0.71846 0.110561 0.268034
6145 3 0.746964 0.107526 0.280058
9413 2 0.737974 0.118178 0.263
9419 2 0.726182 0.0965407 0.272297
5449 3 0.767557 0.123074 0.279152
5457 2 0.78559 0.0911075 0.267087
5458 2 0.764899 0.107126 0.265289
5459 2 0.750538 0.0899746 0.272019
9412 2 0.774872 0.120018 0.273474
9418 2 0.766072 0.0928017 0.275204
5456 2 0.825797 0.087963 0.276263
5622 2 0.812799 0.125294 0.262377
9411 2 0.827196 0.116092 0.273513
9417 2 0.799983 0.0923572 0.26632
5274 3 0.840343 0.124423 0.280996
5454 2 0.864906 0.096729 0.27528
5455 2 0.841397 0.10338 0.271204
9410 2 0.86497 0.108499 0.271616
9416 2 0.835478 0.0925288 0.275298
5448 2 0.907241 0.123623 0.26787
5620 2 0.886686 0.109689 0.262813
9409 2 0.888194 0.108869 0.275232
5447 3 0.957108 0.106745 0.276888
5453 3 0.936102 0.099339 0.279285
6148 3 0.934138 0.0983576 0.277536
9408 2 0.928627 0.121519 0.271832
3210 2 0.994179 0.120694 0.267364
3253 2 0.995299 0.104606 0.267011
5452 3 0.971357 0.087746 0.279505
9407 2 0.965878 0.125929 0.268319
47 2 0.00288165 0.15018 0.264297
48 2 0.0360236 0.15453 0.26259
221 3 0.0222231 0.152664 0.277405
920 2 0.0107721 0.162828 0.272184
921 2 0.031491 0.169877 0.26658
1086 3 0.0126763 0.141618 0.280514
49 2 0.0608433 0.155102 0.267149
914 2 0.0568656 0.135075 0.270032
922 2 0.0478322 0.156393 0.274899
923 2 0.0828166 0.15573 0.265899
927 2 0.0672567 0.170385 0.273496
42 2 0.1089 0.136358 0.263126
223 3 0.116946 0.146818 0.277714
750 2 0.114472 0.149906 0.26552
915 3 0.0960328 0.14769 0.278868
50 2 0.137537 0.154039 0.270574
761 2 0.158658 0.172996 0.263897
924 2 0.147637 0.147873 0.27618
43 2 0.201064 0.141254 0.276193
925 2 0.184831 0.14893 0.267662
44 2 0.241285 0.135412 0.272267
916 2 0.208612 0.138663 0.267273
917 3 0.224083 0.135469 0.280475
929 2 0.225037 0.173311 0.269664
45 2 0.264761 0.141228 0.26905
51 2 0.259721 0.165223 0.27629
749 2 0.281485 0.14459 0.265872
755 2 0.253997 0.159184 0.264879
918 3 0.252126 0.148318 0.281176
46 2 0.309043 0.142295 0.274255
52 2 0.303788 0.162918 0.265588
932 2 0.310466 0.169413 0.268337
7793 2 0.331003 0.13808 0.271553
6277 2 0.335673 0.160854 0.267716
6278 2 0.35878 0.158873 0.266216
6457 3 0.369196 0.15174 0.280678
6983 2 0.338126 0.139556 0.263314
7154 2 0.342583 0.154182 0.275737
7160 2 0.356322 0.172082 0.271246
6279 3 0.391438 0.156069 0.276891
6991 2 0.404421 0.154827 0.263452
7147 2 0.375539 0.132574 0.268792
7148 2 0.415366 0.141647 0.275436
7155 3 0.376857 0.165777 0.279613
6272 2 0.439993 0.142287 0.276344
6280 2 0.450825 0.163925 0.276428
6992 2 0.435431 0.163112 0.265199
7149 2 0.438669 0.139212 0.270142
6274 2 0.470183 0.135088 0.264011
6281 2 0.470563 0.158552 0.268817
6458 3 0.486258 0.167638 0.280118
6985 2 0.462474 0.143705 0.265558
6995 2 0.495614 0.167848 0.263708
7150 2 0.483487 0.13687 0.275454
7156 3 0.497582 0.156191 0.278773
6275 2 0.523757 0.142722 0.272673
6453 3 0.50541 0.133749 0.279324
7151 2 0.532634 0.135762 0.270851
7685 2 0.515628 0.161508 0.26411
6282 2 0.56784 0.154831 0.266248
6287 2 0.553134 0.172922 0.272779
7157 2 0.558676 0.156557 0.274772
7158 3 0.581958 0.163314 0.277905
6455 3 0.601796 0.141291 0.279212
6461 3 0.613512 0.162033 0.280384
7003 2 0.591342 0.173158 0.262168
7152 2 0.590455 0.136618 0.271926
7153 2 0.612584 0.144444 0.268626
5263 3 0.66285 0.14962 0.280548
6276 2 0.640873 0.132512 0.269936
6290 2 0.644297 0.168647 0.267303
7159 2 0.642844 0.147102 0.272766
5438 2 0.697828 0.156591 0.273336
5439 2 0.676523 0.151818 0.266838
5446 3 0.707908 0.136199 0.280471
6135 3 0.669043 0.151989 0.277744
9400 2 0.678866 0.166082 0.266351
5445 2 0.730584 0.132735 0.273639
6133 3 0.741318 0.150902 0.277116
9399 2 0.718273 0.150462 0.272785
5259 3 0.787784 0.155646 0.28049
5437 2 0.752042 0.160856 0.267277
5444 2 0.769818 0.145384 0.270745
6132 3 0.786845 0.15648 0.28006
9391 2 0.771337 0.165882 0.268875
9398 2 0.755454 0.150982 0.262824
5436 2 0.826897 0.160868 0.27476
5443 3 0.803639 0.13237 0.278184
6123 3 0.804641 0.170402 0.279755
6131 3 0.822807 0.154193 0.280181
9397 2 0.824919 0.149874 0.26242
9403 2 0.793369 0.13435 0.276371
5427 2 0.869678 0.170292 0.267455
5435 3 0.864518 0.151223 0.277266
5442 2 0.843753 0.143294 0.271745
5426 2 0.891651 0.172695 0.274282
5434 3 0.899108 0.150947 0.277153
5441 2 0.881134 0.137126 0.271851
6138 3 0.893359 0.132824 0.278525
9388 2 0.904031 0.168644 0.271909
9396 2 0.876649 0.150009 0.275038
9402 2 0.91008 0.133672 0.263751
5432 2 0.948596 0.166841 0.270534
5433 2 0.927638 0.16355 0.276555
5440 2 0.956222 0.143513 0.269576
5603 2 0.91823 0.1468 0.264267
9395 2 0.945386 0.168373 0.27547
9401 2 0.945471 0.13222 0.262699
3209 3 0.986864 0.159891 0.276826
3252 2 0.997025 0.145179 0.271994
9394 2 0.974605 0.149857 0.268526
53 2 0.00271201 0.177469 0.27583
68 2 0.00622418 0.209764 0.273095
765 2 0.00845225 0.201795 0.264945
933 2 0.0285838 0.191996 0.272138
54 2 0.0428927 0.177807 0.270389
55 2 0.0648554 0.185008 0.272924
65 2 0.0425032 0.209841 0.271226
69 2 0.0663664 0.209306 0.271533
758 2 0.0665678 0.189117 0.262868
934 2 0.0482248 0.203476 0.268834
56 2 0.101893 0.179642 0.268458
66 2 0.104839 0.204595 0.274217
70 2 0.0874043 0.216238 0.263743
235 3 0.124113 0.188782 0.279243
928 2 0.119952 0.181431 0.26623
935 2 0.0904423 0.191372 0.266638
57 2 0.133396 0.175695 0.2654
72 2 0.150602 0.213982 0.263538
236 3 0.140085 0.206438 0.279091
936 3 0.166403 0.198625 0.28052
940 2 0.13164 0.211422 0.27602
1455 2 0.153169 0.188397 0.262589
58 2 0.168762 0.173975 0.271685
59 2 0.20394 0.183109 0.264045
60 3 0.191306 0.178484 0.278145
245 3 0.199317 0.217192 0.277718
767 2 0.172137 0.19271 0.26345
61 2 0.226824 0.188364 0.26884
75 2 0.222591 0.212204 0.274689
763 2 0.246724 0.182053 0.265275
773 2 0.242503 0.215527 0.263124
937 2 0.210022 0.191175 0.271491
943 2 0.220982 0.213063 0.271423
62 2 0.251132 0.186768 0.271195
63 2 0.281133 0.174332 0.264818
930 2 0.281022 0.186849 0.266444
938 2 0.26188 0.193989 0.275552
944 2 0.259959 0.216698 0.274928
64 2 0.308893 0.183399 0.276683
67 2 0.311585 0.201757 0.266138
931 3 0.29645 0.182261 0.278966
946 2 0.315837 0.214434 0.271071
6283 2 0.362798 0.181998 0.266482
6291 2 0.334851 0.207319 0.264567
6292 2 0.346748 0.19071 0.275349
7166 2 0.350628 0.200751 0.26663
6284 2 0.415142 0.185984 0.268642
6293 2 0.383931 0.192519 0.269837
6464 3 0.398038 0.178264 0.281037
7161 2 0.39538 0.174922 0.272245
7175 3 0.398215 0.213234 0.278235
6285 2 0.438817 0.176916 0.264289
6294 3 0.425412 0.203211 0.277448
6295 3 0.447303 0.194328 0.278721
7162 2 0.419951 0.175576 0.276418
7163 2 0.451962 0.179149 0.271518
7167 3 0.433915 0.196389 0.27719
7176 2 0.417498 0.209994 0.268911
7177 2 0.449108 0.210516 0.267506
6299 2 0.465988 0.211586 0.274041
6300 2 0.487505 0.211958 0.266279
7000 2 0.475732 0.180702 0.262876
7168 2 0.471311 0.202813 0.273519
7178 2 0.491791 0.216728 0.268454
6286 2 0.5026 0.179406 0.270519
6296 2 0.533925 0.196606 0.2663
6473 3 0.516902 0.195265 0.277725
6479 3 0.504391 0.214334 0.279157
7169 2 0.523483 0.188107 0.275764
6288 2 0.577236 0.186765 0.272009
6297 2 0.557342 0.201283 0.268148
7010 2 0.568213 0.199505 0.263865
7164 2 0.543428 0.175521 0.274983
7170 3 0.55787 0.192384 0.278922
6474 3 0.590423 0.205955 0.27804
7011 2 0.591776 0.196863 0.264921
7171 2 0.615838 0.2014 0.267899
5422 2 0.657874 0.19827 0.271715
6289 2 0.625411 0.181037 0.270655
6302 2 0.632463 0.211633 0.271272
7165 2 0.629343 0.178237 0.266849
5414 2 0.682326 0.21401 0.276507
5421 2 0.679603 0.189055 0.268111
9380 2 0.700934 0.216096 0.269476
9386 2 0.6852 0.200375 0.271688
9393 2 0.691932 0.179865 0.276703
5420 2 0.729664 0.193953 0.274355
9379 2 0.722439 0.210125 0.274327
9385 2 0.725889 0.191781 0.263384
9392 2 0.714673 0.174882 0.273702
5411 2 0.773851 0.21116 0.267946
5419 3 0.768456 0.191949 0.277452
5430 2 0.789092 0.179304 0.273916
5431 2 0.750567 0.185212 0.268453
9390 2 0.759289 0.183803 0.276525
5247 3 0.802309 0.197368 0.281118
5418 3 0.824912 0.201996 0.278862
6113 2 0.82534 0.19654 0.276668
9377 2 0.797196 0.21457 0.265735
9389 2 0.805672 0.177508 0.263009
4893 2 0.853342 0.175925 0.26244
5417 2 0.865395 0.207888 0.273258
5428 3 0.859361 0.185525 0.278366
5429 3 0.836866 0.180833 0.280654
6122 3 0.84358 0.18095 0.277226
5409 2 0.886975 0.216723 0.270027
9383 2 0.901536 0.196966 0.266863
9384 2 0.880797 0.20147 0.274489
5416 2 0.954199 0.205127 0.272509
5424 3 0.956599 0.183651 0.281121
5425 2 0.921138 0.186356 0.272187
5589 2 0.932557 0.204679 0.265097
6119 3 0.917921 0.189902 0.279542
9374 2 0.932644 0.215984 0.26631
9382 2 0.940497 0.198186 0.276022
9387 2 0.95664 0.183402 0.263222
3208 3 0.988582 0.206443 0.278949
3214 2 0.985893 0.185097 0.262596
5423 3 0.980443 0.183034 0.281066
5583 2 0.974135 0.210543 0.263981
9381 2 0.967905 0.20181 0.271679
78 2 0.0128422 0.234498 0.271114
79 2 0.0358877 0.232693 0.267136
83 2 0.00236735 0.255188 0.266828
784 2 0.0357931 0.257238 0.26521
939 2 0.00802189 0.224698 0.27088
84 2 0.046463 0.252307 0.273509
776 2 0.054036 0.241178 0.265821
947 3 0.0606395 0.233157 0.28119
71 2 0.117858 0.226241 0.273706
80 2 0.0977849 0.237971 0.275299
261 3 0.101683 0.260284 0.281144
948 2 0.100583 0.233112 0.272641
949 2 0.123145 0.24322 0.275551
954 2 0.0915413 0.254851 0.264998
263 3 0.145355 0.254275 0.280569
941 2 0.164718 0.221922 0.271431
950 3 0.144814 0.232309 0.279306
73 2 0.167813 0.222061 0.275273
74 2 0.185514 0.22093 0.262928
88 2 0.179992 0.258932 0.270693
252 3 0.167275 0.244983 0.280509
942 2 0.204933 0.22789 0.266136
951 3 0.186072 0.231022 0.27731
957 2 0.175117 0.258682 0.268502
254 2 0.212021 0.251676 0.276605
265 3 0.2345 0.256775 0.280216
780 2 0.214605 0.249486 0.265944
959 2 0.23871 0.25254 0.266902
76 2 0.277124 0.218727 0.268822
81 2 0.259685 0.234544 0.269036
90 2 0.264746 0.256459 0.262484
257 3 0.289842 0.246259 0.279897
945 2 0.27895 0.227879 0.268526
27 3 0.325417 0.234727 0.277946
77 2 0.29983 0.220554 0.274199
82 2 0.313511 0.238145 0.265582
952 3 0.306616 0.252573 0.277956
6305 2 0.337122 0.231062 0.269316
6306 2 0.364387 0.233084 0.271515
6314 3 0.36384 0.255549 0.277956
7025 2 0.333904 0.255784 0.264633
7172 2 0.346022 0.224604 0.269619
7173 3 0.364923 0.231012 0.277922
6307 2 0.401708 0.235086 0.271976
6316 3 0.401727 0.257903 0.276996
7174 2 0.382359 0.22253 0.267699
7184 3 0.414025 0.245121 0.280399
7192 2 0.399812 0.255151 0.268465
6298 2 0.423137 0.226678 0.274584
6308 2 0.441835 0.244507 0.269301
7183 2 0.426835 0.231811 0.268795
6309 2 0.492486 0.24335 0.263203
6485 3 0.45976 0.234056 0.27881
6486 3 0.479179 0.247814 0.277664
7185 2 0.472396 0.232978 0.266312
7186 2 0.486968 0.249603 0.274462
6489 3 0.51895 0.23278 0.279103
7179 2 0.529425 0.227603 0.268914
7187 2 0.506659 0.237694 0.268504
7188 2 0.539438 0.249824 0.274885
7713 2 0.517661 0.241635 0.262588
6310 2 0.559804 0.241715 0.267667
6481 3 0.556963 0.221336 0.278141
6499 3 0.553725 0.258041 0.279919
7189 2 0.558403 0.235809 0.273343
7193 2 0.573117 0.253034 0.268652
6301 2 0.598581 0.225356 0.268758
6303 2 0.620563 0.230131 0.26997
6311 2 0.583828 0.243993 0.271212
7181 2 0.617312 0.224808 0.271092
7194 2 0.609053 0.256311 0.267958
6312 2 0.629696 0.251077 0.263352
7182 2 0.639048 0.232188 0.266922
7196 2 0.645502 0.253102 0.274159
7602 2 0.653408 0.219817 0.270589
7790 2 0.65455 0.22116 0.276613
7795 2 0.653274 0.243556 0.272631
5399 3 0.666956 0.260667 0.280643
5407 2 0.699522 0.243762 0.275571
5408 2 0.671484 0.237235 0.269661
5588 2 0.697743 0.224508 0.263115
6099 3 0.674886 0.244839 0.281033
9372 2 0.69667 0.238298 0.274945
4872 2 0.722983 0.246455 0.263848
5398 3 0.733575 0.256552 0.278529
5413 3 0.731472 0.218029 0.278092
6108 3 0.740843 0.229633 0.279877
9378 2 0.745676 0.218037 0.263713
5406 3 0.755437 0.249025 0.278303
5410 3 0.791549 0.217691 0.277463
5412 2 0.752312 0.225792 0.273126
6097 3 0.758633 0.244828 0.281082
9364 2 0.76701 0.251521 0.265901
5404 3 0.826813 0.229461 0.2792
5405 2 0.806639 0.232949 0.269707
9369 2 0.830142 0.231082 0.265051
9370 3 0.801853 0.246598 0.278122
9371 2 0.807717 0.234907 0.264
5403 2 0.846906 0.238492 0.274357
6104 3 0.834274 0.218507 0.279661
9360 2 0.860882 0.256939 0.272737
9361 2 0.841003 0.25317 0.262586
9376 2 0.870779 0.222307 0.268445
5402 2 0.883499 0.240449 0.267395
9367 3 0.898716 0.234349 0.277232
9368 2 0.88054 0.245208 0.267643
9375 2 0.909613 0.220353 0.265091
5575 2 0.941527 0.242361 0.263257
5584 2 0.923039 0.229091 0.26481
9366 2 0.942034 0.235162 0.273181
3251 2 0.983992 0.239501 0.270723
5400 2 0.980678 0.233813 0.267033
5401 2 0.959898 0.238395 0.274109
9373 2 0.96394 0.226141 0.272822
93 2 0.0165383 0.276607 0.26835
259 3 0.0335855 0.270833 0.278982
267 3 0.00470648 0.292934 0.278343
798 2 0.0331753 0.300229 0.262918
968 3 0.0382006 0.300696 0.280215
85 2 0.0789531 0.264526 0.264061
99 2 0.0672431 0.294772 0.264376
960 2 0.0718758 0.284486 0.271883
94 2 0.109029 0.274362 0.266131
271 3 0.117901 0.288649 0.280069
955 3 0.0899019 0.2717 0.278333
956 2 0.12346 0.263867 0.267008
961 2 0.111163 0.280626 0.275624
970 2 0.121617 0.303083 0.269056
86 2 0.13978 0.264467 0.264342
87 2 0.162485 0.273254 0.264829
102 2 0.1665 0.296826 0.263792
787 2 0.148777 0.267793 0.266458
801 2 0.159575 0.301564 0.267578
971 3 0.14267 0.302556 0.280566
95 2 0.203825 0.28775 0.272106
103 2 0.186965 0.304124 0.270196
962 2 0.175005 0.285008 0.269837
89 2 0.244988 0.267649 0.266968
96 2 0.242056 0.291108 0.269146
795 2 0.248116 0.273897 0.262755
958 3 0.212395 0.26476 0.278806
963 2 0.216355 0.283453 0.267009
964 2 0.237698 0.287718 0.27413
91 2 0.284289 0.266398 0.269747
104 2 0.264407 0.296766 0.266897
276 3 0.278842 0.287563 0.27857
965 2 0.278632 0.275154 0.2762
973 2 0.256508 0.303849 0.267284
92 2 0.309755 0.262415 0.26749
97 2 0.321813 0.28358 0.268361
966 2 0.301077 0.278449 0.271114
967 2 0.317348 0.294191 0.276025
6319 3 0.355862 0.284865 0.277925
6328 2 0.339891 0.299357 0.271756
7034 2 0.34671 0.292208 0.263911
7190 3 0.342817 0.263232 0.28075
7197 3 0.338761 0.286245 0.279239
7715 2 0.355739 0.268113 0.263157
6315 2 0.40307 0.271196 0.26233
6320 2 0.385944 0.288499 0.263488
6503 3 0.37759 0.293818 0.280713
7035 2 0.381444 0.28494 0.262787
7191 2 0.383419 0.269213 0.275997
6321 2 0.436024 0.284799 0.272012
6322 2 0.457414 0.292955 0.266986
6495 3 0.438662 0.264189 0.279779
7028 2 0.45296 0.260899 0.263087
7037 2 0.434475 0.276178 0.265767
6317 2 0.467873 0.273258 0.263226
6497 3 0.472176 0.270363 0.280278
7029 2 0.476163 0.266385 0.263219
7198 3 0.4839 0.277167 0.280428
7205 3 0.486214 0.301209 0.280257
6323 2 0.506 0.275585 0.263034
6498 3 0.5047 0.273829 0.280218
7030 2 0.51446 0.270013 0.262207
7031 2 0.540027 0.269388 0.262189
7199 3 0.508309 0.271401 0.280181
7200 2 0.535144 0.292724 0.266528
7731 2 0.508973 0.299894 0.263072
6324 2 0.541835 0.275239 0.271557
6514 3 0.581492 0.301154 0.278986
7201 2 0.56237 0.274815 0.270239
7207 3 0.571852 0.298406 0.278655
6318 2 0.591861 0.267716 0.267162
6326 2 0.615116 0.29247 0.264839
7202 2 0.590392 0.282968 0.27635
7208 2 0.609818 0.2952 0.272904
6325 3 0.630438 0.276192 0.277356
6327 3 0.650919 0.288732 0.276998
7043 2 0.647002 0.291268 0.264728
5382 2 0.686704 0.29741 0.274858
5391 2 0.683074 0.272523 0.270508
5573 2 0.705583 0.263211 0.265392
6088 3 0.671946 0.277065 0.279048
9356 2 0.704395 0.291696 0.269774
9365 2 0.679502 0.262964 0.264839
5390 2 0.712255 0.285383 0.273126
5557 2 0.736854 0.296526 0.265824
9350 2 0.739 0.299979 0.271886
9355 2 0.726231 0.280791 0.272026
5389 3 0.772384 0.279156 0.280939
5397 2 0.770459 0.261736 0.268043
6078 3 0.759387 0.300746 0.280424
9349 2 0.778408 0.298617 0.268731
9363 2 0.787418 0.26283 0.270579
5387 2 0.825743 0.284283 0.271374
5388 3 0.792377 0.292323 0.2806
5396 2 0.794427 0.261027 0.270585
5563 2 0.803701 0.282212 0.26384
9348 2 0.816023 0.303059 0.268253
9362 2 0.829306 0.269705 0.271381
5394 2 0.872422 0.265122 0.273063
5395 2 0.84802 0.262503 0.27569
6084 3 0.841608 0.284207 0.280834
9346 2 0.861364 0.297907 0.263518
9354 2 0.864197 0.280889 0.276578
5386 2 0.889093 0.282034 0.271741
5393 2 0.91099 0.267731 0.27153
9343 2 0.900295 0.303882 0.266036
9353 2 0.886153 0.284016 0.263221
9359 2 0.894448 0.265262 0.272156
5377 2 0.957544 0.295346 0.273206
5384 3 0.945916 0.276157 0.27927
5385 3 0.919564 0.288529 0.279378
5570 2 0.934947 0.265717 0.266396
9352 2 0.953516 0.286649 0.267393
9358 2 0.918326 0.265689 0.272837
3207 2 0.993806 0.296434 0.266831
5383 2 0.976119 0.282344 0.267436
6075 3 0.979 0.296911 0.281184
6110 3 0.981675 0.267156 0.280215
9357 2 0.97331 0.261245 0.268099
98 2 0.0353431 0.30666 0.276374
106 2 0.0130796 0.327395 0.267253
116 2 0.0330176 0.339429 0.265037
981 2 0.0100202 0.341836 0.27599
982 2 0.0275833 0.345163 0.265461
107 2 0.0491689 0.325182 0.273005
108 2 0.0665137 0.318979 0.262466
807 2 0.0523709 0.335671 0.262323
969 2 0.0826279 0.30687 0.269292
1162 3 0.0519247 0.339027 0.279265
100 2 0.0955656 0.309592 0.26929
101 2 0.119008 0.3114 0.271947
109 2 0.0853268 0.333574 0.268855
110 2 0.107402 0.336521 0.263097
974 3 0.0989566 0.322159 0.279014
975 2 0.117977 0.328729 0.270695
111 2 0.151794 0.323011 0.276665
119 3 0.164111 0.343001 0.277416
286 3 0.128956 0.328813 0.279936
976 2 0.165578 0.324071 0.276279
984 2 0.148519 0.340931 0.27152
112 2 0.194022 0.325595 0.264571
120 3 0.18738 0.340307 0.277053
818 2 0.177979 0.345927 0.263989
977 2 0.190267 0.328344 0.275403
113 2 0.216321 0.320166 0.270103
121 3 0.227918 0.339985 0.277425
972 2 0.211893 0.306286 0.272023
978 2 0.23458 0.315173 0.271741
985 3 0.208453 0.345134 0.277622
1508 2 0.240876 0.346866 0.262733
114 2 0.266906 0.320355 0.269944
115 2 0.288226 0.329337 0.266238
979 2 0.273523 0.319986 0.274974
986 3 0.259574 0.340875 0.27922
105 2 0.29426 0.305896 0.274479
813 2 0.293166 0.323673 0.265191
980 2 0.314139 0.318571 0.272427
7051 2 0.332072 0.332505 0.266041
6332 2 0.365806 0.327134 0.268471
6337 2 0.334412 0.335384 0.27037
6338 2 0.355875 0.347234 0.274039
7044 2 0.365845 0.305521 0.266971
7217 3 0.349453 0.33547 0.277074
6329 2 0.396311 0.309983 0.26497
6339 2 0.405839 0.338813 0.263776
6508 3 0.404679 0.308255 0.281094
6518 3 0.411084 0.331509 0.280589
7054 2 0.403947 0.318531 0.26405
7203 2 0.390695 0.304446 0.274668
6340 2 0.442816 0.335295 0.267253
7204 2 0.440782 0.312484 0.269211
7210 2 0.424751 0.329473 0.269384
6333 2 0.475314 0.318305 0.269782
6520 3 0.491443 0.329411 0.279886
7046 2 0.478911 0.31251 0.265992
7055 2 0.459439 0.325121 0.264694
7056 2 0.491932 0.331761 0.26341
7220 2 0.459588 0.344618 0.275041
6342 2 0.506376 0.347444 0.274706
6512 3 0.517702 0.305146 0.278718
7062 2 0.531039 0.336329 0.263281
7211 2 0.51284 0.324362 0.269076
6330 2 0.562018 0.306594 0.267175
6334 2 0.547913 0.326168 0.269935
6343 3 0.558213 0.347441 0.277568
7206 2 0.554815 0.305252 0.266861
7212 2 0.548614 0.326746 0.273091
7213 2 0.580593 0.319538 0.273821
6331 2 0.606995 0.311574 0.275941
6335 2 0.59064 0.328497 0.271627
6336 2 0.624342 0.32434 0.265738
6344 2 0.60654 0.346839 0.268955
7214 2 0.603678 0.317913 0.276659
7215 2 0.616856 0.33368 0.2681
6524 3 0.640528 0.326932 0.277457
7216 2 0.640069 0.333815 0.272906
8816 2 0.657208 0.343898 0.273699
5375 2 0.70092 0.315972 0.269079
6067 3 0.702779 0.346746 0.279204
9015 2 0.694098 0.33325 0.266339
9168 2 0.673652 0.325218 0.271296
9351 2 0.706499 0.313921 0.262557
5366 2 0.736421 0.34173 0.265701
6066 3 0.723885 0.339616 0.277085