LAMMPS data file via write_data, version 29 Aug 2024, timestep = 0, units = metal

2430 atoms
3 atom types

0 101.083790683449 xlo xhi
0 97.26792293631 ylo yhi
0 17.743450268994 zlo zhi

Masses

1 44.955908
2 32.06
3 32.06

Atoms # atomic

1214 1 5.044853423896711e-13 0 1.3570667397389995 0 0 0
1220 1 3.743844099387502 0 1.3570667397389995 0 0 0
1226 1 7.487688198774499 0 1.3570667397389995 0 0 0
1232 1 11.231532298161504 0 1.3570667397389995 0 0 0
1238 1 14.975376397548501 0 1.3570667397389995 0 0 0
1244 1 18.719220496935506 0 1.3570667397389995 0 0 0
1250 1 22.463064596322496 0 1.3570667397389995 0 0 0
1256 1 26.2069086957095 0 1.3570667397389995 0 0 0
1262 1 29.950752795096506 0 1.3570667397389995 0 0 0
1268 1 33.694596894483496 0 1.3570667397389995 0 0 0
1274 1 37.4384409938705 0 1.3570667397389995 0 0 0
1280 1 41.182285093257505 0 1.3570667397389995 0 0 0
1286 1 44.926129192644495 0 1.3570667397389995 0 0 0
1292 1 48.6699732920315 0 1.3570667397389995 0 0 0
1136 1 52.4138173914185 0 1.3570667397389995 -1 0 0
1142 1 56.157661490805495 0 1.3570667397389995 -1 0 0
1148 1 59.9015055901925 0 1.3570667397389995 -1 0 0
1154 1 63.6453496895795 0 1.3570667397389995 -1 0 0
1160 1 67.3891937889665 0 1.3570667397389995 -1 0 0
1166 1 71.1330378883535 0 1.3570667397389995 -1 0 0
1172 1 74.87688198774049 0 1.3570667397389995 -1 0 0
1178 1 78.6207260871275 0 1.3570667397389995 -1 0 0
1184 1 82.3645701865145 0 1.3570667397389995 -1 0 0
1190 1 86.10841428590149 0 1.3570667397389995 -1 0 0
1196 1 89.85225838528851 0 1.3570667397389995 -1 0 0
1202 1 93.5961024846755 0 1.3570667397389995 -1 0 0
1208 1 97.33994658406249 0 1.3570667397389995 -1 0 0
1216 3 5.044853423896711e-13 2.1615093985849967 0 0 0 0
1381 1 1.8719220496935023 3.2422640978769977 1.3570667397389995 0 0 0
1222 3 3.743844099387502 2.1615093985849967 0 0 0 0
1387 1 5.6157661490805 3.2422640978769977 1.3570667397389995 0 0 0
1228 3 7.487688198774499 2.1615093985849967 0 0 0 0
1393 1 9.359610248467504 3.2422640978769977 1.3570667397389995 0 0 0
1234 3 11.231532298161504 2.1615093985849967 0 0 0 0
1399 1 13.103454347854502 3.2422640978769977 1.3570667397389995 0 0 0
1240 3 14.975376397548501 2.1615093985849967 0 0 0 0
1405 1 16.8472984472415 3.2422640978769977 1.3570667397389995 0 0 0
1246 3 18.719220496935506 2.1615093985849967 0 0 0 0
1411 1 20.591142546628504 3.2422640978769977 1.3570667397389995 0 0 0
1252 3 22.463064596322496 2.1615093985849967 0 0 0 0
1417 1 24.33498664601551 3.2422640978769977 1.3570667397389995 0 0 0
1258 3 26.2069086957095 2.1615093985849967 0 0 0 0
1423 1 28.0788307454025 3.2422640978769977 1.3570667397389995 0 0 0
1264 3 29.950752795096506 2.1615093985849967 0 0 0 0
1429 1 31.822674844789503 3.2422640978769977 1.3570667397389995 0 0 0
1270 3 33.694596894483496 2.1615093985849967 0 0 0 0
1435 1 35.56651894417651 3.2422640978769977 1.3570667397389995 0 0 0
1276 3 37.4384409938705 2.1615093985849967 0 0 0 0
1441 1 39.3103630435635 3.2422640978769977 1.3570667397389995 0 0 0
1282 3 41.182285093257505 2.1615093985849967 0 0 0 0
1447 1 43.0542071429505 3.2422640978769977 1.3570667397389995 0 0 0
1288 3 44.926129192644495 2.1615093985849967 0 0 0 0
1453 1 46.79805124233751 3.2422640978769977 1.3570667397389995 0 0 0
1294 3 48.6699732920315 2.1615093985849967 0 0 0 0
1297 1 50.5418953417245 3.2422640978769977 1.3570667397389995 -1 0 0
1138 3 52.4138173914185 2.1615093985849967 0 -1 0 0
1303 1 54.285739441111495 3.2422640978769977 1.3570667397389995 -1 0 0
1144 3 56.157661490805495 2.1615093985849967 0 -1 0 0
1309 1 58.0295835404985 3.2422640978769977 1.3570667397389995 -1 0 0
1150 3 59.9015055901925 2.1615093985849967 0 -1 0 0
1315 1 61.7734276398855 3.2422640978769977 1.3570667397389995 -1 0 0
1156 3 63.6453496895795 2.1615093985849967 0 -1 0 0
1321 1 65.5172717392725 3.2422640978769977 1.3570667397389995 -1 0 0
1162 3 67.3891937889665 2.1615093985849967 0 -1 0 0
1327 1 69.26111583865949 3.2422640978769977 1.3570667397389995 -1 0 0
1168 3 71.1330378883535 2.1615093985849967 0 -1 0 0
1333 1 73.0049599380465 3.2422640978769977 1.3570667397389995 -1 0 0
1174 3 74.87688198774049 2.1615093985849967 0 -1 0 0
1339 1 76.7488040374335 3.2422640978769977 1.3570667397389995 -1 0 0
1180 3 78.6207260871275 2.1615093985849967 0 -1 0 0
1345 1 80.49264813682049 3.2422640978769977 1.3570667397389995 -1 0 0
1186 3 82.3645701865145 2.1615093985849967 0 -1 0 0
1351 1 84.2364922362075 3.2422640978769977 1.3570667397389995 -1 0 0
1192 3 86.10841428590149 2.1615093985849967 0 -1 0 0
1357 1 87.9803363355945 3.2422640978769977 1.3570667397389995 -1 0 0
1198 3 89.85225838528851 2.1615093985849967 0 -1 0 0
1363 1 91.72418043498149 3.2422640978769977 1.3570667397389995 -1 0 0
1204 3 93.5961024846755 2.1615093985849967 0 -1 0 0
1369 1 95.4680245343685 3.2422640978769977 1.3570667397389995 -1 0 0
1210 3 97.33994658406249 2.1615093985849967 0 -1 0 0
1375 1 99.2118686337555 3.2422640978769977 1.3570667397389995 -1 0 0
1383 3 1.8719220496935023 5.4037734964620014 0 0 0 0
1389 3 5.6157661490805 5.4037734964620014 0 0 0 0
1395 3 9.359610248467504 5.4037734964620014 0 0 0 0
1401 3 13.103454347854502 5.4037734964620014 0 0 0 0
1407 3 16.8472984472415 5.4037734964620014 0 0 0 0
1413 3 20.591142546628504 5.4037734964620014 0 0 0 0
1419 3 24.33498664601551 5.4037734964620014 0 0 0 0
1425 3 28.0788307454025 5.4037734964620014 0 0 0 0
1431 3 31.822674844789503 5.4037734964620014 0 0 0 0
1437 3 35.56651894417651 5.4037734964620014 0 0 0 0
1443 3 39.3103630435635 5.4037734964620014 0 0 0 0
1449 3 43.0542071429505 5.4037734964620014 0 0 0 0
1455 3 46.79805124233751 5.4037734964620014 0 0 0 0
1299 3 50.5418953417245 5.4037734964620014 0 -1 0 0
1305 3 54.285739441111495 5.4037734964620014 0 -1 0 0
1311 3 58.0295835404985 5.4037734964620014 0 -1 0 0
1317 3 61.7734276398855 5.4037734964620014 0 -1 0 0
1323 3 65.5172717392725 5.4037734964620014 0 -1 0 0
1329 3 69.26111583865949 5.4037734964620014 0 -1 0 0
1335 3 73.0049599380465 5.4037734964620014 0 -1 0 0
1341 3 76.7488040374335 5.4037734964620014 0 -1 0 0
1347 3 80.49264813682049 5.4037734964620014 0 -1 0 0
1353 3 84.2364922362075 5.4037734964620014 0 -1 0 0
1359 3 87.9803363355945 5.4037734964620014 0 -1 0 0
1365 3 91.72418043498149 5.4037734964620014 0 -1 0 0
1371 3 95.4680245343685 5.4037734964620014 0 -1 0 0
1377 3 99.2118686337555 5.4037734964620014 0 -1 0 0
1376 1 5.044853423896711e-13 6.484528195754002 1.3570667397389995 0 0 0
1382 1 3.743844099387502 6.484528195754002 1.3570667397389995 0 0 0
1388 1 7.487688198774499 6.484528195754002 1.3570667397389995 0 0 0
1394 1 11.231532298161504 6.484528195754002 1.3570667397389995 0 0 0
1400 1 14.975376397548501 6.484528195754002 1.3570667397389995 0 0 0
1406 1 18.719220496935506 6.484528195754002 1.3570667397389995 0 0 0
1412 1 22.463064596322496 6.484528195754002 1.3570667397389995 0 0 0
1418 1 26.2069086957095 6.484528195754002 1.3570667397389995 0 0 0
1424 1 29.950752795096506 6.484528195754002 1.3570667397389995 0 0 0
1430 1 33.694596894483496 6.484528195754002 1.3570667397389995 0 0 0
1436 1 37.4384409938705 6.484528195754002 1.3570667397389995 0 0 0
1442 1 41.182285093257505 6.484528195754002 1.3570667397389995 0 0 0
1448 1 44.926129192644495 6.484528195754002 1.3570667397389995 0 0 0
1454 1 48.6699732920315 6.484528195754002 1.3570667397389995 0 0 0
1298 1 52.4138173914185 6.484528195754002 1.3570667397389995 -1 0 0
1304 1 56.157661490805495 6.484528195754002 1.3570667397389995 -1 0 0
1310 1 59.9015055901925 6.484528195754002 1.3570667397389995 -1 0 0
1316 1 63.6453496895795 6.484528195754002 1.3570667397389995 -1 0 0
1322 1 67.3891937889665 6.484528195754002 1.3570667397389995 -1 0 0
1328 1 71.1330378883535 6.484528195754002 1.3570667397389995 -1 0 0
1334 1 74.87688198774049 6.484528195754002 1.3570667397389995 -1 0 0
1340 1 78.6207260871275 6.484528195754002 1.3570667397389995 -1 0 0
1346 1 82.3645701865145 6.484528195754002 1.3570667397389995 -1 0 0
1352 1 86.10841428590149 6.484528195754002 1.3570667397389995 -1 0 0
1358 1 89.85225838528851 6.484528195754002 1.3570667397389995 -1 0 0
1364 1 93.5961024846755 6.484528195754002 1.3570667397389995 -1 0 0
1370 1 97.33994658406249 6.484528195754002 1.3570667397389995 -1 0 0
1378 3 5.044853423896711e-13 8.646037594338999 0 0 0 0
1384 3 3.743844099387502 8.646037594338999 0 0 0 0
1390 3 7.487688198774499 8.646037594338999 0 0 0 0
1396 3 11.231532298161504 8.646037594338999 0 0 0 0
1402 3 14.975376397548501 8.646037594338999 0 0 0 0
1408 3 18.719220496935506 8.646037594338999 0 0 0 0
1414 3 22.463064596322496 8.646037594338999 0 0 0 0
1420 3 26.2069086957095 8.646037594338999 0 0 0 0
1426 3 29.950752795096506 8.646037594338999 0 0 0 0
1432 3 33.694596894483496 8.646037594338999 0 0 0 0
1438 3 37.4384409938705 8.646037594338999 0 0 0 0
1444 3 41.182285093257505 8.646037594338999 0 0 0 0
1450 3 44.926129192644495 8.646037594338999 0 0 0 0
1456 3 48.6699732920315 8.646037594338999 0 0 0 0
1300 3 52.4138173914185 8.646037594338999 0 -1 0 0
1306 3 56.157661490805495 8.646037594338999 0 -1 0 0
1312 3 59.9015055901925 8.646037594338999 0 -1 0 0
1318 3 63.6453496895795 8.646037594338999 0 -1 0 0
1324 3 67.3891937889665 8.646037594338999 0 -1 0 0
1330 3 71.1330378883535 8.646037594338999 0 -1 0 0
1336 3 74.87688198774049 8.646037594338999 0 -1 0 0
1342 3 78.6207260871275 8.646037594338999 0 -1 0 0
1348 3 82.3645701865145 8.646037594338999 0 -1 0 0
1354 3 86.10841428590149 8.646037594338999 0 -1 0 0
1360 3 89.85225838528851 8.646037594338999 0 -1 0 0
1366 3 93.5961024846755 8.646037594338999 0 -1 0 0
1372 3 97.33994658406249 8.646037594338999 0 -1 0 0
1543 1 1.8719220496935023 9.726792293631 1.3570667397389995 0 0 0
1549 1 5.6157661490805 9.726792293631 1.3570667397389995 0 0 0
1555 1 9.359610248467504 9.726792293631 1.3570667397389995 0 0 0
1561 1 13.103454347854502 9.726792293631 1.3570667397389995 0 0 0
1567 1 16.8472984472415 9.726792293631 1.3570667397389995 0 0 0
1573 1 20.591142546628504 9.726792293631 1.3570667397389995 0 0 0
1579 1 24.33498664601551 9.726792293631 1.3570667397389995 0 0 0
1585 1 28.0788307454025 9.726792293631 1.3570667397389995 0 0 0
1591 1 31.822674844789503 9.726792293631 1.3570667397389995 0 0 0
1597 1 35.56651894417651 9.726792293631 1.3570667397389995 0 0 0
1603 1 39.3103630435635 9.726792293631 1.3570667397389995 0 0 0
1609 1 43.0542071429505 9.726792293631 1.3570667397389995 0 0 0
1615 1 46.79805124233751 9.726792293631 1.3570667397389995 0 0 0
1459 1 50.5418953417245 9.726792293631 1.3570667397389995 -1 0 0
1465 1 54.285739441111495 9.726792293631 1.3570667397389995 -1 0 0
1471 1 58.0295835404985 9.726792293631 1.3570667397389995 -1 0 0
1477 1 61.7734276398855 9.726792293631 1.3570667397389995 -1 0 0
1483 1 65.5172717392725 9.726792293631 1.3570667397389995 -1 0 0
1489 1 69.26111583865949 9.726792293631 1.3570667397389995 -1 0 0
1495 1 73.0049599380465 9.726792293631 1.3570667397389995 -1 0 0
1501 1 76.7488040374335 9.726792293631 1.3570667397389995 -1 0 0
1507 1 80.49264813682049 9.726792293631 1.3570667397389995 -1 0 0
1513 1 84.2364922362075 9.726792293631 1.3570667397389995 -1 0 0
1519 1 87.9803363355945 9.726792293631 1.3570667397389995 -1 0 0
1525 1 91.72418043498149 9.726792293631 1.3570667397389995 -1 0 0
1531 1 95.4680245343685 9.726792293631 1.3570667397389995 -1 0 0
1537 1 99.2118686337555 9.726792293631 1.3570667397389995 -1 0 0
1545 3 1.8719220496935023 11.888301692215997 0 0 0 0
1538 1 5.044853423896711e-13 12.969056391507998 1.3570667397389995 0 0 0
1544 1 3.743844099387502 12.969056391507998 1.3570667397389995 0 0 0
1551 3 5.6157661490805 11.888301692215997 0 0 0 0
1550 1 7.487688198774499 12.969056391507998 1.3570667397389995 0 0 0
1557 3 9.359610248467504 11.888301692215997 0 0 0 0
1556 1 11.231532298161504 12.969056391507998 1.3570667397389995 0 0 0
1563 3 13.103454347854502 11.888301692215997 0 0 0 0
1562 1 14.975376397548501 12.969056391507998 1.3570667397389995 0 0 0
1569 3 16.8472984472415 11.888301692215997 0 0 0 0
1568 1 18.719220496935506 12.969056391507998 1.3570667397389995 0 0 0
1575 3 20.591142546628504 11.888301692215997 0 0 0 0
1574 1 22.463064596322496 12.969056391507998 1.3570667397389995 0 0 0
1581 3 24.33498664601551 11.888301692215997 0 0 0 0
1580 1 26.2069086957095 12.969056391507998 1.3570667397389995 0 0 0
1587 3 28.0788307454025 11.888301692215997 0 0 0 0
1586 1 29.950752795096506 12.969056391507998 1.3570667397389995 0 0 0
1593 3 31.822674844789503 11.888301692215997 0 0 0 0
1592 1 33.694596894483496 12.969056391507998 1.3570667397389995 0 0 0
1599 3 35.56651894417651 11.888301692215997 0 0 0 0
1598 1 37.4384409938705 12.969056391507998 1.3570667397389995 0 0 0
1605 3 39.3103630435635 11.888301692215997 0 0 0 0
1604 1 41.182285093257505 12.969056391507998 1.3570667397389995 0 0 0
1611 3 43.0542071429505 11.888301692215997 0 0 0 0
1610 1 44.926129192644495 12.969056391507998 1.3570667397389995 0 0 0
1617 3 46.79805124233751 11.888301692215997 0 0 0 0
1616 1 48.6699732920315 12.969056391507998 1.3570667397389995 0 0 0
1461 3 50.5418953417245 11.888301692215997 0 -1 0 0
1460 1 52.4138173914185 12.969056391507998 1.3570667397389995 -1 0 0
1467 3 54.285739441111495 11.888301692215997 0 -1 0 0
1466 1 56.157661490805495 12.969056391507998 1.3570667397389995 -1 0 0
1473 3 58.0295835404985 11.888301692215997 0 -1 0 0
1472 1 59.9015055901925 12.969056391507998 1.3570667397389995 -1 0 0
1479 3 61.7734276398855 11.888301692215997 0 -1 0 0
1478 1 63.6453496895795 12.969056391507998 1.3570667397389995 -1 0 0
1485 3 65.5172717392725 11.888301692215997 0 -1 0 0
1484 1 67.3891937889665 12.969056391507998 1.3570667397389995 -1 0 0
1491 3 69.26111583865949 11.888301692215997 0 -1 0 0
1490 1 71.1330378883535 12.969056391507998 1.3570667397389995 -1 0 0
1497 3 73.0049599380465 11.888301692215997 0 -1 0 0
1496 1 74.87688198774049 12.969056391507998 1.3570667397389995 -1 0 0
1503 3 76.7488040374335 11.888301692215997 0 -1 0 0
1502 1 78.6207260871275 12.969056391507998 1.3570667397389995 -1 0 0
1509 3 80.49264813682049 11.888301692215997 0 -1 0 0
1508 1 82.3645701865145 12.969056391507998 1.3570667397389995 -1 0 0
1515 3 84.2364922362075 11.888301692215997 0 -1 0 0
1514 1 86.10841428590149 12.969056391507998 1.3570667397389995 -1 0 0
1521 3 87.9803363355945 11.888301692215997 0 -1 0 0
1520 1 89.85225838528851 12.969056391507998 1.3570667397389995 -1 0 0
1527 3 91.72418043498149 11.888301692215997 0 -1 0 0
1526 1 93.5961024846755 12.969056391507998 1.3570667397389995 -1 0 0
1533 3 95.4680245343685 11.888301692215997 0 -1 0 0
1532 1 97.33994658406249 12.969056391507998 1.3570667397389995 -1 0 0
1539 3 99.2118686337555 11.888301692215997 0 -1 0 0
1540 3 5.044853423896711e-13 15.130565790093002 0 0 0 0
1546 3 3.743844099387502 15.130565790093002 0 0 0 0
1552 3 7.487688198774499 15.130565790093002 0 0 0 0
1558 3 11.231532298161504 15.130565790093002 0 0 0 0
1564 3 14.975376397548501 15.130565790093002 0 0 0 0
1570 3 18.719220496935506 15.130565790093002 0 0 0 0
1576 3 22.463064596322496 15.130565790093002 0 0 0 0
1582 3 26.2069086957095 15.130565790093002 0 0 0 0
1588 3 29.950752795096506 15.130565790093002 0 0 0 0
1594 3 33.694596894483496 15.130565790093002 0 0 0 0
1600 3 37.4384409938705 15.130565790093002 0 0 0 0
1606 3 41.182285093257505 15.130565790093002 0 0 0 0
1612 3 44.926129192644495 15.130565790093002 0 0 0 0
1618 3 48.6699732920315 15.130565790093002 0 0 0 0
1462 3 52.4138173914185 15.130565790093002 0 -1 0 0
1468 3 56.157661490805495 15.130565790093002 0 -1 0 0
1474 3 59.9015055901925 15.130565790093002 0 -1 0 0
1480 3 63.6453496895795 15.130565790093002 0 -1 0 0
1486 3 67.3891937889665 15.130565790093002 0 -1 0 0
1492 3 71.1330378883535 15.130565790093002 0 -1 0 0
1498 3 74.87688198774049 15.130565790093002 0 -1 0 0
1504 3 78.6207260871275 15.130565790093002 0 -1 0 0
1510 3 82.3645701865145 15.130565790093002 0 -1 0 0
1516 3 86.10841428590149 15.130565790093002 0 -1 0 0
1522 3 89.85225838528851 15.130565790093002 0 -1 0 0
1528 3 93.5961024846755 15.130565790093002 0 -1 0 0
1534 3 97.33994658406249 15.130565790093002 0 -1 0 0
1705 1 1.8719220496935023 16.211320489384995 1.3570667397389995 0 0 0
1711 1 5.6157661490805 16.211320489384995 1.3570667397389995 0 0 0
1717 1 9.359610248467504 16.211320489384995 1.3570667397389995 0 0 0
1723 1 13.103454347854502 16.211320489384995 1.3570667397389995 0 0 0
1729 1 16.8472984472415 16.211320489384995 1.3570667397389995 0 0 0
1735 1 20.591142546628504 16.211320489384995 1.3570667397389995 0 0 0
1741 1 24.33498664601551 16.211320489384995 1.3570667397389995 0 0 0
1747 1 28.0788307454025 16.211320489384995 1.3570667397389995 0 0 0
1753 1 31.822674844789503 16.211320489384995 1.3570667397389995 0 0 0
1759 1 35.56651894417651 16.211320489384995 1.3570667397389995 0 0 0
1765 1 39.3103630435635 16.211320489384995 1.3570667397389995 0 0 0
1771 1 43.0542071429505 16.211320489384995 1.3570667397389995 0 0 0
1777 1 46.79805124233751 16.211320489384995 1.3570667397389995 0 0 0
1621 1 50.5418953417245 16.211320489384995 1.3570667397389995 -1 0 0
1627 1 54.285739441111495 16.211320489384995 1.3570667397389995 -1 0 0
1633 1 58.0295835404985 16.211320489384995 1.3570667397389995 -1 0 0
1639 1 61.7734276398855 16.211320489384995 1.3570667397389995 -1 0 0
1645 1 65.5172717392725 16.211320489384995 1.3570667397389995 -1 0 0
1651 1 69.26111583865949 16.211320489384995 1.3570667397389995 -1 0 0
1657 1 73.0049599380465 16.211320489384995 1.3570667397389995 -1 0 0
1663 1 76.7488040374335 16.211320489384995 1.3570667397389995 -1 0 0
1669 1 80.49264813682049 16.211320489384995 1.3570667397389995 -1 0 0
1675 1 84.2364922362075 16.211320489384995 1.3570667397389995 -1 0 0
1681 1 87.9803363355945 16.211320489384995 1.3570667397389995 -1 0 0
1687 1 91.72418043498149 16.211320489384995 1.3570667397389995 -1 0 0
1693 1 95.4680245343685 16.211320489384995 1.3570667397389995 -1 0 0
1699 1 99.2118686337555 16.211320489384995 1.3570667397389995 -1 0 0
1707 3 1.8719220496935023 18.372829887970006 0 0 0 0
1713 3 5.6157661490805 18.372829887970006 0 0 0 0
1719 3 9.359610248467504 18.372829887970006 0 0 0 0
1725 3 13.103454347854502 18.372829887970006 0 0 0 0
1731 3 16.8472984472415 18.372829887970006 0 0 0 0
1737 3 20.591142546628504 18.372829887970006 0 0 0 0
1743 3 24.33498664601551 18.372829887970006 0 0 0 0
1749 3 28.0788307454025 18.372829887970006 0 0 0 0
1755 3 31.822674844789503 18.372829887970006 0 0 0 0
1761 3 35.56651894417651 18.372829887970006 0 0 0 0
1767 3 39.3103630435635 18.372829887970006 0 0 0 0
1773 3 43.0542071429505 18.372829887970006 0 0 0 0
1779 3 46.79805124233751 18.372829887970006 0 0 0 0
1623 3 50.5418953417245 18.372829887970006 0 -1 0 0
1629 3 54.285739441111495 18.372829887970006 0 -1 0 0
1635 3 58.0295835404985 18.372829887970006 0 -1 0 0
1641 3 61.7734276398855 18.372829887970006 0 -1 0 0
1647 3 65.5172717392725 18.372829887970006 0 -1 0 0
1653 3 69.26111583865949 18.372829887970006 0 -1 0 0
1659 3 73.0049599380465 18.372829887970006 0 -1 0 0
1665 3 76.7488040374335 18.372829887970006 0 -1 0 0
1671 3 80.49264813682049 18.372829887970006 0 -1 0 0
1677 3 84.2364922362075 18.372829887970006 0 -1 0 0
1683 3 87.9803363355945 18.372829887970006 0 -1 0 0
1689 3 91.72418043498149 18.372829887970006 0 -1 0 0
1695 3 95.4680245343685 18.372829887970006 0 -1 0 0
1701 3 99.2118686337555 18.372829887970006 0 -1 0 0
1700 1 5.044853423896711e-13 19.453584587261993 1.3570667397389995 0 0 0
1706 1 3.743844099387502 19.453584587261993 1.3570667397389995 0 0 0
1712 1 7.487688198774499 19.453584587261993 1.3570667397389995 0 0 0
1718 1 11.231532298161504 19.453584587261993 1.3570667397389995 0 0 0
1724 1 14.975376397548501 19.453584587261993 1.3570667397389995 0 0 0
1730 1 18.719220496935506 19.453584587261993 1.3570667397389995 0 0 0
1736 1 22.463064596322496 19.453584587261993 1.3570667397389995 0 0 0
1742 1 26.2069086957095 19.453584587261993 1.3570667397389995 0 0 0
1748 1 29.950752795096506 19.453584587261993 1.3570667397389995 0 0 0
1754 1 33.694596894483496 19.453584587261993 1.3570667397389995 0 0 0
1760 1 37.4384409938705 19.453584587261993 1.3570667397389995 0 0 0
1766 1 41.182285093257505 19.453584587261993 1.3570667397389995 0 0 0
1772 1 44.926129192644495 19.453584587261993 1.3570667397389995 0 0 0
1778 1 48.6699732920315 19.453584587261993 1.3570667397389995 0 0 0
1622 1 52.4138173914185 19.453584587261993 1.3570667397389995 -1 0 0
1628 1 56.157661490805495 19.453584587261993 1.3570667397389995 -1 0 0
1634 1 59.9015055901925 19.453584587261993 1.3570667397389995 -1 0 0
1640 1 63.6453496895795 19.453584587261993 1.3570667397389995 -1 0 0
1646 1 67.3891937889665 19.453584587261993 1.3570667397389995 -1 0 0
1652 1 71.1330378883535 19.453584587261993 1.3570667397389995 -1 0 0
1658 1 74.87688198774049 19.453584587261993 1.3570667397389995 -1 0 0
1664 1 78.6207260871275 19.453584587261993 1.3570667397389995 -1 0 0
1670 1 82.3645701865145 19.453584587261993 1.3570667397389995 -1 0 0
1676 1 86.10841428590149 19.453584587261993 1.3570667397389995 -1 0 0
1682 1 89.85225838528851 19.453584587261993 1.3570667397389995 -1 0 0
1688 1 93.5961024846755 19.453584587261993 1.3570667397389995 -1 0 0
1694 1 97.33994658406249 19.453584587261993 1.3570667397389995 -1 0 0
1702 3 5.044853423896711e-13 21.615093985847004 0 0 0 0
1867 1 1.8719220496935023 22.695848685139005 1.3570667397389995 0 0 0
1708 3 3.743844099387502 21.615093985847004 0 0 0 0
1873 1 5.6157661490805 22.695848685139005 1.3570667397389995 0 0 0
1714 3 7.487688198774499 21.615093985847004 0 0 0 0
1879 1 9.359610248467504 22.695848685139005 1.3570667397389995 0 0 0
1720 3 11.231532298161504 21.615093985847004 0 0 0 0
1885 1 13.103454347854502 22.695848685139005 1.3570667397389995 0 0 0
1726 3 14.975376397548501 21.615093985847004 0 0 0 0
1891 1 16.8472984472415 22.695848685139005 1.3570667397389995 0 0 0
1732 3 18.719220496935506 21.615093985847004 0 0 0 0
1897 1 20.591142546628504 22.695848685139005 1.3570667397389995 0 0 0
1738 3 22.463064596322496 21.615093985847004 0 0 0 0
1903 1 24.33498664601551 22.695848685139005 1.3570667397389995 0 0 0
1744 3 26.2069086957095 21.615093985847004 0 0 0 0
1909 1 28.0788307454025 22.695848685139005 1.3570667397389995 0 0 0
1750 3 29.950752795096506 21.615093985847004 0 0 0 0
1915 1 31.822674844789503 22.695848685139005 1.3570667397389995 0 0 0
1756 3 33.694596894483496 21.615093985847004 0 0 0 0
1921 1 35.56651894417651 22.695848685139005 1.3570667397389995 0 0 0
1762 3 37.4384409938705 21.615093985847004 0 0 0 0
1927 1 39.3103630435635 22.695848685139005 1.3570667397389995 0 0 0
1768 3 41.182285093257505 21.615093985847004 0 0 0 0
1933 1 43.0542071429505 22.695848685139005 1.3570667397389995 0 0 0
1774 3 44.926129192644495 21.615093985847004 0 0 0 0
1939 1 46.79805124233751 22.695848685139005 1.3570667397389995 0 0 0
1780 3 48.6699732920315 21.615093985847004 0 0 0 0
1783 1 50.5418953417245 22.695848685139005 1.3570667397389995 -1 0 0
1624 3 52.4138173914185 21.615093985847004 0 -1 0 0
1789 1 54.285739441111495 22.695848685139005 1.3570667397389995 -1 0 0
1630 3 56.157661490805495 21.615093985847004 0 -1 0 0
1795 1 58.0295835404985 22.695848685139005 1.3570667397389995 -1 0 0
1636 3 59.9015055901925 21.615093985847004 0 -1 0 0
1801 1 61.7734276398855 22.695848685139005 1.3570667397389995 -1 0 0
1642 3 63.6453496895795 21.615093985847004 0 -1 0 0
1807 1 65.5172717392725 22.695848685139005 1.3570667397389995 -1 0 0
1648 3 67.3891937889665 21.615093985847004 0 -1 0 0
1813 1 69.26111583865949 22.695848685139005 1.3570667397389995 -1 0 0
1654 3 71.1330378883535 21.615093985847004 0 -1 0 0
1819 1 73.0049599380465 22.695848685139005 1.3570667397389995 -1 0 0
1660 3 74.87688198774049 21.615093985847004 0 -1 0 0
1825 1 76.7488040374335 22.695848685139005 1.3570667397389995 -1 0 0
1666 3 78.6207260871275 21.615093985847004 0 -1 0 0
1831 1 80.49264813682049 22.695848685139005 1.3570667397389995 -1 0 0
1672 3 82.3645701865145 21.615093985847004 0 -1 0 0
1837 1 84.2364922362075 22.695848685139005 1.3570667397389995 -1 0 0
1678 3 86.10841428590149 21.615093985847004 0 -1 0 0
1843 1 87.9803363355945 22.695848685139005 1.3570667397389995 -1 0 0
1684 3 89.85225838528851 21.615093985847004 0 -1 0 0
1849 1 91.72418043498149 22.695848685139005 1.3570667397389995 -1 0 0
1690 3 93.5961024846755 21.615093985847004 0 -1 0 0
1855 1 95.4680245343685 22.695848685139005 1.3570667397389995 -1 0 0
1696 3 97.33994658406249 21.615093985847004 0 -1 0 0
1861 1 99.2118686337555 22.695848685139005 1.3570667397389995 -1 0 0
1869 3 1.8719220496935023 24.857358083724 0 0 0 0
1862 1 5.044853423896711e-13 25.938112783016003 1.3570667397389995 0 0 0
1868 1 3.743844099387502 25.938112783016003 1.3570667397389995 0 0 0
1875 3 5.6157661490805 24.857358083724 0 0 0 0
1874 1 7.487688198774499 25.938112783016003 1.3570667397389995 0 0 0
1881 3 9.359610248467504 24.857358083724 0 0 0 0
1880 1 11.231532298161504 25.938112783016003 1.3570667397389995 0 0 0
1887 3 13.103454347854502 24.857358083724 0 0 0 0
1886 1 14.975376397548501 25.938112783016003 1.3570667397389995 0 0 0
1893 3 16.8472984472415 24.857358083724 0 0 0 0
1892 1 18.719220496935506 25.938112783016003 1.3570667397389995 0 0 0
1899 3 20.591142546628504 24.857358083724 0 0 0 0
1898 1 22.463064596322496 25.938112783016003 1.3570667397389995 0 0 0
1905 3 24.33498664601551 24.857358083724 0 0 0 0
1904 1 26.2069086957095 25.938112783016003 1.3570667397389995 0 0 0
1911 3 28.0788307454025 24.857358083724 0 0 0 0
1910 1 29.950752795096506 25.938112783016003 1.3570667397389995 0 0 0
1917 3 31.822674844789503 24.857358083724 0 0 0 0
1916 1 33.694596894483496 25.938112783016003 1.3570667397389995 0 0 0
1923 3 35.56651894417651 24.857358083724 0 0 0 0
1922 1 37.4384409938705 25.938112783016003 1.3570667397389995 0 0 0
1929 3 39.3103630435635 24.857358083724 0 0 0 0
1928 1 41.182285093257505 25.938112783016003 1.3570667397389995 0 0 0
1935 3 43.0542071429505 24.857358083724 0 0 0 0
1934 1 44.926129192644495 25.938112783016003 1.3570667397389995 0 0 0
1941 3 46.79805124233751 24.857358083724 0 0 0 0
1940 1 48.6699732920315 25.938112783016003 1.3570667397389995 0 0 0
1785 3 50.5418953417245 24.857358083724 0 -1 0 0
1784 1 52.4138173914185 25.938112783016003 1.3570667397389995 -1 0 0
1791 3 54.285739441111495 24.857358083724 0 -1 0 0
1790 1 56.157661490805495 25.938112783016003 1.3570667397389995 -1 0 0
1797 3 58.0295835404985 24.857358083724 0 -1 0 0
1796 1 59.9015055901925 25.938112783016003 1.3570667397389995 -1 0 0
1803 3 61.7734276398855 24.857358083724 0 -1 0 0
1802 1 63.6453496895795 25.938112783016003 1.3570667397389995 -1 0 0
1809 3 65.5172717392725 24.857358083724 0 -1 0 0
1808 1 67.3891937889665 25.938112783016003 1.3570667397389995 -1 0 0
1815 3 69.26111583865949 24.857358083724 0 -1 0 0
1814 1 71.1330378883535 25.938112783016003 1.3570667397389995 -1 0 0
1821 3 73.0049599380465 24.857358083724 0 -1 0 0
1820 1 74.87688198774049 25.938112783016003 1.3570667397389995 -1 0 0
1827 3 76.7488040374335 24.857358083724 0 -1 0 0
1826 1 78.6207260871275 25.938112783016003 1.3570667397389995 -1 0 0
1833 3 80.49264813682049 24.857358083724 0 -1 0 0
1832 1 82.3645701865145 25.938112783016003 1.3570667397389995 -1 0 0
1839 3 84.2364922362075 24.857358083724 0 -1 0 0
1838 1 86.10841428590149 25.938112783016003 1.3570667397389995 -1 0 0
1845 3 87.9803363355945 24.857358083724 0 -1 0 0
1844 1 89.85225838528851 25.938112783016003 1.3570667397389995 -1 0 0
1851 3 91.72418043498149 24.857358083724 0 -1 0 0
1850 1 93.5961024846755 25.938112783016003 1.3570667397389995 -1 0 0
1857 3 95.4680245343685 24.857358083724 0 -1 0 0
1856 1 97.33994658406249 25.938112783016003 1.3570667397389995 -1 0 0
1863 3 99.2118686337555 24.857358083724 0 -1 0 0
1864 3 5.044853423896711e-13 28.099622181601 0 0 0 0
1870 3 3.743844099387502 28.099622181601 0 0 0 0
1876 3 7.487688198774499 28.099622181601 0 0 0 0
1882 3 11.231532298161504 28.099622181601 0 0 0 0
1888 3 14.975376397548501 28.099622181601 0 0 0 0
1894 3 18.719220496935506 28.099622181601 0 0 0 0
1900 3 22.463064596322496 28.099622181601 0 0 0 0
1906 3 26.2069086957095 28.099622181601 0 0 0 0
1912 3 29.950752795096506 28.099622181601 0 0 0 0
1918 3 33.694596894483496 28.099622181601 0 0 0 0
1924 3 37.4384409938705 28.099622181601 0 0 0 0
1930 3 41.182285093257505 28.099622181601 0 0 0 0
1936 3 44.926129192644495 28.099622181601 0 0 0 0
1942 3 48.6699732920315 28.099622181601 0 0 0 0
1786 3 52.4138173914185 28.099622181601 0 -1 0 0
1792 3 56.157661490805495 28.099622181601 0 -1 0 0
1798 3 59.9015055901925 28.099622181601 0 -1 0 0
1804 3 63.6453496895795 28.099622181601 0 -1 0 0
1810 3 67.3891937889665 28.099622181601 0 -1 0 0
1816 3 71.1330378883535 28.099622181601 0 -1 0 0
1822 3 74.87688198774049 28.099622181601 0 -1 0 0
1828 3 78.6207260871275 28.099622181601 0 -1 0 0
1834 3 82.3645701865145 28.099622181601 0 -1 0 0
1840 3 86.10841428590149 28.099622181601 0 -1 0 0
1846 3 89.85225838528851 28.099622181601 0 -1 0 0
1852 3 93.5961024846755 28.099622181601 0 -1 0 0
1858 3 97.33994658406249 28.099622181601 0 -1 0 0
2029 1 1.8719220496935023 29.180376880893 1.3570667397389995 0 0 0
2035 1 5.6157661490805 29.180376880893 1.3570667397389995 0 0 0
2041 1 9.359610248467504 29.180376880893 1.3570667397389995 0 0 0
2047 1 13.103454347854502 29.180376880893 1.3570667397389995 0 0 0
2053 1 16.8472984472415 29.180376880893 1.3570667397389995 0 0 0
2059 1 20.591142546628504 29.180376880893 1.3570667397389995 0 0 0
2065 1 24.33498664601551 29.180376880893 1.3570667397389995 0 0 0
2071 1 28.0788307454025 29.180376880893 1.3570667397389995 0 0 0
2077 1 31.822674844789503 29.180376880893 1.3570667397389995 0 0 0
2083 1 35.56651894417651 29.180376880893 1.3570667397389995 0 0 0
2089 1 39.3103630435635 29.180376880893 1.3570667397389995 0 0 0
2095 1 43.0542071429505 29.180376880893 1.3570667397389995 0 0 0
2101 1 46.79805124233751 29.180376880893 1.3570667397389995 0 0 0
1945 1 50.5418953417245 29.180376880893 1.3570667397389995 -1 0 0