LAMMPS data file via write_data, version 29 Aug 2024, timestep = 2, units = metal

4860 atoms
6 atom types

0 101.083790683449 xlo xhi
0 97.26792293631 ylo yhi
-50 50 zlo zhi

Masses

1 44.955908
2 44.955908
3 32.06
4 32.06
5 32.06
6 32.06

Atoms # atomic

1381 1 1.8707875600953519 3.241100521208459 1.3542210889780195 0 0 0
1222 4 3.743820279615474 2.1615138548112407 0.03455835373159759 0 0 0
1387 1 5.614631659482352 3.2411005212084585 1.3542210889780188 0 0 0
1383 4 1.8718982299220115 5.403777952688243 0.034558353731597095 0 0 0
1389 4 5.61574232930901 5.403777952688243 0.0345583537315977 0 0 0
1224 3 1.8683832324696614 1.0770997728102791 2.672701250467131 0 0 0
1230 3 5.61222733185666 1.0770997728102794 2.6727012504671315 0 0 0
1385 3 3.7403052821629146 4.319363870687282 2.672701250467132 0 0 0
1228 4 7.487664379002473 2.1615138548112416 0.03455835373159857 0 0 0
1393 1 9.358475758869353 3.2411005212084576 1.3542210889780175 0 0 0
1234 4 11.231508478389475 2.161513854811241 0.0345583537315978 0 0 0
1395 4 9.359586428696012 5.403777952688244 0.034558353731598095 0 0 0
1236 3 9.356071431243663 1.0770997728102791 2.6727012504671306 0 0 0
1391 3 7.4841493815499165 4.3193638706872814 2.6727012504671306 0 0 0
1397 3 11.227993480936917 4.319363870687282 2.6727012504671315 0 0 0
1399 1 13.102319858256354 3.2411005212084585 1.354221088978019 0 0 0
1240 4 14.975352577776473 2.1615138548112407 0.034558353731597546 0 0 0
1405 1 16.846163957643356 3.2411005212084576 1.3542210889780164 0 0 0
1401 4 13.103430528083011 5.403777952688243 0.034558353731597484 0 0 0
1407 4 16.84727462747001 5.403777952688245 0.03455835373159795 0 0 0
1242 3 13.099915530630662 1.0770997728102796 2.672701250467132 0 0 0
1248 3 16.84375963001766 1.0770997728102794 2.67270125046713 0 0 0
1403 3 14.971837580323916 4.319363870687282 2.672701250467131 0 0 0
1246 4 18.719196677163474 2.161513854811241 0.03455835373159819 0 0 0
1411 1 20.590008057030353 3.2411005212084594 1.3542210889780202 0 0 0
1252 4 22.46304077655047 2.161513854811242 0.0345583537315992 0 0 0
1413 4 20.59111872685701 5.403777952688243 0.03455835373159726 0 0 0
1254 3 20.58760372940466 1.0770997728102796 2.672701250467132 0 0 0
1409 3 18.71568167971091 4.3193638706872814 2.672701250467131 0 0 0
1415 3 22.459525779097916 4.3193638706872814 2.672701250467131 0 0 0
1417 1 24.333852156417354 3.241100521208458 1.3542210889780182 0 0 0
1258 4 26.206884875937472 2.1615138548112403 0.03455835373159655 0 0 0
1423 1 28.077696255804355 3.241100521208457 1.3542210889780164 0 0 0
1419 4 24.334962826244013 5.403777952688244 0.034558353731598136 0 0 0
1425 4 28.07880692563101 5.403777952688245 0.034558353731597644 0 0 0
1260 3 24.331447828791664 1.077099772810279 2.6727012504671306 0 0 0
1266 3 28.07529192817866 1.0770997728102796 2.6727012504671306 0 0 0
1421 3 26.203369878484917 4.319363870687282 2.672701250467131 0 0 0
1264 4 29.950728975324473 2.161513854811241 0.03455835373159819 0 0 0
1429 1 31.821540355191352 3.241100521208459 1.3542210889780195 0 0 0
1270 4 33.69457307471148 2.161513854811242 0.03455835373159954 0 0 0
1435 1 35.56538445457836 3.2411005212084585 1.3542210889780188 0 0 0
1431 4 31.82265102501801 5.403777952688243 0.03455835373159757 0 0 0
1437 4 35.56649512440501 5.403777952688244 0.03455835373159752 0 0 0
1272 3 31.819136027565662 1.0770997728102794 2.6727012504671315 0 0 0
1278 3 35.56298012695267 1.0770997728102791 2.672701250467131 0 0 0
1427 3 29.94721397787191 4.3193638706872814 2.672701250467131 0 0 0
1433 3 33.691058077258916 4.3193638706872814 2.6727012504671306 0 0 0
1276 4 37.438417174098475 2.16151385481124 0.03455835373159595 0 0 0
1441 1 39.309228553965355 3.2411005212084576 1.354221088978017 0 0 0
1282 4 41.18226127348547 2.1615138548112416 0.034558353731598414 0 0 0
1443 4 39.310339223792006 5.403777952688245 0.034558353731597984 0 0 0
1284 3 39.306824226339664 1.0770997728102794 2.67270125046713 0 0 0
1439 3 37.43490217664592 4.319363870687282 2.672701250467132 0 0 0
1445 3 41.17874627603291 4.3193638706872814 2.672701250467131 0 0 0
1447 1 43.05307265335235 3.2411005212084585 1.3542210889780188 0 0 0
1288 4 44.92610537287248 2.161513854811242 0.03455835373159953 0 0 0
1453 1 46.79691675273936 3.2411005212084585 1.3542210889780188 0 0 0
1449 4 43.05418332317901 5.403777952688243 0.03455835373159748 0 0 0
1455 4 46.79802742256601 5.403777952688244 0.03455835373159755 0 0 0
1290 3 43.05066832572666 1.0770997728102794 2.6727012504671315 0 0 0
1296 3 46.794512425113666 1.0770997728102791 2.672701250467131 0 0 0
1451 3 44.922590375419915 4.3193638706872814 2.6727012504671306 0 0 0
1294 4 48.669949472259475 2.1615138548112403 0.03455835373159631 0 0 0
1297 1 50.54076085212635 3.2411005212084576 1.3542210889780169 -1 0 0
1138 4 52.41379357164647 2.1615138548112407 0.03455835373159757 -1 0 0
1299 4 50.541871521953006 5.403777952688244 0.03455835373159719 -1 0 0
1140 3 50.53835652450066 1.0770997728102798 2.6727012504671315 -1 0 0
1457 3 48.66643447480692 4.319363870687282 2.6727012504671324 0 0 0
1301 3 52.41027857419391 4.319363870687282 2.6727012504671315 -1 0 0
1303 1 54.284604951513344 3.241100521208459 1.3542210889780195 -1 0 0
1144 4 56.15763767103347 2.1615138548112416 0.03455835373159833 -1 0 0
1309 1 58.02844905090035 3.2411005212084576 1.354221088978017 -1 0 0
1305 4 54.28571562134 5.403777952688244 0.034558353731597866 -1 0 0
1311 4 58.02955972072701 5.403777952688244 0.03455835373159788 -1 0 0
1146 3 54.282200623887654 1.0770997728102796 2.672701250467132 -1 0 0
1152 3 58.02604472327466 1.077099772810279 2.6727012504671297 -1 0 0
1307 3 56.154122673580915 4.3193638706872814 2.6727012504671306 -1 0 0
1150 4 59.901481770420475 2.161513854811241 0.03455835373159786 -1 0 0
1315 1 61.77229315028735 3.241100521208458 1.3542210889780182 -1 0 0
1156 4 63.64532586980747 2.161513854811241 0.034558353731598095 -1 0 0
1317 4 61.773403820114005 5.403777952688243 0.03455835373159712 -1 0 0
1158 3 61.769888822661656 1.0770997728102798 2.6727012504671315 -1 0 0
1313 3 59.89796677296791 4.3193638706872814 2.672701250467131 -1 0 0
1319 3 63.64181087235491 4.319363870687282 2.672701250467132 -1 0 0
1321 1 65.51613724967434 3.2411005212084585 1.3542210889780188 -1 0 0
1162 4 67.38916996919447 2.1615138548112407 0.03455835373159727 -1 0 0
1327 1 69.25998134906135 3.2411005212084585 1.3542210889780182 -1 0 0
1168 4 71.13301406858147 2.161513854811242 0.03455835373159928 -1 0 0
1323 4 65.517247919501 5.403777952688243 0.03455835373159719 -1 0 0
1329 4 69.26109201888801 5.403777952688245 0.03455835373159888 -1 0 0
1164 3 65.51373292204866 1.0770997728102796 2.672701250467132 -1 0 0
1170 3 69.25757702143565 1.0770997728102787 2.67270125046713 -1 0 0
1325 3 67.3856549717419 4.319363870687282 2.6727012504671324 -1 0 0
1331 3 71.1294990711289 4.319363870687281 2.67270125046713 -1 0 0
1333 1 73.00382544844835 3.241100521208459 1.3542210889780195 -1 0 0
1174 4 74.87685816796846 2.161513854811241 0.034558353731597845 -1 0 0
1339 1 76.74766954783534 3.2411005212084576 1.3542210889780169 -1 0 0
1335 4 73.004936118275 5.403777952688243 0.03455835373159679 -1 0 0
1341 4 76.748780217662 5.403777952688244 0.034558353731597435 -1 0 0
1176 3 73.00142112082266 1.0770997728102802 2.672701250467132 -1 0 0
1182 3 76.74526522020966 1.0770997728102794 2.672701250467131 -1 0 0
1337 3 74.87334317051591 4.3193638706872814 2.6727012504671315 -1 0 0
1180 4 78.62070226735547 2.1615138548112407 0.03455835373159694 -1 0 0
1345 1 80.49151364722235 3.2411005212084585 1.3542210889780182 -1 0 0
1186 4 82.36454636674247 2.161513854811242 0.03455835373159928 -1 0 0
1347 4 80.492624317049 5.403777952688245 0.03455835373159887 -1 0 0
1188 3 80.48910931959665 1.0770997728102787 2.67270125046713 -1 0 0
1343 3 78.6171872699029 4.319363870687282 2.672701250467132 -1 0 0
1349 3 82.3610313692899 4.3193638706872814 2.67270125046713 -1 0 0
1351 1 84.23535774660935 3.241100521208459 1.3542210889780195 -1 0 0
1192 4 86.10839046612946 2.1615138548112416 0.03455835373159849 -1 0 0
1357 1 87.97920184599636 3.2411005212084576 1.3542210889780169 -1 0 0
1353 4 84.236468416436 5.403777952688243 0.034558353731596755 -1 0 0
1359 4 87.980312515823 5.4037779526882455 0.03455835373159928 -1 0 0
1194 3 84.23295341898366 1.0770997728102802 2.672701250467132 -1 0 0
1200 3 87.97679751837066 1.0770997728102785 2.6727012504671293 -1 0 0
1355 3 86.10487546867691 4.319363870687281 2.6727012504671297 -1 0 0
1198 4 89.85223456551647 2.1615138548112403 0.034558353731596846 -1 0 0
1363 1 91.72304594538335 3.241100521208458 1.3542210889780182 -1 0 0
1204 4 93.59607866490347 2.1615138548112416 0.034558353731598636 -1 0 0
1365 4 91.72415661521 5.403777952688243 0.03455835373159707 -1 0 0
1206 3 91.72064161775766 1.0770997728102796 2.6727012504671324 -1 0 0
1361 3 89.84871956806391 4.319363870687282 2.672701250467132 -1 0 0
1367 3 93.59256366745092 4.3193638706872814 2.672701250467132 -1 0 0
1216 4 101.08376686367747 2.1615138548112407 0.03455835373159734 -1 0 0
1369 1 95.46689004477035 3.241100521208459 1.3542210889780195 -1 0 0
1210 4 97.33992276429046 2.1615138548112416 0.03455835373159846 -1 0 0
1375 1 99.21073414415734 3.241100521208457 1.3542210889780162 -1 0 0
1371 4 95.468000714597 5.403777952688243 0.03455835373159679 -1 0 0
1377 4 99.211844813984 5.403777952688245 0.03455835373159882 -1 0 0
1212 3 95.46448571714465 1.07709977281028 2.672701250467132 -1 0 0
1218 3 99.20832981653166 1.0770997728102787 2.6727012504671297 -1 0 0
1373 3 97.33640776683791 4.319363870687281 2.6727012504671297 -1 0 0
1379 3 101.08025186622491 4.3193638706872814 2.6727012504671315 -1 0 0
1382 1 3.7427096097888772 6.483364619085459 1.3542210889780202 0 0 0
1384 4 3.743820279615474 8.646042050565244 0.03455835373159724 0 0 0
1543 1 1.8707875600953519 9.725628716962458 1.3542210889780213 0 0 0
1549 1 5.614631659482352 9.725628716962458 1.3542210889780208 0 0 0
1386 3 1.8683832324696612 7.561627968564279 2.672701250467131 0 0 0
1392 3 5.61222733185666 7.561627968564279 2.672701250467132 0 0 0
1547 3 3.7403052821629146 10.803892066441282 2.6727012504671324 0 0 0
1388 1 7.486553709175878 6.483364619085459 1.3542210889780202 0 0 0
1394 1 11.230397808562879 6.483364619085459 1.35422108897802 0 0 0
1390 4 7.487664379002473 8.646042050565244 0.03455835373159816 0 0 0
1396 4 11.231508478389475 8.646042050565244 0.034558353731597435 0 0 0
1555 1 9.358475758869353 9.725628716962456 1.3542210889780193 0 0 0
1398 3 9.356071431243663 7.561627968564278 2.6727012504671306 0 0 0
1553 3 7.484149381549916 10.803892066441282 2.672701250467131 0 0 0
1559 3 11.227993480936917 10.803892066441282 2.672701250467133 0 0 0
1400 1 14.974241907949878 6.483364619085459 1.3542210889780202 0 0 0
1402 4 14.975352577776473 8.646042050565244 0.034558353731597234 0 0 0
1561 1 13.102319858256354 9.725628716962458 1.3542210889780208 0 0 0
1567 1 16.846163957643356 9.725628716962456 1.3542210889780184 0 0 0
1404 3 13.099915530630662 7.561627968564279 2.6727012504671324 0 0 0
1410 3 16.84375963001766 7.561627968564279 2.6727012504671306 0 0 0
1565 3 14.971837580323916 10.803892066441282 2.6727012504671315 0 0 0
1406 1 18.71808600733688 6.483364619085459 1.3542210889780202 0 0 0
1412 1 22.46193010672388 6.483364619085459 1.3542210889780202 0 0 0
1408 4 18.719196677163474 8.646042050565244 0.034558353731597914 0 0 0
1414 4 22.46304077655047 8.646042050565244 0.034558353731598906 0 0 0
1573 1 20.590008057030353 9.725628716962458 1.3542210889780222 0 0 0
1416 3 20.587603729404663 7.561627968564279 2.6727012504671324 0 0 0
1571 3 18.71568167971091 10.803892066441282 2.672701250467132 0 0 0
1577 3 22.459525779097916 10.803892066441282 2.6727012504671324 0 0 0
1418 1 26.20577420611088 6.483364619085459 1.3542210889780202 0 0 0
1420 4 26.206884875937472 8.646042050565242 0.034558353731596145 0 0 0
1579 1 24.333852156417354 9.725628716962458 1.3542210889780202 0 0 0
1585 1 28.077696255804355 9.725628716962456 1.3542210889780184 0 0 0
1422 3 24.331447828791664 7.561627968564279 2.6727012504671306 0 0 0
1428 3 28.07529192817866 7.561627968564279 2.6727012504671306 0 0 0
1583 3 26.203369878484917 10.803892066441282 2.6727012504671324 0 0 0
1424 1 29.94961830549788 6.483364619085459 1.3542210889780202 0 0 0
1430 1 33.69346240488488 6.483364619085459 1.3542210889780206 0 0 0
1426 4 29.950728975324473 8.646042050565244 0.034558353731597914 0 0 0
1432 4 33.69457307471148 8.646042050565244 0.03455835373159924 0 0 0
1591 1 31.821540355191352 9.725628716962458 1.3542210889780215 0 0 0
1597 1 35.56538445457836 9.725628716962458 1.3542210889780208 0 0 0
1434 3 31.819136027565662 7.561627968564279 2.672701250467132 0 0 0
1440 3 35.56298012695267 7.561627968564279 2.6727012504671315 0 0 0
1589 3 29.94721397787191 10.803892066441282 2.672701250467132 0 0 0
1595 3 33.691058077258916 10.803892066441282 2.672701250467132 0 0 0
1436 1 37.43730650427188 6.483364619085459 1.3542210889780202 0 0 0
1442 1 41.18115060365888 6.483364619085459 1.3542210889780197 0 0 0
1438 4 37.438417174098475 8.646042050565242 0.034558353731595604 0 0 0
1444 4 41.18226127348547 8.646042050565244 0.03455835373159821 0 0 0
1603 1 39.309228553965355 9.725628716962456 1.3542210889780188 0 0 0
1446 3 39.306824226339664 7.561627968564279 2.6727012504671306 0 0 0
1601 3 37.43490217664592 10.803892066441282 2.672701250467133 0 0 0
1607 3 41.17874627603291 10.803892066441282 2.6727012504671315 0 0 0
1448 1 44.92499470304588 6.483364619085459 1.3542210889780208 0 0 0
1450 4 44.92610537287248 8.646042050565244 0.03455835373159924 0 0 0
1609 1 43.05307265335235 9.725628716962458 1.3542210889780208 0 0 0
1615 1 46.79691675273936 9.725628716962458 1.3542210889780208 0 0 0
1452 3 43.05066832572666 7.561627968564279 2.672701250467132 0 0 0
1458 3 46.794512425113666 7.561627968564279 2.6727012504671315 0 0 0
1613 3 44.922590375419915 10.803892066441282 2.672701250467132 0 0 0
1454 1 48.66883880243287 6.483364619085459 1.3542210889780195 0 0 0
1298 1 52.41268290181987 6.483364619085459 1.3542210889780202 -1 0 0
1456 4 48.669949472259475 8.646042050565242 0.03455835373159592 0 0 0
1300 4 52.41379357164647 8.646042050565244 0.03455835373159713 -1 0 0
1459 1 50.54076085212635 9.725628716962456 1.3542210889780188 -1 0 0
1302 3 50.53835652450066 7.561627968564279 2.6727012504671315 -1 0 0
1619 3 48.66643447480692 10.803892066441284 2.6727012504671332 0 0 0
1463 3 52.41027857419391 10.803892066441282 2.6727012504671324 -1 0 0
1304 1 56.156527001206875 6.483364619085459 1.3542210889780202 -1 0 0
1306 4 56.15763767103347 8.646042050565244 0.03455835373159794 -1 0 0
1465 1 54.284604951513344 9.725628716962458 1.3542210889780215 -1 0 0
1471 1 58.02844905090035 9.725628716962456 1.3542210889780186 -1 0 0
1308 3 54.282200623887654 7.561627968564279 2.672701250467132 -1 0 0
1314 3 58.02604472327466 7.561627968564278 2.6727012504671306 -1 0 0
1469 3 56.154122673580915 10.803892066441282 2.6727012504671315 -1 0 0
1310 1 59.90037110059387 6.483364619085459 1.35422108897802 -1 0 0
1316 1 63.64421519998087 6.483364619085459 1.3542210889780208 -1 0 0
1312 4 59.901481770420475 8.646042050565244 0.03455835373159756 -1 0 0
1318 4 63.64532586980747 8.646042050565244 0.03455835373159773 -1 0 0
1477 1 61.77229315028735 9.725628716962458 1.35422108897802 -1 0 0
1320 3 61.769888822661656 7.561627968564279 2.672701250467132 -1 0 0
1475 3 59.89796677296791 10.803892066441282 2.6727012504671315 -1 0 0
1481 3 63.64181087235491 10.803892066441282 2.6727012504671324 -1 0 0
1322 1 67.38805929936787 6.483364619085458 1.3542210889780188 -1 0 0
1328 1 71.13190339875487 6.48336461908546 1.3542210889780215 -1 0 0
1324 4 67.38916996919447 8.646042050565242 0.03455835373159694 -1 0 0
1330 4 71.13301406858147 8.646042050565244 0.034558353731599004 -1 0 0
1483 1 65.51613724967434 9.725628716962458 1.3542210889780206 -1 0 0
1489 1 69.25998134906135 9.725628716962458 1.3542210889780202 -1 0 0
1326 3 65.51373292204866 7.561627968564279 2.6727012504671324 -1 0 0
1332 3 69.25757702143565 7.561627968564278 2.67270125046713 -1 0 0
1487 3 67.3856549717419 10.803892066441284 2.6727012504671332 -1 0 0
1493 3 71.1294990711289 10.803892066441282 2.672701250467131 -1 0 0
1334 1 74.87574749814188 6.483364619085459 1.3542210889780202 -1 0 0
1336 4 74.87685816796846 8.646042050565244 0.03455835373159749 -1 0 0
1495 1 73.00382544844835 9.725628716962458 1.3542210889780215 -1 0 0
1501 1 76.74766954783534 9.725628716962456 1.3542210889780188 -1 0 0
1338 3 73.00142112082266 7.56162796856428 2.6727012504671324 -1 0 0
1344 3 76.74526522020966 7.561627968564279 2.6727012504671315 -1 0 0
1499 3 74.87334317051591 10.803892066441282 2.6727012504671324 -1 0 0
1340 1 78.61959159752887 6.483364619085458 1.3542210889780188 -1 0 0
1346 1 82.36343569691587 6.48336461908546 1.3542210889780215 -1 0 0
1342 4 78.62070226735547 8.646042050565242 0.03455835373159659 -1 0 0
1348 4 82.36454636674247 8.646042050565244 0.034558353731599004 -1 0 0
1507 1 80.49151364722235 9.725628716962458 1.35422108897802 -1 0 0
1350 3 80.48910931959665 7.561627968564278 2.67270125046713 -1 0 0
1505 3 78.6171872699029 10.803892066441282 2.672701250467133 -1 0 0
1511 3 82.3610313692899 10.803892066441282 2.672701250467131 -1 0 0
1352 1 86.10727979630288 6.483364619085459 1.3542210889780204 -1 0 0
1354 4 86.10839046612946 8.646042050565244 0.03455835373159817 -1 0 0
1513 1 84.23535774660935 9.725628716962458 1.3542210889780215 -1 0 0
1519 1 87.97920184599636 9.725628716962456 1.354221088978019 -1 0 0
1356 3 84.23295341898366 7.56162796856428 2.6727012504671324 -1 0 0
1362 3 87.97679751837066 7.561627968564278 2.6727012504671297 -1 0 0
1517 3 86.10487546867691 10.803892066441282 2.6727012504671306 -1 0 0
1358 1 89.85112389568988 6.483364619085459 1.3542210889780204 -1 0 0
1364 1 93.59496799507687 6.483364619085459 1.3542210889780202 -1 0 0
1360 4 89.85223456551647 8.646042050565242 0.034558353731596596 -1 0 0
1366 4 93.59607866490347 8.646042050565244 0.03455835373159829 -1 0 0
1525 1 91.72304594538335 9.725628716962458 1.35422108897802 -1 0 0
1368 3 91.72064161775766 7.56162796856428 2.6727012504671324 -1 0 0
1523 3 89.84871956806391 10.803892066441282 2.6727012504671332 -1 0 0
1529 3 93.59256366745092 10.803892066441282 2.6727012504671324 -1 0 0
1376 1 101.08265619385088 6.483364619085458 1.35422108897802 -1 0 0
1378 4 101.08376686367747 8.646042050565242 0.034558353731597 -1 0 0
1370 1 97.33881209446388 6.483364619085459 1.3542210889780206 -1 0 0
1372 4 97.33992276429046 8.646042050565244 0.034558353731598136 -1 0 0
1531 1 95.46689004477035 9.725628716962458 1.3542210889780215 -1 0 0
1537 1 99.21073414415734 9.725628716962456 1.3542210889780184 -1 0 0
1374 3 95.46448571714465 7.561627968564279 2.6727012504671324 -1 0 0
1380 3 99.20832981653166 7.561627968564278 2.67270125046713 -1 0 0
1535 3 97.33640776683791 10.80389206644128 2.6727012504671306 -1 0 0
1541 3 101.08025186622491 10.803892066441282 2.6727012504671324 -1 0 0
1545 4 1.8718982299220115 11.888306148442242 0.03455835373159678 0 0 0
1544 1 3.7427096097888772 12.967892814839459 1.3542210889780195 0 0 0
1551 4 5.615742329309009 11.888306148442242 0.034558353731597616 0 0 0
1546 4 3.743820279615474 15.130570246319243 0.03455835373159629 0 0 0
1705 1 1.8707875600953536 16.210156912716457 1.3542210889780186 0 0 0
1711 1 5.614631659482352 16.210156912716457 1.3542210889780193 0 0 0
1548 3 1.8683832324696614 14.04615616431828 2.6727012504671297 0 0 0
1554 3 5.61222733185666 14.04615616431828 2.6727012504671306 0 0 0
1550 1 7.486553709175878 12.967892814839459 1.3542210889780193 0 0 0
1557 4 9.359586428696012 11.888306148442242 0.034558353731597935 0 0 0
1556 1 11.230397808562879 12.967892814839459 1.3542210889780193 0 0 0
1552 4 7.487664379002473 15.130570246319243 0.03455835373159728 0 0 0
1558 4 11.231508478389475 15.130570246319243 0.034558353731596506 0 0 0
1717 1 9.358475758869353 16.210156912716457 1.3542210889780175 0 0 0
1560 3 9.356071431243663 14.046156164318278 2.6727012504671293 0 0 0
1563 4 13.103430528083011 11.888306148442242 0.034558353731597345 0 0 0
1562 1 14.974241907949878 12.967892814839459 1.3542210889780193 0 0 0
1569 4 16.84727462747001 11.888306148442242 0.03455835373159768 0 0 0
1564 4 14.975352577776473 15.130570246319243 0.03455835373159614 0 0 0
1723 1 13.102319858256354 16.21015691271646 1.3542210889780195 0 0 0
1729 1 16.846163957643352 16.210156912716457 1.3542210889780166 0 0 0
1566 3 13.099915530630662 14.04615616431828 2.672701250467131 0 0 0
1572 3 16.84375963001766 14.046156164318278 2.6727012504671297 0 0 0
1568 1 18.71808600733688 12.967892814839459 1.354221088978019 0 0 0
1575 4 20.59111872685701 11.888306148442242 0.03455835373159694 0 0 0
1574 1 22.46193010672388 12.967892814839459 1.3542210889780193 0 0 0
1570 4 18.719196677163474 15.130570246319243 0.03455835373159664 0 0 0
1576 4 22.46304077655047 15.130570246319243 0.034558353731597935 0 0 0
1735 1 20.590008057030353 16.21015691271646 1.3542210889780202 0 0 0
1578 3 20.587603729404663 14.046156164318278 2.672701250467131 0 0 0
1581 4 24.334962826244013 11.888306148442242 0.03455835373159788 0 0 0
1580 1 26.20577420611088 12.967892814839459 1.354221088978019 0 0 0
1587 4 28.07880692563101 11.888306148442242 0.034558353731597505 0 0 0
1582 4 26.206884875937472 15.130570246319241 0.03455835373159527 0 0 0
1741 1 24.333852156417354 16.21015691271646 1.3542210889780184 0 0 0
1747 1 28.077696255804355 16.210156912716457 1.3542210889780164 0 0 0
1584 3 24.331447828791664 14.046156164318278 2.6727012504671293 0 0 0
1590 3 28.07529192817866 14.046156164318278 2.6727012504671297 0 0 0
1586 1 29.94961830549788 12.967892814839459 1.354221088978019 0 0 0
1593 4 31.82265102501801 11.888306148442242 0.03455835373159724 0 0 0
1592 1 33.69346240488488 12.967892814839459 1.3542210889780195 0 0 0
1599 4 35.56649512440501 11.888306148442242 0.03455835373159727 0 0 0
1588 4 29.950728975324473 15.130570246319243 0.03455835373159666 0 0 0
1594 4 33.69457307471148 15.130570246319243 0.03455835373159826 0 0 0
1753 1 31.821540355191352 16.210156912716457 1.3542210889780197 0 0 0
1759 1 35.56538445457836 16.21015691271646 1.354221088978019 0 0 0
1596 3 31.819136027565662 14.046156164318278 2.6727012504671306 0 0 0
1602 3 35.56298012695267 14.046156164318278 2.67270125046713 0 0 0
1598 1 37.43730650427188 12.967892814839459 1.354221088978019 0 0 0
1605 4 39.310339223792006 11.888306148442242 0.03455835373159783 0 0 0
1604 1 41.18115060365888 12.967892814839459 1.3542210889780184 0 0 0
1600 4 37.438417174098475 15.130570246319241 0.03455835373159465 0 0 0
1606 4 41.18226127348547 15.130570246319243 0.03455835373159692 0 0 0
1765 1 39.309228553965355 16.210156912716457 1.354221088978017 0 0 0
1608 3 39.306824226339664 14.046156164318278 2.6727012504671297 0 0 0
1611 4 43.05418332317901 11.888306148442242 0.034558353731597206 0 0 0
1610 1 44.92499470304588 12.967892814839459 1.35422108897802 0 0 0
1617 4 46.79802742256601 11.888306148442242 0.0345583537315973 0 0 0
1612 4 44.92610537287248 15.130570246319243 0.03455835373159826 0 0 0
1771 1 43.05307265335235 16.210156912716457 1.354221088978019 0 0 0
1777 1 46.79691675273936 16.21015691271646 1.354221088978019 0 0 0
1614 3 43.05066832572666 14.046156164318278 2.6727012504671306 0 0 0
1620 3 46.794512425113666 14.046156164318278 2.67270125046713 0 0 0
1616 1 48.66883880243288 12.967892814839459 1.3542210889780186 0 0 0
1461 4 50.541871521953006 11.888306148442242 0.0345583537315971 -1 0 0
1460 1 52.41268290181987 12.967892814839459 1.3542210889780193 -1 0 0
1618 4 48.669949472259475 15.130570246319241 0.03455835373159505 0 0 0
1462 4 52.41379357164647 15.130570246319243 0.03455835373159628 -1 0 0
1621 1 50.54076085212635 16.210156912716457 1.3542210889780173 -1 0 0
1464 3 50.53835652450066 14.04615616431828 2.67270125046713 -1 0 0
1467 4 54.28571562134 11.888306148442242 0.03455835373159716 -1 0 0
1466 1 56.156527001206875 12.967892814839459 1.3542210889780193 -1 0 0
1473 4 58.02955972072701 11.888306148442242 0.03455835373159845 -1 0 0
1468 4 56.15763767103347 15.130570246319243 0.03455835373159706 -1 0 0
1627 1 54.284604951513344 16.21015691271646 1.3542210889780197 -1 0 0
1633 1 58.02844905090035 16.210156912716457 1.354221088978017 -1 0 0
1470 3 54.282200623887654 14.04615616431828 2.672701250467131 -1 0 0
1476 3 58.02604472327466 14.046156164318278 2.672701250467129 -1 0 0
1472 1 59.90037110059387 12.967892814839459 1.3542210889780193 -1 0 0
1479 4 61.773403820114005 11.888306148442242 0.03455835373159701 -1 0 0
1478 1 63.64421519998087 12.967892814839459 1.35422108897802 -1 0 0
1474 4 59.901481770420475 15.130570246319243 0.03455835373159661 -1 0 0
1480 4 63.64532586980747 15.130570246319243 0.03455835373159666 -1 0 0
1639 1 61.77229315028735 16.21015691271646 1.3542210889780184 -1 0 0
1482 3 61.769888822661656 14.04615616431828 2.6727012504671306 -1 0 0
1485 4 65.517247919501 11.888306148442242 0.034558353731597116 -1 0 0
1484 1 67.38805929936787 12.967892814839459 1.354221088978018 -1 0 0
1491 4 69.26109201888801 11.888306148442242 0.034558353731598615 -1 0 0
1490 1 71.13190339875487 12.967892814839459 1.3542210889780204 -1 0 0
1486 4 67.38916996919447 15.130570246319241 0.03455835373159602 -1 0 0
1492 4 71.13301406858147 15.130570246319243 0.034558353731597956 -1 0 0
1645 1 65.51613724967434 16.210156912716457 1.3542210889780193 -1 0 0
1651 1 69.25998134906135 16.210156912716457 1.3542210889780182 -1 0 0
1488 3 65.51373292204866 14.046156164318278 2.6727012504671306 -1 0 0
1494 3 69.25757702143565 14.046156164318278 2.672701250467129 -1 0 0
1497 4 73.004936118275 11.888306148442242 0.03455835373159652 -1 0 0
1496 1 74.87574749814188 12.967892814839459 1.3542210889780193 -1 0 0
1503 4 76.748780217662 11.888306148442242 0.034558353731597165 -1 0 0
1498 4 74.87685816796846 15.130570246319243 0.0345583537315967 -1 0 0
1657 1 73.00382544844835 16.21015691271646 1.3542210889780195 -1 0 0
1663 1 76.74766954783534 16.210156912716457 1.3542210889780166 -1 0 0
1500 3 73.00142112082266 14.04615616431828 2.672701250467131 -1 0 0
1506 3 76.74526522020966 14.046156164318278 2.67270125046713 -1 0 0
1502 1 78.61959159752887 12.967892814839459 1.3542210889780177 -1 0 0
1509 4 80.492624317049 11.888306148442242 0.03455835373159861 -1 0 0
1508 1 82.36343569691587 12.967892814839459 1.3542210889780204 -1 0 0
1504 4 78.62070226735547 15.130570246319241 0.03455835373159575 -1 0 0
1510 4 82.36454636674247 15.130570246319243 0.03455835373159795 -1 0 0
1669 1 80.49151364722235 16.210156912716457 1.3542210889780182 -1 0 0
1512 3 80.48910931959665 14.046156164318278 2.672701250467129 -1 0 0
1515 4 84.236468416436 11.888306148442242 0.03455835373159649 -1 0 0
1514 1 86.10727979630288 12.967892814839459 1.3542210889780193 -1 0 0
1521 4 87.980312515823 11.888306148442243 0.03455835373159903 -1 0 0
1516 4 86.10839046612946 15.130570246319243 0.03455835373159719 -1 0 0
1675 1 84.23535774660935 16.21015691271646 1.3542210889780195 -1 0 0
1681 1 87.97920184599636 16.210156912716457 1.354221088978017 -1 0 0
1518 3 84.23295341898366 14.04615616431828 2.672701250467131 -1 0 0
1524 3 87.97679751837066 14.046156164318278 2.6727012504671284 -1 0 0
1520 1 89.85112389568988 12.967892814839459 1.354221088978019 -1 0 0
1527 4 91.72415661521 11.888306148442242 0.03455835373159678 -1 0 0
1526 1 93.59496799507687 12.967892814839459 1.3542210889780188 -1 0 0
1522 4 89.85223456551647 15.130570246319241 0.034558353731595506 -1 0 0
1528 4 93.59607866490347 15.130570246319243 0.03455835373159732 -1 0 0
1687 1 91.72304594538335 16.210156912716457 1.3542210889780184 -1 0 0
1530 3 91.72064161775766 14.04615616431828 2.6727012504671315 -1 0 0
1538 1 101.08265619385088 12.967892814839459 1.354221088978019 -1 0 0
1540 4 101.08376686367747 15.130570246319241 0.03455835373159605 -1 0 0
1533 4 95.468000714597 11.888306148442242 0.03455835373159652 -1 0 0
1532 1 97.33881209446388 12.967892814839459 1.3542210889780197 -1 0 0
1539 4 99.211844813984 11.888306148442243 0.03455835373159862 -1 0 0
1534 4 97.33992276429046 15.130570246319243 0.034558353731597206 -1 0 0
1693 1 95.46689004477035 16.21015691271646 1.3542210889780195 -1 0 0
1699 1 99.21073414415734 16.210156912716457 1.3542210889780164 -1 0 0
1536 3 95.46448571714465 14.04615616431828 2.672701250467131 -1 0 0
1542 3 99.20832981653166 14.046156164318278 2.672701250467129 -1 0 0
1707 4 1.8718982299220117 18.372834344196242 0.034558353731596284 0 0 0
1713 4 5.61574232930901 18.372834344196242 0.03455835373159721 0 0 0
1706 1 3.7427096097888772 19.452421010593458 1.3542210889780197 0 0 0
1867 1 1.8707875600953519 22.694685108470463 1.3542210889780228 0 0 0
1708 4 3.743820279615474 21.615098442073243 0.0345583537315993 0 0 0
1873 1 5.614631659482352 22.69468510847046 1.3542210889780222 0 0 0
1709 3 3.7403052821629146 17.28842026219528 2.672701250467133 0 0 0
1710 3 1.8683832324696612 20.53068436007228 2.67270125046713 0 0 0
1716 3 5.61222733185666 20.53068436007228 2.6727012504671306 0 0 0
1719 4 9.359586428696012 18.372834344196246 0.03455835373159755 0 0 0
1712 1 7.486553709175878 19.452421010593458 1.35422108897802 0 0 0
1718 1 11.230397808562879 19.45242101059346 1.3542210889780197 0 0 0
1714 4 7.487664379002473 21.615098442073243 0.034558353731600364 0 0 0
1879 1 9.358475758869353 22.69468510847046 1.3542210889780202 0 0 0
1720 4 11.231508478389475 21.615098442073243 0.03455835373159954 0 0 0
1715 3 7.484149381549916 17.288420262195277 2.672701250467131 0 0 0
1721 3 11.227993480936917 17.28842026219528 2.6727012504671324 0 0 0
1722 3 9.356071431243663 20.53068436007228 2.6727012504671297 0 0 0
1725 4 13.103430528083011 18.372834344196242 0.03455835373159697 0 0 0
1731 4 16.84727462747001 18.372834344196246 0.03455835373159749 0 0 0
1724 1 14.974241907949878 19.45242101059346 1.3542210889780197 0 0 0
1885 1 13.102319858256354 22.69468510847046 1.3542210889780224 0 0 0
1726 4 14.975352577776473 21.615098442073243 0.034558353731599364 0 0 0
1891 1 16.846163957643352 22.69468510847046 1.3542210889780193 0 0 0