LAMMPS data file via write_data, version 29 Aug 2024, timestep = 2, units = metal

7290 atoms
9 atom types

0 101.083790683449 xlo xhi
0 97.26792293631 ylo yhi
-50 50 zlo zhi

Masses

1 44.955908
2 44.955908
3 44.955908
4 32.06
5 32.06
6 32.06
7 32.06
8 32.06
9 32.06

Atoms # atomic

1381 1 1.8707914211266994 3.241103911395168 1.3542466049064754 0 0 0
1222 5 3.743820592994712 2.1615137871128005 0.034077761271983975 0 0 0
1387 1 5.614635520513698 3.241103911395169 1.3542466049064765 0 0 0
1383 5 1.871898543301241 5.403777884989803 0.03407776127198365 0 0 0
1389 5 5.6157426426882395 5.403777884989803 0.034077761271984225 0 0 0
1224 4 1.8684434355018509 1.0771602243248426 2.673433205440956 0 0 0
1230 4 5.61228753488885 1.0771602243248424 2.6734332054409564 0 0 0
1385 4 3.7403654851951025 4.319424322201845 2.673433205440957 0 0 0
1228 5 7.487664692381711 2.161513787112801 0.034077761271985044 0 0 0
1393 1 9.358479619900699 3.2411039113951685 1.354246604906475 0 0 0
1234 5 11.231508791768714 2.1615137871128 0.034077761271984225 0 0 0
1395 5 9.35958674207524 5.403777884989804 0.03407776127198467 0 0 0
1236 4 9.356131634275853 1.0771602243248424 2.6734332054409555 0 0 0
1391 4 7.484209584582104 4.3194243222018445 2.673433205440955 0 0 0
1397 4 11.228053683969103 4.319424322201845 2.6734332054409564 0 0 0
1399 1 13.102323719287698 3.241103911395169 1.3542466049064765 0 0 0
1240 5 14.97535289115571 2.1615137871128 0.03407776127198383 0 0 0
1405 1 16.846167818674697 3.241103911395168 1.3542466049064745 0 0 0
1401 5 13.103430841462242 5.403777884989803 0.03407776127198392 0 0 0
1407 5 16.84727494084924 5.403777884989804 0.03407776127198455 0 0 0
1242 4 13.099975733662852 1.0771602243248426 2.6734332054409564 0 0 0
1248 4 16.843819833049853 1.0771602243248424 2.673433205440955 0 0 0
1403 4 14.971897783356104 4.3194243222018445 2.673433205440956 0 0 0
1246 5 18.719196990542713 2.161513787112801 0.03407776127198495 0 0 0
1411 1 20.5900119180617 3.241103911395169 1.354246604906477 0 0 0
1252 5 22.463041089929714 2.1615137871128014 0.03407776127198567 0 0 0
1413 5 20.59111904023624 5.403777884989802 0.034077761271983795 0 0 0
1254 4 20.58766393243685 1.0771602243248428 2.673433205440957 0 0 0
1409 4 18.715741882743103 4.3194243222018445 2.673433205440956 0 0 0
1415 4 22.459585982130104 4.3194243222018445 2.6734332054409564 0 0 0
1417 1 24.3338560174487 3.241103911395169 1.354246604906476 0 0 0
1258 5 26.20688518931671 2.161513787112799 0.03407776127198273 0 0 0
1423 1 28.077700116835697 3.241103911395168 1.3542466049064743 0 0 0
1419 5 24.33496313962324 5.403777884989803 0.034077761271984405 0 0 0
1425 5 28.07880723901024 5.403777884989804 0.034077761271984544 0 0 0
1260 4 24.33150803182385 1.0771602243248422 2.6734332054409555 0 0 0
1266 4 28.075352131210852 1.0771602243248426 2.673433205440955 0 0 0
1421 4 26.203430081517105 4.319424322201845 2.6734332054409564 0 0 0
1264 5 29.950729288703712 2.161513787112801 0.034077761271984974 0 0 0
1429 1 31.821544216222698 3.2411039113951694 1.3542466049064772 0 0 0
1270 5 33.69457338809071 2.161513787112801 0.03407776127198532 0 0 0
1435 1 35.565388315609695 3.2411039113951685 1.3542466049064756 0 0 0
1431 5 31.82265133839724 5.403777884989802 0.03407776127198383 0 0 0
1437 5 35.56649543778424 5.403777884989804 0.03407776127198466 0 0 0
1272 4 31.81919623059785 1.0771602243248428 2.673433205440957 0 0 0
1278 4 35.56304032998485 1.077160224324842 2.673433205440955 0 0 0
1427 4 29.947274180904103 4.3194243222018445 2.673433205440956 0 0 0
1433 4 33.6911182802911 4.3194243222018445 2.673433205440956 0 0 0
1276 5 37.438417487477714 2.1615137871127996 0.034077761271983 0 0 0
1441 1 39.3092324149967 3.2411039113951676 1.354246604906474 0 0 0
1282 5 41.18226158686471 2.161513787112801 0.034077761271985016 0 0 0
1443 5 39.31033953717124 5.403777884989803 0.03407776127198388 0 0 0
1284 4 39.30688442937185 1.077160224324843 2.673433205440956 0 0 0
1439 4 37.434962379678105 4.319424322201845 2.673433205440956 0 0 0
1445 4 41.178806479065095 4.3194243222018445 2.673433205440956 0 0 0
1447 1 43.0530765143837 3.2411039113951694 1.3542466049064776 0 0 0
1288 5 44.92610568625171 2.161513787112801 0.03407776127198532 0 0 0
1453 1 46.796920613770695 3.2411039113951685 1.3542466049064756 0 0 0
1449 5 43.05418363655824 5.403777884989802 0.03407776127198419 0 0 0
1455 5 46.79802773594524 5.403777884989804 0.03407776127198472 0 0 0
1290 4 43.050728528758846 1.0771602243248426 2.6734332054409564 0 0 0
1296 4 46.79457262814585 1.077160224324842 2.673433205440955 0 0 0
1451 4 44.9226505784521 4.3194243222018445 2.673433205440956 0 0 0
1294 5 48.669949785638714 2.1615137871127996 0.034077761271983406 0 0 0
1297 1 50.54076471315769 3.2411039113951685 1.3542466049064754 -1 0 0
1138 5 52.413793885025704 2.1615137871128005 0.03407776127198403 -1 0 0
1299 5 50.54187183533224 5.403777884989802 0.03407776127198316 -1 0 0
1140 4 50.53841672753285 1.0771602243248433 2.673433205440957 -1 0 0
1457 4 48.666494677839104 4.319424322201845 2.6734332054409564 0 0 0
1301 4 52.410338777226094 4.319424322201845 2.673433205440957 -1 0 0
1303 1 54.28460881254469 3.241103911395169 1.3542466049064765 -1 0 0
1144 5 56.15763798441271 2.161513787112801 0.03407776127198483 -1 0 0
1309 1 58.028452911931694 3.2411039113951685 1.3542466049064752 -1 0 0
1305 5 54.285715934719235 5.403777884989803 0.03407776127198434 -1 0 0
1311 5 58.02956003410624 5.403777884989803 0.03407776127198448 -1 0 0
1146 4 54.282260826919845 1.0771602243248424 2.6734332054409564 -1 0 0
1152 4 58.02610492630684 1.0771602243248424 2.6734332054409555 -1 0 0
1307 4 56.1541828766131 4.3194243222018445 2.6734332054409555 -1 0 0
1150 5 59.901482083799706 2.1615137871128 0.034077761271984315 -1 0 0
1315 1 61.77229701131869 3.2411039113951685 1.354246604906475 -1 0 0
1156 5 63.64532618318671 2.161513787112801 0.0340777612719845 -1 0 0
1317 5 61.77340413349324 5.403777884989803 0.03407776127198432 -1 0 0
1158 4 61.76994902569385 1.0771602243248426 2.6734332054409555 -1 0 0
1313 4 59.8980269760001 4.3194243222018445 2.673433205440956 -1 0 0
1319 4 63.641871075387094 4.319424322201845 2.6734332054409564 -1 0 0
1321 1 65.51614111070569 3.24110391139517 1.3542466049064776 -1 0 0
1162 5 67.3891702825737 2.1615137871128 0.03407776127198395 -1 0 0
1327 1 69.2599852100927 3.241103911395169 1.3542466049064756 -1 0 0
1168 5 71.1330143819607 2.1615137871128014 0.03407776127198565 -1 0 0
1323 5 65.51724823288023 5.403777884989803 0.03407776127198391 -1 0 0
1329 5 69.26109233226722 5.403777884989803 0.03407776127198422 -1 0 0
1164 4 65.51379312508084 1.0771602243248426 2.673433205440957 -1 0 0
1170 4 69.25763722446784 1.0771602243248426 2.673433205440956 -1 0 0
1325 4 67.3857151747741 4.319424322201845 2.673433205440957 -1 0 0
1331 4 71.12955927416111 4.3194243222018445 2.6734332054409546 -1 0 0
1333 1 73.0038293094797 3.241103911395168 1.3542466049064745 -1 0 0
1174 5 74.87685848134771 2.1615137871128005 0.03407776127198429 -1 0 0
1339 1 76.74767340886669 3.2411039113951694 1.354246604906477 -1 0 0
1335 5 73.00493643165423 5.403777884989802 0.034077761271983184 -1 0 0
1341 5 76.74878053104123 5.403777884989804 0.034077761271985405 -1 0 0
1176 4 73.00148132385485 1.0771602243248433 2.673433205440957 -1 0 0
1182 4 76.74532542324184 1.0771602243248417 2.6734332054409546 -1 0 0
1337 4 74.8734033735481 4.319424322201845 2.673433205440956 -1 0 0
1180 5 78.6207025807347 2.1615137871127996 0.03407776127198358 -1 0 0
1345 1 80.4915175082537 3.241103911395169 1.3542466049064759 -1 0 0
1186 5 82.3645466801217 2.1615137871128014 0.034077761271985654 -1 0 0
1347 5 80.49262463042822 5.403777884989803 0.0340777612719842 -1 0 0
1188 4 80.48916952262884 1.0771602243248426 2.673433205440956 -1 0 0
1343 4 78.6172474729351 4.319424322201845 2.673433205440957 -1 0 0
1349 4 82.36109157232211 4.3194243222018445 2.6734332054409546 -1 0 0
1351 1 84.2353616076407 3.241103911395168 1.3542466049064745 -1 0 0
1192 5 86.10839077950871 2.1615137871128 0.03407776127198349 -1 0 0
1357 1 87.97920570702769 3.241103911395168 1.3542466049064745 -1 0 0
1353 5 84.23646872981523 5.403777884989802 0.03407776127198443 -1 0 0
1359 5 87.98031282920223 5.403777884989805 0.03407776127198572 -1 0 0
1194 4 84.23301362201585 1.0771602243248426 2.6734332054409555 -1 0 0
1200 4 87.97685772140285 1.0771602243248413 2.673433205440954 -1 0 0
1355 4 86.1049356717091 4.3194243222018445 2.6734332054409555 -1 0 0
1198 5 89.85223487889571 2.1615137871128005 0.03407776127198478 -1 0 0
1363 1 91.72304980641469 3.2411039113951703 1.3542466049064783 -1 0 0
1204 5 93.5960789782827 2.161513787112801 0.03407776127198503 -1 0 0
1365 5 91.72415692858924 5.403777884989801 0.03407776127198241 -1 0 0
1206 4 91.72070182078984 1.0771602243248437 2.673433205440958 -1 0 0
1361 4 89.8487797710961 4.3194243222018445 2.6734332054409555 -1 0 0
1367 4 93.59262387048311 4.319424322201845 2.6734332054409564 -1 0 0
1216 5 101.0837671770567 2.1615137871128014 0.03407776127198578 -1 0 0
1369 1 95.4668939058017 3.241103911395168 1.3542466049064745 -1 0 0
1210 5 97.33992307766971 2.1615137871128 0.03407776127198346 -1 0 0
1375 1 99.21073800518869 3.241103911395168 1.3542466049064754 -1 0 0
1371 5 95.46800102797623 5.403777884989803 0.03407776127198454 -1 0 0
1377 5 99.21184512736323 5.403777884989804 0.0340777612719853 -1 0 0
1212 4 95.46454592017685 1.0771602243248424 2.6734332054409555 -1 0 0
1218 4 99.20839001956384 1.0771602243248422 2.6734332054409555 -1 0 0
1373 4 97.3364679698701 4.3194243222018445 2.673433205440956 -1 0 0
1379 4 101.0803120692571 4.3194243222018445 2.673433205440956 -1 0 0
1382 1 3.742713470820232 6.483368009272169 1.3542466049064779 0 0 0
1384 5 3.743820592994712 8.646041982866802 0.0340777612719841 0 0 0
1543 1 1.8707914211266994 9.725632107149167 1.3542466049064772 0 0 0
1549 1 5.614635520513697 9.725632107149169 1.3542466049064787 0 0 0
1386 4 1.8684434355018509 7.561688420078842 2.6734332054409555 0 0 0
1392 4 5.61228753488885 7.561688420078842 2.6734332054409564 0 0 0
1547 4 3.740365485195102 10.803952517955846 2.6734332054409573 0 0 0
1388 1 7.486557570207232 6.48336800927217 1.3542466049064779 0 0 0
1394 1 11.230401669594233 6.483368009272169 1.3542466049064779 0 0 0
1390 5 7.487664692381711 8.646041982866803 0.03407776127198488 0 0 0
1396 5 11.231508791768714 8.646041982866802 0.0340777612719841 0 0 0
1555 1 9.358479619900699 9.725632107149167 1.354246604906477 0 0 0
1398 4 9.356131634275853 7.561688420078841 2.6734332054409555 0 0 0
1553 4 7.484209584582104 10.803952517955844 2.6734332054409564 0 0 0
1559 4 11.228053683969103 10.803952517955846 2.6734332054409573 0 0 0
1400 1 14.974245768981232 6.483368009272169 1.3542466049064783 0 0 0
1402 5 14.97535289115571 8.646041982866802 0.03407776127198378 0 0 0
1561 1 13.102323719287698 9.725632107149169 1.3542466049064787 0 0 0
1567 1 16.846167818674697 9.725632107149167 1.3542466049064763 0 0 0
1404 4 13.099975733662852 7.561688420078842 2.673433205440957 0 0 0
1410 4 16.843819833049853 7.561688420078842 2.6734332054409555 0 0 0
1565 4 14.971897783356104 10.803952517955846 2.673433205440957 0 0 0
1406 1 18.71808986836823 6.483368009272169 1.3542466049064774 0 0 0
1412 1 22.461933967755236 6.483368009272169 1.3542466049064779 0 0 0
1408 5 18.719196990542713 8.646041982866803 0.034077761271984704 0 0 0
1414 5 22.463041089929714 8.646041982866803 0.03407776127198541 0 0 0
1573 1 20.5900119180617 9.725632107149169 1.354246604906479 0 0 0
1416 4 20.58766393243685 7.561688420078842 2.6734332054409573 0 0 0
1571 4 18.715741882743103 10.803952517955844 2.6734332054409564 0 0 0
1577 4 22.459585982130104 10.803952517955844 2.673433205440957 0 0 0
1418 1 26.205778067142234 6.48336800927217 1.354246604906478 0 0 0
1420 5 26.20688518931671 8.646041982866802 0.03407776127198251 0 0 0
1579 1 24.3338560174487 9.725632107149169 1.354246604906478 0 0 0
1585 1 28.077700116835697 9.725632107149167 1.3542466049064763 0 0 0
1422 4 24.33150803182385 7.561688420078842 2.673433205440956 0 0 0
1428 4 28.075352131210852 7.561688420078842 2.6734332054409555 0 0 0
1583 4 26.203430081517105 10.803952517955846 2.6734332054409573 0 0 0
1424 1 29.94962216652923 6.483368009272169 1.3542466049064774 0 0 0
1430 1 33.693466265916236 6.48336800927217 1.3542466049064783 0 0 0
1426 5 29.950729288703712 8.646041982866803 0.03407776127198473 0 0 0
1432 5 33.69457338809071 8.646041982866803 0.034077761271985085 0 0 0
1591 1 31.821544216222698 9.725632107149169 1.3542466049064792 0 0 0
1597 1 35.565388315609695 9.725632107149167 1.3542466049064779 0 0 0
1434 4 31.81919623059785 7.561688420078842 2.6734332054409573 0 0 0
1440 4 35.56304032998485 7.561688420078841 2.6734332054409555 0 0 0
1589 4 29.947274180904103 10.803952517955844 2.6734332054409564 0 0 0
1595 4 33.6911182802911 10.803952517955844 2.6734332054409573 0 0 0
1436 1 37.43731036530323 6.483368009272169 1.3542466049064772 0 0 0
1442 1 41.18115446469023 6.483368009272169 1.3542466049064776 0 0 0
1438 5 37.438417487477714 8.646041982866802 0.03407776127198284 0 0 0
1444 5 41.18226158686471 8.646041982866803 0.034077761271984766 0 0 0
1603 1 39.3092324149967 9.725632107149167 1.3542466049064759 0 0 0
1446 4 39.30688442937185 7.561688420078843 2.673433205440956 0 0 0
1601 4 37.434962379678105 10.803952517955846 2.673433205440957 0 0 0
1607 4 41.178806479065095 10.803952517955844 2.6734332054409564 0 0 0
1448 1 44.924998564077235 6.48336800927217 1.3542466049064783 0 0 0
1450 5 44.92610568625171 8.646041982866803 0.034077761271985085 0 0 0
1609 1 43.0530765143837 9.725632107149169 1.3542466049064796 0 0 0
1615 1 46.796920613770695 9.725632107149167 1.3542466049064776 0 0 0
1452 4 43.050728528758846 7.561688420078842 2.673433205440957 0 0 0
1458 4 46.79457262814585 7.561688420078841 2.6734332054409555 0 0 0
1613 4 44.9226505784521 10.803952517955844 2.6734332054409573 0 0 0
1454 1 48.66884266346423 6.483368009272169 1.3542466049064772 0 0 0
1298 1 52.41268676285122 6.483368009272169 1.3542466049064779 -1 0 0
1456 5 48.669949785638714 8.646041982866802 0.03407776127198322 0 0 0
1300 5 52.413793885025704 8.646041982866802 0.03407776127198402 -1 0 0
1459 1 50.54076471315769 9.725632107149167 1.3542466049064772 -1 0 0
1302 4 50.53841672753285 7.561688420078843 2.673433205440957 -1 0 0
1619 4 48.666494677839104 10.803952517955846 2.6734332054409573 0 0 0
1463 4 52.410338777226094 10.803952517955846 2.6734332054409573 -1 0 0
1304 1 56.15653086223823 6.48336800927217 1.354246604906478 -1 0 0
1306 5 56.15763798441271 8.646041982866803 0.03407776127198457 -1 0 0
1465 1 54.28460881254469 9.725632107149169 1.3542466049064785 -1 0 0
1471 1 58.028452911931694 9.725632107149167 1.3542466049064772 -1 0 0
1308 4 54.282260826919845 7.561688420078842 2.6734332054409564 -1 0 0
1314 4 58.02610492630684 7.561688420078842 2.6734332054409555 -1 0 0
1469 4 56.1541828766131 10.803952517955844 2.673433205440957 -1 0 0
1310 1 59.90037496162523 6.483368009272169 1.3542466049064785 -1 0 0
1316 1 63.64421906101223 6.483368009272169 1.3542466049064765 -1 0 0
1312 5 59.901482083799706 8.646041982866802 0.03407776127198425 -1 0 0
1318 5 63.64532618318671 8.646041982866803 0.034077761271984267 -1 0 0
1477 1 61.77229701131869 9.725632107149167 1.3542466049064772 -1 0 0
1320 4 61.76994902569385 7.561688420078842 2.673433205440956 -1 0 0
1475 4 59.8980269760001 10.803952517955846 2.673433205440957 -1 0 0
1481 4 63.641871075387094 10.803952517955846 2.6734332054409573 -1 0 0
1322 1 67.38806316039923 6.48336800927217 1.354246604906479 -1 0 0
1328 1 71.13190725978623 6.483368009272169 1.3542466049064776 -1 0 0
1324 5 67.3891702825737 8.646041982866803 0.03407776127198369 -1 0 0
1330 5 71.1330143819607 8.646041982866803 0.0340777612719854 -1 0 0
1483 1 65.51614111070569 9.725632107149169 1.3542466049064796 -1 0 0
1489 1 69.2599852100927 9.725632107149167 1.3542466049064779 -1 0 0
1326 4 65.51379312508084 7.561688420078842 2.673433205440957 -1 0 0
1332 4 69.25763722446784 7.561688420078842 2.6734332054409564 -1 0 0
1487 4 67.3857151747741 10.803952517955846 2.673433205440958 -1 0 0
1493 4 71.12955927416111 10.803952517955844 2.6734332054409555 -1 0 0
1334 1 74.87575135917322 6.483368009272169 1.3542466049064765 -1 0 0
1336 5 74.87685848134771 8.646041982866803 0.034077761271984 -1 0 0
1495 1 73.0038293094797 9.725632107149167 1.3542466049064765 -1 0 0
1501 1 76.74767340886669 9.725632107149169 1.354246604906479 -1 0 0
1338 4 73.00148132385485 7.561688420078843 2.6734332054409573 -1 0 0
1344 4 76.74532542324184 7.561688420078841 2.673433205440955 -1 0 0
1499 4 74.8734033735481 10.803952517955846 2.673433205440957 -1 0 0
1340 1 78.61959545856023 6.48336800927217 1.354246604906479 -1 0 0
1346 1 82.36343955794723 6.483368009272169 1.3542466049064776 -1 0 0
1342 5 78.6207025807347 8.646041982866802 0.03407776127198341 -1 0 0
1348 5 82.3645466801217 8.646041982866803 0.034077761271985405 -1 0 0
1507 1 80.4915175082537 9.725632107149167 1.3542466049064779 -1 0 0
1350 4 80.48916952262884 7.561688420078842 2.6734332054409564 -1 0 0
1505 4 78.6172474729351 10.803952517955846 2.6734332054409573 -1 0 0
1511 4 82.36109157232211 10.803952517955844 2.673433205440956 -1 0 0
1352 1 86.10728365733424 6.48336800927217 1.3542466049064779 -1 0 0
1354 5 86.10839077950871 8.646041982866803 0.03407776127198332 -1 0 0
1513 1 84.2353616076407 9.725632107149167 1.3542466049064765 -1 0 0
1519 1 87.97920570702769 9.725632107149167 1.3542466049064765 -1 0 0
1356 4 84.23301362201585 7.561688420078842 2.673433205440956 -1 0 0
1362 4 87.97685772140285 7.56168842007884 2.6734332054409546 -1 0 0
1517 4 86.1049356717091 10.803952517955844 2.6734332054409564 -1 0 0
1358 1 89.85112775672123 6.483368009272169 1.3542466049064765 -1 0 0
1364 1 93.59497185610823 6.48336800927217 1.3542466049064792 -1 0 0
1360 5 89.85223487889571 8.646041982866803 0.03407776127198457 -1 0 0
1366 5 93.5960789782827 8.646041982866803 0.03407776127198487 -1 0 0
1525 1 91.72304980641469 9.725632107149169 1.3542466049064803 -1 0 0
1368 4 91.72070182078984 7.561688420078843 2.673433205440958 -1 0 0
1523 4 89.8487797710961 10.803952517955844 2.6734332054409564 -1 0 0
1529 4 93.59262387048311 10.803952517955846 2.6734332054409573 -1 0 0
1376 1 101.08266005488223 6.483368009272169 1.354246604906478 -1 0 0
1378 5 101.0837671770567 8.646041982866803 0.03407776127198564 -1 0 0
1370 1 97.33881595549524 6.483368009272169 1.354246604906477 -1 0 0
1372 5 97.33992307766971 8.646041982866803 0.0340777612719833 -1 0 0
1531 1 95.4668939058017 9.725632107149167 1.3542466049064765 -1 0 0
1537 1 99.21073800518869 9.725632107149167 1.3542466049064774 -1 0 0
1374 4 95.46454592017685 7.561688420078842 2.673433205440956 -1 0 0
1380 4 99.20839001956384 7.561688420078841 2.6734332054409555 -1 0 0
1535 4 97.3364679698701 10.803952517955844 2.6734332054409564 -1 0 0
1541 4 101.0803120692571 10.803952517955846 2.6734332054409573 -1 0 0
1545 5 1.871898543301241 11.888306080743801 0.03407776127198338 0 0 0
1544 1 3.7427134708202314 12.96789620502617 1.3542466049064767 0 0 0
1551 5 5.6157426426882395 11.888306080743801 0.03407776127198382 0 0 0
1546 5 3.743820592994712 15.130570178620802 0.03407776127198295 0 0 0
1705 1 1.8707914211266994 16.21016030290317 1.3542466049064756 0 0 0
1711 1 5.614635520513698 16.21016030290317 1.3542466049064767 0 0 0
1548 4 1.8684434355018509 14.046216615832842 2.6734332054409546 0 0 0
1554 4 5.61228753488885 14.046216615832842 2.6734332054409555 0 0 0
1550 1 7.486557570207232 12.96789620502617 1.354246604906477 0 0 0
1557 5 9.35958674207524 11.888306080743801 0.03407776127198436 0 0 0
1556 1 11.230401669594233 12.96789620502617 1.3542466049064767 0 0 0
1552 5 7.487664692381711 15.130570178620802 0.034077761271983864 0 0 0
1558 5 11.231508791768714 15.1305701786208 0.034077761271983094 0 0 0
1717 1 9.358479619900699 16.21016030290317 1.354246604906475 0 0 0
1560 4 9.356131634275853 14.046216615832842 2.673433205440954 0 0 0
1563 5 13.103430841462242 11.888306080743801 0.03407776127198371 0 0 0
1562 1 14.974245768981232 12.96789620502617 1.3542466049064772 0 0 0
1569 5 16.84727494084924 11.888306080743801 0.034077761271984454 0 0 0
1564 5 14.975352891155712 15.1305701786208 0.03407776127198277 0 0 0
1723 1 13.102323719287698 16.21016030290317 1.3542466049064765 0 0 0
1729 1 16.846167818674697 16.21016030290317 1.3542466049064743 0 0 0
1566 4 13.099975733662852 14.046216615832842 2.6734332054409555 0 0 0
1572 4 16.843819833049853 14.046216615832842 2.6734332054409538 0 0 0
1568 1 18.71808986836823 12.96789620502617 1.3542466049064765 0 0 0
1575 5 20.59111904023624 11.888306080743801 0.03407776127198341 0 0 0
1574 1 22.461933967755236 12.96789620502617 1.3542466049064767 0 0 0
1570 5 18.719196990542713 15.130570178620802 0.03407776127198374 0 0 0
1576 5 22.463041089929714 15.130570178620802 0.03407776127198447 0 0 0
1735 1 20.5900119180617 16.21016030290317 1.3542466049064772 0 0 0
1578 4 20.58766393243685 14.046216615832842 2.673433205440956 0 0 0
1581 5 24.33496313962324 11.888306080743801 0.03407776127198413 0 0 0
1580 1 26.205778067142234 12.96789620502617 1.3542466049064772 0 0 0
1587 5 28.07880723901024 11.888306080743801 0.03407776127198429 0 0 0
1582 5 26.20688518931671 15.1305701786208 0.03407776127198176 0 0 0
1741 1 24.3338560174487 16.21016030290317 1.3542466049064763 0 0 0
1747 1 28.077700116835697 16.21016030290317 1.3542466049064745 0 0 0
1584 4 24.33150803182385 14.046216615832842 2.6734332054409546 0 0 0
1590 4 28.075352131210852 14.046216615832842 2.673433205440954 0 0 0
1586 1 29.94962216652923 12.96789620502617 1.3542466049064765 0 0 0
1593 5 31.82265133839724 11.888306080743801 0.034077761271983455 0 0 0
1592 1 33.693466265916236 12.96789620502617 1.3542466049064774 0 0 0
1599 5 35.56649543778424 11.888306080743801 0.03407776127198439 0 0 0
1588 5 29.950729288703712 15.130570178620802 0.03407776127198376 0 0 0
1594 5 33.69457338809071 15.130570178620802 0.034077761271984086 0 0 0
1753 1 31.821544216222698 16.21016030290317 1.3542466049064774 0 0 0
1759 1 35.565388315609695 16.21016030290317 1.3542466049064759 0 0 0
1596 4 31.81919623059785 14.046216615832842 2.673433205440956 0 0 0
1602 4 35.56304032998485 14.046216615832842 2.673433205440954 0 0 0
1598 1 37.43731036530323 12.967896205026168 1.354246604906476 0 0 0
1605 5 39.31033953717124 11.888306080743801 0.03407776127198369 0 0 0
1604 1 41.18115446469023 12.96789620502617 1.3542466049064767 0 0 0
1600 5 37.438417487477714 15.1305701786208 0.03407776127198208 0 0 0
1606 5 41.18226158686471 15.130570178620802 0.03407776127198381 0 0 0
1765 1 39.3092324149967 16.21016030290317 1.3542466049064743 0 0 0
1608 4 39.30688442937185 14.046216615832842 2.6734332054409546 0 0 0
1611 5 43.05418363655824 11.888306080743801 0.03407776127198382 0 0 0
1610 1 44.924998564077235 12.96789620502617 1.3542466049064774 0 0 0
1617 5 46.79802773594524 11.888306080743801 0.03407776127198445 0 0 0
1612 5 44.92610568625171 15.130570178620802 0.034077761271984086 0 0 0
1771 1 43.0530765143837 16.21016030290317 1.3542466049064776 0 0 0
1777 1 46.796920613770695 16.21016030290317 1.3542466049064759 0 0 0
1614 4 43.050728528758846 14.046216615832842 2.6734332054409555 0 0 0
1620 4 46.79457262814585 14.046216615832842 2.673433205440954 0 0 0
1616 1 48.66884266346423 12.967896205026168 1.354246604906476 0 0 0
1461 5 50.54187183533224 11.8883060807438 0.03407776127198283 -1 0 0
1460 1 52.41268676285122 12.96789620502617 1.3542466049064767 -1 0 0
1618 5 48.669949785638714 15.1305701786208 0.03407776127198247 0 0 0
1462 5 52.413793885025704 15.130570178620802 0.03407776127198293 -1 0 0
1621 1 50.54076471315769 16.21016030290317 1.3542466049064756 -1 0 0
1464 4 50.53841672753285 14.046216615832844 2.6734332054409555 -1 0 0
1467 5 54.285715934719235 11.888306080743801 0.03407776127198402 -1 0 0
1466 1 56.15653086223823 12.96789620502617 1.354246604906477 -1 0 0
1473 5 58.02956003410624 11.888306080743801 0.03407776127198422 -1 0 0
1468 5 56.15763798441271 15.130570178620802 0.03407776127198363 -1 0 0
1627 1 54.28460881254469 16.21016030290317 1.3542466049064767 -1 0 0
1633 1 58.028452911931694 16.21016030290317 1.3542466049064752 -1 0 0
1470 4 54.282260826919845 14.046216615832842 2.673433205440955 -1 0 0
1476 4 58.02610492630684 14.046216615832842 2.673433205440954 -1 0 0
1472 1 59.90037496162523 12.96789620502617 1.3542466049064774 -1 0 0
1479 5 61.77340413349324 11.888306080743801 0.03407776127198403 -1 0 0
1478 1 63.64421906101223 12.967896205026168 1.3542466049064754 -1 0 0
1474 5 59.901482083799706 15.130570178620802 0.03407776127198327 -1 0 0
1480 5 63.64532618318671 15.130570178620802 0.03407776127198325 -1 0 0
1639 1 61.77229701131869 16.21016030290317 1.3542466049064752 -1 0 0
1482 4 61.76994902569385 14.046216615832842 2.6734332054409546 -1 0 0
1485 5 65.51724823288023 11.888306080743801 0.034077761271983587 -1 0 0
1484 1 67.38806316039923 12.96789620502617 1.354246604906478 -1 0 0
1491 5 69.26109233226722 11.888306080743801 0.03407776127198384 -1 0 0
1490 1 71.13190725978623 12.96789620502617 1.3542466049064767 -1 0 0
1486 5 67.3891702825737 15.130570178620802 0.03407776127198286 -1 0 0
1492 5 71.1330143819607 15.130570178620802 0.03407776127198443 -1 0 0
1645 1 65.51614111070569 16.21016030290317 1.354246604906478 -1 0 0
1651 1 69.2599852100927 16.21016030290317 1.354246604906476 -1 0 0
1488 4 65.51379312508084 14.046216615832842 2.6734332054409555 -1 0 0
1494 4 69.25763722446784 14.046216615832842 2.673433205440955 -1 0 0
1497 5 73.00493643165423 11.888306080743801 0.03407776127198288 -1 0 0
1496 1 74.87575135917322 12.967896205026168 1.3542466049064754 -1 0 0
1503 5 76.74878053104123 11.888306080743801 0.03407776127198519 -1 0 0
1498 5 74.87685848134771 15.130570178620802 0.03407776127198316 -1 0 0
1657 1 73.0038293094797 16.21016030290317 1.3542466049064747 -1 0 0
1663 1 76.74767340886669 16.21016030290317 1.3542466049064772 -1 0 0
1500 4 73.00148132385485 14.046216615832842 2.673433205440956 -1 0 0
1506 4 76.74532542324184 14.04621661583284 2.6734332054409538 -1 0 0
1502 1 78.61959545856023 12.96789620502617 1.354246604906478 -1 0 0
1509 5 80.49262463042822 11.888306080743801 0.03407776127198382 -1 0 0
1508 1 82.36343955794723 12.96789620502617 1.3542466049064767 -1 0 0
1504 5 78.6207025807347 15.130570178620802 0.034077761271982546 -1 0 0
1510 5 82.3645466801217 15.130570178620802 0.03407776127198443 -1 0 0
1669 1 80.4915175082537 16.21016030290317 1.354246604906476 -1 0 0
1512 4 80.48916952262884 14.046216615832842 2.673433205440955 -1 0 0
1515 5 84.23646872981523 11.888306080743801 0.03407776127198418 -1 0 0
1514 1 86.10728365733424 12.96789620502617 1.354246604906477 -1 0 0
1521 5 87.98031282920223 11.888306080743803 0.034077761271985474 -1 0 0
1516 5 86.10839077950871 15.130570178620802 0.03407776127198257 -1 0 0
1675 1 84.2353616076407 16.210160302903166 1.3542466049064747 -1 0 0
1681 1 87.97920570702769 16.21016030290317 1.3542466049064747 -1 0 0
1518 4 84.23301362201585 14.046216615832842 2.6734332054409546 -1 0 0
1524 4 87.97685772140285 14.04621661583284 2.673433205440953 -1 0 0
1520 1 89.85112775672123 12.967896205026168 1.3542466049064754 -1 0 0
1527 5 91.72415692858924 11.8883060807438 0.034077761271982074 -1 0 0
1526 1 93.59497185610823 12.96789620502617 1.354246604906478 -1 0 0
1522 5 89.85223487889571 15.130570178620802 0.034077761271983815 -1 0 0
1528 5 93.5960789782827 15.130570178620802 0.03407776127198396 -1 0 0
1687 1 91.72304980641469 16.21016030290317 1.3542466049064787 -1 0 0
1530 4 91.72070182078984 14.046216615832844 2.6734332054409573 -1 0 0
1538 1 101.08266005488223 12.967896205026168 1.3542466049064772 -1 0 0
1540 5 101.0837671770567 15.130570178620802 0.03407776127198489 -1 0 0
1533 5 95.46800102797623 11.888306080743801 0.034077761271984294 -1 0 0
1532 1 97.33881595549524 12.967896205026168 1.3542466049064759 -1 0 0
1539 5 99.21184512736323 11.888306080743803 0.034077761271985134 -1 0 0
1534 5 97.33992307766971 15.130570178620802 0.03407776127198261 -1 0 0
1693 1 95.4668939058017 16.210160302903166 1.3542466049064747 -1 0 0
1699 1 99.21073800518869 16.21016030290317 1.3542466049064754 -1 0 0
1536 4 95.46454592017685 14.046216615832842 2.673433205440954 -1 0 0
1542 4 99.20839001956384 14.046216615832842 2.673433205440954 -1 0 0
1707 5 1.8718985433012412 18.3728342764978 0.034077761271982976 0 0 0
1713 5 5.6157426426882395 18.3728342764978 0.034077761271983795 0 0 0
1706 1 3.7427134708202314 19.45242440078017 1.3542466049064772 0 0 0
1867 1 1.8707914211266994 22.694688498657168 1.3542466049064785 0 0 0
1708 5 3.7438205929947115 21.615098374374803 0.03407776127198587 0 0 0
1873 1 5.614635520513698 22.694688498657168 1.35424660490648 0 0 0
1709 4 3.7403654851951025 17.28848071370984 2.6734332054409573 0 0 0
1710 4 1.8684434355018509 20.530744811586843 2.6734332054409546 0 0 0
1716 4 5.61228753488885 20.530744811586843 2.6734332054409555 0 0 0
1719 5 9.35958674207524 18.372834276497805 0.03407776127198415 0 0 0
1712 1 7.486557570207232 19.45242440078017 1.3542466049064772 0 0 0
1718 1 11.230401669594233 19.45242440078017 1.354246604906477 0 0 0
1714 5 7.487664692381711 21.615098374374803 0.034077761271986834 0 0 0
1879 1 9.358479619900699 22.694688498657168 1.354246604906478 0 0 0
1720 5 11.231508791768713 21.615098374374803 0.034077761271986064 0 0 0
1715 4 7.4842095845821035 17.28848071370984 2.673433205440956 0 0 0
1721 4 11.228053683969103 17.28848071370984 2.6734332054409573 0 0 0
1722 4 9.356131634275853 20.530744811586843 2.6734332054409546 0 0 0
1725 5 13.103430841462242 18.3728342764978 0.034077761271983614 0 0 0
1731 5 16.84727494084924 18.372834276497805 0.034077761271983864 0 0 0
1724 1 14.974245768981232 19.45242440078017 1.3542466049064776 0 0 0
1885 1 13.102323719287698 22.694688498657168 1.3542466049064799 0 0 0
1726 5 14.975352891155712 21.615098374374803 0.03407776127198581 0 0 0
1891 1 16.846167818674697 22.694688498657168 1.3542466049064779 0 0 0