LAMMPS data file via write_data, version 29 Aug 2024, timestep = 2, units = metal

5376 atoms
6 atom types

0 101.45357727512 xlo xhi
0 100.413000257216 ylo yhi
-50 50 zlo zhi

Masses

1 58.933194
2 58.933194
3 127.6
4 127.6
5 127.6
6 127.6

Atoms # atomic

1431 1 1.3961277168990002e-19 0 1.4528482038032595 0 0 0
1437 1 3.6233420455399994 0 1.4528482038032595 0 0 0
1433 4 0 2.091937505358758 0.049646865895719906 0 0 0
1432 1 1.8116710227699997 3.137906258038001 1.45284820380326 0 0 0
1439 4 3.6233420455399994 2.091937505358758 0.049646865895719906 0 0 0
1438 1 5.435013068309999 3.137906258038001 1.45284820380326 0 0 0
1434 4 1.8116710227699997 5.229843763396759 0.04964686589571989 0 0 0
1440 4 5.435013068309999 5.229843763396759 0.04964686589571989 0 0 0
1429 3 1.8116710227699997 1.0459687526792463 2.854378003453892 0 0 0
1435 3 5.435013068309999 1.0459687526792463 2.854378003453892 0 0 0
1430 3 0 4.183875010717247 2.854378003453892 0 0 0
1436 3 3.6233420455399994 4.183875010717247 2.854378003453892 0 0 0
1443 1 7.246684091079999 0 1.4528482038032595 0 0 0
1449 1 10.870026136620002 0 1.4528482038032595 0 0 0
1445 4 7.246684091079999 2.091937505358758 0.04964686589571988 0 0 0
1444 1 9.058355113849998 3.137906258038001 1.45284820380326 0 0 0
1451 4 10.87002613662 2.0919375053587586 0.049646865895720725 0 0 0
1446 4 9.058355113849998 5.229843763396759 0.04964686589571994 0 0 0
1441 3 9.058355113849998 1.0459687526792463 2.8543780034538915 0 0 0
1442 3 7.246684091079999 4.183875010717247 2.854378003453892 0 0 0
1448 3 10.87002613662 4.183875010717247 2.8543780034538906 0 0 0
1455 1 14.493368182160005 0 1.4528482038032595 0 0 0
1450 1 12.681697159390001 3.137906258038001 1.45284820380326 0 0 0
1457 4 14.493368182160005 2.091937505358758 0.049646865895719906 0 0 0
1456 1 16.305039204930004 3.137906258038001 1.45284820380326 0 0 0
1452 4 12.681697159390003 5.22984376339676 0.049646865895720815 0 0 0
1458 4 16.305039204930004 5.229843763396759 0.049646865895719865 0 0 0
1447 3 12.681697159390003 1.0459687526792454 2.8543780034538906 0 0 0
1453 3 16.305039204930004 1.0459687526792463 2.854378003453892 0 0 0
1454 3 14.493368182160005 4.183875010717247 2.8543780034538915 0 0 0
1461 1 18.116710227700004 0 1.4528482038032595 0 0 0
1467 1 21.740052273240003 0 1.4528482038032595 0 0 0
1463 4 18.116710227700004 2.091937505358758 0.049646865895719906 0 0 0
1462 1 19.928381250470004 3.137906258038001 1.45284820380326 0 0 0
1469 4 21.740052273240003 2.091937505358758 0.0496468658957199 0 0 0
1468 1 23.551723296010003 3.137906258038001 1.45284820380326 0 0 0
1464 4 19.928381250470004 5.229843763396759 0.04964686589571989 0 0 0
1470 4 23.551723296010003 5.229843763396759 0.04964686589571989 0 0 0
1459 3 19.928381250470004 1.0459687526792463 2.854378003453892 0 0 0
1465 3 23.551723296010003 1.0459687526792463 2.854378003453892 0 0 0
1460 3 18.116710227700004 4.183875010717247 2.854378003453892 0 0 0
1466 3 21.740052273240003 4.183875010717247 2.854378003453892 0 0 0
1473 1 25.363394318780003 0 1.4528482038032595 0 0 0
1479 1 28.986736364320002 0 1.4528482038032595 0 0 0
1475 4 25.363394318780003 2.091937505358758 0.0496468658957199 0 0 0
1474 1 27.175065341550003 3.137906258038001 1.45284820380326 0 0 0
1481 4 28.986736364320002 2.091937505358758 0.049646865895719906 0 0 0
1476 4 27.175065341550003 5.229843763396759 0.04964686589571989 0 0 0
1471 3 27.175065341550003 1.0459687526792463 2.854378003453892 0 0 0
1472 3 25.363394318780003 4.183875010717247 2.854378003453892 0 0 0
1478 3 28.986736364320002 4.183875010717247 2.854378003453892 0 0 0
1485 1 32.61007840986 0 1.4528482038032595 0 0 0
1480 1 30.798407387090002 3.137906258038001 1.45284820380326 0 0 0
1487 4 32.61007840986 2.091937505358758 0.049646865895719906 0 0 0
1486 1 34.42174943263 3.137906258038001 1.45284820380326 0 0 0
1482 4 30.798407387090002 5.229843763396759 0.0496468658957199 0 0 0
1488 4 34.42174943263 5.229843763396759 0.04964686589571989 0 0 0
1477 3 30.798407387090002 1.0459687526792463 2.854378003453892 0 0 0
1483 3 34.42174943263 1.0459687526792463 2.854378003453892 0 0 0
1484 3 32.61007840986 4.183875010717247 2.854378003453892 0 0 0
1491 1 36.2334204554 0 1.4528482038032595 0 0 0
1497 1 39.85676250094 0 1.4528482038032595 0 0 0
1493 4 36.2334204554 2.091937505358758 0.04964686589571984 0 0 0
1492 1 38.04509147817 3.137906258038001 1.45284820380326 0 0 0
1499 4 39.85676250094 2.091937505358758 0.0496468658957199 0 0 0
1498 1 41.66843352371 3.137906258038001 1.45284820380326 0 0 0
1494 4 38.04509147817 5.229843763396759 0.04964686589571989 0 0 0
1500 4 41.66843352371 5.229843763396759 0.04964686589571989 0 0 0
1489 3 38.04509147817 1.0459687526792463 2.854378003453892 0 0 0
1495 3 41.66843352371 1.0459687526792463 2.854378003453892 0 0 0
1490 3 36.2334204554 4.183875010717247 2.854378003453892 0 0 0
1496 3 39.85676250094 4.183875010717247 2.854378003453892 0 0 0
1503 1 43.48010454648 0 1.4528482038032595 0 0 0
1509 1 47.10344659202 0 1.4528482038032595 0 0 0
1505 4 43.48010454648 2.091937505358758 0.049646865895719906 0 0 0
1504 1 45.29177556925 3.137906258038001 1.45284820380326 0 0 0
1511 4 47.10344659202 2.091937505358758 0.049646865895719906 0 0 0
1506 4 45.29177556925 5.229843763396759 0.04964686589571989 0 0 0
1501 3 45.29177556925 1.0459687526792463 2.854378003453892 0 0 0
1502 3 43.48010454648 4.183875010717247 2.854378003453892 0 0 0
1508 3 47.10344659202 4.183875010717247 2.854378003453892 0 0 0
1347 1 50.72678863756 0 1.4528482038032595 -1 0 0
1510 1 48.91511761479 3.137906258038001 1.45284820380326 0 0 0
1349 4 50.72678863756 2.091937505358758 0.049646865895719906 -1 0 0
1348 1 52.53845966033 3.137906258038001 1.45284820380326 -1 0 0
1512 4 48.91511761479 5.229843763396759 0.04964686589571989 0 0 0
1350 4 52.53845966033 5.229843763396759 0.04964686589571989 -1 0 0
1507 3 48.91511761479 1.0459687526792463 2.854378003453892 0 0 0
1345 3 52.53845966033 1.0459687526792463 2.854378003453892 -1 0 0
1346 3 50.72678863756 4.183875010717247 2.854378003453892 -1 0 0
1353 1 54.3501306831 0 1.4528482038032595 -1 0 0
1359 1 57.97347272864 0 1.4528482038032595 -1 0 0
1355 4 54.3501306831 2.091937505358758 0.049646865895719906 -1 0 0
1354 1 56.16180170587 3.137906258038001 1.45284820380326 -1 0 0
1361 4 57.97347272864 2.091937505358758 0.0496468658957199 -1 0 0
1356 4 56.16180170587 5.229843763396759 0.04964686589571989 -1 0 0
1351 3 56.16180170587 1.0459687526792463 2.854378003453892 -1 0 0
1352 3 54.3501306831 4.183875010717247 2.854378003453892 -1 0 0
1358 3 57.97347272864 4.183875010717247 2.854378003453892 -1 0 0
1365 1 61.59681477418 0 1.4528482038032597 -1 0 0
1371 1 65.22015681972 0 1.4528482038032595 -1 0 0
1360 1 59.78514375141 3.137906258038001 1.45284820380326 -1 0 0
1367 4 61.59681477418 2.091937505358758 0.049646865895720024 -1 0 0
1366 1 63.408485796949996 3.137906258038001 1.45284820380326 -1 0 0
1373 4 65.22015681971999 2.091937505358758 0.04964686589571998 -1 0 0
1362 4 59.78514375141 5.229843763396759 0.049646865895719906 -1 0 0
1368 4 63.408485796949996 5.229843763396758 0.049646865895719546 -1 0 0
1357 3 59.78514375141 1.0459687526792463 2.854378003453892 -1 0 0
1363 3 63.408485796949996 1.0459687526792467 2.854378003453892 -1 0 0
1364 3 61.59681477418 4.183875010717247 2.8543780034538915 -1 0 0
1370 3 65.22015681971999 4.183875010717247 2.8543780034538915 -1 0 0
1377 1 68.84349886526 0 1.4528482038032595 -1 0 0
1372 1 67.03182784248999 3.137906258038001 1.45284820380326 -1 0 0
1379 4 68.84349886526 2.091937505358758 0.04964686589572044 -1 0 0
1378 1 70.65516988803 3.137906258038001 1.45284820380326 -1 0 0
1374 4 67.03182784249 5.22984376339676 0.04964686589572117 -1 0 0
1380 4 70.65516988803 5.229843763396759 0.04964686589571987 -1 0 0
1369 3 67.03182784249 1.045968752679245 2.8543780034538906 -1 0 0
1375 3 70.65516988803 1.0459687526792463 2.854378003453892 -1 0 0
1376 3 68.84349886526 4.183875010717247 2.854378003453891 -1 0 0
1383 1 72.4668409108 0 1.4528482038032595 -1 0 0
1389 1 76.09018295634 0 1.4528482038032595 -1 0 0
1385 4 72.4668409108 2.091937505358758 0.049646865895719906 -1 0 0
1384 1 74.27851193357 3.137906258038001 1.45284820380326 -1 0 0
1391 4 76.09018295634 2.091937505358758 0.049646865895719906 -1 0 0
1386 4 74.27851193357 5.229843763396759 0.04964686589571989 -1 0 0
1381 3 74.27851193357 1.0459687526792463 2.854378003453892 -1 0 0
1382 3 72.4668409108 4.183875010717247 2.854378003453892 -1 0 0
1388 3 76.09018295634 4.183875010717247 2.854378003453892 -1 0 0
1395 1 79.71352500188 0 1.4528482038032595 -1 0 0
1401 1 83.33686704742 0 1.4528482038032595 -1 0 0
1390 1 77.90185397911 3.137906258038001 1.45284820380326 -1 0 0
1397 4 79.71352500188 2.091937505358758 0.049646865895719906 -1 0 0
1396 1 81.52519602465 3.137906258038001 1.45284820380326 -1 0 0
1403 4 83.33686704742 2.091937505358758 0.049646865895719906 -1 0 0
1392 4 77.90185397911 5.229843763396759 0.04964686589571989 -1 0 0
1398 4 81.52519602465 5.229843763396759 0.04964686589571989 -1 0 0
1387 3 77.90185397911 1.0459687526792463 2.854378003453892 -1 0 0
1393 3 81.52519602465 1.0459687526792463 2.854378003453892 -1 0 0
1394 3 79.71352500188 4.183875010717247 2.854378003453892 -1 0 0
1400 3 83.33686704742 4.183875010717247 2.854378003453892 -1 0 0
1407 1 86.96020909296 0 1.4528482038032595 -1 0 0
1402 1 85.14853807019 3.137906258038001 1.45284820380326 -1 0 0
1409 4 86.96020909296 2.091937505358758 0.049646865895719906 -1 0 0
1408 1 88.77188011573 3.137906258038001 1.45284820380326 -1 0 0
1404 4 85.14853807019 5.229843763396759 0.04964686589571989 -1 0 0
1410 4 88.77188011573 5.229843763396759 0.04964686589571989 -1 0 0
1399 3 85.14853807019 1.0459687526792463 2.854378003453892 -1 0 0
1405 3 88.77188011573 1.0459687526792463 2.8543780034538915 -1 0 0
1406 3 86.96020909296 4.183875010717247 2.854378003453892 -1 0 0
1413 1 90.5835511385 0 1.4528482038032595 -1 0 0
1419 1 94.20689318404 0 1.4528482038032595 -1 0 0
1415 4 90.5835511385 2.091937505358758 0.0496468658957199 -1 0 0
1414 1 92.39522216127 3.137906258038001 1.45284820380326 -1 0 0
1421 4 94.20689318404 2.091937505358758 0.0496468658957199 -1 0 0
1416 4 92.39522216127 5.229843763396759 0.04964686589571989 -1 0 0
1411 3 92.39522216127 1.0459687526792463 2.854378003453892 -1 0 0
1412 3 90.5835511385 4.183875010717247 2.854378003453892 -1 0 0
1418 3 94.20689318404 4.183875010717247 2.854378003453892 -1 0 0
1425 1 97.83023522958 0 1.4528482038032595 -1 0 0
1420 1 96.01856420681 3.137906258038001 1.45284820380326 -1 0 0
1427 4 97.83023522958 2.091937505358758 0.049646865895719906 -1 0 0
1426 1 99.64190625235 3.137906258038001 1.45284820380326 -1 0 0
1422 4 96.01856420681 5.229843763396759 0.04964686589571989 -1 0 0
1428 4 99.64190625235 5.229843763396759 0.0496468658957199 -1 0 0
1417 3 96.01856420681 1.0459687526792463 2.854378003453892 -1 0 0
1423 3 99.64190625235 1.0459687526792463 2.854378003453892 -1 0 0
1424 3 97.83023522958 4.183875010717247 2.854378003453892 -1 0 0
1599 1 0 6.275812516076002 1.45284820380326 0 0 0
1605 1 3.6233420455399994 6.275812516076002 1.45284820380326 0 0 0
1601 4 0 8.36775002143476 0.04964686589571948 0 0 0
1600 1 1.8116710227699997 9.413718774114 1.4528482038032593 0 0 0
1607 4 3.6233420455399994 8.36775002143476 0.04964686589571948 0 0 0
1606 1 5.435013068309999 9.413718774114 1.4528482038032593 0 0 0
1602 4 1.8116710227699997 11.50565627947276 0.049646865895719636 0 0 0
1608 4 5.435013068309999 11.50565627947276 0.049646865895719636 0 0 0
1597 3 1.8116710227699997 7.321781268755247 2.8543780034538915 0 0 0
1603 3 5.435013068309999 7.321781268755247 2.8543780034538915 0 0 0
1598 3 1.8496386266768606e-18 10.459687526793246 2.8543780034538915 0 0 0
1604 3 3.6233420455399994 10.459687526793246 2.8543780034538915 0 0 0
1611 1 7.246684091079999 6.275812516076002 1.45284820380326 0 0 0
1617 1 10.870026136620002 6.275812516076002 1.45284820380326 0 0 0
1613 4 7.246684091079999 8.36775002143476 0.04964686589571946 0 0 0
1612 1 9.058355113849998 9.413718774114 1.452848203803259 0 0 0
1619 4 10.87002613662 8.36775002143476 0.04964686589572034 0 0 0
1614 4 9.058355113849998 11.505656279472761 0.04964686589571964 0 0 0
1609 3 9.058355113849998 7.321781268755247 2.8543780034538915 0 0 0
1610 3 7.246684091079999 10.459687526793246 2.8543780034538915 0 0 0
1616 3 10.87002613662 10.459687526793244 2.8543780034538906 0 0 0
1623 1 14.493368182160005 6.275812516076002 1.45284820380326 0 0 0
1618 1 12.681697159390001 9.413718774114 1.4528482038032593 0 0 0
1625 4 14.493368182160005 8.36775002143476 0.04964686589571953 0 0 0
1624 1 16.305039204930004 9.413718774114 1.4528482038032593 0 0 0
1620 4 12.681697159390003 11.505656279472761 0.04964686589572048 0 0 0
1626 4 16.305039204930004 11.50565627947276 0.049646865895719615 0 0 0
1615 3 12.681697159390003 7.321781268755247 2.8543780034538906 0 0 0
1621 3 16.305039204930004 7.321781268755248 2.8543780034538915 0 0 0
1622 3 14.493368182160005 10.459687526793246 2.8543780034538915 0 0 0
1629 1 18.116710227700004 6.275812516076002 1.45284820380326 0 0 0
1635 1 21.740052273240003 6.275812516076002 1.45284820380326 0 0 0
1631 4 18.116710227700004 8.36775002143476 0.04964686589571949 0 0 0
1630 1 19.928381250470004 9.413718774114 1.4528482038032593 0 0 0
1637 4 21.740052273240003 8.36775002143476 0.04964686589571948 0 0 0
1636 1 23.551723296010003 9.413718774114 1.4528482038032593 0 0 0
1632 4 19.928381250470004 11.50565627947276 0.049646865895719636 0 0 0
1638 4 23.551723296010003 11.50565627947276 0.049646865895719636 0 0 0
1627 3 19.928381250470004 7.321781268755247 2.8543780034538915 0 0 0
1633 3 23.551723296010003 7.321781268755247 2.8543780034538915 0 0 0
1628 3 18.116710227700004 10.459687526793246 2.8543780034538915 0 0 0
1634 3 21.740052273240003 10.459687526793246 2.8543780034538915 0 0 0
1641 1 25.363394318780003 6.275812516076002 1.45284820380326 0 0 0
1647 1 28.986736364320002 6.275812516076002 1.45284820380326 0 0 0
1643 4 25.363394318780003 8.36775002143476 0.04964686589571948 0 0 0
1642 1 27.175065341550003 9.413718774114 1.4528482038032593 0 0 0
1649 4 28.986736364320002 8.36775002143476 0.04964686589571949 0 0 0
1644 4 27.175065341550003 11.50565627947276 0.049646865895719636 0 0 0
1639 3 27.175065341550003 7.321781268755247 2.8543780034538915 0 0 0
1640 3 25.363394318780003 10.459687526793246 2.8543780034538915 0 0 0
1646 3 28.986736364320002 10.459687526793246 2.8543780034538915 0 0 0
1653 1 32.61007840986 6.275812516076002 1.45284820380326 0 0 0
1648 1 30.798407387090002 9.413718774114 1.4528482038032593 0 0 0
1655 4 32.61007840986 8.36775002143476 0.04964686589571949 0 0 0
1654 1 34.42174943263 9.413718774114 1.4528482038032593 0 0 0
1650 4 30.798407387090002 11.50565627947276 0.049646865895719636 0 0 0
1656 4 34.42174943263 11.50565627947276 0.049646865895719636 0 0 0
1645 3 30.798407387090002 7.321781268755247 2.8543780034538915 0 0 0
1651 3 34.42174943263 7.321781268755247 2.8543780034538915 0 0 0
1652 3 32.61007840986 10.459687526793246 2.8543780034538915 0 0 0
1659 1 36.2334204554 6.275812516076002 1.45284820380326 0 0 0
1665 1 39.85676250094 6.275812516076002 1.45284820380326 0 0 0
1661 4 36.2334204554 8.36775002143476 0.04964686589571948 0 0 0
1660 1 38.04509147817 9.413718774114 1.4528482038032593 0 0 0
1667 4 39.85676250094 8.36775002143476 0.04964686589571948 0 0 0
1666 1 41.66843352371 9.413718774114 1.4528482038032593 0 0 0
1662 4 38.04509147817 11.50565627947276 0.049646865895719636 0 0 0
1668 4 41.66843352371 11.50565627947276 0.049646865895719636 0 0 0
1657 3 38.04509147817 7.321781268755247 2.8543780034538915 0 0 0
1663 3 41.66843352371 7.321781268755247 2.8543780034538915 0 0 0
1658 3 36.2334204554 10.459687526793246 2.8543780034538915 0 0 0
1664 3 39.85676250094 10.459687526793246 2.8543780034538915 0 0 0
1671 1 43.48010454648 6.275812516076002 1.45284820380326 0 0 0
1677 1 47.10344659202 6.275812516076002 1.45284820380326 0 0 0
1673 4 43.48010454648 8.36775002143476 0.04964686589571949 0 0 0
1672 1 45.29177556925 9.413718774114 1.4528482038032593 0 0 0
1679 4 47.10344659202 8.36775002143476 0.04964686589571949 0 0 0
1674 4 45.29177556925 11.50565627947276 0.049646865895719636 0 0 0
1669 3 45.29177556925 7.321781268755247 2.8543780034538915 0 0 0
1670 3 43.48010454648 10.459687526793246 2.8543780034538915 0 0 0
1676 3 47.10344659202 10.459687526793246 2.8543780034538915 0 0 0
1515 1 50.72678863756 6.275812516076002 1.45284820380326 -1 0 0
1678 1 48.91511761479 9.413718774114 1.4528482038032593 0 0 0
1517 4 50.72678863756 8.36775002143476 0.04964686589571949 -1 0 0
1516 1 52.53845966033 9.413718774114 1.4528482038032593 -1 0 0
1680 4 48.91511761479 11.50565627947276 0.049646865895719636 0 0 0
1518 4 52.53845966033 11.50565627947276 0.049646865895719636 -1 0 0
1675 3 48.91511761479 7.321781268755247 2.8543780034538915 0 0 0
1513 3 52.53845966033 7.321781268755247 2.8543780034538915 -1 0 0
1514 3 50.72678863756 10.459687526793246 2.8543780034538915 -1 0 0
1521 1 54.3501306831 6.275812516076002 1.45284820380326 -1 0 0
1527 1 57.97347272864 6.275812516076002 1.45284820380326 -1 0 0
1523 4 54.3501306831 8.36775002143476 0.04964686589571949 -1 0 0
1522 1 56.16180170587 9.413718774114 1.4528482038032593 -1 0 0
1529 4 57.97347272864 8.36775002143476 0.04964686589571948 -1 0 0
1524 4 56.16180170587 11.50565627947276 0.049646865895719636 -1 0 0
1519 3 56.16180170587 7.321781268755247 2.8543780034538915 -1 0 0
1520 3 54.3501306831 10.459687526793246 2.8543780034538915 -1 0 0
1526 3 57.97347272864 10.459687526793246 2.8543780034538915 -1 0 0
1533 1 61.59681477418 6.275812516076002 1.45284820380326 -1 0 0
1539 1 65.22015681972 6.275812516076002 1.45284820380326 -1 0 0
1528 1 59.78514375141 9.413718774114 1.4528482038032593 -1 0 0
1535 4 61.59681477418 8.36775002143476 0.04964686589571965 -1 0 0
1534 1 63.408485796949996 9.413718774114 1.4528482038032593 -1 0 0
1541 4 65.22015681971999 8.367750021434759 0.049646865895719566 -1 0 0
1530 4 59.78514375141 11.50565627947276 0.04964686589571965 -1 0 0
1536 4 63.408485796949996 11.50565627947276 0.049646865895719205 -1 0 0
1525 3 59.78514375141 7.321781268755247 2.8543780034538915 -1 0 0
1531 3 63.408485796949996 7.321781268755248 2.854378003453892 -1 0 0
1532 3 61.59681477418 10.459687526793246 2.8543780034538915 -1 0 0
1538 3 65.22015681971999 10.459687526793246 2.8543780034538915 -1 0 0
1545 1 68.84349886526 6.275812516076002 1.4528482038032597 -1 0 0
1540 1 67.03182784248999 9.413718774114 1.4528482038032593 -1 0 0
1547 4 68.84349886526 8.36775002143476 0.04964686589572012 -1 0 0
1546 1 70.65516988803 9.413718774114 1.4528482038032593 -1 0 0
1542 4 67.03182784249 11.505656279472761 0.049646865895720815 -1 0 0
1548 4 70.65516988803 11.50565627947276 0.04964686589571962 -1 0 0
1537 3 67.03182784249 7.321781268755246 2.85437800345389 -1 0 0
1543 3 70.65516988803 7.321781268755247 2.8543780034538915 -1 0 0
1544 3 68.84349886526 10.459687526793246 2.8543780034538906 -1 0 0
1551 1 72.4668409108 6.275812516076002 1.45284820380326 -1 0 0
1557 1 76.09018295634 6.275812516076002 1.45284820380326 -1 0 0
1553 4 72.4668409108 8.36775002143476 0.04964686589571949 -1 0 0
1552 1 74.27851193357 9.413718774114 1.4528482038032593 -1 0 0
1559 4 76.09018295634 8.36775002143476 0.04964686589571948 -1 0 0
1554 4 74.27851193357 11.50565627947276 0.049646865895719636 -1 0 0
1549 3 74.27851193357 7.321781268755247 2.8543780034538915 -1 0 0
1550 3 72.4668409108 10.459687526793246 2.8543780034538915 -1 0 0
1556 3 76.09018295634 10.459687526793246 2.8543780034538915 -1 0 0
1563 1 79.71352500188 6.275812516076002 1.45284820380326 -1 0 0
1569 1 83.33686704742 6.275812516076002 1.45284820380326 -1 0 0
1558 1 77.90185397911 9.413718774114 1.4528482038032593 -1 0 0
1565 4 79.71352500188 8.36775002143476 0.04964686589571948 -1 0 0
1564 1 81.52519602465 9.413718774114 1.4528482038032593 -1 0 0
1571 4 83.33686704742 8.36775002143476 0.04964686589571949 -1 0 0
1560 4 77.90185397911 11.50565627947276 0.049646865895719636 -1 0 0
1566 4 81.52519602465 11.50565627947276 0.049646865895719636 -1 0 0
1555 3 77.90185397911 7.321781268755247 2.8543780034538915 -1 0 0
1561 3 81.52519602465 7.321781268755247 2.8543780034538915 -1 0 0
1562 3 79.71352500188 10.459687526793246 2.8543780034538915 -1 0 0
1568 3 83.33686704742 10.459687526793246 2.8543780034538915 -1 0 0
1575 1 86.96020909296 6.275812516076002 1.45284820380326 -1 0 0
1570 1 85.14853807019 9.413718774114 1.4528482038032593 -1 0 0
1577 4 86.96020909296 8.36775002143476 0.04964686589571949 -1 0 0
1576 1 88.77188011573 9.413718774114 1.4528482038032593 -1 0 0
1572 4 85.14853807019 11.50565627947276 0.049646865895719636 -1 0 0
1578 4 88.77188011573 11.50565627947276 0.049646865895719636 -1 0 0
1567 3 85.14853807019 7.321781268755247 2.8543780034538915 -1 0 0
1573 3 88.77188011573 7.321781268755247 2.8543780034538915 -1 0 0
1574 3 86.96020909296 10.459687526793246 2.8543780034538915 -1 0 0
1581 1 90.5835511385 6.275812516076002 1.45284820380326 -1 0 0
1587 1 94.20689318404 6.275812516076002 1.45284820380326 -1 0 0
1583 4 90.5835511385 8.36775002143476 0.04964686589571948 -1 0 0
1582 1 92.39522216127 9.413718774114 1.4528482038032593 -1 0 0
1589 4 94.20689318404 8.36775002143476 0.04964686589571948 -1 0 0
1584 4 92.39522216127 11.50565627947276 0.049646865895719636 -1 0 0
1579 3 92.39522216127 7.321781268755247 2.8543780034538915 -1 0 0
1580 3 90.5835511385 10.459687526793246 2.8543780034538915 -1 0 0
1586 3 94.20689318404 10.459687526793246 2.8543780034538915 -1 0 0
1593 1 97.83023522958 6.275812516076002 1.45284820380326 -1 0 0
1588 1 96.01856420681 9.413718774114 1.4528482038032593 -1 0 0
1595 4 97.83023522958 8.36775002143476 0.04964686589571948 -1 0 0
1594 1 99.64190625235 9.413718774114 1.4528482038032593 -1 0 0
1590 4 96.01856420681 11.50565627947276 0.049646865895719636 -1 0 0
1596 4 99.64190625235 11.50565627947276 0.049646865895719636 -1 0 0
1585 3 96.01856420681 7.321781268755247 2.8543780034538915 -1 0 0
1591 3 99.64190625235 7.321781268755247 2.8543780034538915 -1 0 0
1592 3 97.83023522958 10.459687526793246 2.8543780034538915 -1 0 0
1767 1 0 12.551625032152002 1.45284820380326 0 0 0
1773 1 3.6233420455399994 12.551625032152002 1.45284820380326 0 0 0
1769 4 3.4903192922475005e-20 14.64356253751076 0.04964686589572029 0 0 0
1775 4 3.6233420455399994 14.64356253751076 0.04964686589572028 0 0 0
1768 1 1.8116710227699997 15.689531290190002 1.4528482038032609 0 0 0
1774 1 5.435013068309999 15.689531290190002 1.4528482038032609 0 0 0
1765 3 1.8116710227699997 13.597593784831247 2.854378003453892 0 0 0
1771 3 5.435013068309999 13.597593784831247 2.854378003453892 0 0 0
1766 3 1.8496386266768606e-18 16.73550004286925 2.854378003453892 0 0 0
1772 3 3.6233420455399994 16.73550004286925 2.854378003453892 0 0 0
1779 1 7.246684091079999 12.551625032152002 1.4528482038032602 0 0 0
1785 1 10.870026136620002 12.551625032152002 1.4528482038032602 0 0 0
1781 4 7.246684091079999 14.64356253751076 0.04964686589572026 0 0 0
1787 4 10.87002613662 14.643562537510762 0.04964686589572118 0 0 0
1780 1 9.058355113849998 15.689531290190002 1.4528482038032609 0 0 0
1777 3 9.058355113849998 13.597593784831247 2.854378003453892 0 0 0
1778 3 7.246684091079999 16.73550004286925 2.854378003453892 0 0 0
1784 3 10.87002613662 16.735500042869248 2.854378003453891 0 0 0
1791 1 14.493368182160005 12.551625032152002 1.45284820380326 0 0 0
1793 4 14.493368182160005 14.643562537510762 0.04964686589572032 0 0 0
1786 1 12.681697159390001 15.689531290190002 1.4528482038032606 0 0 0
1792 1 16.305039204930004 15.689531290190002 1.4528482038032609 0 0 0
1783 3 12.681697159390003 13.597593784831245 2.854378003453891 0 0 0
1789 3 16.305039204930004 13.597593784831247 2.854378003453892 0 0 0
1790 3 14.493368182160005 16.73550004286925 2.854378003453892 0 0 0
1797 1 18.116710227700004 12.551625032152002 1.45284820380326 0 0 0
1803 1 21.740052273240003 12.551625032152002 1.45284820380326 0 0 0
1799 4 18.116710227700004 14.64356253751076 0.04964686589572028 0 0 0
1805 4 21.740052273240003 14.64356253751076 0.04964686589572028 0 0 0
1798 1 19.928381250470004 15.689531290190002 1.4528482038032609 0 0 0
1804 1 23.551723296010003 15.689531290190002 1.4528482038032609 0 0 0
1795 3 19.928381250470004 13.597593784831247 2.854378003453892 0 0 0
1801 3 23.551723296010003 13.597593784831247 2.854378003453892 0 0 0
1796 3 18.116710227700004 16.73550004286925 2.854378003453892 0 0 0
1802 3 21.740052273240003 16.73550004286925 2.854378003453892 0 0 0
1809 1 25.363394318780003 12.551625032152002 1.45284820380326 0 0 0
1815 1 28.986736364320002 12.551625032152002 1.45284820380326 0 0 0
1811 4 25.363394318780003 14.64356253751076 0.04964686589572028 0 0 0
1817 4 28.986736364320002 14.64356253751076 0.04964686589572029 0 0 0
1810 1 27.175065341550003 15.689531290190002 1.4528482038032609 0 0 0
1807 3 27.175065341550003 13.597593784831247 2.854378003453892 0 0 0
1808 3 25.363394318780003 16.73550004286925 2.854378003453892 0 0 0
1814 3 28.986736364320002 16.73550004286925 2.854378003453892 0 0 0
1821 1 32.61007840986 12.551625032152002 1.45284820380326 0 0 0
1823 4 32.61007840986 14.64356253751076 0.04964686589572029 0 0 0
1816 1 30.798407387090002 15.689531290190002 1.4528482038032609 0 0 0
1822 1 34.42174943263 15.689531290190002 1.4528482038032609 0 0 0
1813 3 30.798407387090002 13.597593784831247 2.854378003453892 0 0 0
1819 3 34.42174943263 13.597593784831247 2.854378003453892 0 0 0
1820 3 32.61007840986 16.73550004286925 2.854378003453892 0 0 0
1827 1 36.2334204554 12.551625032152002 1.4528482038032602 0 0 0
1833 1 39.85676250094 12.551625032152002 1.4528482038032602 0 0 0
1829 4 36.2334204554 14.64356253751076 0.04964686589572028 0 0 0
1835 4 39.85676250094 14.64356253751076 0.04964686589572028 0 0 0
1828 1 38.04509147817 15.689531290190002 1.4528482038032609 0 0 0
1834 1 41.66843352371 15.689531290190002 1.4528482038032609 0 0 0
1825 3 38.04509147817 13.597593784831247 2.8543780034538924 0 0 0
1831 3 41.66843352371 13.597593784831247 2.854378003453892 0 0 0
1826 3 36.2334204554 16.73550004286925 2.854378003453892 0 0 0
1832 3 39.85676250094 16.73550004286925 2.854378003453892 0 0 0
1839 1 43.48010454648 12.551625032152002 1.45284820380326 0 0 0
1845 1 47.10344659202 12.551625032152002 1.45284820380326 0 0 0
1841 4 43.48010454648 14.64356253751076 0.04964686589572028 0 0 0
1847 4 47.10344659202 14.64356253751076 0.04964686589572028 0 0 0
1840 1 45.29177556925 15.689531290190002 1.4528482038032609 0 0 0
1837 3 45.29177556925 13.597593784831247 2.854378003453892 0 0 0
1838 3 43.48010454648 16.73550004286925 2.854378003453892 0 0 0
1844 3 47.10344659202 16.73550004286925 2.854378003453892 0 0 0
1683 1 50.72678863756 12.551625032152002 1.45284820380326 -1 0 0
1685 4 50.72678863756 14.64356253751076 0.04964686589572028 -1 0 0
1846 1 48.91511761479 15.689531290190002 1.4528482038032609 0 0 0
1684 1 52.53845966033 15.689531290190002 1.4528482038032609 -1 0 0
1843 3 48.91511761479 13.597593784831247 2.854378003453892 0 0 0
1681 3 52.53845966033 13.597593784831247 2.854378003453892 -1 0 0
1682 3 50.72678863756 16.73550004286925 2.854378003453892 -1 0 0
1689 1 54.3501306831 12.551625032152002 1.45284820380326 -1 0 0
1695 1 57.97347272864 12.551625032152002 1.45284820380326 -1 0 0
1691 4 54.3501306831 14.64356253751076 0.04964686589572028 -1 0 0
1697 4 57.97347272864 14.64356253751076 0.04964686589572028 -1 0 0
1690 1 56.16180170587 15.689531290190002 1.4528482038032609 -1 0 0
1687 3 56.16180170587 13.597593784831247 2.854378003453892 -1 0 0
1688 3 54.3501306831 16.73550004286925 2.854378003453892 -1 0 0
1694 3 57.97347272864 16.73550004286925 2.854378003453892 -1 0 0
1701 1 61.59681477418 12.551625032152002 1.45284820380326 -1 0 0
1707 1 65.22015681972 12.551625032152002 1.4528482038032602 -1 0 0
1703 4 61.59681477418 14.64356253751076 0.049646865895720434 -1 0 0
1709 4 65.22015681971999 14.64356253751076 0.04964686589572046 -1 0 0
1696 1 59.78514375141 15.689531290190002 1.4528482038032609 -1 0 0
1702 1 63.408485796949996 15.689531290190002 1.4528482038032609 -1 0 0
1693 3 59.78514375141 13.597593784831247 2.854378003453892 -1 0 0
1699 3 63.408485796949996 13.597593784831247 2.8543780034538924 -1 0 0
1700 3 61.59681477418 16.73550004286925 2.854378003453892 -1 0 0
1706 3 65.22015681971999 16.735500042869248 2.854378003453892 -1 0 0
1713 1 68.84349886526 12.551625032152002 1.45284820380326 -1 0 0
1715 4 68.84349886526 14.643562537510762 0.04964686589572093 -1 0 0
1708 1 67.03182784248999 15.689531290190002 1.4528482038032609 -1 0 0
1714 1 70.65516988803 15.689531290190002 1.452848203803261 -1 0 0
1705 3 67.03182784249 13.597593784831245 2.8543780034538906 -1 0 0
1711 3 70.65516988803 13.597593784831247 2.854378003453892 -1 0 0
1712 3 68.84349886526 16.73550004286925 2.8543780034538915 -1 0 0
1719 1 72.4668409108 12.551625032152002 1.45284820380326 -1 0 0
1725 1 76.09018295634 12.551625032152002 1.45284820380326 -1 0 0
1721 4 72.4668409108 14.64356253751076 0.04964686589572029 -1 0 0
1727 4 76.09018295634 14.64356253751076 0.04964686589572028 -1 0 0
1720 1 74.27851193357 15.689531290190002 1.4528482038032609 -1 0 0
1717 3 74.27851193357 13.597593784831247 2.854378003453892 -1 0 0
1718 3 72.4668409108 16.73550004286925 2.854378003453892 -1 0 0
1724 3 76.09018295634 16.73550004286925 2.854378003453892 -1 0 0
1731 1 79.71352500188 12.551625032152002 1.45284820380326 -1 0 0
1737 1 83.33686704742 12.551625032152002 1.45284820380326 -1 0 0
1733 4 79.71352500188 14.64356253751076 0.04964686589572028 -1 0 0
1739 4 83.33686704742 14.64356253751076 0.04964686589572028 -1 0 0
1726 1 77.90185397911 15.689531290190002 1.4528482038032609 -1 0 0
1732 1 81.52519602465 15.689531290190002 1.4528482038032609 -1 0 0
1723 3 77.90185397911 13.597593784831247 2.854378003453892 -1 0 0
1729 3 81.52519602465 13.597593784831247 2.854378003453892 -1 0 0
1730 3 79.71352500188 16.73550004286925 2.854378003453892 -1 0 0