LAMMPS data file via write_data, version 29 Aug 2024, timestep = 2, units = metal

8064 atoms
9 atom types

0 101.45357727512 xlo xhi
0 100.413000257216 ylo yhi
-50 50 zlo zhi

Masses

1 58.933194
2 58.933194
3 58.933194
4 127.6
5 127.6
6 127.6
7 127.6
8 127.6
9 127.6

Atoms # atomic

1431 1 0 1.293486222862385e-15 1.4528521551612568 0 0 0
1437 1 3.6233420455399994 1.2876700570149234e-15 1.4528521551612568 0 0 0
1433 5 0 2.0919375053587603 0.0491046239997044 0 0 0
1432 1 1.8116710227699997 3.137906258038001 1.4528521551612565 0 0 0
1439 5 3.6233420455399994 2.0919375053587603 0.0491046239997044 0 0 0
1438 1 5.435013068309999 3.137906258038001 1.4528521551612565 0 0 0
1434 5 1.8116710227699997 5.229843763396762 0.04910462399970424 0 0 0
1440 5 5.435013068309999 5.229843763396762 0.04910462399970424 0 0 0
1429 4 1.8116710227699997 1.045968752679244 2.855106834089692 0 0 0
1435 4 5.435013068309999 1.045968752679244 2.855106834089692 0 0 0
1430 4 1.4231971701768202e-19 4.183875010717244 2.855106834089692 0 0 0
1436 4 3.6233420455399994 4.183875010717244 2.855106834089692 0 0 0
1443 1 7.246684091079999 1.330792931271281e-15 1.4528521551612568 0 0 0
1449 1 10.870026136620002 1.4942425159235444e-15 1.4528521551612565 0 0 0
1445 5 7.246684091079999 2.0919375053587603 0.04910462399970438 0 0 0
1444 1 9.058355113849998 3.137906258038001 1.4528521551612565 0 0 0
1451 5 10.87002613662 2.091937505358761 0.04910462399970519 0 0 0
1446 5 9.058355113849998 5.229843763396762 0.04910462399970431 0 0 0
1441 4 9.058355113849998 1.045968752679244 2.855106834089692 0 0 0
1442 4 7.246684091079999 4.183875010717244 2.855106834089692 0 0 0
1448 4 10.87002613662 4.1838750107172435 2.8551068340896912 0 0 0
1455 1 14.493368182160005 1.2388960320603927e-15 1.4528521551612565 0 0 0
1450 1 12.681697159390001 3.137906258038001 1.4528521551612568 0 0 0
1457 5 14.493368182160005 2.0919375053587608 0.04910462399970446 0 0 0
1456 1 16.305039204930004 3.137906258038001 1.4528521551612565 0 0 0
1452 5 12.681697159390003 5.2298437633967625 0.04910462399970515 0 0 0
1458 5 16.305039204930004 5.229843763396762 0.04910462399970422 0 0 0
1447 4 12.681697159390003 1.0459687526792432 2.8551068340896912 0 0 0
1453 4 16.305039204930004 1.0459687526792438 2.855106834089692 0 0 0
1454 4 14.493368182160005 4.183875010717244 2.855106834089692 0 0 0
1461 1 18.116710227700004 1.2916550090914185e-15 1.4528521551612568 0 0 0
1467 1 21.740052273240003 1.2899471724872064e-15 1.4528521551612568 0 0 0
1463 5 18.116710227700004 2.0919375053587603 0.0491046239997044 0 0 0
1462 1 19.928381250470004 3.137906258038001 1.4528521551612565 0 0 0
1469 5 21.740052273240003 2.0919375053587603 0.0491046239997044 0 0 0
1468 1 23.551723296010003 3.137906258038001 1.4528521551612565 0 0 0
1464 5 19.928381250470004 5.229843763396762 0.04910462399970424 0 0 0
1470 5 23.551723296010003 5.229843763396762 0.04910462399970424 0 0 0
1459 4 19.928381250470004 1.0459687526792438 2.855106834089692 0 0 0
1465 4 23.551723296010003 1.045968752679244 2.855106834089692 0 0 0
1460 4 18.116710227700004 4.183875010717244 2.855106834089692 0 0 0
1466 4 21.740052273240003 4.183875010717244 2.855106834089692 0 0 0
1473 1 25.363394318780003 1.2899471724872064e-15 1.4528521551612568 0 0 0
1479 1 28.986736364320002 1.2916550090914185e-15 1.4528521551612568 0 0 0
1475 5 25.363394318780003 2.0919375053587603 0.0491046239997044 0 0 0
1474 1 27.175065341550003 3.137906258038001 1.4528521551612565 0 0 0
1481 5 28.986736364320002 2.0919375053587603 0.0491046239997044 0 0 0
1476 5 27.175065341550003 5.229843763396762 0.04910462399970424 0 0 0
1471 4 27.175065341550003 1.0459687526792438 2.855106834089692 0 0 0
1472 4 25.363394318780003 4.183875010717244 2.8551068340896926 0 0 0
1478 4 28.986736364320002 4.183875010717244 2.855106834089692 0 0 0
1485 1 32.61007840986 1.2912696879228995e-15 1.4528521551612568 0 0 0
1480 1 30.798407387090002 3.137906258038001 1.4528521551612565 0 0 0
1487 5 32.61007840986 2.0919375053587603 0.0491046239997044 0 0 0
1486 1 34.42174943263 3.137906258038001 1.4528521551612565 0 0 0
1482 5 30.798407387090002 5.229843763396762 0.04910462399970424 0 0 0
1488 5 34.42174943263 5.229843763396762 0.04910462399970424 0 0 0
1477 4 30.798407387090002 1.0459687526792438 2.855106834089692 0 0 0
1483 4 34.42174943263 1.0459687526792438 2.855106834089692 0 0 0
1484 4 32.61007840986 4.183875010717244 2.855106834089692 0 0 0
1491 1 36.2334204554 1.2898760126286976e-15 1.4528521551612568 0 0 0
1497 1 39.85676250094 1.2895618513186874e-15 1.4528521551612568 0 0 0
1493 5 36.2334204554 2.0919375053587603 0.0491046239997044 0 0 0
1492 1 38.04509147817 3.137906258038001 1.4528521551612565 0 0 0
1499 5 39.85676250094 2.0919375053587603 0.0491046239997044 0 0 0
1498 1 41.66843352371 3.137906258038001 1.4528521551612565 0 0 0
1494 5 38.04509147817 5.229843763396762 0.04910462399970424 0 0 0
1500 5 41.66843352371 5.229843763396762 0.04910462399970424 0 0 0
1489 4 38.04509147817 1.045968752679244 2.8551068340896926 0 0 0
1495 4 41.66843352371 1.0459687526792438 2.855106834089692 0 0 0
1490 4 36.2334204554 4.183875010717244 2.8551068340896926 0 0 0
1496 4 39.85676250094 4.183875010717244 2.855106834089692 0 0 0
1503 1 43.48010454648 1.2916550090914185e-15 1.4528521551612568 0 0 0
1509 1 47.10344659202 1.2916550090914185e-15 1.4528521551612568 0 0 0
1505 5 43.48010454648 2.0919375053587603 0.0491046239997044 0 0 0
1504 1 45.29177556925 3.137906258038001 1.4528521551612565 0 0 0
1511 5 47.10344659202 2.0919375053587603 0.0491046239997044 0 0 0
1506 5 45.29177556925 5.229843763396762 0.04910462399970424 0 0 0
1501 4 45.29177556925 1.0459687526792438 2.855106834089692 0 0 0
1502 4 43.48010454648 4.183875010717244 2.855106834089692 0 0 0
1508 4 47.10344659202 4.183875010717244 2.855106834089692 0 0 0
1347 1 50.72678863756 1.2917261689499274e-15 1.4528521551612568 -1 0 0
1510 1 48.91511761479 3.137906258038001 1.4528521551612565 0 0 0
1349 5 50.72678863756 2.0919375053587603 0.0491046239997044 -1 0 0
1348 1 52.53845966033 3.137906258038001 1.4528521551612565 -1 0 0
1512 5 48.91511761479 5.229843763396762 0.04910462399970424 0 0 0
1350 5 52.53845966033 5.229843763396762 0.04910462399970424 -1 0 0
1507 4 48.91511761479 1.0459687526792438 2.855106834089692 0 0 0
1345 4 52.53845966033 1.0459687526792438 2.855106834089692 -1 0 0
1346 4 50.72678863756 4.183875010717244 2.855106834089692 -1 0 0
1353 1 54.3501306831 1.2916550090914185e-15 1.4528521551612568 -1 0 0
1359 1 57.97347272864 1.2916550090914185e-15 1.4528521551612568 -1 0 0
1355 5 54.3501306831 2.0919375053587603 0.0491046239997044 -1 0 0
1354 1 56.16180170587 3.137906258038001 1.4528521551612565 -1 0 0
1361 5 57.97347272864 2.0919375053587603 0.0491046239997044 -1 0 0
1356 5 56.16180170587 5.229843763396762 0.04910462399970424 -1 0 0
1351 4 56.16180170587 1.0459687526792438 2.855106834089692 -1 0 0
1352 4 54.3501306831 4.183875010717244 2.855106834089692 -1 0 0
1358 4 57.97347272864 4.183875010717244 2.855106834089692 -1 0 0
1365 1 61.59681477418 1.3800771913419331e-15 1.4528521551612565 -1 0 0
1371 1 65.22015681972 1.4217504201138358e-15 1.4528521551612565 -1 0 0
1360 1 59.78514375141 3.137906258038001 1.4528521551612565 -1 0 0
1367 5 61.59681477418 2.0919375053587608 0.04910462399970447 -1 0 0
1366 1 63.408485796949996 3.137906258038001 1.4528521551612565 -1 0 0
1373 5 65.22015681971999 2.0919375053587608 0.04910462399970452 -1 0 0
1362 5 59.78514375141 5.229843763396762 0.04910462399970426 -1 0 0
1368 5 63.408485796949996 5.229843763396761 0.049104623999703965 -1 0 0
1357 4 59.78514375141 1.0459687526792438 2.855106834089692 -1 0 0
1363 4 63.408485796949996 1.0459687526792445 2.8551068340896926 -1 0 0
1364 4 61.59681477418 4.183875010717244 2.855106834089692 -1 0 0
1370 4 65.22015681971999 4.183875010717244 2.855106834089692 -1 0 0
1377 1 68.84349886526 1.1655423340443372e-15 1.4528521551612565 -1 0 0
1372 1 67.03182784248999 3.137906258038001 1.4528521551612568 -1 0 0
1379 5 68.84349886526 2.0919375053587608 0.04910462399970501 -1 0 0
1378 1 70.65516988803 3.137906258038001 1.4528521551612565 -1 0 0
1374 5 67.03182784249 5.2298437633967625 0.049104623999705534 -1 0 0
1380 5 70.65516988803 5.229843763396762 0.04910462399970423 -1 0 0
1369 4 67.03182784249 1.0459687526792427 2.855106834089691 -1 0 0
1375 4 70.65516988803 1.045968752679244 2.855106834089692 -1 0 0
1376 4 68.84349886526 4.183875010717244 2.8551068340896912 -1 0 0
1383 1 72.4668409108 1.2876700570149234e-15 1.4528521551612568 -1 0 0
1389 1 76.09018295634 1.2876700570149234e-15 1.4528521551612568 -1 0 0
1385 5 72.4668409108 2.0919375053587603 0.04910462399970441 -1 0 0
1384 1 74.27851193357 3.137906258038001 1.4528521551612565 -1 0 0
1391 5 76.09018295634 2.0919375053587603 0.0491046239997044 -1 0 0
1386 5 74.27851193357 5.229843763396762 0.04910462399970424 -1 0 0
1381 4 74.27851193357 1.045968752679244 2.855106834089692 -1 0 0
1382 4 72.4668409108 4.183875010717244 2.855106834089692 -1 0 0
1388 4 76.09018295634 4.183875010717244 2.855106834089692 -1 0 0
1395 1 79.71352500188 1.2876700570149234e-15 1.4528521551612568 -1 0 0
1401 1 83.33686704742 1.2876700570149234e-15 1.4528521551612568 -1 0 0
1390 1 77.90185397911 3.137906258038001 1.4528521551612565 -1 0 0
1397 5 79.71352500188 2.0919375053587603 0.0491046239997044 -1 0 0
1396 1 81.52519602465 3.137906258038001 1.4528521551612565 -1 0 0
1403 5 83.33686704742 2.0919375053587603 0.0491046239997044 -1 0 0
1392 5 77.90185397911 5.229843763396762 0.04910462399970424 -1 0 0
1398 5 81.52519602465 5.229843763396762 0.04910462399970424 -1 0 0
1387 4 77.90185397911 1.045968752679244 2.855106834089692 -1 0 0
1393 4 81.52519602465 1.045968752679244 2.855106834089692 -1 0 0
1394 4 79.71352500188 4.183875010717244 2.855106834089692 -1 0 0
1400 4 83.33686704742 4.183875010717244 2.855106834089692 -1 0 0
1407 1 86.96020909296 1.2899471724872064e-15 1.4528521551612568 -1 0 0
1402 1 85.14853807019 3.137906258038001 1.4528521551612565 -1 0 0
1409 5 86.96020909296 2.0919375053587603 0.0491046239997044 -1 0 0
1408 1 88.77188011573 3.137906258038001 1.4528521551612565 -1 0 0
1404 5 85.14853807019 5.229843763396762 0.04910462399970424 -1 0 0
1410 5 88.77188011573 5.229843763396762 0.04910462399970424 -1 0 0
1399 4 85.14853807019 1.045968752679244 2.855106834089692 -1 0 0
1405 4 88.77188011573 1.0459687526792438 2.855106834089692 -1 0 0
1406 4 86.96020909296 4.183875010717244 2.855106834089692 -1 0 0
1413 1 90.5835511385 1.2899471724872064e-15 1.4528521551612568 -1 0 0
1419 1 94.20689318404 1.2876700570149234e-15 1.4528521551612568 -1 0 0
1415 5 90.5835511385 2.0919375053587603 0.0491046239997044 -1 0 0
1414 1 92.39522216127 3.137906258038001 1.4528521551612565 -1 0 0
1421 5 94.20689318404 2.0919375053587603 0.0491046239997044 -1 0 0
1416 5 92.39522216127 5.229843763396762 0.04910462399970424 -1 0 0
1411 4 92.39522216127 1.045968752679244 2.855106834089692 -1 0 0
1412 4 90.5835511385 4.183875010717244 2.855106834089692 -1 0 0
1418 4 94.20689318404 4.183875010717244 2.855106834089692 -1 0 0
1425 1 97.83023522958 1.2899471724872064e-15 1.4528521551612568 -1 0 0
1420 1 96.01856420681 3.137906258038001 1.4528521551612565 -1 0 0
1427 5 97.83023522958 2.0919375053587603 0.0491046239997044 -1 0 0
1426 1 99.64190625235 3.137906258038001 1.4528521551612565 -1 0 0
1422 5 96.01856420681 5.229843763396762 0.04910462399970424 -1 0 0
1428 5 99.64190625235 5.229843763396762 0.04910462399970425 -1 0 0
1417 4 96.01856420681 1.045968752679244 2.855106834089692 -1 0 0
1423 4 99.64190625235 1.0459687526792438 2.855106834089692 -1 0 0
1424 4 97.83023522958 4.183875010717244 2.855106834089692 -1 0 0
1599 1 0 6.275812516076002 1.4528521551612568 0 0 0
1605 1 3.6233420455399994 6.275812516076002 1.4528521551612568 0 0 0
1601 5 0 8.367750021434762 0.04910462399970387 0 0 0
1600 1 1.8116710227699997 9.413718774114 1.4528521551612559 0 0 0
1607 5 3.6233420455399994 8.367750021434762 0.04910462399970387 0 0 0
1606 1 5.435013068309999 9.413718774114 1.4528521551612559 0 0 0
1602 5 1.8116710227699997 11.505656279472763 0.04910462399970403 0 0 0
1608 5 5.435013068309999 11.505656279472763 0.04910462399970403 0 0 0
1597 4 1.8116710227699997 7.321781268755245 2.855106834089692 0 0 0
1603 4 5.435013068309999 7.321781268755245 2.855106834089692 0 0 0
1598 4 1.8259241081108748e-18 10.459687526793243 2.8551068340896917 0 0 0
1604 4 3.6233420455399994 10.459687526793243 2.8551068340896917 0 0 0
1611 1 7.246684091079999 6.275812516076002 1.4528521551612565 0 0 0
1617 1 10.870026136620002 6.275812516076002 1.4528521551612568 0 0 0
1613 5 7.246684091079999 8.367750021434762 0.04910462399970385 0 0 0
1612 1 9.058355113849998 9.413718774114 1.4528521551612559 0 0 0
1619 5 10.87002613662 8.367750021434762 0.04910462399970476 0 0 0
1614 5 9.058355113849998 11.505656279472763 0.049104623999704076 0 0 0
1609 4 9.058355113849998 7.321781268755245 2.8551068340896917 0 0 0
1610 4 7.246684091079999 10.459687526793243 2.8551068340896917 0 0 0
1616 4 10.87002613662 10.459687526793243 2.8551068340896912 0 0 0
1623 1 14.493368182160005 6.275812516076002 1.4528521551612568 0 0 0
1618 1 12.681697159390001 9.413718774114 1.4528521551612559 0 0 0
1625 5 14.493368182160005 8.367750021434762 0.04910462399970392 0 0 0
1624 1 16.305039204930004 9.413718774114 1.4528521551612559 0 0 0
1620 5 12.681697159390003 11.505656279472763 0.04910462399970485 0 0 0
1626 5 16.305039204930004 11.505656279472763 0.04910462399970401 0 0 0
1615 4 12.681697159390003 7.321781268755244 2.8551068340896912 0 0 0
1621 4 16.305039204930004 7.321781268755245 2.855106834089692 0 0 0
1622 4 14.493368182160005 10.459687526793243 2.8551068340896917 0 0 0
1629 1 18.116710227700004 6.275812516076002 1.4528521551612565 0 0 0
1635 1 21.740052273240003 6.275812516076002 1.4528521551612565 0 0 0
1631 5 18.116710227700004 8.367750021434762 0.04910462399970387 0 0 0
1630 1 19.928381250470004 9.413718774114 1.4528521551612559 0 0 0
1637 5 21.740052273240003 8.367750021434762 0.04910462399970387 0 0 0
1636 1 23.551723296010003 9.413718774114 1.4528521551612559 0 0 0
1632 5 19.928381250470004 11.505656279472763 0.04910462399970403 0 0 0
1638 5 23.551723296010003 11.505656279472763 0.04910462399970403 0 0 0
1627 4 19.928381250470004 7.321781268755245 2.855106834089692 0 0 0
1633 4 23.551723296010003 7.321781268755245 2.855106834089692 0 0 0
1628 4 18.116710227700004 10.459687526793243 2.8551068340896917 0 0 0
1634 4 21.740052273240003 10.459687526793243 2.8551068340896917 0 0 0
1641 1 25.363394318780003 6.275812516076002 1.4528521551612568 0 0 0
1647 1 28.986736364320002 6.275812516076002 1.4528521551612565 0 0 0
1643 5 25.363394318780003 8.367750021434762 0.04910462399970387 0 0 0
1642 1 27.175065341550003 9.413718774114 1.4528521551612559 0 0 0
1649 5 28.986736364320002 8.367750021434762 0.04910462399970387 0 0 0
1644 5 27.175065341550003 11.505656279472763 0.04910462399970403 0 0 0
1639 4 27.175065341550003 7.321781268755245 2.855106834089692 0 0 0
1640 4 25.363394318780003 10.459687526793243 2.8551068340896917 0 0 0
1646 4 28.986736364320002 10.459687526793243 2.8551068340896917 0 0 0
1653 1 32.61007840986 6.275812516076002 1.4528521551612565 0 0 0
1648 1 30.798407387090002 9.413718774114 1.4528521551612559 0 0 0
1655 5 32.61007840986 8.367750021434762 0.04910462399970387 0 0 0
1654 1 34.42174943263 9.413718774114 1.4528521551612559 0 0 0
1650 5 30.798407387090002 11.505656279472763 0.04910462399970403 0 0 0
1656 5 34.42174943263 11.505656279472763 0.04910462399970403 0 0 0
1645 4 30.798407387090002 7.321781268755245 2.855106834089692 0 0 0
1651 4 34.42174943263 7.321781268755245 2.855106834089692 0 0 0
1652 4 32.61007840986 10.459687526793243 2.8551068340896917 0 0 0
1659 1 36.2334204554 6.275812516076002 1.4528521551612568 0 0 0
1665 1 39.85676250094 6.275812516076002 1.4528521551612565 0 0 0
1661 5 36.2334204554 8.367750021434762 0.04910462399970387 0 0 0
1660 1 38.04509147817 9.413718774114 1.4528521551612559 0 0 0
1667 5 39.85676250094 8.367750021434762 0.04910462399970387 0 0 0
1666 1 41.66843352371 9.413718774114 1.4528521551612559 0 0 0
1662 5 38.04509147817 11.505656279472763 0.04910462399970403 0 0 0
1668 5 41.66843352371 11.505656279472763 0.04910462399970403 0 0 0
1657 4 38.04509147817 7.321781268755245 2.855106834089692 0 0 0
1663 4 41.66843352371 7.321781268755245 2.855106834089692 0 0 0
1658 4 36.2334204554 10.459687526793243 2.8551068340896917 0 0 0
1664 4 39.85676250094 10.459687526793243 2.8551068340896917 0 0 0
1671 1 43.48010454648 6.275812516076002 1.4528521551612565 0 0 0
1677 1 47.10344659202 6.275812516076002 1.4528521551612565 0 0 0
1673 5 43.48010454648 8.367750021434762 0.04910462399970387 0 0 0
1672 1 45.29177556925 9.413718774114 1.4528521551612559 0 0 0
1679 5 47.10344659202 8.367750021434762 0.04910462399970387 0 0 0
1674 5 45.29177556925 11.505656279472763 0.04910462399970403 0 0 0
1669 4 45.29177556925 7.321781268755245 2.855106834089692 0 0 0
1670 4 43.48010454648 10.459687526793243 2.8551068340896917 0 0 0
1676 4 47.10344659202 10.459687526793243 2.8551068340896917 0 0 0
1515 1 50.72678863756 6.275812516076002 1.4528521551612565 -1 0 0
1678 1 48.91511761479 9.413718774114 1.4528521551612559 0 0 0
1517 5 50.72678863756 8.367750021434762 0.04910462399970386 -1 0 0
1516 1 52.53845966033 9.413718774114 1.4528521551612559 -1 0 0
1680 5 48.91511761479 11.505656279472763 0.04910462399970403 0 0 0
1518 5 52.53845966033 11.505656279472763 0.04910462399970403 -1 0 0
1675 4 48.91511761479 7.321781268755245 2.855106834089692 0 0 0
1513 4 52.53845966033 7.321781268755245 2.855106834089692 -1 0 0
1514 4 50.72678863756 10.459687526793243 2.8551068340896917 -1 0 0
1521 1 54.3501306831 6.275812516076002 1.4528521551612565 -1 0 0
1527 1 57.97347272864 6.275812516076002 1.4528521551612565 -1 0 0
1523 5 54.3501306831 8.367750021434762 0.04910462399970387 -1 0 0
1522 1 56.16180170587 9.413718774114 1.4528521551612559 -1 0 0
1529 5 57.97347272864 8.367750021434762 0.04910462399970387 -1 0 0
1524 5 56.16180170587 11.505656279472763 0.04910462399970403 -1 0 0
1519 4 56.16180170587 7.321781268755245 2.855106834089692 -1 0 0
1520 4 54.3501306831 10.459687526793243 2.8551068340896917 -1 0 0
1526 4 57.97347272864 10.459687526793243 2.8551068340896917 -1 0 0
1533 1 61.59681477418 6.275812516076002 1.4528521551612565 -1 0 0
1539 1 65.22015681972 6.275812516076002 1.4528521551612565 -1 0 0
1528 1 59.78514375141 9.413718774114 1.4528521551612559 -1 0 0
1535 5 61.59681477418 8.367750021434762 0.049104623999703986 -1 0 0
1534 1 63.408485796949996 9.413718774114 1.4528521551612559 -1 0 0
1541 5 65.22015681971999 8.367750021434762 0.049104623999703965 -1 0 0
1530 5 59.78514375141 11.505656279472763 0.04910462399970404 -1 0 0
1536 5 63.408485796949996 11.505656279472761 0.049104623999703674 -1 0 0
1525 4 59.78514375141 7.321781268755245 2.855106834089692 -1 0 0
1531 4 63.408485796949996 7.321781268755246 2.855106834089692 -1 0 0
1532 4 61.59681477418 10.459687526793243 2.8551068340896917 -1 0 0
1538 4 65.22015681971999 10.459687526793243 2.8551068340896917 -1 0 0
1545 1 68.84349886526 6.275812516076002 1.4528521551612565 -1 0 0
1540 1 67.03182784248999 9.413718774114 1.4528521551612559 -1 0 0
1547 5 68.84349886526 8.367750021434762 0.049104623999704465 -1 0 0
1546 1 70.65516988803 9.413718774114 1.4528521551612559 -1 0 0
1542 5 67.03182784249 11.505656279472765 0.04910462399970526 -1 0 0
1548 5 70.65516988803 11.505656279472763 0.04910462399970401 -1 0 0
1537 4 67.03182784249 7.321781268755244 2.855106834089691 -1 0 0
1543 4 70.65516988803 7.321781268755245 2.855106834089692 -1 0 0
1544 4 68.84349886526 10.459687526793244 2.8551068340896912 -1 0 0
1551 1 72.4668409108 6.275812516076002 1.4528521551612565 -1 0 0
1557 1 76.09018295634 6.275812516076002 1.4528521551612568 -1 0 0
1553 5 72.4668409108 8.367750021434762 0.04910462399970387 -1 0 0
1552 1 74.27851193357 9.413718774114 1.4528521551612559 -1 0 0
1559 5 76.09018295634 8.367750021434762 0.04910462399970387 -1 0 0
1554 5 74.27851193357 11.505656279472763 0.04910462399970403 -1 0 0
1549 4 74.27851193357 7.321781268755245 2.855106834089692 -1 0 0
1550 4 72.4668409108 10.459687526793243 2.8551068340896917 -1 0 0
1556 4 76.09018295634 10.459687526793243 2.8551068340896917 -1 0 0
1563 1 79.71352500188 6.275812516076002 1.4528521551612568 -1 0 0
1569 1 83.33686704742 6.275812516076002 1.4528521551612568 -1 0 0
1558 1 77.90185397911 9.413718774114 1.4528521551612559 -1 0 0
1565 5 79.71352500188 8.367750021434762 0.04910462399970387 -1 0 0
1564 1 81.52519602465 9.413718774114 1.4528521551612559 -1 0 0
1571 5 83.33686704742 8.367750021434762 0.04910462399970387 -1 0 0
1560 5 77.90185397911 11.505656279472763 0.04910462399970403 -1 0 0
1566 5 81.52519602465 11.505656279472763 0.04910462399970403 -1 0 0
1555 4 77.90185397911 7.321781268755245 2.855106834089692 -1 0 0
1561 4 81.52519602465 7.321781268755245 2.855106834089692 -1 0 0
1562 4 79.71352500188 10.459687526793243 2.8551068340896917 -1 0 0
1568 4 83.33686704742 10.459687526793243 2.8551068340896917 -1 0 0
1575 1 86.96020909296 6.275812516076002 1.4528521551612565 -1 0 0
1570 1 85.14853807019 9.413718774114 1.4528521551612559 -1 0 0
1577 5 86.96020909296 8.367750021434762 0.04910462399970387 -1 0 0
1576 1 88.77188011573 9.413718774114 1.4528521551612559 -1 0 0
1572 5 85.14853807019 11.505656279472763 0.04910462399970403 -1 0 0
1578 5 88.77188011573 11.505656279472763 0.04910462399970403 -1 0 0
1567 4 85.14853807019 7.321781268755245 2.855106834089692 -1 0 0
1573 4 88.77188011573 7.321781268755245 2.8551068340896917 -1 0 0
1574 4 86.96020909296 10.459687526793243 2.8551068340896917 -1 0 0
1581 1 90.5835511385 6.275812516076002 1.4528521551612565 -1 0 0
1587 1 94.20689318404 6.275812516076002 1.4528521551612565 -1 0 0
1583 5 90.5835511385 8.367750021434762 0.04910462399970387 -1 0 0
1582 1 92.39522216127 9.413718774114 1.4528521551612559 -1 0 0
1589 5 94.20689318404 8.367750021434762 0.04910462399970387 -1 0 0
1584 5 92.39522216127 11.505656279472763 0.04910462399970403 -1 0 0
1579 4 92.39522216127 7.321781268755245 2.855106834089692 -1 0 0
1580 4 90.5835511385 10.459687526793243 2.8551068340896917 -1 0 0
1586 4 94.20689318404 10.459687526793243 2.8551068340896917 -1 0 0
1593 1 97.83023522958 6.275812516076002 1.4528521551612568 -1 0 0
1588 1 96.01856420681 9.413718774114 1.4528521551612559 -1 0 0
1595 5 97.83023522958 8.367750021434762 0.04910462399970387 -1 0 0
1594 1 99.64190625235 9.413718774114 1.4528521551612559 -1 0 0
1590 5 96.01856420681 11.505656279472763 0.04910462399970403 -1 0 0
1596 5 99.64190625235 11.505656279472763 0.049104623999704035 -1 0 0
1585 4 96.01856420681 7.321781268755245 2.855106834089692 -1 0 0
1591 4 99.64190625235 7.321781268755245 2.855106834089692 -1 0 0
1592 4 97.83023522958 10.459687526793243 2.8551068340896917 -1 0 0
1767 1 1.4231971701768202e-19 12.551625032152002 1.4528521551612565 0 0 0
1773 1 3.6233420455399994 12.551625032152002 1.4528521551612565 0 0 0
1769 5 0 14.643562537510764 0.04910462399970468 0 0 0
1775 5 3.6233420455399994 14.643562537510764 0.04910462399970468 0 0 0
1768 1 1.8116710227699997 15.689531290190002 1.4528521551612574 0 0 0
1774 1 5.435013068309999 15.689531290190002 1.4528521551612574 0 0 0
1765 4 1.8116710227699997 13.597593784831243 2.8551068340896926 0 0 0
1771 4 5.435013068309999 13.597593784831243 2.8551068340896926 0 0 0
1766 4 1.2566452400401467e-18 16.735500042869248 2.8551068340896926 0 0 0
1772 4 3.6233420455399994 16.735500042869248 2.8551068340896926 0 0 0
1779 1 7.246684091079999 12.551625032152002 1.4528521551612565 0 0 0
1785 1 10.870026136620002 12.551625032152002 1.4528521551612565 0 0 0
1781 5 7.246684091079999 14.643562537510764 0.04910462399970466 0 0 0
1787 5 10.87002613662 14.643562537510764 0.04910462399970553 0 0 0
1780 1 9.058355113849998 15.689531290190002 1.4528521551612574 0 0 0
1777 4 9.058355113849998 13.597593784831243 2.855106834089692 0 0 0
1778 4 7.246684091079999 16.735500042869248 2.8551068340896926 0 0 0
1784 4 10.87002613662 16.735500042869248 2.8551068340896917 0 0 0
1791 1 14.493368182160005 12.551625032152002 1.4528521551612565 0 0 0
1793 5 14.493368182160005 14.643562537510764 0.04910462399970472 0 0 0
1786 1 12.681697159390001 15.689531290190002 1.4528521551612572 0 0 0
1792 1 16.305039204930004 15.689531290190002 1.4528521551612574 0 0 0
1783 4 12.681697159390003 13.597593784831243 2.8551068340896917 0 0 0
1789 4 16.305039204930004 13.597593784831243 2.8551068340896926 0 0 0
1790 4 14.493368182160005 16.735500042869248 2.8551068340896926 0 0 0
1797 1 18.116710227700004 12.551625032152002 1.4528521551612565 0 0 0
1803 1 21.740052273240003 12.551625032152002 1.4528521551612565 0 0 0
1799 5 18.116710227700004 14.643562537510764 0.04910462399970468 0 0 0
1805 5 21.740052273240003 14.643562537510764 0.04910462399970468 0 0 0
1798 1 19.928381250470004 15.689531290190002 1.4528521551612574 0 0 0
1804 1 23.551723296010003 15.689531290190002 1.4528521551612574 0 0 0
1795 4 19.928381250470004 13.597593784831243 2.8551068340896926 0 0 0
1801 4 23.551723296010003 13.597593784831243 2.8551068340896926 0 0 0
1796 4 18.116710227700004 16.735500042869248 2.8551068340896926 0 0 0
1802 4 21.740052273240003 16.735500042869248 2.8551068340896926 0 0 0
1809 1 25.363394318780003 12.551625032152002 1.4528521551612565 0 0 0
1815 1 28.986736364320002 12.551625032152002 1.4528521551612565 0 0 0
1811 5 25.363394318780003 14.643562537510764 0.04910462399970468 0 0 0
1817 5 28.986736364320002 14.643562537510764 0.04910462399970468 0 0 0
1810 1 27.175065341550003 15.689531290190002 1.4528521551612574 0 0 0
1807 4 27.175065341550003 13.597593784831243 2.8551068340896926 0 0 0
1808 4 25.363394318780003 16.735500042869248 2.8551068340896926 0 0 0
1814 4 28.986736364320002 16.735500042869248 2.8551068340896926 0 0 0
1821 1 32.61007840986 12.551625032152002 1.4528521551612565 0 0 0
1823 5 32.61007840986 14.643562537510764 0.04910462399970468 0 0 0
1816 1 30.798407387090002 15.689531290190002 1.4528521551612574 0 0 0
1822 1 34.42174943263 15.689531290190002 1.4528521551612574 0 0 0
1813 4 30.798407387090002 13.597593784831243 2.8551068340896926 0 0 0
1819 4 34.42174943263 13.597593784831243 2.8551068340896926 0 0 0
1820 4 32.61007840986 16.735500042869248 2.8551068340896926 0 0 0
1827 1 36.2334204554 12.551625032152002 1.4528521551612568 0 0 0
1833 1 39.85676250094 12.551625032152002 1.4528521551612568 0 0 0
1829 5 36.2334204554 14.643562537510764 0.04910462399970468 0 0 0
1835 5 39.85676250094 14.643562537510764 0.04910462399970468 0 0 0
1828 1 38.04509147817 15.689531290190002 1.4528521551612574 0 0 0
1834 1 41.66843352371 15.689531290190002 1.4528521551612574 0 0 0
1825 4 38.04509147817 13.597593784831243 2.8551068340896926 0 0 0
1831 4 41.66843352371 13.597593784831243 2.8551068340896926 0 0 0
1826 4 36.2334204554 16.735500042869248 2.8551068340896926 0 0 0
1832 4 39.85676250094 16.735500042869248 2.8551068340896926 0 0 0
1839 1 43.48010454648 12.551625032152002 1.4528521551612565 0 0 0
1845 1 47.10344659202 12.551625032152002 1.4528521551612565 0 0 0
1841 5 43.48010454648 14.643562537510764 0.04910462399970468 0 0 0
1847 5 47.10344659202 14.643562537510764 0.04910462399970468 0 0 0
1840 1 45.29177556925 15.689531290190002 1.4528521551612574 0 0 0
1837 4 45.29177556925 13.597593784831243 2.8551068340896926 0 0 0
1838 4 43.48010454648 16.735500042869248 2.8551068340896926 0 0 0
1844 4 47.10344659202 16.735500042869248 2.8551068340896926 0 0 0
1683 1 50.72678863756 12.551625032152002 1.4528521551612565 -1 0 0
1685 5 50.72678863756 14.643562537510764 0.04910462399970468 -1 0 0
1846 1 48.91511761479 15.689531290190002 1.4528521551612574 0 0 0
1684 1 52.53845966033 15.689531290190002 1.4528521551612574 -1 0 0
1843 4 48.91511761479 13.597593784831243 2.8551068340896926 0 0 0
1681 4 52.53845966033 13.597593784831243 2.8551068340896926 -1 0 0
1682 4 50.72678863756 16.735500042869248 2.8551068340896926 -1 0 0
1689 1 54.3501306831 12.551625032152002 1.4528521551612565 -1 0 0
1695 1 57.97347272864 12.551625032152002 1.4528521551612565 -1 0 0
1691 5 54.3501306831 14.643562537510764 0.04910462399970468 -1 0 0
1697 5 57.97347272864 14.643562537510764 0.04910462399970468 -1 0 0
1690 1 56.16180170587 15.689531290190002 1.4528521551612574 -1 0 0
1687 4 56.16180170587 13.597593784831243 2.8551068340896926 -1 0 0
1688 4 54.3501306831 16.735500042869248 2.8551068340896926 -1 0 0
1694 4 57.97347272864 16.735500042869248 2.8551068340896926 -1 0 0
1701 1 61.59681477418 12.551625032152002 1.4528521551612568 -1 0 0
1707 1 65.22015681972 12.551625032152002 1.4528521551612568 -1 0 0
1703 5 61.59681477418 14.643562537510764 0.04910462399970483 -1 0 0
1709 5 65.22015681971999 14.643562537510764 0.04910462399970483 -1 0 0
1696 1 59.78514375141 15.689531290190002 1.4528521551612574 -1 0 0
1702 1 63.408485796949996 15.689531290190002 1.4528521551612574 -1 0 0
1693 4 59.78514375141 13.597593784831243 2.8551068340896926 -1 0 0
1699 4 63.408485796949996 13.597593784831245 2.8551068340896926 -1 0 0
1700 4 61.59681477418 16.735500042869248 2.8551068340896926 -1 0 0
1706 4 65.22015681971999 16.735500042869248 2.8551068340896926 -1 0 0
1713 1 68.84349886526 12.551625032152002 1.4528521551612565 -1 0 0
1715 5 68.84349886526 14.643562537510764 0.04910462399970545 -1 0 0
1708 1 67.03182784248999 15.689531290190002 1.4528521551612574 -1 0 0
1714 1 70.65516988803 15.689531290190002 1.4528521551612574 -1 0 0
1705 4 67.03182784249 13.597593784831243 2.8551068340896912 -1 0 0
1711 4 70.65516988803 13.597593784831243 2.8551068340896926 -1 0 0
1712 4 68.84349886526 16.735500042869248 2.8551068340896917 -1 0 0
1719 1 72.4668409108 12.551625032152002 1.4528521551612565 -1 0 0
1725 1 76.09018295634 12.551625032152002 1.4528521551612565 -1 0 0
1721 5 72.4668409108 14.643562537510764 0.04910462399970468 -1 0 0
1727 5 76.09018295634 14.643562537510764 0.04910462399970468 -1 0 0
1720 1 74.27851193357 15.689531290190002 1.4528521551612574 -1 0 0