LAMMPS data file via write_data, version 29 Aug 2024, timestep = 0, units = metal

2688 atoms
3 atom types

0 101.45357727512 xlo xhi
0 100.413000257216 ylo yhi
0 17.845565791976 zlo zhi

Masses

1 58.933194
2 127.6
3 127.6

Atoms # atomic

1431 1 0 0 1.456607619843 0 0 0
1437 1 3.6233420455399994 0 1.456607619843 0 0 0
1443 1 7.246684091079999 0 1.456607619843 0 0 0
1449 1 10.870026136619998 0 1.456607619843 0 0 0
1455 1 14.493368182160005 0 1.456607619843 0 0 0
1461 1 18.116710227700004 0 1.456607619843 0 0 0
1467 1 21.740052273240003 0 1.456607619843 0 0 0
1473 1 25.363394318780003 0 1.456607619843 0 0 0
1479 1 28.986736364320002 0 1.456607619843 0 0 0
1485 1 32.61007840986 0 1.456607619843 0 0 0
1491 1 36.2334204554 0 1.456607619843 0 0 0
1497 1 39.85676250094 0 1.456607619843 0 0 0
1503 1 43.48010454648 0 1.456607619843 0 0 0
1509 1 47.10344659202 0 1.456607619843 0 0 0
1347 1 50.72678863756 0 1.456607619843 -1 0 0
1353 1 54.3501306831 0 1.456607619843 -1 0 0
1359 1 57.97347272864 0 1.456607619843 -1 0 0
1365 1 61.59681477418 0 1.456607619843 -1 0 0
1371 1 65.22015681971999 0 1.456607619843 -1 0 0
1377 1 68.84349886526 0 1.456607619843 -1 0 0
1383 1 72.4668409108 0 1.456607619843 -1 0 0
1389 1 76.09018295634 0 1.456607619843 -1 0 0
1395 1 79.71352500188 0 1.456607619843 -1 0 0
1401 1 83.33686704742 0 1.456607619843 -1 0 0
1407 1 86.96020909296 0 1.456607619843 -1 0 0
1413 1 90.5835511385 0 1.456607619843 -1 0 0
1419 1 94.20689318404 0 1.456607619843 -1 0 0
1425 1 97.83023522958 0 1.456607619843 -1 0 0
1433 3 0 2.091937505358999 0 0 0 0
1432 1 1.8116710227699997 3.137906258038001 1.456607619843 0 0 0
1439 3 3.6233420455399994 2.091937505358999 0 0 0 0
1438 1 5.435013068309999 3.137906258038001 1.456607619843 0 0 0
1445 3 7.246684091079999 2.091937505358999 0 0 0 0
1444 1 9.058355113849998 3.137906258038001 1.456607619843 0 0 0
1451 3 10.870026136619998 2.091937505358999 0 0 0 0
1450 1 12.681697159390005 3.137906258038001 1.456607619843 0 0 0
1457 3 14.493368182160005 2.091937505358999 0 0 0 0
1456 1 16.305039204930004 3.137906258038001 1.456607619843 0 0 0
1463 3 18.116710227700004 2.091937505358999 0 0 0 0
1462 1 19.928381250470004 3.137906258038001 1.456607619843 0 0 0
1469 3 21.740052273240003 2.091937505358999 0 0 0 0
1468 1 23.551723296010003 3.137906258038001 1.456607619843 0 0 0
1475 3 25.363394318780003 2.091937505358999 0 0 0 0
1474 1 27.175065341550003 3.137906258038001 1.456607619843 0 0 0
1481 3 28.986736364320002 2.091937505358999 0 0 0 0
1480 1 30.798407387090002 3.137906258038001 1.456607619843 0 0 0
1487 3 32.61007840986 2.091937505358999 0 0 0 0
1486 1 34.42174943263 3.137906258038001 1.456607619843 0 0 0
1493 3 36.2334204554 2.091937505358999 0 0 0 0
1492 1 38.04509147817 3.137906258038001 1.456607619843 0 0 0
1499 3 39.85676250094 2.091937505358999 0 0 0 0
1498 1 41.66843352371 3.137906258038001 1.456607619843 0 0 0
1505 3 43.48010454648 2.091937505358999 0 0 0 0
1504 1 45.29177556925 3.137906258038001 1.456607619843 0 0 0
1511 3 47.10344659202 2.091937505358999 0 0 0 0
1510 1 48.91511761479 3.137906258038001 1.456607619843 0 0 0
1349 3 50.72678863756 2.091937505358999 0 -1 0 0
1348 1 52.53845966033 3.137906258038001 1.456607619843 -1 0 0
1355 3 54.3501306831 2.091937505358999 0 -1 0 0
1354 1 56.16180170587 3.137906258038001 1.456607619843 -1 0 0
1361 3 57.97347272864 2.091937505358999 0 -1 0 0
1360 1 59.78514375141 3.137906258038001 1.456607619843 -1 0 0
1367 3 61.59681477418 2.091937505358999 0 -1 0 0
1366 1 63.408485796949996 3.137906258038001 1.456607619843 -1 0 0
1373 3 65.22015681971999 2.091937505358999 0 -1 0 0
1372 1 67.03182784249 3.137906258038001 1.456607619843 -1 0 0
1379 3 68.84349886526 2.091937505358999 0 -1 0 0
1378 1 70.65516988803 3.137906258038001 1.456607619843 -1 0 0
1385 3 72.4668409108 2.091937505358999 0 -1 0 0
1384 1 74.27851193357 3.137906258038001 1.456607619843 -1 0 0
1391 3 76.09018295634 2.091937505358999 0 -1 0 0
1390 1 77.90185397911 3.137906258038001 1.456607619843 -1 0 0
1397 3 79.71352500188 2.091937505358999 0 -1 0 0
1396 1 81.52519602465 3.137906258038001 1.456607619843 -1 0 0
1403 3 83.33686704742 2.091937505358999 0 -1 0 0
1402 1 85.14853807019 3.137906258038001 1.456607619843 -1 0 0
1409 3 86.96020909296 2.091937505358999 0 -1 0 0
1408 1 88.77188011573 3.137906258038001 1.456607619843 -1 0 0
1415 3 90.5835511385 2.091937505358999 0 -1 0 0
1414 1 92.39522216127 3.137906258038001 1.456607619843 -1 0 0
1421 3 94.20689318404 2.091937505358999 0 -1 0 0
1420 1 96.01856420681 3.137906258038001 1.456607619843 -1 0 0
1427 3 97.83023522958 2.091937505358999 0 -1 0 0
1426 1 99.64190625235 3.137906258038001 1.456607619843 -1 0 0
1434 3 1.8116710227699997 5.229843763397 0 0 0 0
1440 3 5.435013068309999 5.229843763397 0 0 0 0
1446 3 9.058355113849998 5.229843763397 0 0 0 0
1452 3 12.681697159390005 5.229843763397 0 0 0 0
1458 3 16.305039204930004 5.229843763397 0 0 0 0
1464 3 19.928381250470004 5.229843763397 0 0 0 0
1470 3 23.551723296010003 5.229843763397 0 0 0 0
1476 3 27.175065341550003 5.229843763397 0 0 0 0
1482 3 30.798407387090002 5.229843763397 0 0 0 0
1488 3 34.42174943263 5.229843763397 0 0 0 0
1494 3 38.04509147817 5.229843763397 0 0 0 0
1500 3 41.66843352371 5.229843763397 0 0 0 0
1506 3 45.29177556925 5.229843763397 0 0 0 0
1512 3 48.91511761479 5.229843763397 0 0 0 0
1350 3 52.53845966033 5.229843763397 0 -1 0 0
1356 3 56.16180170587 5.229843763397 0 -1 0 0
1362 3 59.78514375141 5.229843763397 0 -1 0 0
1368 3 63.408485796949996 5.229843763397 0 -1 0 0
1374 3 67.03182784249 5.229843763397 0 -1 0 0
1380 3 70.65516988803 5.229843763397 0 -1 0 0
1386 3 74.27851193357 5.229843763397 0 -1 0 0
1392 3 77.90185397911 5.229843763397 0 -1 0 0
1398 3 81.52519602465 5.229843763397 0 -1 0 0
1404 3 85.14853807019 5.229843763397 0 -1 0 0
1410 3 88.77188011573 5.229843763397 0 -1 0 0
1416 3 92.39522216127 5.229843763397 0 -1 0 0
1422 3 96.01856420681 5.229843763397 0 -1 0 0
1428 3 99.64190625235 5.229843763397 0 -1 0 0
1599 1 0 6.275812516076002 1.456607619843 0 0 0
1605 1 3.6233420455399994 6.275812516076002 1.456607619843 0 0 0
1611 1 7.246684091079999 6.275812516076002 1.456607619843 0 0 0
1617 1 10.870026136619998 6.275812516076002 1.456607619843 0 0 0
1623 1 14.493368182160005 6.275812516076002 1.456607619843 0 0 0
1629 1 18.116710227700004 6.275812516076002 1.456607619843 0 0 0
1635 1 21.740052273240003 6.275812516076002 1.456607619843 0 0 0
1641 1 25.363394318780003 6.275812516076002 1.456607619843 0 0 0
1647 1 28.986736364320002 6.275812516076002 1.456607619843 0 0 0
1653 1 32.61007840986 6.275812516076002 1.456607619843 0 0 0
1659 1 36.2334204554 6.275812516076002 1.456607619843 0 0 0
1665 1 39.85676250094 6.275812516076002 1.456607619843 0 0 0
1671 1 43.48010454648 6.275812516076002 1.456607619843 0 0 0
1677 1 47.10344659202 6.275812516076002 1.456607619843 0 0 0
1515 1 50.72678863756 6.275812516076002 1.456607619843 -1 0 0
1521 1 54.3501306831 6.275812516076002 1.456607619843 -1 0 0
1527 1 57.97347272864 6.275812516076002 1.456607619843 -1 0 0
1533 1 61.59681477418 6.275812516076002 1.456607619843 -1 0 0
1539 1 65.22015681971999 6.275812516076002 1.456607619843 -1 0 0
1545 1 68.84349886526 6.275812516076002 1.456607619843 -1 0 0
1551 1 72.4668409108 6.275812516076002 1.456607619843 -1 0 0
1557 1 76.09018295634 6.275812516076002 1.456607619843 -1 0 0
1563 1 79.71352500188 6.275812516076002 1.456607619843 -1 0 0
1569 1 83.33686704742 6.275812516076002 1.456607619843 -1 0 0
1575 1 86.96020909296 6.275812516076002 1.456607619843 -1 0 0
1581 1 90.5835511385 6.275812516076002 1.456607619843 -1 0 0
1587 1 94.20689318404 6.275812516076002 1.456607619843 -1 0 0
1593 1 97.83023522958 6.275812516076002 1.456607619843 -1 0 0
1601 3 0 8.367750021435 0 0 0 0
1600 1 1.8116710227699997 9.413718774114002 1.456607619843 0 0 0
1607 3 3.6233420455399994 8.367750021435 0 0 0 0
1606 1 5.435013068309999 9.413718774114002 1.456607619843 0 0 0
1613 3 7.246684091079999 8.367750021435 0 0 0 0
1612 1 9.058355113849998 9.413718774114002 1.456607619843 0 0 0
1619 3 10.870026136619998 8.367750021435 0 0 0 0
1618 1 12.681697159390005 9.413718774114002 1.456607619843 0 0 0
1625 3 14.493368182160005 8.367750021435 0 0 0 0
1624 1 16.305039204930004 9.413718774114002 1.456607619843 0 0 0
1631 3 18.116710227700004 8.367750021435 0 0 0 0
1630 1 19.928381250470004 9.413718774114002 1.456607619843 0 0 0
1637 3 21.740052273240003 8.367750021435 0 0 0 0
1636 1 23.551723296010003 9.413718774114002 1.456607619843 0 0 0
1643 3 25.363394318780003 8.367750021435 0 0 0 0
1642 1 27.175065341550003 9.413718774114002 1.456607619843 0 0 0
1649 3 28.986736364320002 8.367750021435 0 0 0 0
1648 1 30.798407387090002 9.413718774114002 1.456607619843 0 0 0
1655 3 32.61007840986 8.367750021435 0 0 0 0
1654 1 34.42174943263 9.413718774114002 1.456607619843 0 0 0
1661 3 36.2334204554 8.367750021435 0 0 0 0
1660 1 38.04509147817 9.413718774114002 1.456607619843 0 0 0
1667 3 39.85676250094 8.367750021435 0 0 0 0
1666 1 41.66843352371 9.413718774114002 1.456607619843 0 0 0
1673 3 43.48010454648 8.367750021435 0 0 0 0
1672 1 45.29177556925 9.413718774114002 1.456607619843 0 0 0
1679 3 47.10344659202 8.367750021435 0 0 0 0
1678 1 48.91511761479 9.413718774114002 1.456607619843 0 0 0
1517 3 50.72678863756 8.367750021435 0 -1 0 0
1516 1 52.53845966033 9.413718774114002 1.456607619843 -1 0 0
1523 3 54.3501306831 8.367750021435 0 -1 0 0
1522 1 56.16180170587 9.413718774114002 1.456607619843 -1 0 0
1529 3 57.97347272864 8.367750021435 0 -1 0 0
1528 1 59.78514375141 9.413718774114002 1.456607619843 -1 0 0
1535 3 61.59681477418 8.367750021435 0 -1 0 0
1534 1 63.408485796949996 9.413718774114002 1.456607619843 -1 0 0
1541 3 65.22015681971999 8.367750021435 0 -1 0 0
1540 1 67.03182784249 9.413718774114002 1.456607619843 -1 0 0
1547 3 68.84349886526 8.367750021435 0 -1 0 0
1546 1 70.65516988803 9.413718774114002 1.456607619843 -1 0 0
1553 3 72.4668409108 8.367750021435 0 -1 0 0
1552 1 74.27851193357 9.413718774114002 1.456607619843 -1 0 0
1559 3 76.09018295634 8.367750021435 0 -1 0 0
1558 1 77.90185397911 9.413718774114002 1.456607619843 -1 0 0
1565 3 79.71352500188 8.367750021435 0 -1 0 0
1564 1 81.52519602465 9.413718774114002 1.456607619843 -1 0 0
1571 3 83.33686704742 8.367750021435 0 -1 0 0
1570 1 85.14853807019 9.413718774114002 1.456607619843 -1 0 0
1577 3 86.96020909296 8.367750021435 0 -1 0 0
1576 1 88.77188011573 9.413718774114002 1.456607619843 -1 0 0
1583 3 90.5835511385 8.367750021435 0 -1 0 0
1582 1 92.39522216127 9.413718774114002 1.456607619843 -1 0 0
1589 3 94.20689318404 8.367750021435 0 -1 0 0
1588 1 96.01856420681 9.413718774114002 1.456607619843 -1 0 0
1595 3 97.83023522958 8.367750021435 0 -1 0 0
1594 1 99.64190625235 9.413718774114002 1.456607619843 -1 0 0
1602 3 1.8116710227699997 11.505656279473001 0 0 0 0
1767 1 0 12.551625032152003 1.456607619843 0 0 0
1773 1 3.6233420455399994 12.551625032152003 1.456607619843 0 0 0
1608 3 5.435013068309999 11.505656279473001 0 0 0 0
1779 1 7.246684091079999 12.551625032152003 1.456607619843 0 0 0
1614 3 9.058355113849998 11.505656279473001 0 0 0 0
1785 1 10.870026136619998 12.551625032152003 1.456607619843 0 0 0
1620 3 12.681697159390005 11.505656279473001 0 0 0 0
1791 1 14.493368182160005 12.551625032152003 1.456607619843 0 0 0
1626 3 16.305039204930004 11.505656279473001 0 0 0 0
1797 1 18.116710227700004 12.551625032152003 1.456607619843 0 0 0
1632 3 19.928381250470004 11.505656279473001 0 0 0 0
1803 1 21.740052273240003 12.551625032152003 1.456607619843 0 0 0
1638 3 23.551723296010003 11.505656279473001 0 0 0 0
1809 1 25.363394318780003 12.551625032152003 1.456607619843 0 0 0
1644 3 27.175065341550003 11.505656279473001 0 0 0 0
1815 1 28.986736364320002 12.551625032152003 1.456607619843 0 0 0
1650 3 30.798407387090002 11.505656279473001 0 0 0 0
1821 1 32.61007840986 12.551625032152003 1.456607619843 0 0 0
1656 3 34.42174943263 11.505656279473001 0 0 0 0
1827 1 36.2334204554 12.551625032152003 1.456607619843 0 0 0
1662 3 38.04509147817 11.505656279473001 0 0 0 0
1833 1 39.85676250094 12.551625032152003 1.456607619843 0 0 0
1668 3 41.66843352371 11.505656279473001 0 0 0 0
1839 1 43.48010454648 12.551625032152003 1.456607619843 0 0 0
1674 3 45.29177556925 11.505656279473001 0 0 0 0
1845 1 47.10344659202 12.551625032152003 1.456607619843 0 0 0
1680 3 48.91511761479 11.505656279473001 0 0 0 0
1518 3 52.53845966033 11.505656279473001 0 -1 0 0
1683 1 50.72678863756 12.551625032152003 1.456607619843 -1 0 0
1689 1 54.3501306831 12.551625032152003 1.456607619843 -1 0 0
1524 3 56.16180170587 11.505656279473001 0 -1 0 0
1695 1 57.97347272864 12.551625032152003 1.456607619843 -1 0 0
1530 3 59.78514375141 11.505656279473001 0 -1 0 0
1701 1 61.59681477418 12.551625032152003 1.456607619843 -1 0 0
1536 3 63.408485796949996 11.505656279473001 0 -1 0 0
1707 1 65.22015681971999 12.551625032152003 1.456607619843 -1 0 0
1542 3 67.03182784249 11.505656279473001 0 -1 0 0
1713 1 68.84349886526 12.551625032152003 1.456607619843 -1 0 0
1548 3 70.65516988803 11.505656279473001 0 -1 0 0
1719 1 72.4668409108 12.551625032152003 1.456607619843 -1 0 0
1554 3 74.27851193357 11.505656279473001 0 -1 0 0
1725 1 76.09018295634 12.551625032152003 1.456607619843 -1 0 0
1560 3 77.90185397911 11.505656279473001 0 -1 0 0
1731 1 79.71352500188 12.551625032152003 1.456607619843 -1 0 0
1566 3 81.52519602465 11.505656279473001 0 -1 0 0
1737 1 83.33686704742 12.551625032152003 1.456607619843 -1 0 0
1572 3 85.14853807019 11.505656279473001 0 -1 0 0
1743 1 86.96020909296 12.551625032152003 1.456607619843 -1 0 0
1578 3 88.77188011573 11.505656279473001 0 -1 0 0
1749 1 90.5835511385 12.551625032152003 1.456607619843 -1 0 0
1584 3 92.39522216127 11.505656279473001 0 -1 0 0
1755 1 94.20689318404 12.551625032152003 1.456607619843 -1 0 0
1590 3 96.01856420681 11.505656279473001 0 -1 0 0
1761 1 97.83023522958 12.551625032152003 1.456607619843 -1 0 0
1596 3 99.64190625235 11.505656279473001 0 -1 0 0
1769 3 0 14.643562537511002 0 0 0 0
1775 3 3.6233420455399994 14.643562537511002 0 0 0 0
1781 3 7.246684091079999 14.643562537511002 0 0 0 0
1787 3 10.870026136619998 14.643562537511002 0 0 0 0
1793 3 14.493368182160005 14.643562537511002 0 0 0 0
1799 3 18.116710227700004 14.643562537511002 0 0 0 0
1805 3 21.740052273240003 14.643562537511002 0 0 0 0
1811 3 25.363394318780003 14.643562537511002 0 0 0 0
1817 3 28.986736364320002 14.643562537511002 0 0 0 0
1823 3 32.61007840986 14.643562537511002 0 0 0 0
1829 3 36.2334204554 14.643562537511002 0 0 0 0
1835 3 39.85676250094 14.643562537511002 0 0 0 0
1841 3 43.48010454648 14.643562537511002 0 0 0 0
1847 3 47.10344659202 14.643562537511002 0 0 0 0
1685 3 50.72678863756 14.643562537511002 0 -1 0 0
1691 3 54.3501306831 14.643562537511002 0 -1 0 0
1697 3 57.97347272864 14.643562537511002 0 -1 0 0
1703 3 61.59681477418 14.643562537511002 0 -1 0 0
1709 3 65.22015681971999 14.643562537511002 0 -1 0 0
1715 3 68.84349886526 14.643562537511002 0 -1 0 0
1721 3 72.4668409108 14.643562537511002 0 -1 0 0
1727 3 76.09018295634 14.643562537511002 0 -1 0 0
1733 3 79.71352500188 14.643562537511002 0 -1 0 0
1739 3 83.33686704742 14.643562537511002 0 -1 0 0
1745 3 86.96020909296 14.643562537511002 0 -1 0 0
1751 3 90.5835511385 14.643562537511002 0 -1 0 0
1757 3 94.20689318404 14.643562537511002 0 -1 0 0
1763 3 97.83023522958 14.643562537511002 0 -1 0 0
1768 1 1.8116710227699997 15.689531290190004 1.456607619843 0 0 0
1774 1 5.435013068309999 15.689531290190004 1.456607619843 0 0 0
1780 1 9.058355113849998 15.689531290190004 1.456607619843 0 0 0
1786 1 12.681697159390005 15.689531290190004 1.456607619843 0 0 0
1792 1 16.305039204930004 15.689531290190004 1.456607619843 0 0 0
1798 1 19.928381250470004 15.689531290190004 1.456607619843 0 0 0
1804 1 23.551723296010003 15.689531290190004 1.456607619843 0 0 0
1810 1 27.175065341550003 15.689531290190004 1.456607619843 0 0 0
1816 1 30.798407387090002 15.689531290190004 1.456607619843 0 0 0
1822 1 34.42174943263 15.689531290190004 1.456607619843 0 0 0
1828 1 38.04509147817 15.689531290190004 1.456607619843 0 0 0
1834 1 41.66843352371 15.689531290190004 1.456607619843 0 0 0
1840 1 45.29177556925 15.689531290190004 1.456607619843 0 0 0
1846 1 48.91511761479 15.689531290190004 1.456607619843 0 0 0
1684 1 52.53845966033 15.689531290190004 1.456607619843 -1 0 0
1690 1 56.16180170587 15.689531290190004 1.456607619843 -1 0 0
1696 1 59.78514375141 15.689531290190004 1.456607619843 -1 0 0
1702 1 63.408485796949996 15.689531290190004 1.456607619843 -1 0 0
1708 1 67.03182784249 15.689531290190004 1.456607619843 -1 0 0
1714 1 70.65516988803 15.689531290190004 1.456607619843 -1 0 0
1720 1 74.27851193357 15.689531290190004 1.456607619843 -1 0 0
1726 1 77.90185397911 15.689531290190004 1.456607619843 -1 0 0
1732 1 81.52519602465 15.689531290190004 1.456607619843 -1 0 0
1738 1 85.14853807019 15.689531290190004 1.456607619843 -1 0 0
1744 1 88.77188011573 15.689531290190004 1.456607619843 -1 0 0
1750 1 92.39522216127 15.689531290190004 1.456607619843 -1 0 0
1756 1 96.01856420681 15.689531290190004 1.456607619843 -1 0 0
1762 1 99.64190625235 15.689531290190004 1.456607619843 -1 0 0
1770 3 1.8116710227699997 17.781468795549003 0 0 0 0
1935 1 0 18.827437548228005 1.456607619843 0 0 0
1941 1 3.6233420455399994 18.827437548228005 1.456607619843 0 0 0
1776 3 5.435013068309999 17.781468795549003 0 0 0 0
1947 1 7.246684091079999 18.827437548228005 1.456607619843 0 0 0
1782 3 9.058355113849998 17.781468795549003 0 0 0 0
1953 1 10.870026136619998 18.827437548228005 1.456607619843 0 0 0
1788 3 12.681697159390005 17.781468795549003 0 0 0 0
1959 1 14.493368182160005 18.827437548228005 1.456607619843 0 0 0
1794 3 16.305039204930004 17.781468795549003 0 0 0 0
1965 1 18.116710227700004 18.827437548228005 1.456607619843 0 0 0
1800 3 19.928381250470004 17.781468795549003 0 0 0 0
1971 1 21.740052273240003 18.827437548228005 1.456607619843 0 0 0
1806 3 23.551723296010003 17.781468795549003 0 0 0 0
1977 1 25.363394318780003 18.827437548228005 1.456607619843 0 0 0
1812 3 27.175065341550003 17.781468795549003 0 0 0 0
1983 1 28.986736364320002 18.827437548228005 1.456607619843 0 0 0
1818 3 30.798407387090002 17.781468795549003 0 0 0 0
1989 1 32.61007840986 18.827437548228005 1.456607619843 0 0 0
1824 3 34.42174943263 17.781468795549003 0 0 0 0
1995 1 36.2334204554 18.827437548228005 1.456607619843 0 0 0
1830 3 38.04509147817 17.781468795549003 0 0 0 0
2001 1 39.85676250094 18.827437548228005 1.456607619843 0 0 0
1836 3 41.66843352371 17.781468795549003 0 0 0 0
2007 1 43.48010454648 18.827437548228005 1.456607619843 0 0 0
1842 3 45.29177556925 17.781468795549003 0 0 0 0
2013 1 47.10344659202 18.827437548228005 1.456607619843 0 0 0
1848 3 48.91511761479 17.781468795549003 0 0 0 0
1686 3 52.53845966033 17.781468795549003 0 -1 0 0
1851 1 50.72678863756 18.827437548228005 1.456607619843 -1 0 0
1857 1 54.3501306831 18.827437548228005 1.456607619843 -1 0 0
1692 3 56.16180170587 17.781468795549003 0 -1 0 0
1863 1 57.97347272864 18.827437548228005 1.456607619843 -1 0 0
1698 3 59.78514375141 17.781468795549003 0 -1 0 0
1869 1 61.59681477418 18.827437548228005 1.456607619843 -1 0 0
1704 3 63.408485796949996 17.781468795549003 0 -1 0 0
1875 1 65.22015681971999 18.827437548228005 1.456607619843 -1 0 0
1710 3 67.03182784249 17.781468795549003 0 -1 0 0
1881 1 68.84349886526 18.827437548228005 1.456607619843 -1 0 0
1716 3 70.65516988803 17.781468795549003 0 -1 0 0
1887 1 72.4668409108 18.827437548228005 1.456607619843 -1 0 0
1722 3 74.27851193357 17.781468795549003 0 -1 0 0
1893 1 76.09018295634 18.827437548228005 1.456607619843 -1 0 0
1728 3 77.90185397911 17.781468795549003 0 -1 0 0
1899 1 79.71352500188 18.827437548228005 1.456607619843 -1 0 0
1734 3 81.52519602465 17.781468795549003 0 -1 0 0
1905 1 83.33686704742 18.827437548228005 1.456607619843 -1 0 0
1740 3 85.14853807019 17.781468795549003 0 -1 0 0
1911 1 86.96020909296 18.827437548228005 1.456607619843 -1 0 0
1746 3 88.77188011573 17.781468795549003 0 -1 0 0
1917 1 90.5835511385 18.827437548228005 1.456607619843 -1 0 0
1752 3 92.39522216127 17.781468795549003 0 -1 0 0
1923 1 94.20689318404 18.827437548228005 1.456607619843 -1 0 0
1758 3 96.01856420681 17.781468795549003 0 -1 0 0
1929 1 97.83023522958 18.827437548228005 1.456607619843 -1 0 0
1764 3 99.64190625235 17.781468795549003 0 -1 0 0
1937 3 0 20.919375053587004 0 0 0 0
1936 1 1.8116710227699997 21.965343806266006 1.456607619843 0 0 0
1943 3 3.6233420455399994 20.919375053587004 0 0 0 0
1942 1 5.435013068309999 21.965343806266006 1.456607619843 0 0 0
1949 3 7.246684091079999 20.919375053587004 0 0 0 0
1948 1 9.058355113849998 21.965343806266006 1.456607619843 0 0 0
1955 3 10.870026136619998 20.919375053587004 0 0 0 0
1954 1 12.681697159390005 21.965343806266006 1.456607619843 0 0 0
1961 3 14.493368182160005 20.919375053587004 0 0 0 0
1960 1 16.305039204930004 21.965343806266006 1.456607619843 0 0 0
1967 3 18.116710227700004 20.919375053587004 0 0 0 0
1966 1 19.928381250470004 21.965343806266006 1.456607619843 0 0 0
1973 3 21.740052273240003 20.919375053587004 0 0 0 0
1972 1 23.551723296010003 21.965343806266006 1.456607619843 0 0 0
1979 3 25.363394318780003 20.919375053587004 0 0 0 0
1978 1 27.175065341550003 21.965343806266006 1.456607619843 0 0 0
1985 3 28.986736364320002 20.919375053587004 0 0 0 0
1984 1 30.798407387090002 21.965343806266006 1.456607619843 0 0 0
1991 3 32.61007840986 20.919375053587004 0 0 0 0
1990 1 34.42174943263 21.965343806266006 1.456607619843 0 0 0
1997 3 36.2334204554 20.919375053587004 0 0 0 0
1996 1 38.04509147817 21.965343806266006 1.456607619843 0 0 0
2003 3 39.85676250094 20.919375053587004 0 0 0 0
2002 1 41.66843352371 21.965343806266006 1.456607619843 0 0 0
2009 3 43.48010454648 20.919375053587004 0 0 0 0
2008 1 45.29177556925 21.965343806266006 1.456607619843 0 0 0
2015 3 47.10344659202 20.919375053587004 0 0 0 0
2014 1 48.91511761479 21.965343806266006 1.456607619843 0 0 0
1853 3 50.72678863756 20.919375053587004 0 -1 0 0
1852 1 52.53845966033 21.965343806266006 1.456607619843 -1 0 0
1859 3 54.3501306831 20.919375053587004 0 -1 0 0
1858 1 56.16180170587 21.965343806266006 1.456607619843 -1 0 0
1865 3 57.97347272864 20.919375053587004 0 -1 0 0
1864 1 59.78514375141 21.965343806266006 1.456607619843 -1 0 0
1871 3 61.59681477418 20.919375053587004 0 -1 0 0
1870 1 63.408485796949996 21.965343806266006 1.456607619843 -1 0 0
1877 3 65.22015681971999 20.919375053587004 0 -1 0 0
1876 1 67.03182784249 21.965343806266006 1.456607619843 -1 0 0
1883 3 68.84349886526 20.919375053587004 0 -1 0 0
1882 1 70.65516988803 21.965343806266006 1.456607619843 -1 0 0
1889 3 72.4668409108 20.919375053587004 0 -1 0 0
1888 1 74.27851193357 21.965343806266006 1.456607619843 -1 0 0
1895 3 76.09018295634 20.919375053587004 0 -1 0 0
1894 1 77.90185397911 21.965343806266006 1.456607619843 -1 0 0
1901 3 79.71352500188 20.919375053587004 0 -1 0 0
1900 1 81.52519602465 21.965343806266006 1.456607619843 -1 0 0
1907 3 83.33686704742 20.919375053587004 0 -1 0 0
1906 1 85.14853807019 21.965343806266006 1.456607619843 -1 0 0
1913 3 86.96020909296 20.919375053587004 0 -1 0 0
1912 1 88.77188011573 21.965343806266006 1.456607619843 -1 0 0
1919 3 90.5835511385 20.919375053587004 0 -1 0 0
1918 1 92.39522216127 21.965343806266006 1.456607619843 -1 0 0
1925 3 94.20689318404 20.919375053587004 0 -1 0 0
1924 1 96.01856420681 21.965343806266006 1.456607619843 -1 0 0
1931 3 97.83023522958 20.919375053587004 0 -1 0 0
1930 1 99.64190625235 21.965343806266006 1.456607619843 -1 0 0
1938 3 1.8116710227699997 24.057281311625005 0 0 0 0
1944 3 5.435013068309999 24.057281311625005 0 0 0 0
1950 3 9.058355113849998 24.057281311625005 0 0 0 0
1956 3 12.681697159390005 24.057281311625005 0 0 0 0
1962 3 16.305039204930004 24.057281311625005 0 0 0 0
1968 3 19.928381250470004 24.057281311625005 0 0 0 0
1974 3 23.551723296010003 24.057281311625005 0 0 0 0
1980 3 27.175065341550003 24.057281311625005 0 0 0 0
1986 3 30.798407387090002 24.057281311625005 0 0 0 0
1992 3 34.42174943263 24.057281311625005 0 0 0 0
1998 3 38.04509147817 24.057281311625005 0 0 0 0
2004 3 41.66843352371 24.057281311625005 0 0 0 0
2010 3 45.29177556925 24.057281311625005 0 0 0 0
2016 3 48.91511761479 24.057281311625005 0 0 0 0
1854 3 52.53845966033 24.057281311625005 0 -1 0 0
1860 3 56.16180170587 24.057281311625005 0 -1 0 0
1866 3 59.78514375141 24.057281311625005 0 -1 0 0
1872 3 63.408485796949996 24.057281311625005 0 -1 0 0
1878 3 67.03182784249 24.057281311625005 0 -1 0 0
1884 3 70.65516988803 24.057281311625005 0 -1 0 0
1890 3 74.27851193357 24.057281311625005 0 -1 0 0
1896 3 77.90185397911 24.057281311625005 0 -1 0 0
1902 3 81.52519602465 24.057281311625005 0 -1 0 0
1908 3 85.14853807019 24.057281311625005 0 -1 0 0
1914 3 88.77188011573 24.057281311625005 0 -1 0 0
1920 3 92.39522216127 24.057281311625005 0 -1 0 0
1926 3 96.01856420681 24.057281311625005 0 -1 0 0
1932 3 99.64190625235 24.057281311625005 0 -1 0 0
2103 1 0 25.103250064304007 1.456607619843 0 0 0
2109 1 3.6233420455399994 25.103250064304007 1.456607619843 0 0 0
2115 1 7.246684091079999 25.103250064304007 1.456607619843 0 0 0
2121 1 10.870026136619998 25.103250064304007 1.456607619843 0 0 0
2127 1 14.493368182160005 25.103250064304007 1.456607619843 0 0 0
2133 1 18.116710227700004 25.103250064304007 1.456607619843 0 0 0
2139 1 21.740052273240003 25.103250064304007 1.456607619843 0 0 0
2145 1 25.363394318780003 25.103250064304007 1.456607619843 0 0 0
2151 1 28.986736364320002 25.103250064304007 1.456607619843 0 0 0
2157 1 32.61007840986 25.103250064304007 1.456607619843 0 0 0
2163 1 36.2334204554 25.103250064304007 1.456607619843 0 0 0
2169 1 39.85676250094 25.103250064304007 1.456607619843 0 0 0
2175 1 43.48010454648 25.103250064304007 1.456607619843 0 0 0
2181 1 47.10344659202 25.103250064304007 1.456607619843 0 0 0
2019 1 50.72678863756 25.103250064304007 1.456607619843 -1 0 0
2025 1 54.3501306831 25.103250064304007 1.456607619843 -1 0 0
2031 1 57.97347272864 25.103250064304007 1.456607619843 -1 0 0
2037 1 61.59681477418 25.103250064304007 1.456607619843 -1 0 0
2043 1 65.22015681971999 25.103250064304007 1.456607619843 -1 0 0
2049 1 68.84349886526 25.103250064304007 1.456607619843 -1 0 0
2055 1 72.4668409108 25.103250064304007 1.456607619843 -1 0 0
2061 1 76.09018295634 25.103250064304007 1.456607619843 -1 0 0
2067 1 79.71352500188 25.103250064304007 1.456607619843 -1 0 0
2073 1 83.33686704742 25.103250064304007 1.456607619843 -1 0 0
2079 1 86.96020909296 25.103250064304007 1.456607619843 -1 0 0
2085 1 90.5835511385 25.103250064304007 1.456607619843 -1 0 0
2091 1 94.20689318404 25.103250064304007 1.456607619843 -1 0 0
2097 1 97.83023522958 25.103250064304007 1.456607619843 -1 0 0
2105 3 0 27.195187569663005 0 0 0 0
2104 1 1.8116710227699997 28.241156322342007 1.456607619843 0 0 0
2111 3 3.6233420455399994 27.195187569663005 0 0 0 0
2110 1 5.435013068309999 28.241156322342007 1.456607619843 0 0 0
2117 3 7.246684091079999 27.195187569663005 0 0 0 0
2116 1 9.058355113849998 28.241156322342007 1.456607619843 0 0 0
2123 3 10.870026136619998 27.195187569663005 0 0 0 0
2122 1 12.681697159390005 28.241156322342007 1.456607619843 0 0 0
2129 3 14.493368182160005 27.195187569663005 0 0 0 0
2128 1 16.305039204930004 28.241156322342007 1.456607619843 0 0 0
2135 3 18.116710227700004 27.195187569663005 0 0 0 0
2134 1 19.928381250470004 28.241156322342007 1.456607619843 0 0 0
2141 3 21.740052273240003 27.195187569663005 0 0 0 0
2140 1 23.551723296010003 28.241156322342007 1.456607619843 0 0 0
2147 3 25.363394318780003 27.195187569663005 0 0 0 0
2146 1 27.175065341550003 28.241156322342007 1.456607619843 0 0 0
2153 3 28.986736364320002 27.195187569663005 0 0 0 0
2152 1 30.798407387090002 28.241156322342007 1.456607619843 0 0 0
2159 3 32.61007840986 27.195187569663005 0 0 0 0
2158 1 34.42174943263 28.241156322342007 1.456607619843 0 0 0
2165 3 36.2334204554 27.195187569663005 0 0 0 0
2164 1 38.04509147817 28.241156322342007 1.456607619843 0 0 0
2171 3 39.85676250094 27.195187569663005 0 0 0 0
2170 1 41.66843352371 28.241156322342007 1.456607619843 0 0 0
2177 3 43.48010454648 27.195187569663005 0 0 0 0
2176 1 45.29177556925 28.241156322342007 1.456607619843 0 0 0
2183 3 47.10344659202 27.195187569663005 0 0 0 0
2182 1 48.91511761479 28.241156322342007 1.456607619843 0 0 0
2021 3 50.72678863756 27.195187569663005 0 -1 0 0
2020 1 52.53845966033 28.241156322342007 1.456607619843 -1 0 0
2027 3 54.3501306831 27.195187569663005 0 -1 0 0
2026 1 56.16180170587 28.241156322342007 1.456607619843 -1 0 0
2033 3 57.97347272864 27.195187569663005 0 -1 0 0
2032 1 59.78514375141 28.241156322342007 1.456607619843 -1 0 0
2039 3 61.59681477418 27.195187569663005 0 -1 0 0
2038 1 63.408485796949996 28.241156322342007 1.456607619843 -1 0 0
2045 3 65.22015681971999 27.195187569663005 0 -1 0 0
2044 1 67.03182784249 28.241156322342007 1.456607619843 -1 0 0
2051 3 68.84349886526 27.195187569663005 0 -1 0 0
2050 1 70.65516988803 28.241156322342007 1.456607619843 -1 0 0
2057 3 72.4668409108 27.195187569663005 0 -1 0 0
2056 1 74.27851193357 28.241156322342007 1.456607619843 -1 0 0
2063 3 76.09018295634 27.195187569663005 0 -1 0 0
2062 1 77.90185397911 28.241156322342007 1.456607619843 -1 0 0
2069 3 79.71352500188 27.195187569663005 0 -1 0 0
2068 1 81.52519602465 28.241156322342007 1.456607619843 -1 0 0
2075 3 83.33686704742 27.195187569663005 0 -1 0 0
2074 1 85.14853807019 28.241156322342007 1.456607619843 -1 0 0
2081 3 86.96020909296 27.195187569663005 0 -1 0 0
2080 1 88.77188011573 28.241156322342007 1.456607619843 -1 0 0
2087 3 90.5835511385 27.195187569663005 0 -1 0 0
2086 1 92.39522216127 28.241156322342007 1.456607619843 -1 0 0
2093 3 94.20689318404 27.195187569663005 0 -1 0 0
2092 1 96.01856420681 28.241156322342007 1.456607619843 -1 0 0
2099 3 97.83023522958 27.195187569663005 0 -1 0 0
2098 1 99.64190625235 28.241156322342007 1.456607619843 -1 0 0
2106 3 1.8116710227699997 30.333093827701006 0 0 0 0