LAMMPS data file via write_data, version 29 Aug 2024, timestep = 2, units = metal

6912 atoms
24 atom types

0 101.950270389152 xlo xhi
0 99.327964589676 ylo yhi
-50 50 zlo zhi

Masses

1 183.84
2 183.84
3 183.84
4 183.84
5 183.84
6 183.84
7 183.84
8 183.84
9 32.06
10 32.06
11 32.06
12 32.06
13 32.06
14 32.06
15 32.06
16 32.06
17 32.06
18 32.06
19 32.06
20 32.06
21 32.06
22 32.06
23 32.06
24 32.06

Atoms # atomic

1827 10 1.5929729748307673 0.9197033758301316 0.010900087503280571 0 0 0
1833 14 4.778918924491769 0.9197033758301321 0.010900087503280491 0 0 0
1828 2 1.592972974830437 2.7591101274907324 1.5719260315546535 0 0 0
1834 4 4.778918924491437 2.759110127490732 1.5719260315546533 0 0 0
1836 16 3.1859459496609017 3.6788135033211344 0.010900087503280531 0 0 0
2017 1 2.396329519161475e-13 5.518220254981732 1.571926031554653 0 0 0
2023 3 3.1859459496612397 5.518220254981734 1.5719260315546533 0 0 0
1839 10 7.964864874152767 0.9197033758301321 0.010900087503280358 0 0 0
1845 14 11.150810823813769 0.9197033758301316 0.010900087503280677 0 0 0
1840 2 7.964864874152435 2.759110127490732 1.5719260315546535 0 0 0
1846 4 11.150810823813437 2.7591101274907324 1.5719260315546535 0 0 0
1842 12 6.3718918993219 3.6788135033211344 0.010900087503280625 0 0 0
1848 16 9.557837848982897 3.678813503321134 0.010900087503280738 0 0 0
2029 1 6.371891899322239 5.518220254981733 1.5719260315546533 0 0 0
2035 3 9.557837848983239 5.518220254981734 1.5719260315546533 0 0 0
1851 10 14.33675677347477 0.9197033758301317 0.010900087503280722 0 0 0
1852 2 14.33675677347444 2.7591101274907324 1.5719260315546535 0 0 0
1854 12 12.743783798643902 3.678813503321134 0.010900087503280757 0 0 0
1860 16 15.929729748304904 3.6788135033211344 0.010900087503280092 0 0 0
2041 1 12.743783798644241 5.518220254981733 1.5719260315546533 0 0 0
2047 3 15.929729748305242 5.518220254981733 1.5719260315546533 0 0 0
1857 14 17.52270272313577 0.9197033758301323 0.010900087503280361 0 0 0
1863 10 20.708648672796762 0.9197033758301317 0.01090008750328033 0 0 0
1858 4 17.52270272313544 2.759110127490731 1.5719260315546535 0 0 0
1864 2 20.708648672796436 2.7591101274907324 1.5719260315546535 0 0 0
1866 12 19.115675697965898 3.678813503321134 0.010900087503280692 0 0 0
1872 16 22.3016216476269 3.678813503321134 0.010900087503280668 0 0 0
2053 1 19.11567569796624 5.518220254981732 1.5719260315546535 0 0 0
2059 3 22.301621647627236 5.518220254981734 1.5719260315546535 0 0 0
1869 14 23.894594622457767 0.9197033758301318 0.010900087503280668 0 0 0
1875 10 27.080540572118768 0.9197033758301323 0.010900087503280337 0 0 0
1870 4 23.894594622457436 2.7591101274907324 1.5719260315546535 0 0 0
1876 2 27.080540572118434 2.7591101274907315 1.5719260315546535 0 0 0
1878 12 25.4875675972879 3.6788135033211344 0.010900087503280212 0 0 0
2065 1 25.48756759728824 5.518220254981733 1.5719260315546535 0 0 0
1881 14 30.266486521779765 0.9197033758301317 0.010900087503280281 0 0 0
1887 10 33.452432471440765 0.9197033758301318 0.010900087503280727 0 0 0
1882 4 30.266486521779434 2.7591101274907324 1.5719260315546535 0 0 0
1888 2 33.45243247144044 2.7591101274907324 1.5719260315546533 0 0 0
1884 16 28.673513546948897 3.678813503321134 0.010900087503280666 0 0 0
1890 12 31.8594594966099 3.678813503321134 0.01090008750328088 0 0 0
2071 3 28.673513546949238 5.518220254981732 1.5719260315546535 0 0 0
2077 1 31.859459496610235 5.518220254981734 1.5719260315546535 0 0 0
1893 14 36.63837842110177 0.9197033758301317 0.010900087503280744 0 0 0
1894 4 36.638378421101436 2.759110127490733 1.5719260315546533 0 0 0
1896 16 35.0454054462709 3.678813503321135 0.010900087503279967 0 0 0
1902 12 38.2313513959319 3.678813503321134 0.01090008750328088 0 0 0
2083 3 35.04540544627124 5.518220254981733 1.5719260315546535 0 0 0
2089 1 38.23135139593224 5.518220254981734 1.5719260315546535 0 0 0
1899 10 39.824324370762774 0.9197033758301323 0.010900087503280136 0 0 0
1905 14 43.01027032042377 0.9197033758301318 0.010900087503280436 0 0 0
1900 2 39.82432437076244 2.759110127490731 1.5719260315546535 0 0 0
1906 4 43.01027032042344 2.759110127490732 1.5719260315546535 0 0 0
1908 16 41.4172973455929 3.678813503321134 0.010900087503280653 0 0 0
1914 12 44.6032432952539 3.678813503321134 0.010900087503280724 0 0 0
2095 3 41.41729734559324 5.518220254981733 1.5719260315546533 0 0 0
2101 1 44.60324329525424 5.518220254981734 1.5719260315546535 0 0 0
1911 10 46.19621627008477 0.9197033758301317 0.010900087503280732 0 0 0
1917 14 49.38216221974577 0.9197033758301323 0.010900087503280495 0 0 0
1912 2 46.19621627008444 2.759110127490733 1.5719260315546535 0 0 0
1918 4 49.38216221974544 2.7591101274907315 1.5719260315546535 0 0 0
1920 16 47.7891892449149 3.6788135033211344 0.010900087503280191 0 0 0
2107 3 47.78918924491524 5.518220254981733 1.5719260315546535 0 0 0
1734 12 50.9751351945759 3.678813503321135 0.010900087503280366 -1 0 0
1731 10 52.56810816940676 0.9197033758301321 0.010900087503280463 -1 0 0
1737 14 55.75405411906777 0.9197033758301318 0.01090008750328039 -1 0 0
1732 2 52.56810816940643 2.759110127490732 1.5719260315546528 -1 0 0
1738 4 55.75405411906743 2.759110127490732 1.571926031554654 -1 0 0
1740 16 54.161081144236896 3.678813503321134 0.010900087503280953 -1 0 0
1921 1 50.97513519457624 5.518220254981732 1.5719260315546535 -1 0 0
1927 3 54.16108114423724 5.518220254981734 1.5719260315546533 -1 0 0
1743 10 58.940000068728764 0.9197033758301318 0.010900087503280769 -1 0 0
1749 14 62.12594601838977 0.9197033758301318 0.010900087503280493 -1 0 0
1744 2 58.94000006872843 2.759110127490732 1.5719260315546533 -1 0 0
1750 4 62.125946018389435 2.7591101274907324 1.5719260315546533 -1 0 0
1746 12 57.34702709389789 3.6788135033211344 0.010900087503280366 -1 0 0
1752 16 60.5329730435589 3.678813503321134 0.01090008750328086 -1 0 0
1933 1 57.347027093898234 5.518220254981733 1.5719260315546535 -1 0 0
1939 3 60.53297304355924 5.518220254981734 1.5719260315546533 -1 0 0
1755 10 65.31189196805076 0.9197033758301317 0.010900087503280595 -1 0 0
1756 2 65.31189196805043 2.7591101274907324 1.5719260315546535 -1 0 0
1758 12 63.718918993219894 3.678813503321135 0.010900087503279894 -1 0 0
1764 16 66.9048649428809 3.678813503321134 0.010900087503281185 -1 0 0
1945 1 63.718918993220235 5.518220254981733 1.5719260315546533 -1 0 0
1951 3 66.90486494288123 5.518220254981732 1.5719260315546535 -1 0 0
1761 14 68.49783791771176 0.9197033758301322 0.010900087503280661 -1 0 0
1767 10 71.68378386737275 0.9197033758301317 0.010900087503280599 -1 0 0
1762 4 68.49783791771144 2.759110127490731 1.5719260315546533 -1 0 0
1768 2 71.68378386737243 2.7591101274907324 1.5719260315546533 -1 0 0
1770 12 70.0908108925419 3.6788135033211344 0.010900087503280172 -1 0 0
1776 16 73.2767568422029 3.678813503321134 0.010900087503281065 -1 0 0
1957 1 70.09081089254224 5.518220254981733 1.5719260315546535 -1 0 0
1963 3 73.27675684220324 5.518220254981734 1.5719260315546535 -1 0 0
1773 14 74.86972981703376 0.9197033758301328 0.010900087503279676 -1 0 0
1779 10 78.05567576669476 0.9197033758301315 0.010900087503281038 -1 0 0
1774 4 74.86972981703343 2.7591101274907306 1.5719260315546535 -1 0 0
1780 2 78.05567576669443 2.759110127490733 1.5719260315546535 -1 0 0
1782 12 76.46270279186389 3.678813503321134 0.01090008750328063 -1 0 0
1969 1 76.46270279186423 5.518220254981734 1.5719260315546533 -1 0 0
1785 14 81.24162171635575 0.9197033758301315 0.010900087503280878 -1 0 0
1791 10 84.42756766601676 0.9197033758301321 0.010900087503279952 -1 0 0
1786 4 81.24162171635543 2.759110127490733 1.5719260315546535 -1 0 0
1792 2 84.42756766601643 2.7591101274907324 1.5719260315546535 -1 0 0
1788 16 79.6486487415249 3.678813503321135 0.010900087503279835 -1 0 0
1794 12 82.8345946911859 3.6788135033211344 0.010900087503280172 -1 0 0
1975 3 79.64864874152524 5.518220254981731 1.5719260315546533 -1 0 0
1981 1 82.83459469118624 5.518220254981733 1.5719260315546533 -1 0 0
1797 14 87.61351361567776 0.9197033758301314 0.010900087503280972 -1 0 0
1798 4 87.61351361567743 2.7591101274907324 1.5719260315546533 -1 0 0
1800 16 86.0205406408469 3.678813503321134 0.010900087503280514 -1 0 0
1806 12 89.20648659050791 3.678813503321134 0.010900087503281133 -1 0 0
1987 3 86.02054064084723 5.518220254981733 1.5719260315546535 -1 0 0
1993 1 89.20648659050823 5.518220254981733 1.5719260315546535 -1 0 0
1803 10 90.79945956533876 0.9197033758301323 0.01090008750328055 -1 0 0
1809 14 93.98540551499975 0.9197033758301317 0.010900087503280602 -1 0 0
1804 2 90.79945956533844 2.759110127490731 1.5719260315546535 -1 0 0
1810 4 93.98540551499943 2.7591101274907324 1.5719260315546533 -1 0 0
1812 16 92.3924325401689 3.6788135033211344 0.010900087503280184 -1 0 0
1818 12 95.5783784898299 3.678813503321134 0.010900087503281064 -1 0 0
1999 3 92.39243254016924 5.518220254981733 1.5719260315546535 -1 0 0
2005 1 95.57837848983024 5.518220254981734 1.5719260315546535 -1 0 0
1830 12 101.9502703891519 3.678813503321135 0.010900087503279851 -1 0 0
1815 10 97.17135146466076 0.9197033758301328 0.010900087503279674 -1 0 0
1821 14 100.35729741432176 0.9197033758301315 0.010900087503280953 -1 0 0
1816 2 97.17135146466043 2.7591101274907306 1.5719260315546535 -1 0 0
1822 4 100.35729741432144 2.759110127490733 1.5719260315546537 -1 0 0
1824 16 98.76432443949089 3.678813503321134 0.01090008750328063 -1 0 0
2011 3 98.76432443949123 5.518220254981734 1.5719260315546533 -1 0 0
2019 10 1.5929729748307673 6.437923630812134 0.010900087503280672 0 0 0
2025 14 4.778918924491769 6.437923630812134 0.010900087503280474 0 0 0
2020 2 1.592972974830437 8.277330382472734 1.5719260315546535 0 0 0
2026 4 4.778918924491437 8.277330382472732 1.5719260315546535 0 0 0
2028 16 3.1859459496609017 9.197033758303133 0.010900087503280625 0 0 0
2209 1 2.3967095901324614e-13 11.036440509963732 1.571926031554653 0 0 0
2215 3 3.1859459496612397 11.036440509963732 1.5719260315546535 0 0 0
2031 10 7.964864874152767 6.437923630812134 0.010900087503280441 0 0 0
2037 14 11.150810823813769 6.437923630812134 0.010900087503280722 0 0 0
2032 2 7.964864874152435 8.277330382472732 1.5719260315546535 0 0 0
2038 4 11.150810823813437 8.277330382472734 1.5719260315546535 0 0 0
2034 12 6.3718918993219 9.197033758303133 0.01090008750328081 0 0 0
2040 16 9.557837848982897 9.197033758303133 0.010900087503280743 0 0 0
2221 1 6.371891899322239 11.036440509963732 1.5719260315546535 0 0 0
2227 3 9.557837848983239 11.036440509963732 1.5719260315546535 0 0 0
2043 10 14.33675677347477 6.437923630812134 0.010900087503280788 0 0 0
2044 2 14.33675677347444 8.277330382472734 1.5719260315546533 0 0 0
2046 12 12.743783798643902 9.197033758303133 0.010900087503280963 0 0 0
2052 16 15.929729748304904 9.197033758303133 0.010900087503280255 0 0 0
2233 1 12.743783798644241 11.036440509963732 1.5719260315546533 0 0 0
2239 3 15.929729748305242 11.036440509963732 1.5719260315546535 0 0 0
2049 14 17.52270272313577 6.437923630812135 0.01090008750328051 0 0 0
2055 10 20.708648672796762 6.437923630812134 0.010900087503280434 0 0 0
2050 4 17.52270272313544 8.277330382472732 1.5719260315546533 0 0 0
2056 2 20.708648672796436 8.277330382472734 1.5719260315546533 0 0 0
2058 12 19.115675697965898 9.197033758303133 0.010900087503280937 0 0 0
2064 16 22.3016216476269 9.197033758303133 0.010900087503280791 0 0 0
2245 1 19.11567569796624 11.036440509963732 1.5719260315546535 0 0 0
2251 3 22.301621647627236 11.036440509963732 1.5719260315546537 0 0 0
2061 14 23.894594622457767 6.437923630812134 0.010900087503280849 0 0 0
2067 10 27.080540572118768 6.437923630812135 0.010900087503280403 0 0 0
2062 4 23.894594622457436 8.277330382472734 1.5719260315546533 0 0 0
2068 2 27.080540572118434 8.277330382472732 1.5719260315546535 0 0 0
2070 12 25.4875675972879 9.197033758303133 0.010900087503280365 0 0 0
2257 1 25.48756759728824 11.036440509963732 1.5719260315546537 0 0 0
2073 14 30.266486521779765 6.437923630812134 0.010900087503280385 0 0 0
2079 10 33.452432471440765 6.437923630812134 0.010900087503280826 0 0 0
2074 4 30.266486521779434 8.277330382472734 1.5719260315546533 0 0 0
2080 2 33.45243247144044 8.277330382472734 1.5719260315546533 0 0 0
2076 16 28.673513546948897 9.197033758303133 0.010900087503280824 0 0 0
2082 12 31.8594594966099 9.197033758303133 0.010900087503280935 0 0 0
2263 3 28.673513546949238 11.036440509963732 1.5719260315546535 0 0 0
2269 1 31.859459496610235 11.036440509963732 1.5719260315546537 0 0 0
2085 14 36.63837842110177 6.437923630812134 0.010900087503280883 0 0 0
2086 4 36.638378421101436 8.277330382472734 1.5719260315546535 0 0 0
2088 16 35.0454054462709 9.197033758303135 0.010900087503280087 0 0 0
2094 12 38.2313513959319 9.197033758303133 0.010900087503281159 0 0 0
2275 3 35.04540544627124 11.036440509963732 1.5719260315546537 0 0 0
2281 1 38.23135139593224 11.036440509963734 1.5719260315546535 0 0 0
2091 10 39.824324370762774 6.437923630812135 0.01090008750328029 0 0 0
2097 14 43.01027032042377 6.437923630812134 0.01090008750328054 0 0 0
2092 2 39.82432437076244 8.277330382472732 1.5719260315546533 0 0 0
2098 4 43.01027032042344 8.277330382472732 1.5719260315546533 0 0 0
2100 16 41.4172973455929 9.197033758303133 0.010900087503280892 0 0 0
2106 12 44.6032432952539 9.197033758303133 0.010900087503280777 0 0 0
2287 3 41.41729734559324 11.036440509963732 1.5719260315546535 0 0 0
2293 1 44.60324329525424 11.036440509963732 1.5719260315546537 0 0 0
2103 10 46.19621627008477 6.437923630812134 0.010900087503280823 0 0 0
2109 14 49.38216221974577 6.437923630812135 0.010900087503280483 0 0 0
2104 2 46.19621627008444 8.277330382472734 1.5719260315546535 0 0 0
2110 4 49.38216221974544 8.277330382472732 1.5719260315546535 0 0 0
2112 16 47.7891892449149 9.197033758303133 0.010900087503280345 0 0 0
2299 3 47.78918924491524 11.036440509963732 1.5719260315546537 0 0 0
1926 12 50.9751351945759 9.197033758303135 0.010900087503280545 -1 0 0
1923 10 52.56810816940676 6.437923630812134 0.010900087503280276 -1 0 0
1929 14 55.75405411906777 6.437923630812134 0.010900087503280528 -1 0 0
1924 2 52.56810816940643 8.277330382472732 1.5719260315546528 -1 0 0
1930 4 55.75405411906743 8.277330382472734 1.571926031554654 -1 0 0
1932 16 54.161081144236896 9.197033758303133 0.01090008750328095 -1 0 0
2113 1 50.97513519457624 11.036440509963732 1.5719260315546535 -1 0 0
2119 3 54.16108114423724 11.036440509963732 1.5719260315546535 -1 0 0
1935 10 58.940000068728764 6.437923630812134 0.010900087503280715 -1 0 0
1941 14 62.12594601838977 6.437923630812134 0.010900087503280463 -1 0 0
1936 2 58.94000006872843 8.277330382472732 1.5719260315546535 -1 0 0
1942 4 62.125946018389435 8.277330382472734 1.5719260315546535 -1 0 0
1938 12 57.34702709389789 9.197033758303133 0.010900087503280647 -1 0 0
1944 16 60.5329730435589 9.197033758303133 0.010900087503281086 -1 0 0
2125 1 57.347027093898234 11.036440509963732 1.5719260315546533 -1 0 0
2131 3 60.53297304355924 11.036440509963732 1.5719260315546533 -1 0 0
1947 10 65.31189196805076 6.437923630812134 0.010900087503280633 -1 0 0
1948 2 65.31189196805043 8.277330382472734 1.5719260315546535 -1 0 0
1950 12 63.718918993219894 9.197033758303135 0.010900087503280033 -1 0 0
1956 16 66.9048649428809 9.197033758303133 0.010900087503281341 -1 0 0
2137 1 63.718918993220235 11.036440509963732 1.5719260315546535 -1 0 0
2143 3 66.90486494288123 11.036440509963732 1.5719260315546535 -1 0 0
1953 14 68.49783791771176 6.437923630812135 0.010900087503280736 -1 0 0
1959 10 71.68378386737275 6.437923630812134 0.010900087503280819 -1 0 0
1954 4 68.49783791771144 8.277330382472732 1.5719260315546535 -1 0 0
1960 2 71.68378386737243 8.277330382472734 1.5719260315546535 -1 0 0
1962 12 70.0908108925419 9.197033758303133 0.01090008750328045 -1 0 0
1968 16 73.2767568422029 9.197033758303133 0.010900087503281183 -1 0 0
2149 1 70.09081089254224 11.036440509963732 1.5719260315546535 -1 0 0
2155 3 73.27675684220324 11.036440509963734 1.5719260315546535 -1 0 0
1965 14 74.86972981703376 6.437923630812135 0.010900087503279787 -1 0 0
1971 10 78.05567576669476 6.437923630812134 0.01090008750328115 -1 0 0
1966 4 74.86972981703343 8.277330382472732 1.5719260315546535 -1 0 0
1972 2 78.05567576669443 8.277330382472734 1.5719260315546535 -1 0 0
1974 12 76.46270279186389 9.197033758303133 0.010900087503280687 -1 0 0
2161 1 76.46270279186423 11.036440509963734 1.5719260315546533 -1 0 0
1977 14 81.24162171635575 6.437923630812134 0.01090008750328095 -1 0 0
1983 10 84.42756766601676 6.437923630812135 0.010900087503279981 -1 0 0
1978 4 81.24162171635543 8.277330382472734 1.5719260315546537 -1 0 0
1984 2 84.42756766601643 8.277330382472734 1.5719260315546535 -1 0 0
1980 16 79.6486487415249 9.197033758303135 0.010900087503280297 -1 0 0
1986 12 82.8345946911859 9.197033758303133 0.010900087503280292 -1 0 0
2167 3 79.64864874152524 11.036440509963732 1.5719260315546533 -1 0 0
2173 1 82.83459469118624 11.036440509963732 1.5719260315546535 -1 0 0
1989 14 87.61351361567776 6.437923630812134 0.010900087503281003 -1 0 0
1990 4 87.61351361567743 8.277330382472734 1.5719260315546535 -1 0 0
1992 16 86.0205406408469 9.197033758303133 0.010900087503280928 -1 0 0
1998 12 89.20648659050791 9.197033758303133 0.010900087503281366 -1 0 0
2179 3 86.02054064084723 11.036440509963734 1.5719260315546533 -1 0 0
2185 1 89.20648659050823 11.036440509963732 1.5719260315546533 -1 0 0
1995 10 90.79945956533876 6.437923630812135 0.010900087503280685 -1 0 0
2001 14 93.98540551499975 6.437923630812134 0.010900087503280823 -1 0 0
1996 2 90.79945956533844 8.277330382472732 1.5719260315546533 -1 0 0
2002 4 93.98540551499943 8.277330382472734 1.5719260315546535 -1 0 0
2004 16 92.3924325401689 9.197033758303133 0.010900087503280448 -1 0 0
2010 12 95.5783784898299 9.197033758303133 0.010900087503281183 -1 0 0
2191 3 92.39243254016924 11.036440509963732 1.5719260315546535 -1 0 0
2197 1 95.57837848983024 11.036440509963734 1.5719260315546535 -1 0 0
2022 12 101.9502703891519 9.197033758303135 0.010900087503280325 -1 0 0
2007 10 97.17135146466076 6.437923630812135 0.010900087503279785 -1 0 0
2013 14 100.35729741432176 6.437923630812134 0.010900087503281064 -1 0 0
2008 2 97.17135146466043 8.277330382472732 1.5719260315546535 -1 0 0
2014 4 100.35729741432144 8.277330382472734 1.5719260315546537 -1 0 0
2016 16 98.76432443949089 9.197033758303133 0.010900087503280687 -1 0 0
2203 3 98.76432443949123 11.036440509963734 1.5719260315546533 -1 0 0
2211 10 1.5929729748307673 11.956143885794134 0.0109000875032808 0 0 0
2217 14 4.778918924491769 11.956143885794132 0.010900087503280559 0 0 0
2212 2 1.592972974830437 13.795550637454733 1.5719260315546533 0 0 0
2218 4 4.778918924491437 13.795550637454731 1.5719260315546535 0 0 0
2220 16 3.1859459496609017 14.715254013285133 0.01090008750328034 0 0 0
2401 1 2.3955147129992334e-13 16.55466076494573 1.571926031554653 0 0 0
2407 3 3.1859459496612397 16.55466076494573 1.5719260315546535 0 0 0
2403 10 1.5929729748307673 17.47436414077613 0.010900087503280777 0 0 0
2409 14 4.778918924491769 17.47436414077613 0.010900087503280542 0 0 0
2223 10 7.964864874152767 11.956143885794132 0.010900087503280427 0 0 0
2229 14 11.150810823813769 11.956143885794134 0.010900087503280755 0 0 0
2224 2 7.964864874152435 13.795550637454731 1.5719260315546535 0 0 0
2230 4 11.150810823813437 13.795550637454733 1.5719260315546533 0 0 0
2226 12 6.3718918993219 14.715254013285133 0.010900087503280618 0 0 0
2232 16 9.5578378489829 14.715254013285133 0.010900087503280587 0 0 0
2413 1 6.371891899322239 16.55466076494573 1.5719260315546535 0 0 0
2419 3 9.557837848983239 16.554660764945734 1.5719260315546535 0 0 0
2415 10 7.964864874152767 17.47436414077613 0.010900087503280424 0 0 0
2421 14 11.150810823813769 17.47436414077613 0.010900087503280635 0 0 0
2235 10 14.33675677347477 11.956143885794134 0.010900087503280729 0 0 0
2236 2 14.33675677347444 13.795550637454733 1.5719260315546533 0 0 0
2238 12 12.743783798643902 14.715254013285133 0.01090008750328067 0 0 0
2244 16 15.929729748304904 14.715254013285133 0.010900087503280186 0 0 0
2425 1 12.743783798644241 16.55466076494573 1.5719260315546533 0 0 0
2431 3 15.929729748305242 16.55466076494573 1.5719260315546535 0 0 0
2427 10 14.33675677347477 17.47436414077613 0.010900087503280583 0 0 0
2241 14 17.52270272313577 11.956143885794134 0.010900087503280406 0 0 0
2247 10 20.708648672796766 11.956143885794134 0.010900087503280607 0 0 0
2242 4 17.52270272313544 13.795550637454731 1.5719260315546535 0 0 0
2248 2 20.708648672796436 13.795550637454733 1.5719260315546535 0 0 0
2250 12 19.115675697965898 14.715254013285133 0.010900087503280776 0 0 0
2256 16 22.3016216476269 14.715254013285133 0.010900087503280542 0 0 0
2437 1 19.11567569796624 16.55466076494573 1.5719260315546535 0 0 0
2443 3 22.301621647627236 16.554660764945734 1.5719260315546535 0 0 0
2433 14 17.52270272313577 17.47436414077613 0.010900087503280092 0 0 0
2439 10 20.708648672796762 17.47436414077613 0.010900087503280465 0 0 0
2253 14 23.894594622457767 11.956143885794134 0.010900087503280843 0 0 0
2259 10 27.080540572118768 11.956143885794134 0.01090008750328038 0 0 0
2254 4 23.894594622457436 13.795550637454733 1.5719260315546535 0 0 0
2260 2 27.080540572118434 13.795550637454731 1.5719260315546535 0 0 0
2262 12 25.4875675972879 14.715254013285133 0.010900087503280313 0 0 0
2449 1 25.48756759728824 16.55466076494573 1.5719260315546535 0 0 0
2445 14 23.894594622457767 17.47436414077613 0.0109000875032807 0 0 0
2451 10 27.080540572118768 17.47436414077613 0.010900087503280068 0 0 0
2265 14 30.266486521779765 11.956143885794134 0.01090008750328056 0 0 0
2271 10 33.452432471440765 11.956143885794134 0.010900087503280812 0 0 0
2266 4 30.266486521779434 13.795550637454733 1.5719260315546535 0 0 0
2272 2 33.45243247144044 13.795550637454733 1.5719260315546535 0 0 0
2268 16 28.673513546948897 14.715254013285133 0.010900087503280751 0 0 0
2274 12 31.8594594966099 14.715254013285133 0.010900087503280755 0 0 0
2455 3 28.673513546949238 16.55466076494573 1.5719260315546535 0 0 0
2461 1 31.859459496610235 16.554660764945734 1.5719260315546535 0 0 0
2457 14 30.266486521779765 17.47436414077613 0.010900087503280418 0 0 0
2463 10 33.452432471440765 17.47436414077613 0.010900087503280725 0 0 0
2277 14 36.63837842110177 11.956143885794134 0.01090008750328075 0 0 0
2278 4 36.638378421101436 13.795550637454733 1.5719260315546533 0 0 0
2280 16 35.0454054462709 14.715254013285135 0.01090008750328016 0 0 0
2286 12 38.2313513959319 14.715254013285133 0.01090008750328087 0 0 0
2467 3 35.04540544627124 16.55466076494573 1.5719260315546535 0 0 0
2473 1 38.23135139593224 16.554660764945734 1.5719260315546535 0 0 0
2469 14 36.63837842110177 17.47436414077613 0.010900087503280746 0 0 0
2283 10 39.824324370762774 11.956143885794134 0.010900087503280108 0 0 0
2289 14 43.01027032042377 11.956143885794134 0.010900087503280656 0 0 0
2284 2 39.82432437076244 13.795550637454731 1.5719260315546535 0 0 0
2290 4 43.01027032042344 13.795550637454731 1.5719260315546535 0 0 0
2292 16 41.4172973455929 14.715254013285133 0.010900087503280743 0 0 0
2298 12 44.6032432952539 14.715254013285133 0.01090008750328059 0 0 0
2479 3 41.41729734559324 16.55466076494573 1.5719260315546535 0 0 0
2485 1 44.60324329525424 16.554660764945734 1.5719260315546535 0 0 0
2475 10 39.824324370762774 17.47436414077613 0.0109000875032799 0 0 0
2481 14 43.01027032042377 17.47436414077613 0.010900087503280512 0 0 0
2295 10 46.19621627008477 11.956143885794132 0.010900087503280847 0 0 0
2301 14 49.38216221974577 11.956143885794134 0.010900087503280548 0 0 0
2296 2 46.19621627008444 13.795550637454733 1.5719260315546535 0 0 0
2302 4 49.38216221974544 13.795550637454731 1.5719260315546535 0 0 0
2304 16 47.7891892449149 14.715254013285133 0.010900087503280356 0 0 0
2491 3 47.78918924491524 16.55466076494573 1.5719260315546535 0 0 0
2487 10 46.19621627008477 17.47436414077613 0.010900087503280703 0 0 0
2493 14 49.38216221974577 17.47436414077613 0.010900087503280281 0 0 0
2118 12 50.9751351945759 14.715254013285133 0.010900087503280262 -1 0 0
2115 10 52.56810816940676 11.956143885794132 0.01090008750328043 -1 0 0
2121 14 55.75405411906777 11.956143885794134 0.010900087503280557 -1 0 0
2116 2 52.56810816940643 13.795550637454731 1.5719260315546535 -1 0 0
2122 4 55.75405411906743 13.795550637454733 1.5719260315546535 -1 0 0
2124 16 54.161081144236896 14.715254013285133 0.010900087503280776 -1 0 0
2305 1 50.97513519457624 16.55466076494573 1.5719260315546535 -1 0 0
2311 3 54.16108114423724 16.554660764945734 1.5719260315546533 -1 0 0
2307 10 52.56810816940676 17.47436414077613 0.010900087503280614 -1 0 0
2313 14 55.75405411906777 17.47436414077613 0.010900087503280345 -1 0 0
2127 10 58.940000068728764 11.956143885794132 0.01090008750328086 -1 0 0
2133 14 62.12594601838977 11.956143885794134 0.01090008750328046 -1 0 0
2128 2 58.94000006872843 13.795550637454731 1.5719260315546535 -1 0 0
2134 4 62.125946018389435 13.795550637454733 1.5719260315546533 -1 0 0
2130 12 57.34702709389789 14.715254013285133 0.010900087503280287 -1 0 0
2136 16 60.5329730435589 14.715254013285133 0.010900087503280876 -1 0 0
2317 1 57.347027093898234 16.55466076494573 1.5719260315546535 -1 0 0
2323 3 60.53297304355924 16.554660764945734 1.5719260315546533 -1 0 0
2319 10 58.940000068728764 17.47436414077613 0.010900087503280838 -1 0 0
2325 14 62.12594601838977 17.47436414077613 0.01090008750328037 -1 0 0
2139 10 65.31189196805076 11.956143885794134 0.010900087503280772 -1 0 0
2140 2 65.31189196805043 13.795550637454733 1.5719260315546535 -1 0 0
2142 12 63.718918993219894 14.715254013285135 0.010900087503280092 -1 0 0
2148 16 66.9048649428809 14.715254013285131 0.010900087503280935 -1 0 0
2329 1 63.718918993220235 16.55466076494573 1.5719260315546533 -1 0 0
2335 3 66.90486494288123 16.55466076494573 1.5719260315546535 -1 0 0
2331 10 65.31189196805076 17.47436414077613 0.01090008750328072 -1 0 0
2145 14 68.49783791771176 11.956143885794134 0.010900087503280705 -1 0 0
2151 10 71.68378386737275 11.956143885794134 0.010900087503280522 -1 0 0
2146 4 68.49783791771144 13.795550637454731 1.5719260315546535 -1 0 0
2152 2 71.68378386737243 13.795550637454733 1.5719260315546535 -1 0 0
2154 12 70.0908108925419 14.715254013285133 0.010900087503280113 -1 0 0
2160 16 73.2767568422029 14.715254013285133 0.010900087503280927 -1 0 0
2341 1 70.09081089254224 16.55466076494573 1.5719260315546535 -1 0 0
2347 3 73.27675684220324 16.554660764945734 1.5719260315546535 -1 0 0
2337 14 68.49783791771176 17.47436414077613 0.010900087503280694 -1 0 0
2343 10 71.68378386737275 17.47436414077613 0.01090008750328058 -1 0 0
2157 14 74.86972981703376 11.956143885794136 0.010900087503279638 -1 0 0
2163 10 78.05567576669476 11.956143885794132 0.010900087503281112 -1 0 0
2158 4 74.86972981703343 13.795550637454731 1.5719260315546533 -1 0 0
2164 2 78.05567576669443 13.795550637454733 1.5719260315546533 -1 0 0
2166 12 76.46270279186389 14.715254013285133 0.010900087503280616 -1 0 0
2353 1 76.46270279186423 16.554660764945734 1.5719260315546535 -1 0 0
2349 14 74.86972981703376 17.47436414077613 0.010900087503279567 -1 0 0
2355 10 78.05567576669476 17.47436414077613 0.010900087503281112 -1 0 0
2169 14 81.24162171635575 11.956143885794132 0.010900087503281064 -1 0 0
2175 10 84.42756766601676 11.956143885794134 0.010900087503280101 -1 0 0
2170 4 81.24162171635543 13.795550637454733 1.5719260315546533 -1 0 0
2176 2 84.42756766601643 13.795550637454733 1.5719260315546533 -1 0 0
2172 16 79.6486487415249 14.715254013285133 0.01090008750327989 -1 0 0
2178 12 82.8345946911859 14.715254013285133 0.010900087503280347 -1 0 0
2359 3 79.64864874152524 16.55466076494573 1.5719260315546533 -1 0 0
2365 1 82.83459469118624 16.554660764945734 1.5719260315546533 -1 0 0
2361 14 81.24162171635575 17.47436414077613 0.010900087503281083 -1 0 0
2367 10 84.42756766601676 17.47436414077613 0.010900087503280058 -1 0 0
2181 14 87.61351361567776 11.956143885794134 0.010900087503280958 -1 0 0
2182 4 87.61351361567743 13.795550637454733 1.5719260315546533 -1 0 0
2184 16 86.0205406408469 14.715254013285131 0.01090008750328052 -1 0 0
2190 12 89.20648659050791 14.715254013285133 0.01090008750328115 -1 0 0
2371 3 86.02054064084723 16.55466076494573 1.5719260315546535 -1 0 0
2377 1 89.20648659050823 16.55466076494573 1.5719260315546533 -1 0 0
2373 14 87.61351361567776 17.47436414077613 0.010900087503281048 -1 0 0
2187 10 90.79945956533876 11.956143885794134 0.010900087503280498 -1 0 0
2193 14 93.98540551499975 11.956143885794134 0.010900087503280522 -1 0 0
2188 2 90.79945956533844 13.795550637454731 1.5719260315546533 -1 0 0
2194 4 93.98540551499943 13.795550637454733 1.5719260315546535 -1 0 0
2196 16 92.3924325401689 14.715254013285133 0.010900087503280125 -1 0 0
2202 12 95.5783784898299 14.715254013285133 0.010900087503280927 -1 0 0
2383 3 92.39243254016924 16.55466076494573 1.5719260315546535 -1 0 0
2389 1 95.57837848983024 16.554660764945734 1.5719260315546535 -1 0 0
2379 10 90.79945956533876 17.47436414077613 0.010900087503280406 -1 0 0
2385 14 93.98540551499975 17.47436414077613 0.01090008750328058 -1 0 0
2214 12 101.9502703891519 14.715254013285133 0.010900087503279896 -1 0 0
2199 10 97.17135146466076 11.956143885794136 0.010900087503279636 -1 0 0
2205 14 100.35729741432176 11.956143885794132 0.01090008750328102 -1 0 0
2200 2 97.17135146466043 13.795550637454731 1.5719260315546533 -1 0 0
2206 4 100.35729741432144 13.795550637454733 1.5719260315546535 -1 0 0
2208 16 98.76432443949089 14.715254013285133 0.010900087503280614 -1 0 0
2395 3 98.76432443949123 16.554660764945734 1.5719260315546535 -1 0 0
2391 10 97.17135146466076 17.47436414077613 0.010900087503279563 -1 0 0
2397 14 100.35729741432176 17.47436414077613 0.010900087503281027 -1 0 0
2404 2 1.592972974830437 19.313770892436732 1.5719260315546533 0 0 0
2412 16 3.1859459496609017 20.23347426826713 0.010900087503280373 0 0 0