LAMMPS data file via write_data, version 29 Aug 2024, timestep = 2, units = metal

10368 atoms
36 atom types

0 101.950270389152 xlo xhi
0 99.327964589676 ylo yhi
-50 50 zlo zhi

Masses

1 183.84
2 183.84
3 183.84
4 183.84
5 183.84
6 183.84
7 183.84
8 183.84
9 183.84
10 183.84
11 183.84
12 183.84
13 32.06
14 32.06
15 32.06
16 32.06
17 32.06
18 32.06
19 32.06
20 32.06
21 32.06
22 32.06
23 32.06
24 32.06
25 32.06
26 32.06
27 32.06
28 32.06
29 32.06
30 32.06
31 32.06
32 32.06
33 32.06
34 32.06
35 32.06
36 32.06

Atoms # atomic

1827 14 1.592972974830766 0.9197033758301312 0.010965933410135886 0 0 0
1833 18 4.778918924491768 0.9197033758301316 0.010965933410135754 0 0 0
1828 2 1.5929729748304373 2.7591101274907333 1.5718606355492564 0 0 0
1834 4 4.778918924491438 2.759110127490733 1.5718606355492564 0 0 0
1836 20 3.185945949660904 3.6788135033211335 0.010965933410135624 0 0 0
2017 1 2.3640650723582405e-13 5.518220254981734 1.571860635549256 0 0 0
2023 3 3.1859459496612366 5.518220254981734 1.5718606355492564 0 0 0
1839 14 7.964864874152766 0.9197033758301316 0.010965933410135785 0 0 0
1845 18 11.150810823813767 0.9197033758301312 0.01096593341013578 0 0 0
1840 2 7.964864874152435 2.759110127490733 1.5718606355492564 0 0 0
1846 4 11.150810823813437 2.7591101274907333 1.5718606355492561 0 0 0
1842 16 6.371891899321902 3.6788135033211335 0.010965933410135624 0 0 0
1848 20 9.557837848982901 3.6788135033211335 0.010965933410135955 0 0 0
2029 1 6.371891899322236 5.518220254981734 1.5718606355492566 0 0 0
2035 3 9.557837848983235 5.518220254981734 1.5718606355492564 0 0 0
1851 14 14.336756773474768 0.9197033758301313 0.010965933410136013 0 0 0
1852 2 14.33675677347444 2.7591101274907337 1.5718606355492561 0 0 0
1854 16 12.743783798643904 3.6788135033211335 0.010965933410135874 0 0 0
1860 20 15.929729748304906 3.678813503321134 0.010965933410135562 0 0 0
2041 1 12.743783798644237 5.518220254981734 1.5718606355492564 0 0 0
2047 3 15.92972974830524 5.518220254981734 1.5718606355492561 0 0 0
1857 18 17.52270272313577 0.9197033758301321 0.010965933410135313 0 0 0
1863 14 20.708648672796766 0.9197033758301311 0.010965933410136037 0 0 0
1858 4 17.52270272313544 2.759110127490732 1.5718606355492564 0 0 0
1864 2 20.708648672796436 2.7591101274907333 1.5718606355492561 0 0 0
1866 16 19.1156756979659 3.678813503321134 0.01096593341013591 0 0 0
1872 20 22.301621647626902 3.6788135033211335 0.010965933410136002 0 0 0
2053 1 19.115675697966235 5.518220254981734 1.5718606355492564 0 0 0
2059 3 22.301621647627236 5.518220254981734 1.5718606355492566 0 0 0
1869 18 23.894594622457767 0.9197033758301314 0.010965933410136079 0 0 0
1875 14 27.080540572118768 0.9197033758301321 0.010965933410135267 0 0 0
1870 4 23.89459462245744 2.7591101274907333 1.5718606355492561 0 0 0
1876 2 27.080540572118437 2.7591101274907324 1.5718606355492564 0 0 0
1878 16 25.487567597287903 3.678813503321134 0.010965933410135431 0 0 0
2065 1 25.487567597288237 5.518220254981734 1.5718606355492561 0 0 0
1881 18 30.266486521779765 0.9197033758301312 0.010965933410135983 0 0 0
1887 14 33.452432471440765 0.9197033758301314 0.010965933410136082 0 0 0
1882 4 30.266486521779434 2.7591101274907333 1.5718606355492561 0 0 0
1888 2 33.45243247144044 2.7591101274907333 1.5718606355492561 0 0 0
1884 20 28.673513546948897 3.678813503321134 0.010965933410135888 0 0 0
1890 16 31.8594594966099 3.6788135033211335 0.010965933410135676 0 0 0
2071 3 28.673513546949234 5.518220254981734 1.5718606355492564 0 0 0
2077 1 31.859459496610235 5.518220254981735 1.5718606355492564 0 0 0
1893 18 36.63837842110177 0.9197033758301313 0.010965933410136072 0 0 0
1894 4 36.638378421101436 2.7591101274907337 1.5718606355492564 0 0 0
1896 20 35.045405446270905 3.678813503321134 0.010965933410135607 0 0 0
1902 16 38.2313513959319 3.6788135033211335 0.010965933410135723 0 0 0
2083 3 35.04540544627124 5.518220254981735 1.5718606355492561 0 0 0
2089 1 38.23135139593224 5.518220254981734 1.5718606355492564 0 0 0
1899 14 39.82432437076277 0.9197033758301317 0.010965933410135482 0 0 0
1905 18 43.010270320423764 0.9197033758301313 0.010965933410135735 0 0 0
1900 2 39.82432437076244 2.7591101274907324 1.5718606355492564 0 0 0
1906 4 43.01027032042344 2.7591101274907333 1.5718606355492561 0 0 0
1908 20 41.4172973455929 3.678813503321134 0.010965933410135738 0 0 0
1914 16 44.603243295253904 3.6788135033211335 0.01096593341013598 0 0 0
2095 3 41.41729734559324 5.518220254981734 1.5718606355492564 0 0 0
2101 1 44.60324329525424 5.518220254981735 1.5718606355492561 0 0 0
1911 14 46.19621627008477 0.9197033758301314 0.010965933410136179 0 0 0
1917 18 49.382162219745766 0.9197033758301318 0.010965933410135645 0 0 0
1912 2 46.19621627008444 2.7591101274907333 1.5718606355492561 0 0 0
1918 4 49.38216221974544 2.759110127490732 1.5718606355492564 0 0 0
1920 20 47.7891892449149 3.678813503321134 0.010965933410135712 0 0 0
2107 3 47.78918924491524 5.518220254981734 1.5718606355492564 0 0 0
1734 16 50.9751351945759 3.6788135033211335 0.010965933410135761 -1 0 0
1731 14 52.56810816940676 0.9197033758301314 0.010965933410135527 -1 0 0
1737 18 55.75405411906776 0.9197033758301314 0.010965933410135742 -1 0 0
1732 2 52.568108169406436 2.759110127490733 1.5718606355492564 -1 0 0
1738 4 55.75405411906743 2.759110127490733 1.5718606355492561 -1 0 0
1740 20 54.1610811442369 3.6788135033211335 0.010965933410136214 -1 0 0
1921 1 50.97513519457623 5.518220254981734 1.5718606355492561 -1 0 0
1927 3 54.16108114423724 5.518220254981734 1.5718606355492561 -1 0 0
1743 14 58.940000068728764 0.9197033758301315 0.010965933410135397 -1 0 0
1749 18 62.12594601838976 0.9197033758301312 0.01096593341013626 -1 0 0
1744 2 58.94000006872844 2.7591101274907333 1.5718606355492564 -1 0 0
1750 4 62.125946018389435 2.7591101274907333 1.5718606355492561 -1 0 0
1746 16 57.3470270938979 3.6788135033211335 0.010965933410135527 -1 0 0
1752 20 60.5329730435589 3.678813503321134 0.010965933410135704 -1 0 0
1933 1 57.347027093898234 5.518220254981734 1.5718606355492561 -1 0 0
1939 3 60.53297304355923 5.518220254981734 1.5718606355492564 -1 0 0
1755 14 65.31189196805076 0.9197033758301314 0.010965933410135777 -1 0 0
1756 2 65.31189196805043 2.7591101274907333 1.5718606355492564 -1 0 0
1758 16 63.7189189932199 3.678813503321134 0.01096593341013576 -1 0 0
1764 20 66.9048649428809 3.6788135033211335 0.010965933410136144 -1 0 0
1945 1 63.718918993220235 5.518220254981734 1.5718606355492564 -1 0 0
1951 3 66.90486494288123 5.518220254981735 1.5718606355492564 -1 0 0
1761 18 68.49783791771176 0.9197033758301316 0.010965933410135962 -1 0 0
1767 14 71.68378386737275 0.9197033758301317 0.010965933410135215 -1 0 0
1762 4 68.49783791771144 2.759110127490732 1.5718606355492564 -1 0 0
1768 2 71.68378386737243 2.759110127490733 1.5718606355492564 -1 0 0
1770 16 70.0908108925419 3.678813503321134 0.010965933410135445 -1 0 0
1776 20 73.2767568422029 3.678813503321133 0.010965933410136174 -1 0 0
1957 1 70.09081089254224 5.518220254981733 1.5718606355492564 -1 0 0
1963 3 73.27675684220323 5.518220254981735 1.5718606355492564 -1 0 0
1773 18 74.86972981703376 0.9197033758301318 0.010965933410135626 -1 0 0
1779 14 78.05567576669476 0.919703375830131 0.010965933410136245 -1 0 0
1774 4 74.86972981703343 2.7591101274907324 1.5718606355492564 -1 0 0
1780 2 78.05567576669442 2.7591101274907337 1.5718606355492561 -1 0 0
1782 16 76.46270279186389 3.6788135033211344 0.010965933410135081 -1 0 0
1969 1 76.46270279186423 5.518220254981734 1.5718606355492564 -1 0 0
1785 18 81.24162171635575 0.9197033758301316 0.010965933410135409 -1 0 0
1791 14 84.42756766601676 0.9197033758301312 0.010965933410136113 -1 0 0
1786 4 81.24162171635543 2.7591101274907333 1.5718606355492564 -1 0 0
1792 2 84.42756766601643 2.7591101274907337 1.5718606355492564 -1 0 0
1788 20 79.6486487415249 3.678813503321134 0.010965933410136006 -1 0 0
1794 16 82.8345946911859 3.678813503321134 0.010965933410135551 -1 0 0
1975 3 79.64864874152524 5.518220254981733 1.5718606355492564 -1 0 0
1981 1 82.83459469118623 5.518220254981735 1.5718606355492564 -1 0 0
1797 18 87.61351361567776 0.9197033758301311 0.010965933410135915 -1 0 0
1798 4 87.61351361567743 2.7591101274907333 1.5718606355492561 -1 0 0
1800 20 86.0205406408469 3.6788135033211335 0.010965933410135888 -1 0 0
1806 16 89.20648659050791 3.678813503321133 0.010965933410136275 -1 0 0
1987 3 86.02054064084723 5.518220254981734 1.5718606355492564 -1 0 0
1993 1 89.20648659050823 5.518220254981735 1.5718606355492564 -1 0 0
1803 14 90.79945956533876 0.9197033758301318 0.01096593341013575 -1 0 0
1809 18 93.98540551499975 0.9197033758301317 0.010965933410135218 -1 0 0
1804 2 90.79945956533844 2.759110127490732 1.5718606355492564 -1 0 0
1810 4 93.98540551499943 2.759110127490733 1.5718606355492564 -1 0 0
1812 20 92.3924325401689 3.678813503321134 0.010965933410135452 -1 0 0
1818 16 95.5783784898299 3.678813503321133 0.010965933410136174 -1 0 0
1999 3 92.39243254016924 5.518220254981733 1.5718606355492564 -1 0 0
2005 1 95.57837848983023 5.518220254981735 1.5718606355492564 -1 0 0
1830 16 101.9502703891519 3.678813503321134 0.010965933410135843 -1 0 0
1815 14 97.17135146466076 0.9197033758301318 0.010965933410135622 -1 0 0
1821 18 100.35729741432176 0.919703375830131 0.010965933410136155 -1 0 0
1816 2 97.17135146466043 2.7591101274907324 1.5718606355492564 -1 0 0
1822 4 100.35729741432142 2.7591101274907337 1.5718606355492566 -1 0 0
1824 20 98.76432443949089 3.6788135033211344 0.010965933410135081 -1 0 0
2011 3 98.76432443949123 5.518220254981734 1.5718606355492564 -1 0 0
2019 14 1.592972974830766 6.437923630812133 0.010965933410135823 0 0 0
2025 18 4.778918924491768 6.437923630812133 0.010965933410135685 0 0 0
2020 2 1.5929729748304373 8.277330382472734 1.5718606355492564 0 0 0
2026 4 4.778918924491438 8.277330382472734 1.5718606355492564 0 0 0
2028 20 3.185945949660904 9.197033758303133 0.010965933410135806 0 0 0
2209 1 2.363965704454296e-13 11.036440509963732 1.5718606355492561 0 0 0
2215 3 3.1859459496612366 11.036440509963734 1.5718606355492566 0 0 0
2031 14 7.964864874152766 6.437923630812133 0.010965933410135588 0 0 0
2037 18 11.150810823813767 6.437923630812133 0.010965933410135756 0 0 0
2032 2 7.964864874152435 8.277330382472734 1.5718606355492564 0 0 0
2038 4 11.150810823813437 8.277330382472734 1.5718606355492564 0 0 0
2034 16 6.371891899321902 9.197033758303133 0.010965933410135922 0 0 0
2040 20 9.557837848982901 9.197033758303133 0.010965933410136046 0 0 0
2221 1 6.371891899322236 11.036440509963734 1.5718606355492564 0 0 0
2227 3 9.557837848983235 11.036440509963734 1.5718606355492564 0 0 0
2043 14 14.336756773474768 6.437923630812133 0.010965933410135806 0 0 0
2044 2 14.33675677347444 8.277330382472734 1.5718606355492564 0 0 0
2046 16 12.743783798643904 9.197033758303133 0.010965933410136087 0 0 0
2052 20 15.929729748304906 9.197033758303133 0.010965933410135856 0 0 0
2233 1 12.743783798644237 11.036440509963734 1.5718606355492564 0 0 0
2239 3 15.929729748305238 11.036440509963734 1.571860635549256 0 0 0
2049 18 17.52270272313577 6.437923630812134 0.010965933410135333 0 0 0
2055 14 20.708648672796766 6.437923630812133 0.010965933410135874 0 0 0
2050 4 17.52270272313544 8.277330382472732 1.5718606355492564 0 0 0
2056 2 20.708648672796436 8.277330382472734 1.5718606355492564 0 0 0
2058 16 19.115675697965898 9.197033758303133 0.010965933410136281 0 0 0
2064 20 22.301621647626902 9.197033758303133 0.010965933410136054 0 0 0
2245 1 19.115675697966235 11.036440509963732 1.5718606355492564 0 0 0
2251 3 22.301621647627236 11.036440509963734 1.5718606355492566 0 0 0
2061 18 23.894594622457767 6.437923630812133 0.01096593341013595 0 0 0
2067 14 27.080540572118768 6.437923630812134 0.010965933410135277 0 0 0
2062 4 23.89459462245744 8.277330382472734 1.5718606355492564 0 0 0
2068 2 27.080540572118437 8.277330382472732 1.5718606355492564 0 0 0
2070 16 25.487567597287903 9.197033758303133 0.010965933410135763 0 0 0
2257 1 25.487567597288237 11.036440509963734 1.571860635549256 0 0 0
2073 18 30.266486521779765 6.437923630812133 0.010965933410135818 0 0 0
2079 14 33.452432471440765 6.437923630812133 0.010965933410135931 0 0 0
2074 4 30.266486521779434 8.277330382472734 1.5718606355492564 0 0 0
2080 2 33.45243247144044 8.277330382472734 1.5718606355492561 0 0 0
2076 20 28.673513546948897 9.197033758303133 0.010965933410136255 0 0 0
2082 16 31.8594594966099 9.197033758303133 0.010965933410135827 0 0 0
2263 3 28.673513546949234 11.036440509963732 1.5718606355492564 0 0 0
2269 1 31.859459496610235 11.036440509963734 1.5718606355492566 0 0 0
2085 18 36.63837842110177 6.437923630812133 0.01096593341013599 0 0 0
2086 4 36.638378421101436 8.277330382472734 1.5718606355492561 0 0 0
2088 20 35.045405446270905 9.197033758303133 0.010965933410135837 0 0 0
2094 16 38.2313513959319 9.197033758303133 0.010965933410135954 0 0 0
2275 3 35.04540544627124 11.036440509963734 1.5718606355492564 0 0 0
2281 1 38.23135139593224 11.036440509963732 1.5718606355492564 0 0 0
2091 14 39.82432437076277 6.437923630812134 0.010965933410135426 0 0 0
2097 18 43.010270320423764 6.437923630812133 0.010965933410135572 0 0 0
2092 2 39.82432437076244 8.277330382472732 1.5718606355492564 0 0 0
2098 4 43.01027032042344 8.277330382472734 1.5718606355492564 0 0 0
2100 20 41.4172973455929 9.197033758303133 0.010965933410136058 0 0 0
2106 16 44.603243295253904 9.197033758303133 0.010965933410136115 0 0 0
2287 3 41.41729734559324 11.036440509963734 1.5718606355492564 0 0 0
2293 1 44.60324329525424 11.036440509963734 1.5718606355492564 0 0 0
2103 14 46.19621627008477 6.437923630812133 0.010965933410136125 0 0 0
2109 18 49.382162219745766 6.437923630812134 0.010965933410135575 0 0 0
2104 2 46.19621627008444 8.277330382472734 1.5718606355492564 0 0 0
2110 4 49.38216221974544 8.277330382472732 1.5718606355492564 0 0 0
2112 20 47.7891892449149 9.197033758303133 0.010965933410135981 0 0 0
2299 3 47.78918924491524 11.036440509963732 1.5718606355492564 0 0 0
1926 16 50.9751351945759 9.197033758303133 0.010965933410135971 -1 0 0
1923 14 52.56810816940676 6.437923630812133 0.010965933410135605 -1 0 0
1929 18 55.75405411906776 6.437923630812134 0.01096593341013559 -1 0 0
1924 2 52.568108169406436 8.277330382472734 1.5718606355492564 -1 0 0
1930 4 55.75405411906743 8.277330382472734 1.5718606355492561 -1 0 0
1932 20 54.1610811442369 9.197033758303133 0.010965933410136295 -1 0 0
2113 1 50.97513519457623 11.036440509963732 1.5718606355492561 -1 0 0
2119 3 54.16108114423724 11.036440509963734 1.5718606355492564 -1 0 0
1935 14 58.940000068728764 6.437923630812133 0.010965933410135426 -1 0 0
1941 18 62.12594601838976 6.437923630812133 0.010965933410136068 -1 0 0
1936 2 58.94000006872844 8.277330382472734 1.5718606355492561 -1 0 0
1942 4 62.125946018389435 8.277330382472734 1.5718606355492561 -1 0 0
1938 16 57.3470270938979 9.197033758303133 0.010965933410135652 -1 0 0
1944 20 60.5329730435589 9.197033758303133 0.010965933410135862 -1 0 0
2125 1 57.347027093898234 11.036440509963734 1.5718606355492561 -1 0 0
2131 3 60.53297304355923 11.036440509963734 1.5718606355492564 -1 0 0
1947 14 65.31189196805076 6.437923630812133 0.010965933410135579 -1 0 0
1948 2 65.31189196805043 8.277330382472734 1.5718606355492561 -1 0 0
1950 16 63.7189189932199 9.197033758303133 0.010965933410135994 -1 0 0
1956 20 66.9048649428809 9.197033758303132 0.010965933410136516 -1 0 0
2137 1 63.718918993220235 11.036440509963734 1.5718606355492566 -1 0 0
2143 3 66.90486494288123 11.036440509963734 1.5718606355492564 -1 0 0
1953 18 68.49783791771176 6.437923630812134 0.010965933410135905 -1 0 0
1959 14 71.68378386737275 6.437923630812134 0.01096593341013518 -1 0 0
1954 4 68.49783791771144 8.277330382472732 1.5718606355492561 -1 0 0
1960 2 71.68378386737243 8.277330382472734 1.5718606355492561 -1 0 0
1962 16 70.0908108925419 9.197033758303133 0.010965933410135778 -1 0 0
1968 20 73.2767568422029 9.197033758303132 0.01096593341013634 -1 0 0
2149 1 70.09081089254224 11.036440509963732 1.5718606355492564 -1 0 0
2155 3 73.27675684220323 11.036440509963734 1.5718606355492564 -1 0 0
1965 18 74.86972981703376 6.437923630812134 0.01096593341013565 -1 0 0
1971 14 78.05567576669476 6.437923630812133 0.010965933410136141 -1 0 0
1966 4 74.86972981703343 8.277330382472732 1.5718606355492564 -1 0 0
1972 2 78.05567576669442 8.277330382472734 1.5718606355492564 -1 0 0
1974 16 76.46270279186389 9.197033758303133 0.010965933410135282 -1 0 0
2161 1 76.46270279186423 11.036440509963734 1.5718606355492564 -1 0 0
1977 18 81.24162171635575 6.437923630812134 0.010965933410135197 -1 0 0
1983 14 84.42756766601676 6.437923630812133 0.010965933410135905 -1 0 0
1978 4 81.24162171635543 8.277330382472734 1.5718606355492561 -1 0 0
1984 2 84.42756766601643 8.277330382472734 1.5718606355492561 -1 0 0
1980 20 79.6486487415249 9.197033758303133 0.010965933410136193 -1 0 0
1986 16 82.8345946911859 9.197033758303133 0.01096593341013578 -1 0 0
2167 3 79.64864874152524 11.036440509963732 1.5718606355492564 -1 0 0
2173 1 82.83459469118623 11.036440509963734 1.5718606355492566 -1 0 0
1989 18 87.61351361567776 6.437923630812133 0.010965933410135891 -1 0 0
1990 4 87.61351361567743 8.277330382472734 1.5718606355492564 -1 0 0
1992 20 86.0205406408469 9.197033758303132 0.010965933410135955 -1 0 0
1998 16 89.20648659050791 9.197033758303132 0.010965933410136304 -1 0 0
2179 3 86.02054064084723 11.036440509963734 1.5718606355492564 -1 0 0
2185 1 89.20648659050823 11.036440509963734 1.5718606355492553 -1 0 0
1995 14 90.79945956533876 6.437923630812134 0.01096593341013581 -1 0 0
2001 18 93.98540551499975 6.437923630812134 0.010965933410135183 -1 0 0
1996 2 90.79945956533844 8.277330382472732 1.5718606355492564 -1 0 0
2002 4 93.98540551499943 8.277330382472734 1.5718606355492561 -1 0 0
2004 20 92.3924325401689 9.197033758303133 0.010965933410135785 -1 0 0
2010 16 95.5783784898299 9.197033758303132 0.01096593341013634 -1 0 0
2191 3 92.39243254016922 11.036440509963732 1.5718606355492575 -1 0 0
2197 1 95.57837848983023 11.036440509963734 1.5718606355492564 -1 0 0
2022 16 101.9502703891519 9.197033758303133 0.010965933410135947 -1 0 0
2007 14 97.17135146466076 6.437923630812134 0.010965933410135648 -1 0 0
2013 18 100.35729741432176 6.437923630812133 0.010965933410136052 -1 0 0
2008 2 97.17135146466043 8.277330382472732 1.5718606355492564 -1 0 0
2014 4 100.35729741432142 8.277330382472734 1.5718606355492568 -1 0 0
2016 20 98.76432443949089 9.197033758303133 0.010965933410135282 -1 0 0
2203 3 98.76432443949123 11.036440509963734 1.5718606355492564 -1 0 0
2211 14 1.592972974830766 11.956143885794132 0.010965933410135856 0 0 0
2217 18 4.778918924491768 11.956143885794134 0.010965933410135631 0 0 0
2212 2 1.5929729748304373 13.795550637454733 1.5718606355492564 0 0 0
2218 4 4.778918924491438 13.795550637454733 1.5718606355492564 0 0 0
2220 20 3.185945949660904 14.715254013285131 0.010965933410135608 0 0 0
2401 1 2.364354793887296e-13 16.55466076494573 1.5718606355492561 0 0 0
2407 3 3.185945949661237 16.554660764945734 1.5718606355492566 0 0 0
2403 14 1.592972974830766 17.474364140776128 0.010965933410135869 0 0 0
2409 18 4.778918924491768 17.47436414077613 0.010965933410135749 0 0 0
2223 14 7.964864874152766 11.956143885794134 0.010965933410135634 0 0 0
2229 18 11.150810823813767 11.956143885794132 0.010965933410135823 0 0 0
2224 2 7.964864874152435 13.795550637454733 1.5718606355492564 0 0 0
2230 4 11.150810823813437 13.795550637454733 1.5718606355492564 0 0 0
2226 16 6.371891899321902 14.715254013285133 0.010965933410135652 0 0 0
2232 20 9.557837848982901 14.715254013285133 0.010965933410135815 0 0 0
2413 1 6.371891899322236 16.554660764945734 1.5718606355492564 0 0 0
2419 3 9.557837848983235 16.554660764945734 1.5718606355492564 0 0 0
2415 14 7.964864874152766 17.47436414077613 0.010965933410135721 0 0 0
2421 18 11.150810823813767 17.474364140776128 0.010965933410135931 0 0 0
2235 14 14.336756773474768 11.956143885794134 0.010965933410136002 0 0 0
2236 2 14.33675677347444 13.795550637454733 1.5718606355492566 0 0 0
2238 16 12.743783798643904 14.715254013285133 0.010965933410135962 0 0 0
2244 20 15.929729748304906 14.715254013285133 0.010965933410135463 0 0 0
2425 1 12.743783798644237 16.55466076494573 1.5718606355492564 0 0 0
2431 3 15.92972974830524 16.55466076494573 1.5718606355492561 0 0 0
2427 14 14.336756773474768 17.474364140776128 0.010965933410135938 0 0 0
2241 18 17.52270272313577 11.956143885794134 0.010965933410135336 0 0 0
2247 14 20.708648672796766 11.956143885794132 0.010965933410135877 0 0 0
2242 4 17.52270272313544 13.795550637454731 1.5718606355492564 0 0 0
2248 2 20.708648672796436 13.795550637454733 1.5718606355492564 0 0 0
2250 16 19.115675697965898 14.715254013285133 0.010965933410135997 0 0 0
2256 20 22.301621647626902 14.715254013285133 0.010965933410136004 0 0 0
2437 1 19.115675697966235 16.55466076494573 1.5718606355492564 0 0 0
2443 3 22.301621647627233 16.55466076494573 1.5718606355492566 0 0 0
2433 18 17.52270272313577 17.47436414077613 0.010965933410135482 0 0 0
2439 14 20.708648672796766 17.474364140776128 0.010965933410136002 0 0 0
2253 18 23.894594622457767 11.956143885794134 0.010965933410136216 0 0 0
2259 14 27.080540572118768 11.956143885794134 0.010965933410135284 0 0 0
2254 4 23.89459462245744 13.795550637454733 1.5718606355492564 0 0 0
2260 2 27.080540572118437 13.795550637454731 1.5718606355492564 0 0 0
2262 16 25.487567597287903 14.715254013285133 0.010965933410135369 0 0 0
2449 1 25.487567597288237 16.55466076494573 1.571860635549256 0 0 0
2445 18 23.894594622457767 17.474364140776128 0.01096593341013606 0 0 0
2451 14 27.080540572118768 17.47436414077613 0.010965933410135428 0 0 0
2265 18 30.266486521779765 11.956143885794132 0.010965933410135823 0 0 0
2271 14 33.452432471440765 11.956143885794134 0.010965933410136174 0 0 0
2266 4 30.266486521779434 13.795550637454733 1.5718606355492564 0 0 0
2272 2 33.45243247144044 13.795550637454733 1.5718606355492561 0 0 0
2268 20 28.673513546948897 14.715254013285133 0.010965933410135971 0 0 0
2274 16 31.8594594966099 14.715254013285133 0.010965933410135765 0 0 0
2455 3 28.673513546949234 16.55466076494573 1.5718606355492564 0 0 0
2461 1 31.859459496610235 16.55466076494573 1.5718606355492566 0 0 0
2457 18 30.266486521779765 17.474364140776128 0.010965933410135947 0 0 0
2463 14 33.452432471440765 17.474364140776128 0.010965933410136049 0 0 0
2277 18 36.63837842110177 11.956143885794132 0.01096593341013591 0 0 0
2278 4 36.638378421101436 13.795550637454733 1.5718606355492564 0 0 0
2280 20 35.045405446270905 14.715254013285133 0.010965933410135596 0 0 0
2286 16 38.2313513959319 14.715254013285133 0.010965933410135822 0 0 0
2467 3 35.04540544627124 16.55466076494573 1.5718606355492564 0 0 0
2473 1 38.23135139593224 16.55466076494573 1.5718606355492561 0 0 0
2469 18 36.63837842110177 17.474364140776128 0.010965933410135935 0 0 0
2283 14 39.82432437076277 11.956143885794132 0.010965933410135461 0 0 0
2289 18 43.010270320423764 11.956143885794134 0.010965933410135582 0 0 0
2284 2 39.82432437076244 13.795550637454731 1.5718606355492564 0 0 0
2290 4 43.01027032042344 13.795550637454733 1.5718606355492564 0 0 0
2292 20 41.4172973455929 14.715254013285133 0.010965933410135917 0 0 0
2298 16 44.603243295253904 14.715254013285131 0.010965933410135981 0 0 0
2479 3 41.41729734559324 16.55466076494573 1.5718606355492564 0 0 0
2485 1 44.60324329525424 16.55466076494573 1.5718606355492561 0 0 0
2475 14 39.82432437076277 17.47436414077613 0.010965933410135732 0 0 0
2481 18 43.010270320423764 17.474364140776128 0.01096593341013569 0 0 0
2295 14 46.19621627008477 11.956143885794134 0.010965933410136321 0 0 0
2301 18 49.382162219745766 11.956143885794134 0.010965933410135815 0 0 0
2296 2 46.19621627008444 13.795550637454733 1.5718606355492564 0 0 0
2302 4 49.38216221974544 13.795550637454733 1.5718606355492564 0 0 0
2304 20 47.7891892449149 14.715254013285133 0.01096593341013549 0 0 0
2491 3 47.78918924491524 16.55466076494573 1.5718606355492564 0 0 0
2487 14 46.19621627008477 17.474364140776128 0.010965933410136233 0 0 0
2493 18 49.382162219745766 17.47436414077613 0.010965933410135761 0 0 0
2118 16 50.9751351945759 14.715254013285133 0.010965933410135848 -1 0 0
2115 14 52.56810816940676 11.956143885794132 0.010965933410135645 -1 0 0
2121 18 55.75405411906776 11.956143885794134 0.010965933410135636 -1 0 0
2116 2 52.568108169406436 13.795550637454733 1.5718606355492564 -1 0 0
2122 4 55.75405411906743 13.795550637454733 1.5718606355492564 -1 0 0
2124 20 54.1610811442369 14.715254013285131 0.010965933410136132 -1 0 0
2305 1 50.97513519457623 16.55466076494573 1.5718606355492561 -1 0 0
2311 3 54.16108114423724 16.55466076494573 1.5718606355492561 -1 0 0
2307 14 52.56810816940676 17.474364140776128 0.010965933410135678 -1 0 0
2313 18 55.75405411906776 17.474364140776128 0.01096593341013573 -1 0 0
2127 14 58.940000068728764 11.956143885794134 0.01096593341013545 -1 0 0
2133 18 62.12594601838976 11.956143885794134 0.01096593341013635 -1 0 0
2128 2 58.94000006872844 13.795550637454733 1.5718606355492564 -1 0 0
2134 4 62.125946018389435 13.795550637454733 1.5718606355492564 -1 0 0
2130 16 57.3470270938979 14.715254013285133 0.010965933410135464 -1 0 0
2136 20 60.5329730435589 14.715254013285133 0.0109659334101357 -1 0 0
2317 1 57.347027093898234 16.55466076494573 1.5718606355492564 -1 0 0
2323 3 60.53297304355923 16.55466076494573 1.5718606355492564 -1 0 0
2319 14 58.940000068728764 17.474364140776128 0.010965933410135595 -1 0 0
2325 18 62.12594601838976 17.474364140776128 0.01096593341013622 -1 0 0
2139 14 65.31189196805076 11.956143885794134 0.010965933410135633 -1 0 0
2140 2 65.31189196805043 13.795550637454733 1.5718606355492564 -1 0 0
2142 16 63.7189189932199 14.715254013285133 0.01096593341013573 -1 0 0
2148 20 66.9048649428809 14.715254013285131 0.010965933410136283 -1 0 0
2329 1 63.718918993220235 16.55466076494573 1.5718606355492564 -1 0 0
2335 3 66.90486494288123 16.554660764945734 1.5718606355492564 -1 0 0
2331 14 65.31189196805076 17.474364140776128 0.010965933410135666 -1 0 0
2145 18 68.49783791771176 11.956143885794132 0.010965933410135867 -1 0 0
2151 14 71.68378386737275 11.956143885794134 0.010965933410135261 -1 0 0
2146 4 68.49783791771144 13.795550637454731 1.5718606355492564 -1 0 0
2152 2 71.68378386737243 13.795550637454733 1.5718606355492564 -1 0 0
2154 16 70.0908108925419 14.715254013285133 0.010965933410135536 -1 0 0
2160 20 73.2767568422029 14.715254013285131 0.010965933410136184 -1 0 0
2341 1 70.09081089254224 16.55466076494573 1.5718606355492561 -1 0 0
2347 3 73.27675684220323 16.554660764945734 1.5718606355492564 -1 0 0
2337 18 68.49783791771176 17.47436414077613 0.010965933410136141 -1 0 0
2343 14 71.68378386737275 17.47436414077613 0.010965933410135383 -1 0 0
2157 18 74.86972981703376 11.956143885794132 0.010965933410135721 -1 0 0
2163 14 78.05567576669476 11.956143885794132 0.010965933410136344 -1 0 0
2158 4 74.86972981703343 13.795550637454731 1.5718606355492564 -1 0 0
2164 2 78.05567576669442 13.795550637454735 1.5718606355492566 -1 0 0
2166 16 76.46270279186389 14.715254013285133 0.0109659334101349 -1 0 0
2353 1 76.46270279186423 16.55466076494573 1.5718606355492566 -1 0 0
2349 18 74.86972981703376 17.47436414077613 0.010965933410135813 -1 0 0
2355 14 78.05567576669476 17.474364140776128 0.010965933410136167 -1 0 0
2169 18 81.24162171635575 11.956143885794134 0.010965933410135478 -1 0 0
2175 14 84.42756766601676 11.956143885794132 0.010965933410136058 -1 0 0
2170 4 81.24162171635543 13.795550637454733 1.5718606355492564 -1 0 0
2176 2 84.42756766601643 13.795550637454733 1.5718606355492564 -1 0 0
2172 20 79.6486487415249 14.715254013285133 0.010965933410136082 -1 0 0
2178 16 82.8345946911859 14.715254013285133 0.010965933410135513 -1 0 0
2359 3 79.64864874152524 16.55466076494573 1.5718606355492564 -1 0 0
2365 1 82.83459469118623 16.55466076494573 1.5718606355492564 -1 0 0
2361 18 81.24162171635575 17.47436414077613 0.010965933410135346 -1 0 0
2367 14 84.42756766601676 17.474364140776128 0.010965933410135915 -1 0 0
2181 18 87.61351361567776 11.956143885794132 0.010965933410135919 -1 0 0
2182 4 87.61351361567743 13.795550637454733 1.5718606355492564 -1 0 0
2184 20 86.0205406408469 14.715254013285131 0.010965933410135936 -1 0 0
2190 16 89.20648659050791 14.715254013285131 0.0109659334101362 -1 0 0
2371 3 86.02054064084723 16.55466076494573 1.5718606355492564 -1 0 0
2377 1 89.20648659050823 16.55466076494573 1.5718606355492553 -1 0 0
2373 18 87.61351361567776 17.474364140776128 0.010965933410135945 -1 0 0
2187 14 90.79945956533876 11.956143885794132 0.010965933410135829 -1 0 0
2193 18 93.98540551499975 11.956143885794134 0.010965933410135265 -1 0 0
2188 2 90.79945956533844 13.795550637454731 1.5718606355492566 -1 0 0
2194 4 93.98540551499943 13.795550637454733 1.5718606355492564 -1 0 0
2196 20 92.3924325401689 14.715254013285133 0.010965933410135544 -1 0 0
2202 16 95.5783784898299 14.715254013285131 0.010965933410136184 -1 0 0
2383 3 92.39243254016922 16.55466076494573 1.5718606355492575 -1 0 0
2389 1 95.57837848983023 16.554660764945734 1.5718606355492564 -1 0 0
2379 14 90.79945956533876 17.47436414077613 0.010965933410135981 -1 0 0
2385 18 93.98540551499975 17.47436414077613 0.010965933410135388 -1 0 0
2214 16 101.9502703891519 14.715254013285133 0.010965933410135941 -1 0 0
2199 14 97.17135146466076 11.956143885794132 0.01096593341013572 -1 0 0
2205 18 100.35729741432176 11.956143885794132 0.010965933410136247 -1 0 0
2200 2 97.17135146466043 13.795550637454731 1.5718606355492564 -1 0 0
2206 4 100.35729741432142 13.795550637454735 1.5718606355492568 -1 0 0
2208 20 98.76432443949089 14.715254013285133 0.0109659334101349 -1 0 0
2395 3 98.76432443949123 16.55466076494573 1.5718606355492566 -1 0 0
2391 14 97.17135146466076 17.47436414077613 0.010965933410135811 -1 0 0
2397 18 100.35729741432176 17.474364140776128 0.010965933410136066 -1 0 0