LAMMPS data file via write_data, version 29 Aug 2024, timestep = 2, units = metal

10944 atoms
9 atom types

0 99.014335480512 xlo xhi
0 101.82685421464 ylo yhi
-50 50 zlo zhi

Masses

1 186.207
2 186.207
3 186.207
4 32.06
5 32.06
6 32.06
7 32.06
8 32.06
9 32.06

Atoms # atomic

1826 1 1.5470989918829978 2.2297372262047096e-15 1.6363966484556012 0 0 0
1832 1 4.641296975648999 2.265940286913279e-15 1.6363966484556012 0 0 0
1828 5 1.5470989918829976 1.7864360388530671 0.007827926389912265 0 0 0
2017 1 0 2.679654058280002 1.636396648455601 0 0 0
2023 1 3.094197983766 2.679654058280002 1.636396648455601 0 0 0
1834 5 4.641296975648999 1.7864360388530671 0.00782792638991254 0 0 0
2019 5 0 4.466090097133068 0.007827926389912497 0 0 0
2025 5 3.0941979837660005 4.466090097133068 0.007827926389912499 0 0 0
2018 1 1.5470989918829978 5.359308116560002 1.636396648455601 0 0 0
2024 1 4.641296975648999 5.359308116560003 1.636396648455601 0 0 0
1838 1 7.735494959414999 2.2309749376819255e-15 1.6363966484556012 0 0 0
1844 1 10.829692943181 2.2263335196423654e-15 1.6363966484556012 0 0 0
2029 1 6.1883959675319975 2.679654058280002 1.636396648455601 0 0 0
1840 5 7.735494959415 1.7864360388530671 0.007827926389912265 0 0 0
2035 1 9.282593951297997 2.679654058280002 1.636396648455601 0 0 0
1846 5 10.829692943181001 1.7864360388530671 0.007827926389912499 0 0 0
2031 5 6.188395967531997 4.466090097133068 0.0078279263899125 0 0 0
2037 5 9.282593951297997 4.466090097133067 0.007827926389912265 0 0 0
2030 1 7.735494959414999 5.359308116560002 1.636396648455601 0 0 0
2036 1 10.829692943181 5.359308116560002 1.636396648455601 0 0 0
1850 1 13.923890926946996 2.2606800131351106e-15 1.6363966484556012 0 0 0
1856 1 17.018088910712997 2.2003415786208285e-15 1.6363966484556012 0 0 0
2041 1 12.376791935063999 2.679654058280002 1.636396648455601 0 0 0
1852 5 13.923890926946996 1.7864360388530671 0.007827926389912776 0 0 0
2047 1 15.470989918829995 2.679654058280002 1.636396648455601 0 0 0
1858 5 17.018088910712997 1.786436038853067 0.007827926389911737 0 0 0
2043 5 12.376791935063999 4.466090097133068 0.007827926389912775 0 0 0
2049 5 15.470989918829995 4.466090097133067 0.007827926389912258 0 0 0
2042 1 13.923890926946996 5.359308116560003 1.636396648455601 0 0 0
2048 1 17.018088910712997 5.359308116560002 1.636396648455601 0 0 0
1862 1 20.112286894479002 2.215812972086029e-15 1.6363966484556012 0 0 0
1868 1 23.206484878245 2.19508130484266e-15 1.6363966484556012 0 0 0
2053 1 18.565187902596 2.679654058280002 1.636396648455601 0 0 0
1864 5 20.112286894479006 1.7864360388530671 0.00782792638991251 0 0 0
2059 1 21.659385886362 2.679654058280002 1.636396648455601 0 0 0
1870 5 23.206484878245 1.7864360388530673 0.007827926389912443 0 0 0
2055 5 18.565187902596 4.466090097133067 0.007827926389911968 0 0 0
2061 5 21.659385886361996 4.466090097133067 0.007827926389912511 0 0 0
2054 1 20.112286894479002 5.359308116560002 1.636396648455601 0 0 0
2060 1 23.206484878245 5.359308116560002 1.636396648455601 0 0 0
1874 1 26.300682862010998 2.215812972086029e-15 1.6363966484556012 0 0 0
2065 1 24.753583870128 2.679654058280002 1.636396648455601 0 0 0
1876 5 26.300682862010994 1.7864360388530671 0.00782792638991251 0 0 0
2071 1 27.847781853894 2.679654058280002 1.636396648455601 0 0 0
2067 5 24.753583870128004 4.466090097133067 0.007827926389912507 0 0 0
2073 5 27.847781853894 4.466090097133068 0.007827926389912442 0 0 0
2066 1 26.300682862010998 5.359308116560002 1.636396648455601 0 0 0
1880 1 29.394880845777 2.215503544216725e-15 1.6363966484556012 0 0 0
1886 1 32.489078829543 2.2000321507515245e-15 1.6363966484556012 0 0 0
1882 5 29.394880845777003 1.7864360388530671 0.00782792638991251 0 0 0
2077 1 30.941979837659996 2.679654058280002 1.636396648455601 0 0 0
1888 5 32.489078829543 1.7864360388530671 0.00782792638991197 0 0 0
2083 1 34.036177821426 2.679654058280002 1.636396648455601 0 0 0
2079 5 30.941979837659993 4.466090097133067 0.007827926389912511 0 0 0
2085 5 34.036177821426 4.466090097133067 0.007827926389911968 0 0 0
2072 1 29.394880845777 5.359308116560002 1.636396648455601 0 0 0
2078 1 32.489078829543 5.359308116560002 1.636396648455601 0 0 0
1892 1 35.583276813309006 2.215812972086029e-15 1.6363966484556012 0 0 0
1898 1 38.677474797075 2.19508130484266e-15 1.6363966484556012 0 0 0
1894 5 35.583276813309006 1.7864360388530671 0.00782792638991251 0 0 0
2089 1 37.130375805191996 2.679654058280002 1.636396648455601 0 0 0
1900 5 38.677474797075 1.7864360388530673 0.007827926389912443 0 0 0
2095 1 40.224573788958004 2.679654058280002 1.636396648455601 0 0 0
2091 5 37.130375805191996 4.466090097133067 0.007827926389912511 0 0 0
2097 5 40.224573788958004 4.466090097133067 0.00782792638991251 0 0 0
2084 1 35.583276813309006 5.359308116560002 1.636396648455601 0 0 0
2090 1 38.677474797075 5.359308116560002 1.636396648455601 0 0 0
1904 1 41.771672780840994 2.215503544216725e-15 1.6363966484556012 0 0 0
1910 1 44.865870764607 2.215812972086029e-15 1.6363966484556012 0 0 0
1906 5 41.771672780840994 1.7864360388530671 0.00782792638991251 0 0 0
2101 1 43.318771772724 2.679654058280002 1.636396648455601 0 0 0
1912 5 44.865870764607 1.7864360388530671 0.00782792638991251 0 0 0
2107 1 46.41296975648999 2.679654058280002 1.636396648455601 0 0 0
2103 5 43.318771772724 4.466090097133068 0.007827926389912442 0 0 0
2109 5 46.41296975648999 4.466090097133067 0.007827926389912511 0 0 0
2096 1 41.771672780840994 5.359308116560002 1.636396648455601 0 0 0
2102 1 44.865870764607 5.359308116560002 1.636396648455601 0 0 0
1916 1 47.960068748373 2.1960095884505723e-15 1.6363966484556012 0 0 0
1730 1 51.054266732139 2.2297372262047096e-15 1.6363966484556012 -1 0 0
1918 5 47.960068748373 1.7864360388530671 0.00782792638991221 0 0 0
1921 1 49.507167740256 2.679654058280002 1.636396648455601 -1 0 0
1732 5 51.054266732139 1.7864360388530671 0.007827926389912265 -1 0 0
1923 5 49.507167740256 4.466090097133067 0.007827926389912023 -1 0 0
2108 1 47.960068748373 5.359308116560002 1.636396648455601 0 0 0
1922 1 51.054266732139 5.359308116560002 1.636396648455601 -1 0 0
1736 1 54.148464715905 2.2297372262047096e-15 1.6363966484556012 -1 0 0
1742 1 57.242662699671 2.2300466540740136e-15 1.6363966484556012 -1 0 0
1927 1 52.601365724022 2.679654058280002 1.636396648455601 -1 0 0
1738 5 54.148464715905 1.7864360388530671 0.007827926389912265 -1 0 0
1744 5 57.242662699671 1.7864360388530671 0.007827926389912265 -1 0 0
1933 1 55.695563707788004 2.679654058280002 1.636396648455601 -1 0 0
1929 5 52.601365724022 4.466090097133067 0.007827926389912265 -1 0 0
1935 5 55.695563707788004 4.466090097133067 0.007827926389912265 -1 0 0
1928 1 54.148464715905 5.359308116560002 1.636396648455601 -1 0 0
1934 1 57.242662699671 5.359308116560002 1.636396648455601 -1 0 0
1748 1 60.336860683437 2.266249714782583e-15 1.6363966484556012 -1 0 0
1754 1 63.431058667203004 2.19508130484266e-15 1.6363966484556012 -1 0 0
1939 1 58.789761691554006 2.679654058280002 1.636396648455601 -1 0 0
1750 5 60.336860683437 1.7864360388530671 0.00782792638991254 -1 0 0
1945 1 61.88395967532 2.679654058280002 1.636396648455601 -1 0 0
1756 5 63.431058667203004 1.7864360388530671 0.00782792638991221 -1 0 0
1941 5 58.789761691554006 4.466090097133068 0.007827926389912499 -1 0 0
1947 5 61.88395967532 4.466090097133067 0.007827926389912258 -1 0 0
1940 1 60.336860683437 5.359308116560003 1.636396648455601 -1 0 0
1946 1 63.431058667203004 5.359308116560002 1.636396648455601 -1 0 0
1760 1 66.525256650969 2.215503544216725e-15 1.6363966484556012 -1 0 0
1766 1 69.619454634735 2.215503544216725e-15 1.6363966484556012 -1 0 0
1951 1 64.97815765908601 2.679654058280002 1.636396648455601 -1 0 0
1762 5 66.525256650969 1.7864360388530671 0.00782792638991251 -1 0 0
1957 1 68.072355642852 2.679654058280002 1.636396648455601 -1 0 0
1768 5 69.619454634735 1.7864360388530671 0.00782792638991251 -1 0 0
1953 5 64.97815765908601 4.466090097133067 0.007827926389912507 -1 0 0
1959 5 68.072355642852 4.466090097133068 0.007827926389912442 -1 0 0
1952 1 66.525256650969 5.359308116560002 1.636396648455601 -1 0 0
1958 1 69.619454634735 5.359308116560002 1.636396648455601 -1 0 0
1772 1 72.713652618501 2.19508130484266e-15 1.6363966484556012 -1 0 0
1963 1 71.166553626618 2.679654058280002 1.636396648455601 -1 0 0
1774 5 72.713652618501 1.7864360388530673 0.007827926389912443 -1 0 0
1969 1 74.260751610384 2.679654058280002 1.636396648455601 -1 0 0
1965 5 71.166553626618 4.466090097133067 0.00782792638991251 -1 0 0
1971 5 74.260751610384 4.466090097133067 0.00782792638991251 -1 0 0
1964 1 72.713652618501 5.359308116560002 1.636396648455601 -1 0 0
1778 1 75.807850602267 2.215812972086029e-15 1.6363966484556012 -1 0 0
1784 1 78.902048586033 2.215812972086029e-15 1.6363966484556012 -1 0 0
1780 5 75.807850602267 1.7864360388530671 0.00782792638991251 -1 0 0
1975 1 77.35494959415 2.679654058280002 1.636396648455601 -1 0 0
1786 5 78.902048586033 1.7864360388530671 0.00782792638991251 -1 0 0
1981 1 80.449147577916 2.679654058280002 1.636396648455601 -1 0 0
1977 5 77.35494959415 4.466090097133068 0.007827926389912442 -1 0 0
1983 5 80.449147577916 4.466090097133067 0.007827926389912511 -1 0 0
1970 1 75.807850602267 5.359308116560002 1.636396648455601 -1 0 0
1976 1 78.902048586033 5.359308116560002 1.636396648455601 -1 0 0
1790 1 81.996246569799 2.194771876973356e-15 1.6363966484556012 -1 0 0
1796 1 85.09044455356499 2.243970908192694e-15 1.6363966484556012 -1 0 0
1792 5 81.996246569799 1.7864360388530673 0.007827926389912443 -1 0 0
1798 5 85.09044455356499 1.7864360388530671 0.007827926389911968 -1 0 0
1987 1 83.543345561682 2.679654058280002 1.636396648455601 -1 0 0
1993 1 86.63754354544801 2.679654058280002 1.636396648455601 -1 0 0
1989 5 83.543345561682 4.466090097133067 0.007827926389912039 -1 0 0
1995 5 86.63754354544801 4.466090097133068 0.007827926389912442 -1 0 0
1982 1 81.996246569799 5.359308116560002 1.636396648455601 -1 0 0
1988 1 85.09044455356499 5.359308116560002 1.636396648455601 -1 0 0
1802 1 88.184642537331 2.24056720163035e-15 1.6363966484556012 -1 0 0
1808 1 91.27884052109701 2.24366148032339e-15 1.6363966484556012 -1 0 0
1804 5 88.184642537331 1.786436038853067 0.007827926389912582 -1 0 0
1999 1 89.73174152921399 2.679654058280002 1.636396648455601 -1 0 0
1810 5 91.27884052109701 1.7864360388530671 0.007827926389911968 -1 0 0
2005 1 92.82593951298 2.679654058280002 1.636396648455601 -1 0 0
2001 5 89.73174152921399 4.466090097133068 0.007827926389912442 -1 0 0
2007 5 92.82593951298 4.466090097133067 0.00782792638991204 -1 0 0
1994 1 88.184642537331 5.359308116560002 1.636396648455601 -1 0 0
2000 1 91.27884052109701 5.359308116560002 1.636396648455601 -1 0 0
1814 1 94.373038504863 2.194771876973356e-15 1.6363966484556012 -1 0 0
1820 1 97.467236488629 2.210862126177165e-15 1.6363966484556012 -1 0 0
1816 5 94.373038504863 1.7864360388530673 0.007827926389912443 -1 0 0
2011 1 95.92013749674601 2.679654058280002 1.636396648455601 -1 0 0
1822 5 97.467236488629 1.7864360388530671 0.007827926389912752 -1 0 0
2013 5 95.92013749674601 4.466090097133067 0.00782792638991251 -1 0 0
2006 1 94.373038504863 5.359308116560002 1.636396648455601 -1 0 0
2012 1 97.467236488629 5.359308116560002 1.636396648455601 -1 0 0
2020 5 1.5470989918829976 7.145744155413068 0.007827926389912265 0 0 0
2209 1 0 8.038962174840004 1.636396648455601 0 0 0
2215 1 3.094197983766 8.038962174840004 1.636396648455601 0 0 0
2026 5 4.641296975648999 7.145744155413068 0.00782792638991254 0 0 0
2211 5 0 9.825398213693068 0.007827926389912811 0 0 0
2217 5 3.0941979837660005 9.825398213693068 0.007827926389912815 0 0 0
2210 1 1.5470989918829978 10.718616233120004 1.636396648455601 0 0 0
2216 1 4.641296975648999 10.718616233120004 1.636396648455601 0 0 0
2221 1 6.1883959675319975 8.038962174840004 1.636396648455601 0 0 0
2032 5 7.735494959415 7.145744155413068 0.007827926389912265 0 0 0
2227 1 9.282593951297997 8.038962174840004 1.636396648455601 0 0 0
2038 5 10.829692943181001 7.145744155413069 0.007827926389912499 0 0 0
2223 5 6.188395967531997 9.825398213693068 0.007827926389912815 0 0 0
2229 5 9.282593951297997 9.825398213693068 0.007827926389912579 0 0 0
2222 1 7.735494959414999 10.718616233120004 1.636396648455601 0 0 0
2228 1 10.829692943181 10.718616233120004 1.636396648455601 0 0 0
2233 1 12.376791935063999 8.038962174840004 1.636396648455601 0 0 0
2044 5 13.923890926946996 7.145744155413069 0.007827926389912776 0 0 0
2239 1 15.470989918829995 8.038962174840004 1.636396648455601 0 0 0
2050 5 17.018088910712997 7.145744155413068 0.007827926389911737 0 0 0
2235 5 12.376791935063999 9.825398213693068 0.007827926389913083 0 0 0
2241 5 15.470989918829995 9.825398213693068 0.007827926389912572 0 0 0
2234 1 13.923890926946996 10.718616233120004 1.636396648455601 0 0 0
2240 1 17.018088910712997 10.718616233120004 1.636396648455601 0 0 0
2245 1 18.565187902596 8.038962174840004 1.636396648455601 0 0 0
2056 5 20.112286894479006 7.145744155413068 0.00782792638991251 0 0 0
2251 1 21.659385886362 8.038962174840004 1.636396648455601 0 0 0
2062 5 23.206484878245 7.145744155413069 0.007827926389912443 0 0 0
2247 5 18.565187902596 9.825398213693068 0.007827926389912289 0 0 0
2253 5 21.659385886361996 9.825398213693068 0.007827926389912827 0 0 0
2246 1 20.112286894479002 10.718616233120004 1.636396648455601 0 0 0
2252 1 23.206484878245 10.718616233120004 1.636396648455601 0 0 0
2257 1 24.753583870128 8.038962174840004 1.636396648455601 0 0 0
2068 5 26.300682862010994 7.145744155413068 0.00782792638991251 0 0 0
2263 1 27.847781853894 8.038962174840004 1.636396648455601 0 0 0
2259 5 24.753583870128004 9.825398213693068 0.007827926389912827 0 0 0
2265 5 27.847781853894 9.825398213693068 0.007827926389912762 0 0 0
2258 1 26.300682862010998 10.718616233120004 1.636396648455601 0 0 0
2074 5 29.394880845777003 7.145744155413068 0.00782792638991251 0 0 0
2269 1 30.941979837659996 8.038962174840004 1.636396648455601 0 0 0
2080 5 32.489078829543 7.145744155413068 0.00782792638991197 0 0 0
2275 1 34.036177821426 8.038962174840004 1.636396648455601 0 0 0
2271 5 30.941979837659993 9.825398213693068 0.007827926389912827 0 0 0
2277 5 34.036177821426 9.825398213693068 0.007827926389912287 0 0 0
2264 1 29.394880845777 10.718616233120004 1.636396648455601 0 0 0
2270 1 32.489078829543 10.718616233120004 1.636396648455601 0 0 0
2086 5 35.583276813309006 7.145744155413068 0.00782792638991251 0 0 0
2281 1 37.130375805191996 8.038962174840004 1.636396648455601 0 0 0
2092 5 38.677474797075 7.145744155413069 0.007827926389912443 0 0 0
2287 1 40.224573788958004 8.038962174840004 1.636396648455601 0 0 0
2283 5 37.130375805191996 9.825398213693068 0.007827926389912827 0 0 0
2289 5 40.224573788958004 9.825398213693068 0.007827926389912827 0 0 0
2276 1 35.583276813309006 10.718616233120004 1.636396648455601 0 0 0
2282 1 38.677474797075 10.718616233120004 1.636396648455601 0 0 0
2098 5 41.771672780840994 7.145744155413068 0.00782792638991251 0 0 0
2293 1 43.318771772724 8.038962174840004 1.636396648455601 0 0 0
2104 5 44.865870764607 7.145744155413068 0.00782792638991251 0 0 0
2299 1 46.41296975648999 8.038962174840004 1.636396648455601 0 0 0
2295 5 43.318771772724 9.825398213693068 0.007827926389912762 0 0 0
2301 5 46.41296975648999 9.825398213693068 0.007827926389912827 0 0 0
2288 1 41.771672780840994 10.718616233120004 1.636396648455601 0 0 0
2294 1 44.865870764607 10.718616233120004 1.636396648455601 0 0 0
2110 5 47.960068748373 7.145744155413069 0.00782792638991221 0 0 0
2113 1 49.507167740256 8.038962174840004 1.636396648455601 -1 0 0
1924 5 51.054266732139 7.145744155413068 0.007827926389912265 -1 0 0
2115 5 49.507167740256 9.825398213693068 0.00782792638991234 -1 0 0
2300 1 47.960068748373 10.718616233120004 1.636396648455601 0 0 0
2114 1 51.054266732139 10.718616233120004 1.636396648455601 -1 0 0
2119 1 52.601365724022 8.038962174840004 1.636396648455601 -1 0 0
1930 5 54.148464715905 7.145744155413068 0.007827926389912265 -1 0 0
1936 5 57.242662699671 7.145744155413068 0.007827926389912265 -1 0 0
2125 1 55.695563707788004 8.038962174840004 1.636396648455601 -1 0 0
2121 5 52.601365724022 9.825398213693068 0.00782792638991258 -1 0 0
2127 5 55.695563707788004 9.825398213693068 0.007827926389912579 -1 0 0
2120 1 54.148464715905 10.718616233120004 1.636396648455601 -1 0 0
2126 1 57.242662699671 10.718616233120004 1.636396648455601 -1 0 0
2131 1 58.789761691554006 8.038962174840004 1.636396648455601 -1 0 0
1942 5 60.336860683437 7.145744155413068 0.00782792638991254 -1 0 0
2137 1 61.88395967532 8.038962174840004 1.636396648455601 -1 0 0
1948 5 63.431058667203004 7.145744155413069 0.00782792638991221 -1 0 0
2133 5 58.789761691554006 9.825398213693068 0.007827926389912815 -1 0 0
2139 5 61.88395967532 9.825398213693068 0.007827926389912573 -1 0 0
2132 1 60.336860683437 10.718616233120004 1.636396648455601 -1 0 0
2138 1 63.431058667203004 10.718616233120004 1.636396648455601 -1 0 0
2143 1 64.97815765908601 8.038962174840004 1.636396648455601 -1 0 0
1954 5 66.525256650969 7.145744155413068 0.00782792638991251 -1 0 0
2149 1 68.072355642852 8.038962174840004 1.636396648455601 -1 0 0
1960 5 69.619454634735 7.145744155413068 0.00782792638991251 -1 0 0
2145 5 64.97815765908601 9.825398213693068 0.007827926389912827 -1 0 0
2151 5 68.072355642852 9.825398213693068 0.007827926389912762 -1 0 0
2144 1 66.525256650969 10.718616233120004 1.636396648455601 -1 0 0
2150 1 69.619454634735 10.718616233120004 1.636396648455601 -1 0 0
2155 1 71.166553626618 8.038962174840004 1.636396648455601 -1 0 0
1966 5 72.713652618501 7.145744155413069 0.007827926389912443 -1 0 0
2161 1 74.260751610384 8.038962174840004 1.636396648455601 -1 0 0
2157 5 71.166553626618 9.825398213693068 0.007827926389912827 -1 0 0
2163 5 74.260751610384 9.825398213693068 0.007827926389912827 -1 0 0
2156 1 72.713652618501 10.718616233120004 1.636396648455601 -1 0 0
1972 5 75.807850602267 7.145744155413068 0.00782792638991251 -1 0 0
2167 1 77.35494959415 8.038962174840004 1.636396648455601 -1 0 0
1978 5 78.902048586033 7.145744155413068 0.00782792638991251 -1 0 0
2173 1 80.449147577916 8.038962174840004 1.636396648455601 -1 0 0
2169 5 77.35494959415 9.825398213693068 0.007827926389912762 -1 0 0
2175 5 80.449147577916 9.825398213693068 0.007827926389912827 -1 0 0
2162 1 75.807850602267 10.718616233120004 1.636396648455601 -1 0 0
2168 1 78.902048586033 10.718616233120004 1.636396648455601 -1 0 0
1984 5 81.996246569799 7.145744155413069 0.007827926389912443 -1 0 0
1990 5 85.09044455356499 7.145744155413068 0.007827926389911968 -1 0 0
2179 1 83.543345561682 8.038962174840004 1.636396648455601 -1 0 0
2185 1 86.63754354544801 8.038962174840004 1.636396648455601 -1 0 0
2181 5 83.543345561682 9.825398213693068 0.007827926389912357 -1 0 0
2187 5 86.63754354544801 9.825398213693068 0.007827926389912752 -1 0 0
2174 1 81.996246569799 10.718616233120004 1.636396648455601 -1 0 0
2180 1 85.09044455356499 10.718616233120004 1.636396648455601 -1 0 0
1996 5 88.184642537331 7.145744155413068 0.007827926389912582 -1 0 0
2191 1 89.73174152921399 8.038962174840004 1.636396648455601 -1 0 0
2002 5 91.27884052109701 7.145744155413068 0.007827926389911968 -1 0 0
2197 1 92.82593951298 8.038962174840004 1.636396648455601 -1 0 0
2193 5 89.73174152921399 9.825398213693068 0.00782792638991275 -1 0 0
2199 5 92.82593951298 9.825398213693068 0.007827926389912357 -1 0 0
2186 1 88.184642537331 10.718616233120004 1.636396648455601 -1 0 0
2192 1 91.27884052109701 10.718616233120004 1.636396648455601 -1 0 0
2008 5 94.373038504863 7.145744155413069 0.007827926389912443 -1 0 0
2203 1 95.92013749674601 8.038962174840004 1.636396648455601 -1 0 0
2014 5 97.467236488629 7.145744155413069 0.00782792638991275 -1 0 0
2205 5 95.92013749674601 9.825398213693068 0.007827926389912827 -1 0 0
2198 1 94.373038504863 10.718616233120004 1.636396648455601 -1 0 0
2204 1 97.467236488629 10.718616233120004 1.636396648455601 -1 0 0
2212 5 1.5470989918829974 12.505052271973064 0.007827926389912749 0 0 0
2401 1 0 13.398270291400001 1.6363966484556007 0 0 0
2407 1 3.094197983766 13.398270291400001 1.6363966484556007 0 0 0
2218 5 4.641296975648999 12.505052271973064 0.007827926389913017 0 0 0
2403 5 0 15.184706330253064 0.007827926389912209 0 0 0
2409 5 3.0941979837660005 15.184706330253064 0.007827926389912213 0 0 0
2402 1 1.5470989918829978 16.07792434968 1.6363966484556014 0 0 0
2408 1 4.641296975648999 16.07792434968 1.6363966484556014 0 0 0
2413 1 6.1883959675319975 13.398270291400001 1.6363966484556007 0 0 0
2224 5 7.735494959415 12.505052271973064 0.00782792638991275 0 0 0
2419 1 9.282593951297997 13.398270291400001 1.6363966484556007 0 0 0
2230 5 10.829692943181001 12.505052271973064 0.007827926389912974 0 0 0
2415 5 6.188395967531997 15.184706330253064 0.007827926389912214 0 0 0
2421 5 9.282593951297997 15.184706330253064 0.007827926389911978 0 0 0
2414 1 7.735494959414999 16.07792434968 1.6363966484556014 0 0 0
2420 1 10.829692943181 16.07792434968 1.6363966484556014 0 0 0
2425 1 12.376791935063999 13.398270291400001 1.6363966484556007 0 0 0
2236 5 13.923890926946996 12.505052271973064 0.007827926389913241 0 0 0
2431 1 15.470989918829995 13.398270291400001 1.6363966484556007 0 0 0
2242 5 17.018088910712997 12.505052271973064 0.007827926389912226 0 0 0
2427 5 12.376791935063999 15.184706330253064 0.007827926389912455 0 0 0
2433 5 15.470989918829995 15.184706330253064 0.007827926389911971 0 0 0
2426 1 13.923890926946996 16.07792434968 1.6363966484556014 0 0 0
2432 1 17.018088910712997 16.07792434968 1.6363966484556012 0 0 0
2437 1 18.565187902596 13.398270291400001 1.6363966484556007 0 0 0
2248 5 20.112286894479006 12.505052271973064 0.007827926389912986 0 0 0
2443 1 21.659385886362 13.398270291400001 1.6363966484556007 0 0 0
2254 5 23.206484878245 12.505052271973064 0.00782792638991292 0 0 0
2439 5 18.565187902596 15.184706330253064 0.007827926389911715 0 0 0
2445 5 21.659385886361996 15.184706330253064 0.007827926389912239 0 0 0
2438 1 20.112286894479002 16.07792434968 1.6363966484556014 0 0 0
2444 1 23.206484878245 16.07792434968 1.6363966484556012 0 0 0
2449 1 24.753583870128 13.398270291400001 1.6363966484556007 0 0 0
2260 5 26.300682862010994 12.505052271973064 0.007827926389912986 0 0 0
2455 1 27.847781853894 13.398270291400001 1.6363966484556007 0 0 0
2451 5 24.753583870128004 15.184706330253064 0.007827926389912237 0 0 0
2457 5 27.847781853894 15.184706330253064 0.007827926389912188 0 0 0
2450 1 26.300682862010998 16.07792434968 1.6363966484556012 0 0 0
2266 5 29.394880845777003 12.505052271973064 0.007827926389912988 0 0 0
2461 1 30.941979837659996 13.398270291400001 1.6363966484556007 0 0 0
2272 5 32.489078829543 12.505052271973064 0.007827926389912455 0 0 0
2467 1 34.036177821426 13.398270291400001 1.6363966484556007 0 0 0
2463 5 30.941979837659993 15.184706330253064 0.007827926389912239 0 0 0
2469 5 34.036177821426 15.184706330253064 0.007827926389911713 0 0 0
2456 1 29.394880845777 16.07792434968 1.6363966484556014 0 0 0
2462 1 32.489078829543 16.07792434968 1.6363966484556012 0 0 0
2278 5 35.583276813309006 12.505052271973064 0.007827926389912986 0 0 0
2473 1 37.130375805191996 13.398270291400001 1.6363966484556007 0 0 0
2284 5 38.677474797075 12.505052271973064 0.00782792638991292 0 0 0
2479 1 40.224573788958004 13.398270291400001 1.6363966484556007 0 0 0
2475 5 37.130375805191996 15.184706330253064 0.007827926389912239 0 0 0
2481 5 40.224573788958004 15.184706330253064 0.007827926389912235 0 0 0
2468 1 35.583276813309006 16.07792434968 1.6363966484556014 0 0 0
2474 1 38.677474797075 16.07792434968 1.6363966484556012 0 0 0
2290 5 41.771672780840994 12.505052271973064 0.007827926389912986 0 0 0
2485 1 43.318771772724 13.398270291400001 1.6363966484556007 0 0 0
2296 5 44.865870764607 12.505052271973064 0.007827926389912986 0 0 0
2491 1 46.41296975648999 13.398270291400001 1.6363966484556007 0 0 0
2487 5 43.318771772724 15.184706330253064 0.007827926389912188 0 0 0
2493 5 46.41296975648999 15.184706330253064 0.007827926389912239 0 0 0
2480 1 41.771672780840994 16.07792434968 1.6363966484556012 0 0 0
2486 1 44.865870764607 16.07792434968 1.6363966484556014 0 0 0
2302 5 47.960068748373 12.505052271973064 0.00782792638991269 0 0 0
2305 1 49.507167740256 13.398270291400001 1.6363966484556007 -1 0 0
2116 5 51.054266732139 12.505052271973064 0.007827926389912752 -1 0 0
2307 5 49.507167740256 15.184706330253062 0.007827926389911736 -1 0 0
2492 1 47.960068748373 16.07792434968 1.6363966484556012 0 0 0
2306 1 51.054266732139 16.07792434968 1.6363966484556014 -1 0 0
2311 1 52.601365724022 13.398270291400001 1.6363966484556007 -1 0 0
2122 5 54.148464715905 12.505052271973064 0.00782792638991275 -1 0 0
2128 5 57.242662699671 12.505052271973064 0.007827926389912749 -1 0 0
2317 1 55.695563707788004 13.398270291400001 1.6363966484556007 -1 0 0
2313 5 52.601365724022 15.184706330253064 0.007827926389911978 -1 0 0
2319 5 55.695563707788004 15.184706330253064 0.007827926389911977 -1 0 0
2312 1 54.148464715905 16.07792434968 1.6363966484556014 -1 0 0
2318 1 57.242662699671 16.07792434968 1.6363966484556014 -1 0 0
2323 1 58.789761691554006 13.398270291400001 1.6363966484556007 -1 0 0
2134 5 60.336860683437 12.505052271973064 0.007827926389913017 -1 0 0
2329 1 61.88395967532 13.398270291400001 1.6363966484556007 -1 0 0
2140 5 63.431058667203004 12.505052271973064 0.007827926389912691 -1 0 0
2325 5 58.789761691554006 15.184706330253064 0.007827926389912214 -1 0 0
2331 5 61.88395967532 15.184706330253064 0.007827926389911971 -1 0 0
2324 1 60.336860683437 16.07792434968 1.6363966484556014 -1 0 0
2330 1 63.431058667203004 16.07792434968 1.6363966484556012 -1 0 0
2335 1 64.97815765908601 13.398270291400001 1.6363966484556007 -1 0 0
2146 5 66.525256650969 12.505052271973064 0.007827926389912988 -1 0 0
2341 1 68.072355642852 13.398270291400001 1.6363966484556007 -1 0 0
2152 5 69.619454634735 12.505052271973064 0.007827926389912986 -1 0 0
2337 5 64.97815765908601 15.184706330253064 0.007827926389912237 -1 0 0
2343 5 68.072355642852 15.184706330253064 0.007827926389912188 -1 0 0
2336 1 66.525256650969 16.07792434968 1.6363966484556012 -1 0 0
2342 1 69.619454634735 16.07792434968 1.6363966484556014 -1 0 0
2347 1 71.166553626618 13.398270291400001 1.6363966484556007 -1 0 0
2158 5 72.713652618501 12.505052271973064 0.00782792638991292 -1 0 0
2353 1 74.260751610384 13.398270291400001 1.6363966484556007 -1 0 0
2349 5 71.166553626618 15.184706330253064 0.007827926389912237 -1 0 0
2355 5 74.260751610384 15.184706330253064 0.007827926389912235 -1 0 0
2348 1 72.713652618501 16.07792434968 1.6363966484556012 -1 0 0
2164 5 75.807850602267 12.505052271973064 0.007827926389912988 -1 0 0
2359 1 77.35494959415 13.398270291400001 1.6363966484556007 -1 0 0
2170 5 78.902048586033 12.505052271973064 0.007827926389912986 -1 0 0
2365 1 80.449147577916 13.398270291400001 1.6363966484556007 -1 0 0
2361 5 77.35494959415 15.184706330253064 0.007827926389912188 -1 0 0
2367 5 80.449147577916 15.184706330253064 0.007827926389912239 -1 0 0
2354 1 75.807850602267 16.07792434968 1.6363966484556012 -1 0 0
2360 1 78.902048586033 16.07792434968 1.6363966484556014 -1 0 0
2176 5 81.996246569799 12.505052271973064 0.007827926389912922 -1 0 0
2182 5 85.09044455356499 12.505052271973064 0.007827926389912455 -1 0 0
2371 1 83.543345561682 13.398270291400001 1.6363966484556007 -1 0 0
2377 1 86.63754354544801 13.398270291400001 1.6363966484556007 -1 0 0
2373 5 83.543345561682 15.184706330253062 0.007827926389911765 -1 0 0
2379 5 86.63754354544801 15.184706330253064 0.007827926389912148 -1 0 0
2366 1 81.996246569799 16.07792434968 1.6363966484556012 -1 0 0
2372 1 85.09044455356499 16.07792434968 1.6363966484556014 -1 0 0
2188 5 88.184642537331 12.505052271973064 0.007827926389913071 -1 0 0
2383 1 89.73174152921399 13.398270291400001 1.6363966484556007 -1 0 0
2194 5 91.27884052109701 12.505052271973064 0.007827926389912455 -1 0 0
2389 1 92.82593951298 13.398270291400001 1.6363966484556007 -1 0 0
2385 5 89.73174152921399 15.184706330253064 0.007827926389912148 -1 0 0
2391 5 92.82593951298 15.184706330253062 0.007827926389911768 -1 0 0
2378 1 88.184642537331 16.07792434968 1.6363966484556014 -1 0 0
2384 1 91.27884052109701 16.07792434968 1.6363966484556014 -1 0 0
2200 5 94.373038504863 12.505052271973064 0.007827926389912922 -1 0 0
2395 1 95.92013749674601 13.398270291400001 1.6363966484556007 -1 0 0
2206 5 97.467236488629 12.505052271973064 0.007827926389913222 -1 0 0
2397 5 95.92013749674601 15.184706330253064 0.007827926389912235 -1 0 0
2390 1 94.373038504863 16.07792434968 1.6363966484556012 -1 0 0
2396 1 97.467236488629 16.07792434968 1.6363966484556012 -1 0 0
2404 5 1.5470989918829976 17.86436038853307 0.007827926389912018 0 0 0
2593 1 0 18.75757840796 1.6363966484556005 0 0 0
2599 1 3.094197983766 18.75757840796 1.6363966484556005 0 0 0
2410 5 4.641296975648999 17.86436038853307 0.007827926389912272 0 0 0
2595 5 0 20.544014446813065 0.00782792638991271 0 0 0
2601 5 3.0941979837660005 20.544014446813065 0.007827926389912714 0 0 0
2594 1 1.5470989918829978 21.43723246624 1.6363966484556014 0 0 0
2600 1 4.641296975648999 21.43723246624 1.6363966484556014 0 0 0
2605 1 6.1883959675319975 18.75757840796 1.6363966484556005 0 0 0
2416 5 7.735494959415 17.86436038853307 0.007827926389912018 0 0 0
2611 1 9.282593951297997 18.75757840796 1.6363966484556005 0 0 0
2422 5 10.829692943181001 17.86436038853307 0.007827926389912254 0 0 0
2607 5 6.188395967531997 20.544014446813065 0.007827926389912714 0 0 0
2613 5 9.282593951297997 20.544014446813065 0.007827926389912481 0 0 0
2606 1 7.735494959414999 21.43723246624 1.6363966484556014 0 0 0
2612 1 10.829692943181 21.43723246624 1.6363966484556014 0 0 0
2617 1 12.376791935063999 18.75757840796 1.6363966484556005 0 0 0
2428 5 13.923890926946996 17.86436038853307 0.007827926389912507 0 0 0
2623 1 15.470989918829995 18.75757840796 1.6363966484556005 0 0 0