LAMMPS data file via write_data, version 29 Aug 2024, timestep = 2, units = metal

7296 atoms
6 atom types

0 99.014335480512 xlo xhi
0 101.82685421464 ylo yhi
-50 50 zlo zhi

Masses

1 186.207
2 186.207
3 32.06
4 32.06
5 32.06
6 32.06

Atoms # atomic

1826 1 1.547098991882998 2.77145407917688e-15 1.635320775051793 0 0 0
1832 1 4.641296975648999 2.8618189996940606e-15 1.635320775051793 0 0 0
1828 4 1.5470989918829978 1.786436038853107 0.009528564490230198 0 0 0
2017 1 0 2.679654058280003 1.635320775051793 0 0 0
2023 1 3.0941979837659996 2.679654058280003 1.635320775051793 0 0 0
1834 4 4.641296975648999 1.786436038853107 0.009528564490230521 0 0 0
2019 4 0 4.466090097133108 0.009528564490230814 0 0 0
2025 4 3.094197983766 4.466090097133108 0.009528564490230804 0 0 0
2018 1 1.547098991882998 5.359308116560003 1.635320775051793 0 0 0
2024 1 4.641296975648999 5.359308116560004 1.635320775051793 0 0 0
1838 1 7.735494959414999 2.811291676495929e-15 1.635320775051793 0 0 0
1844 1 10.829692943181 2.61176920798001e-15 1.635320775051793 0 0 0
2029 1 6.1883959675319975 2.679654058280003 1.635320775051793 0 0 0
1840 4 7.735494959415 1.786436038853107 0.00952856449023024 0 0 0
2035 1 9.282593951297997 2.6796540582800024 1.635320775051793 0 0 0
1846 4 10.829692943181001 1.786436038853107 0.00952856449023053 0 0 0
2031 4 6.188395967531997 4.466090097133108 0.009528564490230814 0 0 0
2037 4 9.282593951297997 4.466090097133107 0.00952856449023046 0 0 0
2030 1 7.735494959414999 5.359308116560003 1.635320775051793 0 0 0
2036 1 10.829692943181 5.359308116560003 1.635320775051793 0 0 0
1850 1 13.923890926946996 2.6645014836244e-15 1.635320775051793 0 0 0
1856 1 17.018088910712997 2.7674534372797715e-15 1.635320775051793 0 0 0
2041 1 12.376791935063999 2.679654058280003 1.6353207750517929 0 0 0
1852 4 13.923890926946996 1.786436038853107 0.009528564490230875 0 0 0
2047 1 15.470989918829996 2.679654058280003 1.635320775051793 0 0 0
1858 4 17.018088910712997 1.7864360388531066 0.009528564490229707 0 0 0
2043 4 12.376791935063999 4.466090097133108 0.009528564490231104 0 0 0
2049 4 15.470989918829995 4.466090097133107 0.00952856449023048 0 0 0
2042 1 13.923890926946996 5.359308116560004 1.635320775051793 0 0 0
2048 1 17.018088910712997 5.359308116560003 1.635320775051793 0 0 0
1862 1 20.112286894479002 2.8036489391982463e-15 1.635320775051793 0 0 0
1868 1 23.206484878245 2.60591049746627e-15 1.635320775051793 0 0 0
2053 1 18.565187902596 2.679654058280003 1.6353207750517929 0 0 0
1864 4 20.112286894479006 1.7864360388531069 0.0095285644902306 0 0 0
2059 1 21.659385886362 2.679654058280003 1.6353207750517929 0 0 0
1870 4 23.206484878245 1.7864360388531075 0.009528564490230547 0 0 0
2055 4 18.565187902596 4.466090097133107 0.009528564490230259 0 0 0
2061 4 21.659385886361996 4.466090097133107 0.009528564490230854 0 0 0
2054 1 20.112286894479002 5.359308116560003 1.6353207750517929 0 0 0
2060 1 23.206484878245 5.359308116560003 1.6353207750517929 0 0 0
1874 1 26.300682862010998 2.8031782210896124e-15 1.635320775051793 0 0 0
2065 1 24.753583870128 2.679654058280003 1.6353207750517929 0 0 0
1876 4 26.300682862010994 1.7864360388531069 0.009528564490230554 0 0 0
2071 1 27.847781853894 2.6796540582800024 1.6353207750517929 0 0 0
2067 4 24.753583870128004 4.466090097133107 0.00952856449023083 0 0 0
2073 4 27.847781853894 4.466090097133108 0.00952856449023082 0 0 0
2066 1 26.300682862010998 5.359308116560003 1.635320775051793 0 0 0
1880 1 29.394880845777 2.802397824878207e-15 1.635320775051793 0 0 0
1886 1 32.489078829543 2.7930332551518515e-15 1.6353207750517929 0 0 0
1882 4 29.394880845777003 1.7864360388531069 0.009528564490230566 0 0 0
2077 1 30.941979837659996 2.679654058280003 1.6353207750517929 0 0 0
1888 4 32.489078829543 1.786436038853107 0.009528564490229943 0 0 0
2083 1 34.036177821426 2.679654058280003 1.6353207750517929 0 0 0
2079 4 30.941979837659993 4.466090097133107 0.009528564490230875 0 0 0
2085 4 34.036177821426 4.466090097133107 0.00952856449023022 0 0 0
2072 1 29.394880845777 5.359308116560003 1.635320775051793 0 0 0
2078 1 32.489078829543 5.359308116560003 1.6353207750517929 0 0 0
1892 1 35.583276813309006 2.7956467313514735e-15 1.635320775051793 0 0 0
1898 1 38.677474797075 2.60591049746627e-15 1.6353207750517929 0 0 0
1894 4 35.583276813309006 1.786436038853107 0.009528564490230595 0 0 0
2089 1 37.130375805191996 2.679654058280003 1.6353207750517929 0 0 0
1900 4 38.677474797075 1.7864360388531073 0.009528564490230556 0 0 0
2095 1 40.224573788958004 2.679654058280003 1.6353207750517929 0 0 0
2091 4 37.130375805191996 4.466090097133107 0.009528564490230864 0 0 0
2097 4 40.224573788958004 4.466090097133107 0.009528564490230842 0 0 0
2084 1 35.583276813309006 5.359308116560003 1.6353207750517929 0 0 0
2090 1 38.677474797075 5.359308116560003 1.6353207750517929 0 0 0
1904 1 41.771672780840994 2.7713304297083845e-15 1.635320775051793 0 0 0
1910 1 44.865870764607 2.77211082591979e-15 1.635320775051793 0 0 0
1906 4 41.771672780840994 1.786436038853107 0.009528564490230557 0 0 0
2101 1 43.318771772724 2.6796540582800024 1.6353207750517929 0 0 0
1912 4 44.865870764607 1.786436038853107 0.009528564490230566 0 0 0
2107 1 46.41296975648999 2.679654058280003 1.6353207750517929 0 0 0
2103 4 43.318771772724 4.466090097133108 0.0095285644902308 0 0 0
2109 4 46.41296975648999 4.466090097133107 0.009528564490230863 0 0 0
2096 1 41.771672780840994 5.359308116560003 1.635320775051793 0 0 0
2102 1 44.865870764607 5.359308116560003 1.635320775051793 0 0 0
1916 1 47.960068748373 2.5896583208094564e-15 1.6353207750517929 0 0 0
1730 1 51.054266732139 2.819938044366148e-15 1.6353207750517929 -1 0 0
1918 4 47.960068748373 1.786436038853107 0.009528564490230287 0 0 0
1921 1 49.507167740256 2.6796540582800024 1.6353207750517929 -1 0 0
1732 4 51.054266732139 1.7864360388531069 0.009528564490230276 -1 0 0
1923 4 49.507167740256 4.466090097133107 0.009528564490230299 -1 0 0
2108 1 47.960068748373 5.359308116560003 1.6353207750517929 0 0 0
1922 1 51.054266732139 5.359308116560003 1.635320775051793 -1 0 0
1736 1 54.148464715905 2.7996971656949003e-15 1.635320775051793 -1 0 0
1742 1 57.242662699671 2.808950487861712e-15 1.635320775051793 -1 0 0
1927 1 52.601365724022 2.679654058280003 1.635320775051793 -1 0 0
1738 4 54.148464715905 1.7864360388531069 0.009528564490230257 -1 0 0
1744 4 57.242662699671 1.786436038853107 0.009528564490230228 -1 0 0
1933 1 55.695563707788004 2.679654058280003 1.635320775051793 -1 0 0
1929 4 52.601365724022 4.466090097133107 0.009528564490230514 -1 0 0
1935 4 55.695563707788004 4.466090097133107 0.009528564490230484 -1 0 0
1928 1 54.148464715905 5.359308116560003 1.635320775051793 -1 0 0
1934 1 57.242662699671 5.359308116560003 1.635320775051793 -1 0 0
1748 1 60.336860683437 2.84000492669105e-15 1.635320775051793 -1 0 0
1754 1 63.431058667203004 2.603086188814468e-15 1.6353207750517929 -1 0 0
1939 1 58.789761691554006 2.679654058280003 1.635320775051793 -1 0 0
1750 4 60.336860683437 1.786436038853107 0.009528564490230594 -1 0 0
1945 1 61.88395967532 2.679654058280003 1.635320775051793 -1 0 0
1756 4 63.431058667203004 1.786436038853107 0.009528564490230271 -1 0 0
1941 4 58.789761691554006 4.466090097133108 0.009528564490230835 -1 0 0
1947 4 61.88395967532 4.466090097133107 0.00952856449023046 -1 0 0
1940 1 60.336860683437 5.359308116560004 1.635320775051793 -1 0 0
1946 1 63.431058667203004 5.359308116560003 1.635320775051793 -1 0 0
1760 1 66.525256650969 2.771801147817018e-15 1.635320775051793 -1 0 0
1766 1 69.619454634735 2.771801147817018e-15 1.635320775051793 -1 0 0
1951 1 64.97815765908601 2.679654058280003 1.6353207750517929 -1 0 0
1762 4 66.525256650969 1.786436038853107 0.009528564490230566 -1 0 0
1957 1 68.072355642852 2.6796540582800024 1.6353207750517929 -1 0 0
1768 4 69.619454634735 1.786436038853107 0.009528564490230557 -1 0 0
1953 4 64.97815765908601 4.466090097133107 0.009528564490230847 -1 0 0
1959 4 68.072355642852 4.466090097133108 0.0095285644902308 -1 0 0
1952 1 66.525256650969 5.359308116560003 1.635320775051793 -1 0 0
1958 1 69.619454634735 5.359308116560003 1.635320775051793 -1 0 0
1772 1 72.713652618501 2.60591049746627e-15 1.6353207750517929 -1 0 0
1963 1 71.166553626618 2.679654058280003 1.6353207750517929 -1 0 0
1774 4 72.713652618501 1.7864360388531073 0.009528564490230556 -1 0 0
1969 1 74.260751610384 2.679654058280003 1.6353207750517929 -1 0 0
1965 4 71.166553626618 4.466090097133107 0.009528564490230842 -1 0 0
1971 4 74.260751610384 4.466090097133107 0.009528564490230842 -1 0 0
1964 1 72.713652618501 5.359308116560003 1.6353207750517929 -1 0 0
1778 1 75.807850602267 2.77211082591979e-15 1.635320775051793 -1 0 0
1784 1 78.902048586033 2.77211082591979e-15 1.635320775051793 -1 0 0
1780 4 75.807850602267 1.786436038853107 0.009528564490230557 -1 0 0
1975 1 77.35494959415 2.6796540582800024 1.6353207750517929 -1 0 0
1786 4 78.902048586033 1.786436038853107 0.009528564490230557 -1 0 0
1981 1 80.449147577916 2.679654058280003 1.6353207750517929 -1 0 0
1977 4 77.35494959415 4.466090097133108 0.0095285644902308 -1 0 0
1983 4 80.449147577916 4.466090097133107 0.009528564490230849 -1 0 0
1970 1 75.807850602267 5.359308116560003 1.635320775051793 -1 0 0
1976 1 78.902048586033 5.359308116560003 1.635320775051793 -1 0 0
1790 1 81.996246569799 2.635726778316053e-15 1.6353207750517929 -1 0 0
1796 1 85.09044455356499 2.831358928441852e-15 1.6353207750517929 -1 0 0
1792 4 81.996246569799 1.7864360388531073 0.009528564490230594 -1 0 0
1798 4 85.09044455356499 1.7864360388531069 0.009528564490229947 -1 0 0
1987 1 83.543345561682 2.679654058280003 1.6353207750517929 -1 0 0
1993 1 86.63754354544801 2.679654058280003 1.6353207750517929 -1 0 0
1989 4 83.543345561682 4.466090097133107 0.00952856449023023 -1 0 0
1995 4 86.63754354544801 4.466090097133108 0.009528564490230831 -1 0 0
1982 1 81.996246569799 5.359308116560003 1.6353207750517929 -1 0 0
1988 1 85.09044455356499 5.359308116560003 1.6353207750517929 -1 0 0
1802 1 88.184642537331 2.833130368506332e-15 1.635320775051793 -1 0 0
1808 1 91.27884052109701 2.830107814121813e-15 1.6353207750517929 -1 0 0
1804 4 88.184642537331 1.7864360388531066 0.00952856449023069 -1 0 0
1999 1 89.73174152921399 2.679654058280003 1.6353207750517929 -1 0 0
1810 4 91.27884052109701 1.7864360388531069 0.009528564490229947 -1 0 0
2005 1 92.82593951298 2.679654058280003 1.6353207750517929 -1 0 0
2001 4 89.73174152921399 4.466090097133108 0.009528564490230831 -1 0 0
2007 4 92.82593951298 4.466090097133107 0.00952856449023023 -1 0 0
1994 1 88.184642537331 5.359308116560003 1.6353207750517929 -1 0 0
2000 1 91.27884052109701 5.359308116560003 1.6353207750517929 -1 0 0
1814 1 94.373038504863 2.635726778316053e-15 1.6353207750517929 -1 0 0
1820 1 97.467236488629 2.6504178853342894e-15 1.6353207750517929 -1 0 0
1816 4 94.373038504863 1.7864360388531073 0.009528564490230594 -1 0 0
2011 1 95.92013749674601 2.679654058280003 1.6353207750517929 -1 0 0
1822 4 97.467236488629 1.7864360388531073 0.00952856449023087 -1 0 0
2013 4 95.92013749674601 4.466090097133107 0.009528564490230831 -1 0 0
2006 1 94.373038504863 5.359308116560003 1.6353207750517929 -1 0 0
2012 1 97.467236488629 5.359308116560003 1.635320775051793 -1 0 0
2020 4 1.5470989918829978 7.145744155413108 0.009528564490230488 0 0 0
2209 1 0 8.038962174840004 1.635320775051793 0 0 0
2215 1 3.0941979837659996 8.038962174840004 1.635320775051793 0 0 0
2026 4 4.641296975648999 7.145744155413108 0.00952856449023087 0 0 0
2211 4 0 9.82539821369311 0.009528564490231189 0 0 0
2217 4 3.094197983766 9.82539821369311 0.009528564490231142 0 0 0
2210 1 1.547098991882998 10.718616233120004 1.6353207750517929 0 0 0
2216 1 4.641296975648999 10.718616233120004 1.6353207750517929 0 0 0
2221 1 6.1883959675319975 8.038962174840004 1.635320775051793 0 0 0
2032 4 7.735494959415 7.145744155413108 0.00952856449023048 0 0 0
2227 1 9.282593951297997 8.038962174840004 1.635320775051793 0 0 0
2038 4 10.829692943181001 7.145744155413109 0.009528564490230814 0 0 0
2223 4 6.188395967531997 9.82539821369311 0.00952856449023115 0 0 0
2229 4 9.282593951297997 9.82539821369311 0.009528564490230903 0 0 0
2222 1 7.735494959414999 10.718616233120004 1.6353207750517929 0 0 0
2228 1 10.829692943181 10.718616233120004 1.6353207750517929 0 0 0
2233 1 12.376791935063999 8.038962174840004 1.635320775051793 0 0 0
2044 4 13.923890926946996 7.145744155413109 0.009528564490231118 0 0 0
2239 1 15.470989918829996 8.038962174840004 1.635320775051793 0 0 0
2050 4 17.018088910712997 7.145744155413108 0.009528564490229914 0 0 0
2235 4 12.376791935063999 9.82539821369311 0.009528564490231496 0 0 0
2241 4 15.470989918829995 9.82539821369311 0.009528564490230885 0 0 0
2234 1 13.923890926946996 10.718616233120004 1.6353207750517929 0 0 0
2240 1 17.018088910712997 10.718616233120004 1.6353207750517929 0 0 0
2245 1 18.565187902596 8.038962174840004 1.635320775051793 0 0 0
2056 4 20.112286894479006 7.145744155413108 0.009528564490230835 0 0 0
2251 1 21.659385886362 8.038962174840004 1.6353207750517929 0 0 0
2062 4 23.206484878245 7.14574415541311 0.009528564490230804 0 0 0
2247 4 18.565187902596 9.82539821369311 0.009528564490230512 0 0 0
2253 4 21.659385886361996 9.825398213693108 0.009528564490231211 0 0 0
2246 1 20.112286894479002 10.718616233120004 1.6353207750517929 0 0 0
2252 1 23.206484878245 10.718616233120004 1.6353207750517929 0 0 0
2257 1 24.753583870128 8.038962174840004 1.6353207750517929 0 0 0
2068 4 26.300682862010994 7.145744155413108 0.009528564490230824 0 0 0
2263 1 27.847781853894 8.038962174840004 1.635320775051793 0 0 0
2259 4 24.753583870128004 9.825398213693108 0.009528564490231197 0 0 0
2265 4 27.847781853894 9.82539821369311 0.009528564490231116 0 0 0
2258 1 26.300682862010998 10.718616233120004 1.6353207750517929 0 0 0
2074 4 29.394880845777003 7.145744155413108 0.009528564490230844 0 0 0
2269 1 30.941979837659996 8.038962174840004 1.6353207750517929 0 0 0
2080 4 32.489078829543 7.145744155413108 0.009528564490230203 0 0 0
2275 1 34.036177821426 8.038962174840004 1.6353207750517929 0 0 0
2271 4 30.941979837659993 9.825398213693108 0.009528564490231203 0 0 0
2277 4 34.036177821426 9.82539821369311 0.009528564490230452 0 0 0
2264 1 29.394880845777 10.718616233120004 1.6353207750517929 0 0 0
2270 1 32.489078829543 10.718616233120004 1.6353207750517929 0 0 0
2086 4 35.583276813309006 7.145744155413108 0.009528564490230838 0 0 0
2281 1 37.130375805191996 8.038962174840004 1.6353207750517929 0 0 0
2092 4 38.677474797075 7.145744155413109 0.00952856449023079 0 0 0
2287 1 40.224573788958004 8.038962174840004 1.6353207750517929 0 0 0
2283 4 37.130375805191996 9.82539821369311 0.009528564490231222 0 0 0
2289 4 40.224573788958004 9.82539821369311 0.009528564490231208 0 0 0
2276 1 35.583276813309006 10.718616233120004 1.6353207750517929 0 0 0
2282 1 38.677474797075 10.718616233120004 1.6353207750517929 0 0 0
2098 4 41.771672780840994 7.145744155413108 0.009528564490230833 0 0 0
2293 1 43.318771772724 8.038962174840004 1.635320775051793 0 0 0
2104 4 44.865870764607 7.145744155413108 0.009528564490230838 0 0 0
2299 1 46.41296975648999 8.038962174840004 1.635320775051793 0 0 0
2295 4 43.318771772724 9.82539821369311 0.009528564490231093 0 0 0
2301 4 46.41296975648999 9.82539821369311 0.009528564490231229 0 0 0
2288 1 41.771672780840994 10.718616233120004 1.6353207750517929 0 0 0
2294 1 44.865870764607 10.718616233120004 1.6353207750517929 0 0 0
2110 4 47.960068748373 7.145744155413109 0.009528564490230526 0 0 0
2113 1 49.507167740256 8.038962174840004 1.635320775051793 -1 0 0
1924 4 51.054266732139 7.145744155413108 0.009528564490230465 -1 0 0
2115 4 49.507167740256 9.825398213693108 0.009528564490230556 -1 0 0
2300 1 47.960068748373 10.718616233120004 1.6353207750517929 0 0 0
2114 1 51.054266732139 10.718616233120004 1.6353207750517929 -1 0 0
2119 1 52.601365724022 8.038962174840004 1.635320775051793 -1 0 0
1930 4 54.148464715905 7.145744155413108 0.009528564490230446 -1 0 0
1936 4 57.242662699671 7.145744155413108 0.00952856449023046 -1 0 0
2125 1 55.695563707788004 8.038962174840004 1.635320775051793 -1 0 0
2121 4 52.601365724022 9.82539821369311 0.00952856449023089 -1 0 0
2127 4 55.695563707788004 9.82539821369311 0.009528564490230883 -1 0 0
2120 1 54.148464715905 10.718616233120004 1.6353207750517929 -1 0 0
2126 1 57.242662699671 10.718616233120004 1.6353207750517929 -1 0 0
2131 1 58.789761691554006 8.038962174840004 1.635320775051793 -1 0 0
1942 4 60.336860683437 7.145744155413108 0.009528564490230894 -1 0 0
2137 1 61.88395967532 8.038962174840004 1.635320775051793 -1 0 0
1948 4 63.431058667203004 7.145744155413109 0.009528564490230502 -1 0 0
2133 4 58.789761691554006 9.82539821369311 0.0095285644902312 -1 0 0
2139 4 61.88395967532 9.82539821369311 0.009528564490230894 -1 0 0
2132 1 60.336860683437 10.718616233120004 1.6353207750517929 -1 0 0
2138 1 63.431058667203004 10.718616233120004 1.6353207750517929 -1 0 0
2143 1 64.97815765908601 8.038962174840004 1.635320775051793 -1 0 0
1954 4 66.525256650969 7.145744155413108 0.009528564490230838 -1 0 0
2149 1 68.072355642852 8.038962174840004 1.635320775051793 -1 0 0
1960 4 69.619454634735 7.145744155413108 0.009528564490230833 -1 0 0
2145 4 64.97815765908601 9.82539821369311 0.009528564490231222 -1 0 0
2151 4 68.072355642852 9.82539821369311 0.009528564490231093 -1 0 0
2144 1 66.525256650969 10.718616233120004 1.6353207750517929 -1 0 0
2150 1 69.619454634735 10.718616233120004 1.6353207750517929 -1 0 0
2155 1 71.166553626618 8.038962174840004 1.6353207750517929 -1 0 0
1966 4 72.713652618501 7.145744155413109 0.00952856449023079 -1 0 0
2161 1 74.260751610384 8.038962174840004 1.6353207750517929 -1 0 0
2157 4 71.166553626618 9.82539821369311 0.009528564490231208 -1 0 0
2163 4 74.260751610384 9.82539821369311 0.009528564490231208 -1 0 0
2156 1 72.713652618501 10.718616233120004 1.6353207750517929 -1 0 0
1972 4 75.807850602267 7.145744155413108 0.009528564490230833 -1 0 0
2167 1 77.35494959415 8.038962174840004 1.635320775051793 -1 0 0
1978 4 78.902048586033 7.145744155413108 0.009528564490230833 -1 0 0
2173 1 80.449147577916 8.038962174840004 1.6353207750517929 -1 0 0
2169 4 77.35494959415 9.82539821369311 0.009528564490231093 -1 0 0
2175 4 80.449147577916 9.82539821369311 0.00952856449023122 -1 0 0
2162 1 75.807850602267 10.718616233120004 1.6353207750517929 -1 0 0
2168 1 78.902048586033 10.718616233120004 1.6353207750517929 -1 0 0
1984 4 81.996246569799 7.145744155413109 0.009528564490230828 -1 0 0
1990 4 85.09044455356499 7.145744155413108 0.00952856449023022 -1 0 0
2179 1 83.543345561682 8.038962174840004 1.6353207750517929 -1 0 0
2185 1 86.63754354544801 8.038962174840004 1.6353207750517929 -1 0 0
2181 4 83.543345561682 9.825398213693108 0.009528564490230587 -1 0 0
2187 4 86.63754354544801 9.82539821369311 0.009528564490231099 -1 0 0
2174 1 81.996246569799 10.718616233120004 1.6353207750517929 -1 0 0
2180 1 85.09044455356499 10.718616233120004 1.6353207750517929 -1 0 0
1996 4 88.184642537331 7.145744155413108 0.009528564490231022 -1 0 0
2191 1 89.73174152921399 8.038962174840004 1.6353207750517929 -1 0 0
2002 4 91.27884052109701 7.145744155413108 0.00952856449023022 -1 0 0
2197 1 92.82593951298 8.038962174840004 1.6353207750517929 -1 0 0
2193 4 89.73174152921399 9.82539821369311 0.009528564490231097 -1 0 0
2199 4 92.82593951298 9.825398213693108 0.009528564490230587 -1 0 0
2186 1 88.184642537331 10.718616233120004 1.6353207750517929 -1 0 0
2192 1 91.27884052109701 10.718616233120004 1.6353207750517929 -1 0 0
2008 4 94.373038504863 7.145744155413109 0.009528564490230821 -1 0 0
2203 1 95.92013749674601 8.038962174840004 1.635320775051793 -1 0 0
2014 4 97.467236488629 7.145744155413109 0.009528564490231133 -1 0 0
2205 4 95.92013749674601 9.82539821369311 0.009528564490231234 -1 0 0
2198 1 94.373038504863 10.718616233120004 1.6353207750517929 -1 0 0
2204 1 97.467236488629 10.718616233120004 1.6353207750517929 -1 0 0
2212 4 1.5470989918829976 12.505052271973105 0.009528564490231059 0 0 0
2401 1 0 13.398270291400001 1.635320775051793 0 0 0
2407 1 3.0941979837659996 13.398270291400001 1.635320775051793 0 0 0
2218 4 4.641296975648999 12.505052271973105 0.009528564490231359 0 0 0
2403 4 0 15.184706330253105 0.009528564490230767 0 0 0
2409 4 3.094197983766 15.184706330253105 0.009528564490230765 0 0 0
2402 1 1.547098991882998 16.07792434968 1.6353207750517929 0 0 0
2408 1 4.641296975648999 16.07792434968 1.6353207750517929 0 0 0
2413 1 6.1883959675319975 13.398270291400001 1.635320775051793 0 0 0
2224 4 7.735494959415 12.505052271973105 0.0095285644902311 0 0 0
2419 1 9.282593951297997 13.398270291400001 1.635320775051793 0 0 0
2230 4 10.829692943181001 12.505052271973105 0.009528564490231333 0 0 0
2415 4 6.188395967531997 15.184706330253105 0.009528564490230772 0 0 0
2421 4 9.282593951297997 15.184706330253105 0.00952856449023049 0 0 0
2414 1 7.735494959414999 16.07792434968 1.6353207750517926 0 0 0
2420 1 10.829692943181 16.07792434968 1.6353207750517929 0 0 0
2425 1 12.376791935063999 13.398270291400001 1.635320775051793 0 0 0
2236 4 13.923890926946996 12.505052271973105 0.009528564490231685 0 0 0
2431 1 15.470989918829996 13.398270291400001 1.635320775051793 0 0 0
2242 4 17.018088910712997 12.505052271973105 0.009528564490230526 0 0 0
2427 4 12.376791935063999 15.184706330253105 0.009528564490231073 0 0 0
2433 4 15.470989918829995 15.184706330253105 0.009528564490230465 0 0 0
2426 1 13.923890926946996 16.07792434968 1.6353207750517929 0 0 0
2432 1 17.018088910712997 16.07792434968 1.6353207750517929 0 0 0
2437 1 18.565187902596 13.398270291400001 1.635320775051793 0 0 0
2248 4 20.112286894479006 12.505052271973105 0.009528564490231399 0 0 0
2443 1 21.659385886362 13.398270291400001 1.635320775051793 0 0 0
2254 4 23.206484878245 12.505052271973105 0.009528564490231253 0 0 0
2439 4 18.565187902596 15.184706330253105 0.009528564490230186 0 0 0
2445 4 21.659385886361996 15.184706330253105 0.009528564490230814 0 0 0
2438 1 20.112286894479002 16.07792434968 1.6353207750517929 0 0 0
2444 1 23.206484878245 16.07792434968 1.6353207750517929 0 0 0
2449 1 24.753583870128 13.398270291400001 1.635320775051793 0 0 0
2260 4 26.300682862010994 12.505052271973105 0.009528564490231359 0 0 0
2455 1 27.847781853894 13.398270291400001 1.6353207750517929 0 0 0
2451 4 24.753583870128004 15.184706330253105 0.009528564490230805 0 0 0
2457 4 27.847781853894 15.184706330253105 0.009528564490230729 0 0 0
2450 1 26.300682862010998 16.07792434968 1.6353207750517929 0 0 0
2266 4 29.394880845777003 12.505052271973105 0.009528564490231373 0 0 0
2461 1 30.941979837659996 13.398270291400001 1.635320775051793 0 0 0
2272 4 32.489078829543 12.505052271973105 0.009528564490230778 0 0 0
2467 1 34.036177821426 13.398270291400001 1.635320775051793 0 0 0
2463 4 30.941979837659993 15.184706330253105 0.009528564490230835 0 0 0
2469 4 34.036177821426 15.184706330253105 0.009528564490230118 0 0 0
2456 1 29.394880845777 16.07792434968 1.6353207750517929 0 0 0
2462 1 32.489078829543 16.07792434968 1.6353207750517929 0 0 0
2278 4 35.583276813309006 12.505052271973105 0.009528564490231399 0 0 0
2473 1 37.130375805191996 13.398270291400001 1.635320775051793 0 0 0
2284 4 38.677474797075 12.505052271973105 0.009528564490231256 0 0 0
2479 1 40.224573788958004 13.398270291400001 1.635320775051793 0 0 0
2475 4 37.130375805191996 15.184706330253105 0.009528564490230816 0 0 0
2481 4 40.224573788958004 15.184706330253105 0.009528564490230805 0 0 0
2468 1 35.583276813309006 16.07792434968 1.6353207750517929 0 0 0
2474 1 38.677474797075 16.07792434968 1.6353207750517929 0 0 0
2290 4 41.771672780840994 12.505052271973105 0.009528564490231366 0 0 0
2485 1 43.318771772724 13.398270291400001 1.635320775051793 0 0 0
2296 4 44.865870764607 12.505052271973105 0.009528564490231373 0 0 0
2491 1 46.41296975648999 13.398270291400001 1.6353207750517929 0 0 0
2487 4 43.318771772724 15.184706330253105 0.009528564490230703 0 0 0
2493 4 46.41296975648999 15.184706330253105 0.009528564490230845 0 0 0
2480 1 41.771672780840994 16.07792434968 1.6353207750517929 0 0 0
2486 1 44.865870764607 16.07792434968 1.6353207750517929 0 0 0
2302 4 47.960068748373 12.505052271973105 0.009528564490231133 0 0 0
2305 1 49.507167740256 13.398270291400001 1.635320775051793 -1 0 0
2116 4 51.054266732139 12.505052271973105 0.009528564490231126 -1 0 0
2307 4 49.507167740256 15.184706330253103 0.009528564490230186 -1 0 0
2492 1 47.960068748373 16.07792434968 1.6353207750517929 0 0 0
2306 1 51.054266732139 16.07792434968 1.6353207750517926 -1 0 0
2311 1 52.601365724022 13.398270291400001 1.635320775051793 -1 0 0
2122 4 54.148464715905 12.505052271973105 0.009528564490231078 -1 0 0
2128 4 57.242662699671 12.505052271973105 0.009528564490231062 -1 0 0
2317 1 55.695563707788004 13.398270291400001 1.635320775051793 -1 0 0
2313 4 52.601365724022 15.184706330253105 0.009528564490230535 -1 0 0
2319 4 55.695563707788004 15.184706330253105 0.009528564490230502 -1 0 0
2312 1 54.148464715905 16.07792434968 1.6353207750517926 -1 0 0
2318 1 57.242662699671 16.07792434968 1.6353207750517926 -1 0 0
2323 1 58.789761691554006 13.398270291400001 1.635320775051793 -1 0 0
2134 4 60.336860683437 12.505052271973105 0.009528564490231404 -1 0 0
2329 1 61.88395967532 13.398270291400001 1.6353207750517929 -1 0 0
2140 4 63.431058667203004 12.505052271973105 0.0095285644902311 -1 0 0
2325 4 58.789761691554006 15.184706330253105 0.009528564490230785 -1 0 0
2331 4 61.88395967532 15.184706330253105 0.009528564490230478 -1 0 0
2324 1 60.336860683437 16.07792434968 1.6353207750517926 -1 0 0
2330 1 63.431058667203004 16.07792434968 1.6353207750517929 -1 0 0
2335 1 64.97815765908601 13.398270291400001 1.6353207750517929 -1 0 0
2146 4 66.525256650969 12.505052271973105 0.009528564490231373 -1 0 0
2341 1 68.072355642852 13.398270291400001 1.6353207750517929 -1 0 0
2152 4 69.619454634735 12.505052271973105 0.009528564490231366 -1 0 0
2337 4 64.97815765908601 15.184706330253105 0.009528564490230821 -1 0 0
2343 4 68.072355642852 15.184706330253105 0.009528564490230703 -1 0 0
2336 1 66.525256650969 16.07792434968 1.6353207750517929 -1 0 0
2342 1 69.619454634735 16.07792434968 1.6353207750517929 -1 0 0
2347 1 71.166553626618 13.398270291400001 1.635320775051793 -1 0 0
2158 4 72.713652618501 12.505052271973105 0.009528564490231256 -1 0 0
2353 1 74.260751610384 13.398270291400001 1.635320775051793 -1 0 0
2349 4 71.166553626618 15.184706330253105 0.009528564490230807 -1 0 0
2355 4 74.260751610384 15.184706330253105 0.009528564490230805 -1 0 0
2348 1 72.713652618501 16.07792434968 1.6353207750517929 -1 0 0
2164 4 75.807850602267 12.505052271973105 0.009528564490231366 -1 0 0
2359 1 77.35494959415 13.398270291400001 1.635320775051793 -1 0 0
2170 4 78.902048586033 12.505052271973105 0.009528564490231366 -1 0 0
2365 1 80.449147577916 13.398270291400001 1.635320775051793 -1 0 0
2361 4 77.35494959415 15.184706330253105 0.009528564490230703 -1 0 0
2367 4 80.449147577916 15.184706330253105 0.009528564490230833 -1 0 0
2354 1 75.807850602267 16.07792434968 1.6353207750517929 -1 0 0
2360 1 78.902048586033 16.07792434968 1.6353207750517929 -1 0 0
2176 4 81.996246569799 12.505052271973105 0.009528564490231322 -1 0 0
2182 4 85.09044455356499 12.505052271973105 0.009528564490230788 -1 0 0
2371 1 83.543345561682 13.398270291400001 1.635320775051793 -1 0 0
2377 1 86.63754354544801 13.398270291400001 1.635320775051793 -1 0 0
2373 4 83.543345561682 15.184706330253103 0.00952856449023022 -1 0 0
2379 4 86.63754354544801 15.184706330253105 0.009528564490230741 -1 0 0
2366 1 81.996246569799 16.07792434968 1.6353207750517929 -1 0 0
2372 1 85.09044455356499 16.07792434968 1.6353207750517929 -1 0 0
2188 4 88.184642537331 12.505052271973105 0.009528564490231537 -1 0 0
2383 1 89.73174152921399 13.398270291400001 1.635320775051793 -1 0 0
2194 4 91.27884052109701 12.505052271973105 0.009528564490230788 -1 0 0
2389 1 92.82593951298 13.398270291400001 1.635320775051793 -1 0 0
2385 4 89.73174152921399 15.184706330253105 0.009528564490230741 -1 0 0
2391 4 92.82593951298 15.184706330253103 0.009528564490230223 -1 0 0
2378 1 88.184642537331 16.07792434968 1.6353207750517929 -1 0 0
2384 1 91.27884052109701 16.07792434968 1.6353207750517929 -1 0 0
2200 4 94.373038504863 12.505052271973105 0.009528564490231324 -1 0 0
2395 1 95.92013749674601 13.398270291400001 1.635320775051793 -1 0 0
2206 4 97.467236488629 12.505052271973105 0.009528564490231685 -1 0 0
2397 4 95.92013749674601 15.184706330253105 0.009528564490230826 -1 0 0
2390 1 94.373038504863 16.07792434968 1.6353207750517929 -1 0 0
2396 1 97.467236488629 16.07792434968 1.6353207750517929 -1 0 0
2404 4 1.5470989918829978 17.864360388533107 0.009528564490230344 0 0 0
2593 1 0 18.75757840796 1.6353207750517929 0 0 0
2599 1 3.0941979837659996 18.75757840796 1.6353207750517929 0 0 0
2410 4 4.641296975648999 17.864360388533107 0.00952856449023058 0 0 0
2595 4 0 20.544014446813105 0.0095285644902311 0 0 0
2601 4 3.094197983766 20.544014446813105 0.009528564490231093 0 0 0
2594 1 1.547098991882998 21.43723246624 1.635320775051793 0 0 0
2600 1 4.641296975648999 21.43723246624 1.635320775051793 0 0 0
2605 1 6.1883959675319975 18.75757840796 1.6353207750517929 0 0 0
2416 4 7.735494959415 17.864360388533107 0.009528564490230394 0 0 0
2611 1 9.282593951297997 18.75757840796 1.6353207750517929 0 0 0
2422 4 10.829692943181001 17.864360388533107 0.009528564490230575 0 0 0
2607 4 6.188395967531997 20.544014446813105 0.009528564490231088 0 0 0
2613 4 9.282593951297997 20.544014446813105 0.00952856449023081 0 0 0
2606 1 7.735494959414999 21.43723246624 1.635320775051793 0 0 0
2612 1 10.829692943181 21.43723246624 1.6353207750517929 0 0 0
2617 1 12.376791935063999 18.75757840796 1.6353207750517929 0 0 0
2428 4 13.923890926946996 17.864360388533107 0.009528564490230863 0 0 0
2623 1 15.470989918829996 18.75757840796 1.6353207750517929 0 0 0