LAMMPS data file via write_data, version 29 Aug 2024, timestep = 2, units = metal

5376 atoms
24 atom types

0 101.15546256648 xlo xhi
0 100.11794321616 ylo yhi
-50 50 zlo zhi

Masses

1 58.933194
2 58.933194
3 58.933194
4 58.933194
5 58.933194
6 58.933194
7 58.933194
8 58.933194
9 127.6
10 127.6
11 127.6
12 127.6
13 127.6
14 127.6
15 127.6
16 127.6
17 127.6
18 127.6
19 127.6
20 127.6
21 127.6
22 127.6
23 127.6
24 127.6

Atoms # atomic

1431 10 1.806347545830001 1.0428952418350066 0.04741082500103323 0 0 0
1437 14 5.419042637490001 1.0428952418350066 0.04741082500103331 0 0 0
1432 2 1.8063475458300007 3.128685725504985 1.4928923774300669 0 0 0
1438 4 5.419042637490001 3.128685725504985 1.4928923774300669 0 0 0
1434 12 8.730956688561534e-16 4.171580967340007 0.0474108250010333 0 0 0
1440 16 3.612695091660001 4.171580967340007 0.047410825001033705 0 0 0
1430 9 1.806347545830001 1.0428952418350068 2.938124104964011 0 0 0
1436 13 5.419042637490001 1.0428952418350066 2.9381241049640106 0 0 0
1433 11 5.379228151276816e-16 4.171580967340007 2.9381241049640106 0 0 0
1439 15 3.612695091660001 4.171580967340007 2.9381241049640106 0 0 0
1443 10 9.031737729150002 1.0428952418350066 0.047410825001033316 0 0 0
1444 2 9.031737729150002 3.128685725504985 1.4928923774300669 0 0 0
1446 12 7.225390183320002 4.171580967340007 0.047410825001033746 0 0 0
1452 16 10.838085274980003 4.171580967340007 0.04741082500103377 0 0 0
1442 9 9.031737729150002 1.0428952418350066 2.938124104964011 0 0 0
1445 11 7.225390183320002 4.171580967340007 2.9381241049640106 0 0 0
1451 15 10.838085274980003 4.171580967340007 2.9381241049640106 0 0 0
1449 14 12.644432820810003 1.0428952418350066 0.04741082500103321 0 0 0
1455 10 16.25712791247 1.0428952418350066 0.047410825001033205 0 0 0
1450 4 12.644432820810003 3.128685725504985 1.4928923774300669 0 0 0
1456 2 16.257127912470004 3.128685725504985 1.4928923774300669 0 0 0
1458 12 14.450780366640002 4.171580967340007 0.047410825001032914 0 0 0
1448 13 12.644432820810003 1.0428952418350068 2.938124104964011 0 0 0
1454 9 16.25712791247 1.0428952418350068 2.938124104964011 0 0 0
1457 11 14.450780366640002 4.171580967340007 2.9381241049640114 0 0 0
1461 14 19.86982300413 1.0428952418350068 0.04741082500103339 0 0 0
1467 10 23.482518095790002 1.0428952418350068 0.0474108250010334 0 0 0
1462 4 19.86982300413 3.128685725504985 1.4928923774300669 0 0 0
1468 2 23.482518095790002 3.128685725504985 1.4928923774300669 0 0 0
1464 16 18.0634754583 4.171580967340007 0.047410825001033836 0 0 0
1470 12 21.676170549960002 4.171580967340007 0.047410825001033816 0 0 0
1460 13 19.86982300413 1.0428952418350068 2.938124104964011 0 0 0
1466 9 23.482518095790002 1.0428952418350068 2.9381241049640106 0 0 0
1463 15 18.0634754583 4.171580967340007 2.938124104964011 0 0 0
1469 11 21.676170549960002 4.171580967340007 2.938124104964011 0 0 0
1473 14 27.095213187450003 1.0428952418350068 0.0474108250010334 0 0 0
1474 4 27.095213187450003 3.128685725504985 1.4928923774300669 0 0 0
1476 16 25.288865641620003 4.171580967340007 0.047410825001033816 0 0 0
1482 12 28.901560733280004 4.171580967340007 0.04741082500103383 0 0 0
1472 13 27.095213187450003 1.0428952418350068 2.938124104964011 0 0 0
1475 15 25.288865641620003 4.171580967340007 2.938124104964011 0 0 0
1481 11 28.901560733280004 4.171580967340007 2.938124104964011 0 0 0
1479 10 30.707908279110004 1.0428952418350068 0.04741082500103345 0 0 0
1485 14 34.32060337077 1.0428952418350075 0.04741082500103176 0 0 0
1480 2 30.707908279110004 3.1286857255049845 1.4928923774300669 0 0 0
1486 4 34.32060337077 3.1286857255049836 1.4928923774300669 0 0 0
1488 16 32.51425582494 4.171580967340007 0.04741082500103348 0 0 0
1478 9 30.707908279110004 1.0428952418350068 2.9381241049640106 0 0 0
1484 13 34.32060337077 1.0428952418350075 2.9381241049640123 0 0 0
1487 15 32.51425582494 4.171580967340007 2.938124104964011 0 0 0
1491 10 37.933298462429995 1.0428952418350068 0.047410825001033455 0 0 0
1497 14 41.545993554089996 1.0428952418350068 0.04741082500103339 0 0 0
1492 2 37.933298462429995 3.1286857255049845 1.4928923774300662 0 0 0
1498 4 41.545993554089996 3.128685725504985 1.492892377430067 0 0 0
1494 12 36.1269509166 4.171580967340007 0.04741082500103348 0 0 0
1500 16 39.73964600826 4.171580967340007 0.04741082500103367 0 0 0
1490 9 37.93329846243 1.0428952418350068 2.938124104964011 0 0 0
1496 13 41.54599355409 1.0428952418350068 2.938124104964011 0 0 0
1493 11 36.1269509166 4.171580967340007 2.938124104964011 0 0 0
1499 15 39.739646008259996 4.171580967340007 2.9381241049640106 0 0 0
1503 10 45.15868864575 1.0428952418350068 0.04741082500103339 0 0 0
1504 2 45.15868864575 3.128685725504985 1.492892377430067 0 0 0
1506 12 43.352341099920004 4.171580967340007 0.04741082500103367 0 0 0
1512 16 46.965036191580005 4.171580967340007 0.04741082500103372 0 0 0
1502 9 45.158688645750004 1.0428952418350068 2.938124104964011 0 0 0
1505 11 43.35234109992 4.171580967340007 2.9381241049640106 0 0 0
1511 15 46.96503619158 4.171580967340007 2.9381241049640106 0 0 0
1509 14 48.77138373741 1.0428952418350066 0.04741082500103347 0 0 0
1347 10 52.38407882907 1.0428952418350068 0.047410825001032865 -1 0 0
1510 4 48.77138373741 3.128685725504985 1.4928923774300678 0 0 0
1348 2 52.38407882907 3.1286857255049854 1.4928923774300669 -1 0 0
1350 12 50.57773128324 4.171580967340007 0.04741082500103291 -1 0 0
1508 13 48.77138373741 1.0428952418350066 2.9381241049640106 0 0 0
1346 9 52.38407882907 1.042895241835007 2.938124104964011 -1 0 0
1349 11 50.57773128324 4.171580967340007 2.9381241049640114 -1 0 0
1353 14 55.99677392073 1.0428952418350066 0.047410825001033316 -1 0 0
1354 4 55.99677392073 3.128685725504985 1.4928923774300669 -1 0 0
1356 16 54.1904263749 4.171580967340007 0.04741082500103376 -1 0 0
1362 12 57.80312146656 4.171580967340007 0.04741082500103376 -1 0 0
1352 13 55.99677392073 1.0428952418350066 2.938124104964011 -1 0 0
1355 15 54.1904263749 4.171580967340007 2.9381241049640106 -1 0 0
1361 11 57.80312146656 4.171580967340007 2.9381241049640106 -1 0 0
1359 10 59.60946901239 1.0428952418350068 0.04741082500103287 -1 0 0
1365 14 63.22216410405 1.0428952418350068 0.047410825001032844 -1 0 0
1360 2 59.60946901239 3.1286857255049854 1.4928923774300669 -1 0 0
1366 4 63.22216410405 3.128685725504985 1.492892377430067 -1 0 0
1368 16 61.41581655822 4.171580967340007 0.04741082500103286 -1 0 0
1374 12 65.02851164988 4.171580967340006 0.04741082500103435 -1 0 0
1358 9 59.60946901239 1.042895241835007 2.938124104964011 -1 0 0
1364 13 63.22216410405 1.042895241835007 2.9381241049640114 -1 0 0
1367 15 61.41581655822 4.171580967340007 2.9381241049640114 -1 0 0
1373 11 65.02851164988 4.171580967340006 2.93812410496401 -1 0 0
1371 10 66.83485919571 1.0428952418350068 0.04741082500103345 -1 0 0
1377 14 70.44755428737 1.042895241835007 0.04741082500103285 -1 0 0
1372 2 66.83485919571001 3.128685725504985 1.4928923774300669 -1 0 0
1378 4 70.44755428737 3.1286857255049827 1.4928923774300669 -1 0 0
1380 16 68.64120674154 4.171580967340007 0.04741082500103296 -1 0 0
1370 9 66.83485919571 1.0428952418350068 2.938124104964011 -1 0 0
1376 13 70.44755428737 1.0428952418350068 2.938124104964011 -1 0 0
1379 15 68.64120674154 4.171580967340007 2.9381241049640114 -1 0 0
1383 10 74.06024937903 1.0428952418350064 0.04741082500103383 -1 0 0
1384 2 74.06024937903 3.1286857255049876 1.4928923774300669 -1 0 0
1386 12 72.25390183319999 4.171580967340007 0.04741082500103373 -1 0 0
1392 16 75.86659692486 4.171580967340007 0.04741082500103373 -1 0 0
1382 9 74.06024937903 1.0428952418350066 2.9381241049640106 -1 0 0
1385 11 72.25390183319999 4.171580967340007 2.938124104964011 -1 0 0
1391 15 75.86659692486 4.171580967340007 2.9381241049640106 -1 0 0
1389 14 77.67294447069 1.042895241835007 0.04741082500103281 -1 0 0
1395 10 81.28563956235 1.0428952418350064 0.04741082500103383 -1 0 0
1390 4 77.67294447069 3.1286857255049823 1.4928923774300669 -1 0 0
1396 2 81.28563956235 3.1286857255049876 1.4928923774300669 -1 0 0
1398 12 79.47929201651999 4.171580967340007 0.04741082500103373 -1 0 0
1404 16 83.09198710818 4.171580967340007 0.04741082500103373 -1 0 0
1388 13 77.67294447069 1.0428952418350068 2.938124104964011 -1 0 0
1394 9 81.28563956235 1.0428952418350066 2.9381241049640106 -1 0 0
1397 11 79.47929201651999 4.171580967340007 2.9381241049640106 -1 0 0
1403 15 83.09198710818 4.171580967340007 2.9381241049640106 -1 0 0
1401 14 84.89833465401 1.042895241835007 0.04741082500103281 -1 0 0
1407 10 88.51102974567 1.0428952418350064 0.04741082500103382 -1 0 0
1402 4 84.89833465401 3.1286857255049823 1.4928923774300669 -1 0 0
1408 2 88.51102974567 3.1286857255049876 1.4928923774300669 -1 0 0
1410 12 86.70468219984 4.171580967340007 0.04741082500103373 -1 0 0
1400 13 84.89833465401 1.0428952418350068 2.938124104964011 -1 0 0
1406 9 88.51102974567 1.0428952418350066 2.9381241049640106 -1 0 0
1409 11 86.70468219984 4.171580967340007 2.9381241049640106 -1 0 0
1413 14 92.12372483733 1.0428952418350073 0.047410825001032046 -1 0 0
1414 4 92.12372483733 3.1286857255049827 1.4928923774300669 -1 0 0
1416 16 90.31737729150001 4.171580967340007 0.047410825001033746 -1 0 0
1422 12 93.93007238316 4.171580967340008 0.047410825001032476 -1 0 0
1412 13 92.12372483733 1.0428952418350073 2.9381241049640123 -1 0 0
1415 15 90.31737729150001 4.171580967340007 2.938124104964011 -1 0 0
1421 11 93.93007238316 4.171580967340007 2.938124104964012 -1 0 0
1419 10 95.73641992898999 1.0428952418350068 0.047410825001033344 -1 0 0
1425 14 99.34911502065 1.042895241835007 0.04741082500103312 -1 0 0
1420 2 95.73641992899 3.128685725504985 1.4928923774300669 -1 0 0
1426 4 99.34911502064999 3.128685725504985 1.492892377430067 -1 0 0
1428 16 97.54276747482 4.171580967340007 0.047410825001034086 -1 0 0
1418 9 95.73641992898999 1.0428952418350068 2.9381241049640106 -1 0 0
1424 13 99.34911502065 1.0428952418350066 2.9381241049640106 -1 0 0
1427 15 97.54276747482 4.171580967340007 2.9381241049640106 -1 0 0
1599 10 1.806347545830001 7.300266692845008 0.04741082500103373 0 0 0
1597 1 3.853960088005003e-15 6.257371451009984 1.4928923774300673 0 0 0
1603 3 3.612695091660001 6.257371451009986 1.4928923774300669 0 0 0
1605 14 5.419042637490001 7.300266692845008 0.04741082500103387 0 0 0
1600 2 1.8063475458300007 9.386057176514987 1.4928923774300669 0 0 0
1606 4 5.419042637490001 9.386057176514987 1.4928923774300669 0 0 0
1602 12 7.730313146229839e-16 10.428952418350008 0.0474108250010328 0 0 0
1608 16 3.612695091660001 10.428952418350008 0.04741082500103316 0 0 0
1598 9 1.806347545830001 7.300266692845008 2.9381241049640106 0 0 0
1604 13 5.419042637490001 7.300266692845008 2.9381241049640106 0 0 0
1601 11 4.470010911645839e-16 10.428952418350008 2.9381241049640114 0 0 0
1607 15 3.612695091660001 10.428952418350008 2.9381241049640114 0 0 0
1609 1 7.225390183320002 6.257371451009986 1.4928923774300669 0 0 0
1611 10 9.031737729150002 7.300266692845008 0.047410825001033885 0 0 0
1615 3 10.838085274980003 6.257371451009986 1.4928923774300669 0 0 0
1612 2 9.031737729150002 9.386057176514987 1.4928923774300669 0 0 0
1614 12 7.225390183320002 10.428952418350008 0.04741082500103314 0 0 0
1620 16 10.838085274980003 10.428952418350008 0.04741082500103316 0 0 0
1610 9 9.031737729150002 7.300266692845008 2.9381241049640106 0 0 0
1613 11 7.225390183320002 10.428952418350008 2.938124104964011 0 0 0
1619 15 10.838085274980003 10.428952418350008 2.938124104964011 0 0 0
1617 14 12.644432820810003 7.300266692845008 0.04741082500103371 0 0 0
1621 1 14.450780366640002 6.257371451009985 1.4928923774300669 0 0 0
1623 10 16.25712791247 7.300266692845008 0.04741082500103379 0 0 0
1618 4 12.644432820810003 9.386057176514987 1.4928923774300669 0 0 0
1624 2 16.257127912470004 9.386057176514987 1.4928923774300669 0 0 0
1626 12 14.450780366640002 10.428952418350008 0.04741082500103236 0 0 0
1616 13 12.644432820810003 7.300266692845008 2.938124104964011 0 0 0
1622 9 16.25712791247 7.300266692845008 2.9381241049640106 0 0 0
1625 11 14.450780366640002 10.428952418350008 2.938124104964012 0 0 0
1627 3 18.0634754583 6.257371451009986 1.4928923774300669 0 0 0
1629 14 19.86982300413 7.300266692845008 0.04741082500103387 0 0 0
1633 1 21.676170549960002 6.257371451009986 1.4928923774300669 0 0 0
1635 10 23.482518095790002 7.300266692845008 0.047410825001033864 0 0 0
1630 4 19.86982300413 9.386057176514987 1.492892377430067 0 0 0
1636 2 23.482518095790002 9.386057176514987 1.492892377430067 0 0 0
1632 16 18.0634754583 10.428952418350008 0.04741082500103322 0 0 0
1638 12 21.676170549960002 10.428952418350008 0.047410825001033205 0 0 0
1628 13 19.86982300413 7.300266692845008 2.9381241049640106 0 0 0
1634 9 23.482518095790002 7.300266692845008 2.9381241049640106 0 0 0
1631 15 18.0634754583 10.428952418350008 2.938124104964011 0 0 0
1637 11 21.676170549960002 10.428952418350008 2.938124104964011 0 0 0
1639 3 25.288865641620003 6.257371451009986 1.4928923774300669 0 0 0
1641 14 27.095213187450003 7.300266692845008 0.04741082500103387 0 0 0
1645 1 28.901560733280004 6.257371451009986 1.4928923774300669 0 0 0
1642 4 27.095213187450003 9.386057176514987 1.492892377430067 0 0 0
1644 16 25.288865641620003 10.428952418350008 0.047410825001033205 0 0 0
1650 12 28.901560733280004 10.428952418350008 0.04741082500103322 0 0 0
1640 13 27.095213187450003 7.300266692845008 2.9381241049640106 0 0 0
1643 15 25.288865641620003 10.428952418350008 2.938124104964011 0 0 0
1649 11 28.901560733280004 10.428952418350008 2.938124104964011 0 0 0
1647 10 30.707908279110004 7.300266692845008 0.047410825001033864 0 0 0
1651 3 32.51425582494 6.257371451009986 1.4928923774300669 0 0 0
1653 14 34.32060337077 7.300266692845009 0.04741082500103216 0 0 0
1648 2 30.707908279110004 9.386057176514987 1.492892377430067 0 0 0
1654 4 34.32060337077 9.386057176514985 1.4928923774300669 0 0 0
1656 16 32.51425582494 10.428952418350008 0.04741082500103283 0 0 0
1646 9 30.707908279110004 7.300266692845008 2.9381241049640106 0 0 0
1652 13 34.32060337077 7.300266692845009 2.938124104964012 0 0 0
1655 15 32.51425582494 10.428952418350008 2.9381241049640114 0 0 0
1657 1 36.1269509166 6.257371451009986 1.4928923774300675 0 0 0
1659 10 37.933298462429995 7.300266692845008 0.047410825001033864 0 0 0
1663 3 39.73964600826 6.257371451009986 1.4928923774300669 0 0 0
1665 14 41.545993554089996 7.300266692845008 0.04741082500103388 0 0 0
1660 2 37.933298462429995 9.386057176514987 1.4928923774300664 0 0 0
1666 4 41.545993554089996 9.386057176514987 1.4928923774300669 0 0 0
1662 12 36.1269509166 10.428952418350008 0.04741082500103283 0 0 0
1668 16 39.73964600826 10.428952418350008 0.04741082500103312 0 0 0
1658 9 37.93329846243 7.300266692845008 2.9381241049640106 0 0 0
1664 13 41.54599355409 7.300266692845008 2.9381241049640106 0 0 0
1661 11 36.1269509166 10.428952418350008 2.9381241049640114 0 0 0
1667 15 39.739646008259996 10.428952418350008 2.9381241049640114 0 0 0
1669 1 43.352341099920004 6.257371451009986 1.4928923774300669 0 0 0
1671 10 45.15868864575 7.300266692845008 0.047410825001033864 0 0 0
1675 3 46.965036191580005 6.257371451009985 1.4928923774300662 0 0 0
1672 2 45.15868864575 9.386057176514987 1.4928923774300669 0 0 0
1674 12 43.352341099920004 10.428952418350008 0.04741082500103312 0 0 0
1680 16 46.965036191580005 10.428952418350008 0.04741082500103317 0 0 0
1670 9 45.158688645750004 7.300266692845008 2.9381241049640106 0 0 0
1673 11 43.35234109992 10.428952418350008 2.9381241049640114 0 0 0
1679 15 46.96503619158 10.428952418350008 2.9381241049640114 0 0 0
1677 14 48.77138373741 7.300266692845008 0.047410825001034024 0 0 0
1515 10 52.38407882907 7.300266692845008 0.04741082500103338 -1 0 0
1513 1 50.57773128324 6.257371451009985 1.4928923774300669 -1 0 0
1678 4 48.77138373741 9.386057176514987 1.4928923774300675 0 0 0
1516 2 52.38407882907 9.386057176514987 1.4928923774300669 -1 0 0
1518 12 50.57773128324 10.428952418350008 0.047410825001032386 -1 0 0
1676 13 48.77138373741 7.300266692845008 2.93812410496401 0 0 0
1514 9 52.38407882907 7.300266692845008 2.938124104964011 -1 0 0
1517 11 50.57773128324 10.428952418350008 2.938124104964012 -1 0 0
1519 3 54.1904263749 6.257371451009986 1.4928923774300669 -1 0 0
1521 14 55.99677392073 7.300266692845008 0.04741082500103388 -1 0 0
1525 1 57.80312146656 6.257371451009986 1.4928923774300669 -1 0 0
1522 4 55.99677392073 9.386057176514987 1.4928923774300669 -1 0 0
1524 16 54.1904263749 10.428952418350008 0.04741082500103315 -1 0 0
1530 12 57.80312146656 10.428952418350008 0.047410825001033156 -1 0 0
1520 13 55.99677392073 7.300266692845008 2.9381241049640106 -1 0 0
1523 15 54.1904263749 10.428952418350008 2.938124104964011 -1 0 0
1529 11 57.80312146656 10.428952418350008 2.938124104964011 -1 0 0
1527 10 59.60946901239 7.300266692845008 0.04741082500103337 -1 0 0
1531 3 61.41581655822 6.257371451009985 1.4928923774300669 -1 0 0
1533 14 63.22216410405 7.300266692845008 0.0474108250010334 -1 0 0
1537 1 65.02851164987999 6.257371451009985 1.4928923774300669 -1 0 0
1528 2 59.60946901239 9.386057176514987 1.4928923774300669 -1 0 0
1534 4 63.22216410405 9.386057176514987 1.4928923774300669 -1 0 0
1536 16 61.41581655822 10.428952418350008 0.04741082500103233 -1 0 0
1542 12 65.02851164988 10.428952418350008 0.0474108250010338 -1 0 0
1526 9 59.60946901239 7.300266692845008 2.938124104964011 -1 0 0
1532 13 63.22216410405 7.300266692845008 2.9381241049640106 -1 0 0
1535 15 61.41581655822 10.428952418350008 2.938124104964012 -1 0 0
1541 11 65.02851164988 10.428952418350008 2.9381241049640106 -1 0 0
1539 10 66.83485919571 7.300266692845008 0.047410825001033864 -1 0 0
1543 3 68.64120674153999 6.257371451009986 1.4928923774300669 -1 0 0
1545 14 70.44755428737 7.300266692845008 0.04741082500103332 -1 0 0
1540 2 66.83485919571001 9.386057176514987 1.492892377430067 -1 0 0
1546 4 70.44755428737 9.386057176514985 1.4928923774300669 -1 0 0
1548 16 68.64120674154 10.428952418350008 0.047410825001032324 -1 0 0
1538 9 66.83485919571 7.300266692845008 2.9381241049640106 -1 0 0
1544 13 70.44755428737 7.300266692845008 2.9381241049640106 -1 0 0
1547 15 68.64120674154 10.428952418350008 2.938124104964012 -1 0 0
1549 1 72.2539018332 6.257371451009986 1.4928923774300669 -1 0 0
1551 10 74.06024937903 7.300266692845008 0.04741082500103416 -1 0 0
1555 3 75.86659692485999 6.257371451009986 1.4928923774300669 -1 0 0
1552 2 74.06024937903 9.38605717651499 1.4928923774300669 -1 0 0
1554 12 72.25390183319999 10.428952418350008 0.047410825001033115 -1 0 0
1560 16 75.86659692486 10.428952418350008 0.04741082500103312 -1 0 0
1550 9 74.06024937903 7.300266692845008 2.93812410496401 -1 0 0
1553 11 72.25390183319999 10.428952418350008 2.938124104964011 -1 0 0
1559 15 75.86659692486 10.428952418350008 2.938124104964011 -1 0 0
1557 14 77.67294447069 7.300266692845008 0.04741082500103334 -1 0 0
1561 1 79.47929201652 6.257371451009986 1.4928923774300669 -1 0 0
1563 10 81.28563956235 7.300266692845008 0.04741082500103416 -1 0 0
1567 3 83.09198710817999 6.257371451009986 1.4928923774300669 -1 0 0
1558 4 77.67294447069 9.386057176514983 1.4928923774300669 -1 0 0
1564 2 81.28563956235 9.38605717651499 1.4928923774300669 -1 0 0
1566 12 79.47929201651999 10.428952418350008 0.04741082500103312 -1 0 0
1572 16 83.09198710818 10.428952418350008 0.04741082500103312 -1 0 0
1556 13 77.67294447069 7.300266692845008 2.938124104964011 -1 0 0
1562 9 81.28563956235 7.300266692845008 2.93812410496401 -1 0 0
1565 11 79.47929201651999 10.428952418350008 2.938124104964011 -1 0 0
1571 15 83.09198710818 10.428952418350008 2.938124104964011 -1 0 0
1569 14 84.89833465401 7.300266692845008 0.04741082500103334 -1 0 0
1573 1 86.70468219984001 6.257371451009986 1.4928923774300669 -1 0 0
1575 10 88.51102974567 7.300266692845008 0.04741082500103415 -1 0 0
1570 4 84.89833465401 9.386057176514983 1.4928923774300669 -1 0 0
1576 2 88.51102974567 9.38605717651499 1.4928923774300669 -1 0 0
1578 12 86.70468219984 10.428952418350008 0.04741082500103312 -1 0 0
1568 13 84.89833465401 7.300266692845008 2.938124104964011 -1 0 0
1574 9 88.51102974567 7.300266692845008 2.93812410496401 -1 0 0
1577 11 86.70468219984 10.428952418350008 2.938124104964011 -1 0 0
1579 3 90.3173772915 6.257371451009986 1.4928923774300669 -1 0 0
1581 14 92.12372483733 7.300266692845009 0.04741082500103252 -1 0 0
1585 1 93.93007238316 6.257371451009983 1.4928923774300669 -1 0 0
1582 4 92.12372483733 9.386057176514985 1.4928923774300669 -1 0 0
1584 16 90.31737729150001 10.428952418350008 0.047410825001033136 -1 0 0
1590 12 93.93007238316 10.428952418350008 0.047410825001031845 -1 0 0
1580 13 92.12372483733 7.300266692845008 2.938124104964012 -1 0 0
1583 15 90.31737729150001 10.428952418350008 2.938124104964011 -1 0 0
1589 11 93.93007238316 10.428952418350008 2.9381241049640123 -1 0 0
1587 10 95.73641992898999 7.300266692845008 0.04741082500103376 -1 0 0
1591 3 97.54276747482 6.2573714510099885 1.492892377430067 -1 0 0
1593 14 99.34911502065 7.300266692845008 0.047410825001033635 -1 0 0
1588 2 95.73641992899 9.386057176514987 1.4928923774300669 -1 0 0
1594 4 99.34911502064999 9.386057176514987 1.492892377430067 -1 0 0
1596 16 97.54276747482 10.428952418350008 0.047410825001033614 -1 0 0
1586 9 95.73641992898999 7.300266692845008 2.9381241049640106 -1 0 0
1592 13 99.34911502065 7.300266692845008 2.9381241049640106 -1 0 0
1595 15 97.54276747482 10.428952418350008 2.938124104964011 -1 0 0
1765 1 3.871445114231324e-15 12.514742902019984 1.4928923774300673 0 0 0
1771 3 3.612695091660001 12.514742902019986 1.492892377430067 0 0 0
1767 10 1.806347545830001 13.557638143855007 0.04741082500103329 0 0 0
1773 14 5.419042637490001 13.557638143855007 0.047410825001033385 0 0 0
1770 12 7.58090968291906e-16 16.686323869360006 0.04741082500103373 0 0 0
1768 2 1.8063475458300005 15.643428627524985 1.4928923774300669 0 0 0
1776 16 3.612695091660001 16.686323869360006 0.04741082500103387 0 0 0
1774 4 5.419042637490001 15.643428627524985 1.4928923774300669 0 0 0
1766 9 1.806347545830001 13.557638143855007 2.938124104964011 0 0 0
1772 13 5.419042637490001 13.557638143855007 2.9381241049640106 0 0 0
1769 11 4.149079786554247e-16 16.686323869360006 2.93812410496401 0 0 0
1775 15 3.612695091660001 16.686323869360006 2.9381241049640106 0 0 0
1777 1 7.225390183320002 12.514742902019986 1.492892377430067 0 0 0
1783 3 10.838085274980003 12.514742902019986 1.492892377430067 0 0 0
1779 10 9.031737729150002 13.557638143855007 0.047410825001033385 0 0 0
1782 12 7.225390183320002 16.686323869360006 0.047410825001033836 0 0 0
1780 2 9.031737729150002 15.643428627524985 1.4928923774300669 0 0 0
1788 16 10.838085274980003 16.686323869360006 0.047410825001033864 0 0 0
1778 9 9.031737729150002 13.557638143855007 2.9381241049640106 0 0 0
1781 11 7.225390183320002 16.686323869360006 2.9381241049640106 0 0 0
1787 15 10.838085274980003 16.686323869360006 2.9381241049640106 0 0 0
1789 1 14.450780366640002 12.514742902019986 1.4928923774300669 0 0 0
1785 14 12.644432820810003 13.557638143855007 0.04741082500103327 0 0 0
1791 10 16.25712791247 13.557638143855007 0.04741082500103335 0 0 0
1786 4 12.644432820810003 15.643428627524985 1.4928923774300669 0 0 0
1794 12 14.450780366640002 16.68632386936001 0.04741082500103323 0 0 0
1792 2 16.25712791247 15.643428627524985 1.4928923774300669 0 0 0
1784 13 12.644432820810003 13.557638143855007 2.938124104964011 0 0 0
1790 9 16.25712791247 13.557638143855007 2.938124104964011 0 0 0
1793 11 14.450780366640002 16.686323869360006 2.938124104964011 0 0 0
1795 3 18.0634754583 12.514742902019986 1.4928923774300669 0 0 0
1801 1 21.676170549960002 12.514742902019986 1.4928923774300669 0 0 0
1797 14 19.86982300413 13.557638143855007 0.0474108250010334 0 0 0
1803 10 23.482518095790002 13.557638143855007 0.0474108250010334 0 0 0
1800 16 18.0634754583 16.686323869360006 0.04741082500103401 0 0 0
1798 4 19.86982300413 15.643428627524985 1.4928923774300669 0 0 0
1806 12 21.676170549960002 16.686323869360006 0.047410825001034086 0 0 0
1804 2 23.482518095790002 15.643428627524985 1.4928923774300669 0 0 0
1796 13 19.86982300413 13.557638143855007 2.938124104964011 0 0 0
1802 9 23.482518095790002 13.557638143855007 2.938124104964011 0 0 0
1799 15 18.0634754583 16.686323869360006 2.9381241049640106 0 0 0
1805 11 21.676170549960002 16.686323869360006 2.93812410496401 0 0 0
1807 3 25.288865641620003 12.514742902019986 1.4928923774300669 0 0 0
1813 1 28.901560733280004 12.514742902019986 1.4928923774300669 0 0 0
1809 14 27.095213187450003 13.557638143855007 0.0474108250010334 0 0 0
1812 16 25.288865641620003 16.686323869360006 0.047410825001034086 0 0 0
1810 4 27.095213187450003 15.643428627524985 1.4928923774300669 0 0 0
1818 12 28.901560733280004 16.686323869360006 0.04741082500103411 0 0 0
1808 13 27.095213187450003 13.557638143855007 2.938124104964011 0 0 0
1811 15 25.288865641620003 16.686323869360006 2.93812410496401 0 0 0
1817 11 28.901560733280004 16.686323869360006 2.93812410496401 0 0 0
1819 3 32.51425582494 12.514742902019986 1.4928923774300669 0 0 0
1815 10 30.707908279110004 13.557638143855007 0.047410825001033455 0 0 0
1821 14 34.32060337077 13.557638143855007 0.04741082500103171 0 0 0
1816 2 30.707908279110004 15.643428627524985 1.4928923774300669 0 0 0
1824 16 32.51425582494 16.686323869360006 0.047410825001034135 0 0 0
1822 4 34.32060337077 15.643428627524983 1.492892377430067 0 0 0
1814 9 30.707908279110004 13.557638143855007 2.938124104964011 0 0 0
1820 13 34.32060337077 13.557638143855007 2.9381241049640128 0 0 0
1823 15 32.51425582494 16.686323869360006 2.9381241049640106 0 0 0
1825 1 36.1269509166 12.514742902019986 1.4928923774300675 0 0 0
1831 3 39.73964600826 12.514742902019986 1.4928923774300669 0 0 0
1827 10 37.933298462429995 13.557638143855007 0.04741082500103351 0 0 0
1833 14 41.545993554089996 13.557638143855007 0.04741082500103347 0 0 0
1830 12 36.1269509166 16.686323869360006 0.047410825001034135 0 0 0
1828 2 37.933298462429995 15.643428627524985 1.4928923774300662 0 0 0
1836 16 39.73964600826 16.686323869360006 0.04741082500103408 0 0 0
1834 4 41.545993554089996 15.643428627524985 1.4928923774300666 0 0 0
1826 9 37.93329846243 13.557638143855007 2.938124104964011 0 0 0
1832 13 41.54599355409 13.557638143855007 2.938124104964011 0 0 0
1829 11 36.1269509166 16.686323869360006 2.9381241049640106 0 0 0
1835 15 39.739646008259996 16.686323869360006 2.93812410496401 0 0 0
1837 1 43.352341099920004 12.514742902019986 1.4928923774300669 0 0 0
1843 3 46.965036191580005 12.514742902019986 1.4928923774300662 0 0 0
1839 10 45.15868864575 13.557638143855007 0.047410825001033455 0 0 0
1842 12 43.352341099920004 16.686323869360006 0.04741082500103408 0 0 0
1840 2 45.15868864575 15.643428627524985 1.4928923774300666 0 0 0
1848 16 46.965036191580005 16.686323869360006 0.0474108250010341 0 0 0
1838 9 45.158688645750004 13.557638143855007 2.938124104964011 0 0 0
1841 11 43.35234109992 16.686323869360006 2.9381241049640106 0 0 0
1847 15 46.96503619158 16.686323869360006 2.93812410496401 0 0 0
1681 1 50.57773128324 12.514742902019986 1.4928923774300669 -1 0 0
1845 14 48.77138373741 13.557638143855007 0.04741082500103311 0 0 0
1683 10 52.38407882907 13.557638143855007 0.04741082500103355 -1 0 0
1846 4 48.77138373741 15.643428627524985 1.4928923774300673 0 0 0
1686 12 50.57773128324 16.68632386936001 0.04741082500103316 -1 0 0
1684 2 52.38407882907 15.643428627524985 1.4928923774300669 -1 0 0
1844 13 48.77138373741 13.557638143855007 2.938124104964011 0 0 0
1682 9 52.38407882907 13.557638143855007 2.9381241049640106 -1 0 0
1685 11 50.57773128324 16.686323869360006 2.938124104964011 -1 0 0
1687 3 54.1904263749 12.514742902019986 1.492892377430067 -1 0 0
1693 1 57.80312146656 12.514742902019986 1.492892377430067 -1 0 0
1689 14 55.99677392073 13.557638143855007 0.047410825001033385 -1 0 0
1692 16 54.1904263749 16.686323869360006 0.04741082500103386 -1 0 0
1690 4 55.99677392073 15.643428627524985 1.4928923774300669 -1 0 0
1698 12 57.80312146656 16.686323869360006 0.04741082500103386 -1 0 0
1688 13 55.99677392073 13.557638143855007 2.9381241049640106 -1 0 0
1691 15 54.1904263749 16.686323869360006 2.9381241049640106 -1 0 0
1697 11 57.80312146656 16.686323869360006 2.9381241049640106 -1 0 0
1699 3 61.41581655822 12.514742902019986 1.4928923774300669 -1 0 0
1705 1 65.02851164987999 12.514742902019986 1.4928923774300669 -1 0 0
1695 10 59.60946901239 13.557638143855007 0.047410825001033545 -1 0 0
1701 14 63.22216410405 13.557638143855007 0.04741082500103249 -1 0 0
1696 2 59.60946901239 15.643428627524985 1.4928923774300669 -1 0 0
1704 16 61.41581655822 16.68632386936001 0.04741082500103312 -1 0 0
1702 4 63.22216410405 15.643428627524985 1.4928923774300669 -1 0 0
1710 12 65.02851164988 16.686323869360006 0.04741082500103467 -1 0 0
1694 9 59.60946901239 13.557638143855007 2.9381241049640106 -1 0 0
1700 13 63.22216410405 13.557638143855007 2.938124104964012 -1 0 0
1703 15 61.41581655822 16.686323869360006 2.938124104964011 -1 0 0
1709 11 65.02851164988 16.686323869360006 2.9381241049640097 -1 0 0
1711 3 68.64120674153999 12.514742902019986 1.4928923774300669 -1 0 0
1707 10 66.83485919571 13.557638143855007 0.04741082500103351 -1 0 0
1713 14 70.44755428737 13.557638143855007 0.04741082500103301 -1 0 0
1708 2 66.83485919571001 15.643428627524985 1.4928923774300669 -1 0 0
1716 16 68.64120674154 16.686323869360006 0.04741082500103361 -1 0 0
1714 4 70.44755428737 15.643428627524981 1.492892377430067 -1 0 0
1706 9 66.83485919571 13.557638143855007 2.938124104964011 -1 0 0
1712 13 70.44755428737 13.557638143855007 2.9381241049640114 -1 0 0
1715 15 68.64120674154 16.686323869360006 2.938124104964011 -1 0 0
1717 1 72.2539018332 12.514742902019986 1.4928923774300669 -1 0 0
1723 3 75.86659692485999 12.514742902019986 1.4928923774300669 -1 0 0
1719 10 74.06024937903 13.557638143855007 0.04741082500103378 -1 0 0
1722 12 72.25390183319999 16.686323869360006 0.04741082500103405 -1 0 0