LAMMPS data file via write_data, version 29 Aug 2024, timestep = 2, units = metal

8064 atoms
36 atom types

0 101.15546256648 xlo xhi
0 100.11794321616 ylo yhi
-50 50 zlo zhi

Masses

1 58.933194
2 58.933194
3 58.933194
4 58.933194
5 58.933194
6 58.933194
7 58.933194
8 58.933194
9 58.933194
10 58.933194
11 58.933194
12 58.933194
13 127.6
14 127.6
15 127.6
16 127.6
17 127.6
18 127.6
19 127.6
20 127.6
21 127.6
22 127.6
23 127.6
24 127.6
25 127.6
26 127.6
27 127.6
28 127.6
29 127.6
30 127.6
31 127.6
32 127.6
33 127.6
34 127.6
35 127.6
36 127.6

Atoms # atomic

1431 14 1.8063475458300007 1.0428952418350064 0.04723896164336773 0 0 0
1437 18 5.419042637490001 1.0428952418350064 0.047238961643367904 0 0 0
1432 2 1.8063475458300005 3.1286857255049854 1.4927621240823679 0 0 0
1438 4 5.419042637490001 3.128685725504986 1.4927621240823679 0 0 0
1434 16 7.714813965451375e-16 4.171580967340007 0.047238961643367945 0 0 0
1440 20 3.612695091660001 4.171580967340007 0.04723896164336815 0 0 0
1430 13 1.806347545830001 1.0428952418350066 2.938448140493672 0 0 0
1436 17 5.419042637490001 1.0428952418350064 2.938448140493672 0 0 0
1433 15 3.65449077597194e-16 4.171580967340007 2.9384481404936715 0 0 0
1439 19 3.612695091660001 4.171580967340007 2.9384481404936715 0 0 0
1443 14 9.031737729150002 1.0428952418350064 0.047238961643367904 0 0 0
1444 2 9.031737729150002 3.128685725504986 1.4927621240823679 0 0 0
1446 16 7.225390183320002 4.171580967340007 0.047238961643368195 0 0 0
1452 20 10.838085274980003 4.171580967340007 0.047238961643368216 0 0 0
1442 13 9.031737729150002 1.0428952418350064 2.938448140493672 0 0 0
1445 15 7.225390183320002 4.171580967340007 2.9384481404936715 0 0 0
1451 19 10.838085274980003 4.171580967340007 2.9384481404936715 0 0 0
1449 18 12.644432820810003 1.0428952418350064 0.0472389616433677 0 0 0
1455 14 16.25712791247 1.0428952418350066 0.0472389616433677 0 0 0
1450 4 12.644432820810003 3.128685725504986 1.4927621240823679 0 0 0
1456 2 16.25712791247 3.128685725504986 1.4927621240823676 0 0 0
1458 16 14.450780366640002 4.171580967340007 0.0472389616433674 0 0 0
1448 17 12.644432820810003 1.0428952418350066 2.938448140493672 0 0 0
1454 13 16.25712791247 1.0428952418350064 2.938448140493672 0 0 0
1457 15 14.450780366640002 4.171580967340007 2.938448140493672 0 0 0
1461 18 19.86982300413 1.0428952418350066 0.047238961643367765 0 0 0
1467 14 23.482518095790002 1.0428952418350066 0.047238961643367765 0 0 0
1462 4 19.86982300413 3.128685725504986 1.4927621240823679 0 0 0
1468 2 23.482518095790002 3.128685725504986 1.4927621240823679 0 0 0
1464 20 18.0634754583 4.171580967340007 0.04723896164336813 0 0 0
1470 16 21.676170549960002 4.171580967340007 0.04723896164336811 0 0 0
1460 17 19.86982300413 1.0428952418350064 2.938448140493672 0 0 0
1466 13 23.482518095790002 1.0428952418350064 2.938448140493672 0 0 0
1463 19 18.0634754583 4.171580967340006 2.9384481404936715 0 0 0
1469 15 21.676170549960002 4.171580967340007 2.9384481404936715 0 0 0
1473 18 27.095213187450003 1.0428952418350066 0.047238961643367765 0 0 0
1474 4 27.095213187450003 3.128685725504986 1.4927621240823679 0 0 0
1476 20 25.288865641620003 4.171580967340007 0.047238961643368105 0 0 0
1482 16 28.901560733280004 4.171580967340007 0.047238961643368126 0 0 0
1472 17 27.095213187450003 1.0428952418350064 2.938448140493672 0 0 0
1475 19 25.288865641620003 4.171580967340007 2.9384481404936715 0 0 0
1481 15 28.901560733280004 4.171580967340007 2.9384481404936715 0 0 0
1479 14 30.707908279110004 1.0428952418350066 0.04723896164336783 0 0 0
1485 18 34.32060337077 1.0428952418350073 0.04723896164336632 0 0 0
1480 2 30.707908279110004 3.1286857255049854 1.4927621240823679 0 0 0
1486 4 34.32060337077 3.1286857255049845 1.4927621240823674 0 0 0
1488 20 32.51425582494 4.171580967340007 0.0472389616433679 0 0 0
1478 13 30.707908279110004 1.0428952418350064 2.938448140493672 0 0 0
1484 17 34.32060337077 1.042895241835007 2.9384481404936733 0 0 0
1487 19 32.51425582494 4.171580967340007 2.938448140493672 0 0 0
1491 14 37.933298462429995 1.0428952418350064 0.04723896164336783 0 0 0
1497 18 41.545993554089996 1.0428952418350064 0.04723896164336784 0 0 0
1492 2 37.933298462429995 3.1286857255049854 1.4927621240823672 0 0 0
1498 4 41.545993554089996 3.128685725504986 1.4927621240823679 0 0 0
1494 16 36.1269509166 4.171580967340007 0.0472389616433679 0 0 0
1500 20 39.73964600826 4.171580967340007 0.04723896164336802 0 0 0
1490 13 37.93329846243 1.0428952418350066 2.938448140493672 0 0 0
1496 17 41.54599355409 1.0428952418350064 2.938448140493672 0 0 0
1493 15 36.1269509166 4.171580967340007 2.938448140493672 0 0 0
1499 19 39.739646008259996 4.171580967340006 2.9384481404936715 0 0 0
1503 14 45.15868864575 1.0428952418350064 0.04723896164336784 0 0 0
1504 2 45.15868864575 3.128685725504986 1.4927621240823679 0 0 0
1506 16 43.352341099920004 4.171580967340007 0.04723896164336802 0 0 0
1512 20 46.965036191580005 4.171580967340007 0.04723896164336808 0 0 0
1502 13 45.158688645750004 1.0428952418350064 2.938448140493672 0 0 0
1505 15 43.35234109992 4.171580967340007 2.9384481404936715 0 0 0
1511 19 46.96503619158 4.171580967340007 2.9384481404936715 0 0 0
1509 18 48.77138373741 1.0428952418350064 0.04723896164336807 0 0 0
1347 14 52.38407882907 1.0428952418350066 0.04723896164336728 -1 0 0
1510 4 48.77138373741 3.128685725504986 1.4927621240823685 0 0 0
1348 2 52.38407882907 3.128685725504986 1.4927621240823679 -1 0 0
1350 16 50.57773128324 4.171580967340007 0.04723896164336742 -1 0 0
1508 17 48.771383737410005 1.0428952418350061 2.9384481404936715 0 0 0
1346 13 52.38407882907 1.0428952418350066 2.9384481404936724 -1 0 0
1349 15 50.57773128324 4.171580967340007 2.938448140493672 -1 0 0
1353 18 55.99677392073 1.0428952418350064 0.047238961643367904 -1 0 0
1354 4 55.99677392073 3.128685725504986 1.4927621240823679 -1 0 0
1356 20 54.1904263749 4.171580967340007 0.04723896164336821 -1 0 0
1362 16 57.80312146656 4.171580967340007 0.04723896164336821 -1 0 0
1352 17 55.99677392073 1.0428952418350064 2.938448140493672 -1 0 0
1355 19 54.1904263749 4.171580967340007 2.9384481404936715 -1 0 0
1361 15 57.80312146656 4.171580967340007 2.9384481404936715 -1 0 0
1359 14 59.60946901239 1.0428952418350066 0.04723896164336728 -1 0 0
1365 18 63.22216410405 1.0428952418350068 0.0472389616433674 -1 0 0
1360 2 59.60946901239 3.128685725504986 1.4927621240823679 -1 0 0
1366 4 63.22216410405 3.128685725504986 1.4927621240823676 -1 0 0
1368 20 61.41581655822 4.171580967340007 0.04723896164336737 -1 0 0
1374 16 65.02851164988 4.171580967340006 0.04723896164336875 -1 0 0
1358 13 59.60946901239 1.0428952418350066 2.9384481404936724 -1 0 0
1364 17 63.222164104049995 1.0428952418350066 2.938448140493672 -1 0 0
1367 19 61.41581655822 4.171580967340007 2.938448140493672 -1 0 0
1373 15 65.02851164988 4.171580967340006 2.938448140493671 -1 0 0
1371 14 66.83485919571 1.0428952418350064 0.04723896164336783 -1 0 0
1377 18 70.44755428737 1.0428952418350066 0.04723896164336758 -1 0 0
1372 2 66.83485919571001 3.128685725504986 1.4927621240823679 -1 0 0
1378 4 70.44755428737 3.128685725504983 1.4927621240823676 -1 0 0
1380 20 68.64120674154 4.171580967340007 0.047238961643367265 -1 0 0
1370 13 66.83485919571 1.0428952418350064 2.938448140493672 -1 0 0
1376 17 70.44755428737 1.0428952418350064 2.938448140493672 -1 0 0
1379 19 68.64120674154 4.171580967340007 2.9384481404936724 -1 0 0
1383 14 74.06024937903 1.0428952418350064 0.04723896164336806 -1 0 0
1384 2 74.06024937903 3.128685725504988 1.4927621240823676 -1 0 0
1386 16 72.25390183319999 4.171580967340007 0.04723896164336821 -1 0 0
1392 20 75.86659692486 4.171580967340007 0.04723896164336821 -1 0 0
1382 13 74.06024937903 1.0428952418350064 2.9384481404936715 -1 0 0
1385 15 72.25390183319999 4.171580967340007 2.9384481404936715 -1 0 0
1391 19 75.86659692486 4.171580967340007 2.9384481404936715 -1 0 0
1389 18 77.67294447069 1.0428952418350066 0.04723896164336762 -1 0 0
1395 14 81.28563956235 1.0428952418350064 0.04723896164336806 -1 0 0
1390 4 77.67294447069 3.128685725504983 1.4927621240823676 -1 0 0
1396 2 81.28563956235 3.128685725504988 1.4927621240823676 -1 0 0
1398 16 79.47929201651999 4.171580967340007 0.04723896164336821 -1 0 0
1404 20 83.09198710818 4.171580967340007 0.04723896164336821 -1 0 0
1388 17 77.67294447069 1.0428952418350064 2.938448140493672 -1 0 0
1394 13 81.28563956235 1.0428952418350064 2.9384481404936715 -1 0 0
1397 15 79.47929201651999 4.171580967340007 2.9384481404936715 -1 0 0
1403 19 83.09198710818 4.171580967340007 2.9384481404936715 -1 0 0
1401 18 84.89833465401 1.0428952418350066 0.04723896164336762 -1 0 0
1407 14 88.51102974567 1.0428952418350064 0.04723896164336806 -1 0 0
1402 4 84.89833465401 3.128685725504983 1.4927621240823676 -1 0 0
1408 2 88.51102974567 3.128685725504988 1.4927621240823676 -1 0 0
1410 16 86.70468219984 4.171580967340007 0.04723896164336821 -1 0 0
1400 17 84.89833465401 1.0428952418350064 2.938448140493672 -1 0 0
1406 13 88.51102974567 1.0428952418350064 2.9384481404936715 -1 0 0
1409 15 86.70468219984 4.171580967340007 2.9384481404936715 -1 0 0
1413 18 92.12372483733 1.0428952418350068 0.047238961643366606 -1 0 0
1414 4 92.12372483733 3.128685725504983 1.4927621240823679 -1 0 0
1416 20 90.31737729150001 4.171580967340007 0.04723896164336822 -1 0 0
1422 16 93.93007238316 4.171580967340007 0.0472389616433671 -1 0 0
1412 17 92.12372483733 1.0428952418350068 2.938448140493673 -1 0 0
1415 19 90.31737729150001 4.171580967340007 2.9384481404936715 -1 0 0
1421 15 93.93007238316 4.171580967340007 2.9384481404936724 -1 0 0
1419 14 95.73641992898999 1.0428952418350066 0.04723896164336777 -1 0 0
1425 18 99.34911502065 1.0428952418350066 0.04723896164336746 -1 0 0
1420 2 95.73641992899 3.128685725504986 1.4927621240823676 -1 0 0
1426 4 99.34911502064999 3.128685725504986 1.4927621240823679 -1 0 0
1428 20 97.54276747482 4.171580967340006 0.04723896164336855 -1 0 0
1418 13 95.73641992898999 1.0428952418350064 2.938448140493672 -1 0 0
1424 17 99.34911502065 1.0428952418350061 2.938448140493672 -1 0 0
1427 19 97.54276747482 4.171580967340007 2.9384481404936715 -1 0 0
1599 14 1.806347545830001 7.300266692845008 0.04723896164336817 0 0 0
1597 1 3.906009219078908e-15 6.257371451009985 1.492762124082368 0 0 0
1603 3 3.612695091660001 6.257371451009987 1.4927621240823679 0 0 0
1605 18 5.419042637490001 7.300266692845008 0.04723896164336823 0 0 0
1600 2 1.8063475458300007 9.386057176514987 1.4927621240823679 0 0 0
1606 4 5.419042637490001 9.386057176514987 1.4927621240823679 0 0 0
1602 16 7.627555206702764e-16 10.428952418350006 0.047238961643367404 0 0 0
1608 20 3.612695091660001 10.428952418350008 0.04723896164336769 0 0 0
1598 13 1.806347545830001 7.300266692845008 2.9384481404936715 0 0 0
1604 17 5.419042637490001 7.300266692845008 2.9384481404936715 0 0 0
1601 15 3.5099163962914654e-16 10.428952418350006 2.938448140493672 0 0 0
1607 19 3.612695091660001 10.428952418350008 2.938448140493672 0 0 0
1609 1 7.225390183320002 6.257371451009987 1.4927621240823679 0 0 0
1611 14 9.031737729150002 7.300266692845008 0.047238961643368244 0 0 0
1615 3 10.838085274980003 6.257371451009987 1.4927621240823679 0 0 0
1612 2 9.031737729150002 9.386057176514987 1.4927621240823679 0 0 0
1614 16 7.225390183320002 10.428952418350008 0.04723896164336774 0 0 0
1620 20 10.838085274980003 10.428952418350008 0.047238961643367765 0 0 0
1610 13 9.031737729150002 7.300266692845008 2.9384481404936715 0 0 0
1613 15 7.225390183320002 10.428952418350008 2.938448140493672 0 0 0
1619 19 10.838085274980003 10.428952418350008 2.938448140493672 0 0 0
1617 18 12.644432820810003 7.300266692845008 0.04723896164336814 0 0 0
1621 1 14.450780366640002 6.257371451009986 1.4927621240823679 0 0 0
1623 14 16.25712791247 7.300266692845008 0.047238961643367994 0 0 0
1618 4 12.644432820810003 9.386057176514987 1.4927621240823679 0 0 0
1624 2 16.25712791247 9.386057176514987 1.4927621240823679 0 0 0
1626 16 14.450780366640002 10.428952418350008 0.047238961643366946 0 0 0
1616 17 12.644432820810003 7.300266692845008 2.9384481404936715 0 0 0
1622 13 16.25712791247 7.300266692845008 2.9384481404936715 0 0 0
1625 15 14.450780366640002 10.428952418350008 2.9384481404936724 0 0 0
1627 3 18.0634754583 6.257371451009987 1.4927621240823679 0 0 0
1629 18 19.86982300413 7.300266692845008 0.04723896164336815 0 0 0
1633 1 21.676170549960002 6.257371451009987 1.4927621240823679 0 0 0
1635 14 23.482518095790002 7.300266692845008 0.047238961643368244 0 0 0
1630 4 19.86982300413 9.386057176514987 1.4927621240823679 0 0 0
1636 2 23.482518095790002 9.386057176514987 1.4927621240823679 0 0 0
1632 20 18.0634754583 10.428952418350008 0.047238961643367675 0 0 0
1638 16 21.676170549960002 10.428952418350008 0.047238961643367654 0 0 0
1628 17 19.86982300413 7.300266692845007 2.9384481404936715 0 0 0
1634 13 23.482518095790002 7.300266692845007 2.9384481404936715 0 0 0
1631 19 18.0634754583 10.428952418350008 2.938448140493672 0 0 0
1637 15 21.676170549960002 10.428952418350008 2.938448140493672 0 0 0
1639 3 25.288865641620003 6.257371451009987 1.4927621240823679 0 0 0
1641 18 27.095213187450003 7.300266692845008 0.04723896164336815 0 0 0
1645 1 28.901560733280004 6.257371451009987 1.4927621240823679 0 0 0
1642 4 27.095213187450003 9.386057176514987 1.4927621240823679 0 0 0
1644 20 25.288865641620003 10.428952418350008 0.047238961643367654 0 0 0
1650 16 28.901560733280004 10.428952418350008 0.047238961643367675 0 0 0
1640 17 27.095213187450003 7.300266692845007 2.9384481404936715 0 0 0
1643 19 25.288865641620003 10.428952418350008 2.938448140493672 0 0 0
1649 15 28.901560733280004 10.428952418350008 2.938448140493672 0 0 0
1647 14 30.707908279110004 7.300266692845008 0.04723896164336821 0 0 0
1651 3 32.51425582494 6.257371451009987 1.4927621240823676 0 0 0
1653 18 34.32060337077 7.300266692845008 0.047238961643366655 0 0 0
1648 2 30.707908279110004 9.386057176514987 1.4927621240823679 0 0 0
1654 4 34.32060337077 9.386057176514987 1.4927621240823676 0 0 0
1656 20 32.51425582494 10.428952418350008 0.04723896164336736 0 0 0
1646 13 30.707908279110004 7.300266692845007 2.9384481404936715 0 0 0
1652 17 34.32060337077 7.300266692845008 2.938448140493673 0 0 0
1655 19 32.51425582494 10.428952418350008 2.9384481404936724 0 0 0
1657 1 36.1269509166 6.257371451009987 1.4927621240823683 0 0 0
1659 14 37.933298462429995 7.300266692845008 0.04723896164336813 0 0 0
1663 3 39.73964600826 6.257371451009987 1.4927621240823679 0 0 0
1665 18 41.545993554089996 7.300266692845008 0.04723896164336808 0 0 0
1660 2 37.933298462429995 9.386057176514987 1.4927621240823672 0 0 0
1666 4 41.545993554089996 9.386057176514987 1.4927621240823679 0 0 0
1662 16 36.1269509166 10.428952418350008 0.04723896164336736 0 0 0
1668 20 39.73964600826 10.428952418350008 0.04723896164336757 0 0 0
1658 13 37.93329846243 7.300266692845008 2.9384481404936715 0 0 0
1664 17 41.54599355409 7.300266692845008 2.9384481404936715 0 0 0
1661 15 36.1269509166 10.428952418350008 2.9384481404936724 0 0 0
1667 19 39.739646008259996 10.428952418350008 2.938448140493672 0 0 0
1669 1 43.352341099920004 6.257371451009987 1.4927621240823679 0 0 0
1671 14 45.15868864575 7.300266692845008 0.04723896164336807 0 0 0
1675 3 46.965036191580005 6.257371451009987 1.4927621240823679 0 0 0
1672 2 45.15868864575 9.386057176514987 1.4927621240823679 0 0 0
1674 16 43.352341099920004 10.428952418350008 0.04723896164336757 0 0 0
1680 20 46.965036191580005 10.428952418350008 0.04723896164336762 0 0 0
1670 13 45.158688645750004 7.300266692845008 2.9384481404936715 0 0 0
1673 15 43.35234109992 10.428952418350008 2.938448140493672 0 0 0
1679 19 46.96503619158 10.428952418350008 2.938448140493672 0 0 0
1677 18 48.77138373741 7.300266692845008 0.047238961643368334 0 0 0
1515 14 52.38407882907 7.300266692845008 0.04723896164336779 -1 0 0
1513 1 50.577731283240006 6.257371451009986 1.4927621240823672 -1 0 0
1678 4 48.77138373741 9.386057176514987 1.4927621240823685 0 0 0
1516 2 52.38407882907 9.386057176514987 1.4927621240823679 -1 0 0
1518 16 50.57773128324 10.428952418350008 0.047238961643366884 -1 0 0
1676 17 48.771383737410005 7.300266692845007 2.9384481404936715 0 0 0
1514 13 52.38407882907 7.300266692845008 2.938448140493672 -1 0 0
1517 15 50.57773128324 10.428952418350008 2.9384481404936724 -1 0 0
1519 3 54.1904263749 6.257371451009987 1.4927621240823679 -1 0 0
1521 18 55.99677392073 7.300266692845008 0.047238961643368244 -1 0 0
1525 1 57.80312146656 6.257371451009987 1.4927621240823679 -1 0 0
1522 4 55.99677392073 9.386057176514987 1.4927621240823679 -1 0 0
1524 20 54.1904263749 10.428952418350008 0.047238961643367744 -1 0 0
1530 16 57.80312146656 10.428952418350008 0.04723896164336775 -1 0 0
1520 17 55.99677392073 7.300266692845008 2.9384481404936715 -1 0 0
1523 19 54.1904263749 10.428952418350008 2.938448140493672 -1 0 0
1529 15 57.80312146656 10.428952418350008 2.938448140493672 -1 0 0
1527 14 59.60946901239 7.300266692845008 0.04723896164336778 -1 0 0
1531 3 61.415816558219994 6.257371451009986 1.4927621240823672 -1 0 0
1533 18 63.22216410405 7.300266692845008 0.047238961643367744 -1 0 0
1537 1 65.02851164987999 6.257371451009987 1.4927621240823685 -1 0 0
1528 2 59.60946901239 9.386057176514987 1.4927621240823679 -1 0 0
1534 4 63.22216410405 9.386057176514987 1.4927621240823679 -1 0 0
1536 20 61.41581655822 10.428952418350008 0.047238961643366835 -1 0 0
1542 16 65.02851164988 10.428952418350008 0.04723896164336829 -1 0 0
1526 13 59.60946901239 7.300266692845008 2.938448140493672 -1 0 0
1532 17 63.222164104049995 7.300266692845008 2.938448140493672 -1 0 0
1535 19 61.41581655822 10.428952418350008 2.9384481404936724 -1 0 0
1541 15 65.02851164988 10.428952418350008 2.938448140493671 -1 0 0
1539 14 66.83485919571 7.300266692845008 0.04723896164336813 -1 0 0
1543 3 68.64120674153999 6.257371451009987 1.4927621240823676 -1 0 0
1545 18 70.44755428737 7.300266692845008 0.04723896164336798 -1 0 0
1540 2 66.83485919571001 9.386057176514987 1.4927621240823679 -1 0 0
1546 4 70.44755428737 9.386057176514985 1.4927621240823676 -1 0 0
1548 20 68.64120674154 10.428952418350008 0.047238961643366814 -1 0 0
1538 13 66.83485919571 7.300266692845008 2.9384481404936715 -1 0 0
1544 17 70.44755428737 7.300266692845008 2.9384481404936715 -1 0 0
1547 19 68.64120674154 10.428952418350008 2.938448140493673 -1 0 0
1549 1 72.2539018332 6.257371451009987 1.4927621240823676 -1 0 0
1551 14 74.06024937903 7.300266692845007 0.047238961643368604 -1 0 0
1555 3 75.86659692485999 6.257371451009987 1.4927621240823676 -1 0 0
1552 2 74.06024937903 9.38605717651499 1.4927621240823679 -1 0 0
1554 16 72.25390183319999 10.428952418350008 0.04723896164336766 -1 0 0
1560 20 75.86659692486 10.428952418350008 0.04723896164336766 -1 0 0
1550 13 74.06024937903 7.300266692845008 2.9384481404936715 -1 0 0
1553 15 72.25390183319999 10.428952418350008 2.938448140493672 -1 0 0
1559 19 75.86659692486 10.428952418350008 2.938448140493672 -1 0 0
1557 18 77.67294447069 7.300266692845008 0.04723896164336795 -1 0 0
1561 1 79.47929201652 6.257371451009987 1.4927621240823676 -1 0 0
1563 14 81.28563956235 7.300266692845007 0.047238961643368604 -1 0 0
1567 3 83.09198710817999 6.257371451009987 1.4927621240823676 -1 0 0
1558 4 77.67294447069 9.386057176514985 1.4927621240823676 -1 0 0
1564 2 81.28563956235 9.38605717651499 1.4927621240823679 -1 0 0
1566 16 79.47929201651999 10.428952418350008 0.04723896164336766 -1 0 0
1572 20 83.09198710818 10.428952418350008 0.04723896164336766 -1 0 0
1556 17 77.67294447069 7.300266692845008 2.9384481404936715 -1 0 0
1562 13 81.28563956235 7.300266692845008 2.9384481404936715 -1 0 0
1565 15 79.47929201651999 10.428952418350008 2.938448140493672 -1 0 0
1571 19 83.09198710818 10.428952418350008 2.938448140493672 -1 0 0
1569 18 84.89833465401 7.300266692845008 0.04723896164336795 -1 0 0
1573 1 86.70468219984001 6.257371451009987 1.4927621240823676 -1 0 0
1575 14 88.51102974567 7.300266692845007 0.0472389616433686 -1 0 0
1570 4 84.89833465401 9.386057176514985 1.4927621240823676 -1 0 0
1576 2 88.51102974567 9.38605717651499 1.4927621240823679 -1 0 0
1578 16 86.70468219984 10.428952418350008 0.04723896164336766 -1 0 0
1568 17 84.89833465401 7.300266692845008 2.9384481404936715 -1 0 0
1574 13 88.51102974567 7.300266692845008 2.9384481404936715 -1 0 0
1577 15 86.70468219984 10.428952418350008 2.938448140493672 -1 0 0
1579 3 90.3173772915 6.257371451009987 1.4927621240823676 -1 0 0
1581 18 92.12372483733 7.300266692845008 0.04723896164336715 -1 0 0
1585 1 93.93007238316 6.257371451009984 1.4927621240823676 -1 0 0
1582 4 92.12372483733 9.386057176514985 1.4927621240823676 -1 0 0
1584 20 90.31737729150001 10.428952418350008 0.047238961643367675 -1 0 0
1590 16 93.93007238316 10.428952418350008 0.04723896164336655 -1 0 0
1580 17 92.12372483733 7.300266692845008 2.9384481404936724 -1 0 0
1583 19 90.31737729150001 10.428952418350008 2.938448140493672 -1 0 0
1589 15 93.93007238316 10.428952418350008 2.938448140493673 -1 0 0
1587 14 95.73641992898999 7.300266692845008 0.0472389616433682 -1 0 0
1591 3 97.54276747482 6.257371451009989 1.4927621240823679 -1 0 0
1593 18 99.34911502065 7.300266692845008 0.04723896164336808 -1 0 0
1588 2 95.73641992899 9.386057176514987 1.4927621240823676 -1 0 0
1594 4 99.34911502064999 9.386057176514987 1.4927621240823679 -1 0 0
1596 20 97.54276747482 10.428952418350008 0.047238961643368105 -1 0 0
1586 13 95.73641992898999 7.300266692845008 2.9384481404936715 -1 0 0
1592 17 99.34911502065 7.300266692845007 2.938448140493671 -1 0 0
1595 19 97.54276747482 10.428952418350008 2.938448140493672 -1 0 0
1765 1 3.8434703938684856e-15 12.514742902019986 1.492762124082368 0 0 0
1771 3 3.612695091660001 12.514742902019988 1.4927621240823676 0 0 0
1767 14 1.806347545830001 13.557638143855007 0.047238961643367786 0 0 0
1773 18 5.419042637490001 13.557638143855007 0.0472389616433679 0 0 0
1770 16 7.857025932442552e-16 16.686323869360006 0.04723896164336823 0 0 0
1768 2 1.806347545830001 15.643428627524985 1.4927621240823676 0 0 0
1776 20 3.612695091660001 16.686323869360006 0.04723896164336867 0 0 0
1774 4 5.419042637490001 15.643428627524985 1.4927621240823676 0 0 0
1766 13 1.8063475458300011 13.557638143855007 2.9384481404936715 0 0 0
1772 17 5.419042637490001 13.557638143855007 2.9384481404936715 0 0 0
1769 15 3.6272484441145417e-16 16.686323869360006 2.938448140493671 0 0 0
1775 19 3.612695091660001 16.686323869360006 2.938448140493671 0 0 0
1777 1 7.225390183320002 12.514742902019988 1.4927621240823679 0 0 0
1783 3 10.838085274980003 12.514742902019988 1.4927621240823679 0 0 0
1779 14 9.031737729150002 13.557638143855007 0.04723896164336791 0 0 0
1782 16 7.225390183320002 16.686323869360006 0.04723896164336865 0 0 0
1780 2 9.031737729150002 15.643428627524985 1.4927621240823676 0 0 0
1788 20 10.838085274980003 16.686323869360006 0.04723896164336867 0 0 0
1778 13 9.031737729150002 13.557638143855007 2.938448140493672 0 0 0
1781 15 7.225390183320002 16.686323869360006 2.938448140493671 0 0 0
1787 19 10.838085274980003 16.686323869360006 2.938448140493671 0 0 0
1789 1 14.450780366640002 12.514742902019986 1.4927621240823676 0 0 0
1785 18 12.644432820810003 13.557638143855007 0.04723896164336777 0 0 0
1791 14 16.25712791247 13.557638143855007 0.047238961643367876 0 0 0
1786 4 12.644432820810003 15.643428627524985 1.4927621240823676 0 0 0
1794 16 14.450780366640002 16.686323869360006 0.047238961643367765 0 0 0
1792 2 16.257127912470004 15.643428627524985 1.4927621240823676 0 0 0
1784 17 12.644432820810003 13.557638143855007 2.938448140493672 0 0 0
1790 13 16.25712791247 13.557638143855007 2.938448140493672 0 0 0
1793 15 14.450780366640002 16.686323869360006 2.938448140493672 0 0 0
1795 3 18.0634754583 12.514742902019988 1.4927621240823679 0 0 0
1801 1 21.676170549960002 12.514742902019988 1.4927621240823679 0 0 0
1797 18 19.86982300413 13.557638143855007 0.04723896164336797 0 0 0
1803 14 23.482518095790002 13.557638143855007 0.04723896164336797 0 0 0
1800 20 18.0634754583 16.686323869360006 0.047238961643368604 0 0 0
1798 4 19.86982300413 15.643428627524985 1.4927621240823676 0 0 0
1806 16 21.676170549960002 16.686323869360006 0.04723896164336859 0 0 0
1804 2 23.482518095790002 15.643428627524985 1.4927621240823676 0 0 0
1796 17 19.86982300413 13.557638143855007 2.9384481404936715 0 0 0
1802 13 23.482518095790002 13.557638143855007 2.9384481404936715 0 0 0
1799 19 18.0634754583 16.686323869360006 2.938448140493671 0 0 0
1805 15 21.676170549960002 16.686323869360006 2.938448140493671 0 0 0
1807 3 25.288865641620003 12.514742902019988 1.4927621240823679 0 0 0
1813 1 28.901560733280004 12.514742902019988 1.4927621240823679 0 0 0
1809 18 27.095213187450003 13.557638143855007 0.04723896164336797 0 0 0
1812 20 25.288865641620003 16.686323869360006 0.04723896164336859 0 0 0
1810 4 27.095213187450003 15.643428627524985 1.4927621240823676 0 0 0
1818 16 28.901560733280004 16.686323869360006 0.04723896164336861 0 0 0
1808 17 27.095213187450003 13.557638143855007 2.9384481404936715 0 0 0
1811 19 25.288865641620003 16.686323869360006 2.938448140493671 0 0 0
1817 15 28.901560733280004 16.686323869360006 2.938448140493671 0 0 0
1819 3 32.51425582494 12.514742902019988 1.4927621240823676 0 0 0
1815 14 30.707908279110004 13.557638143855007 0.047238961643368035 0 0 0
1821 18 34.32060337077 13.557638143855007 0.047238961643366474 0 0 0
1816 2 30.707908279110004 15.643428627524985 1.4927621240823676 0 0 0
1824 20 32.51425582494 16.686323869360006 0.04723896164336835 0 0 0
1822 4 34.32060337077 15.643428627524985 1.4927621240823679 0 0 0
1814 13 30.707908279110004 13.557638143855007 2.9384481404936715 0 0 0
1820 17 34.32060337077 13.557638143855007 2.9384481404936733 0 0 0
1823 19 32.51425582494 16.686323869360006 2.9384481404936715 0 0 0
1825 1 36.1269509166 12.514742902019988 1.4927621240823683 0 0 0
1831 3 39.73964600826 12.514742902019988 1.4927621240823676 0 0 0
1827 14 37.933298462429995 13.557638143855007 0.047238961643368174 0 0 0
1833 18 41.545993554089996 13.557638143855007 0.047238961643368126 0 0 0
1830 16 36.1269509166 16.686323869360006 0.04723896164336835 0 0 0
1828 2 37.933298462429995 15.643428627524985 1.492762124082367 0 0 0
1836 20 39.73964600826 16.686323869360006 0.04723896164336867 0 0 0
1834 4 41.545993554089996 15.643428627524987 1.4927621240823676 0 0 0
1826 13 37.93329846243 13.557638143855007 2.9384481404936715 0 0 0
1832 17 41.54599355409 13.557638143855007 2.9384481404936715 0 0 0
1829 15 36.1269509166 16.686323869360006 2.9384481404936715 0 0 0
1835 19 39.739646008259996 16.686323869360006 2.938448140493671 0 0 0
1837 1 43.352341099920004 12.514742902019988 1.4927621240823676 0 0 0
1843 3 46.965036191580005 12.514742902019988 1.4927621240823676 0 0 0
1839 14 45.15868864575 13.557638143855007 0.04723896164336811 0 0 0
1842 16 43.352341099920004 16.686323869360006 0.04723896164336867 0 0 0
1840 2 45.15868864575 15.643428627524987 1.4927621240823676 0 0 0
1848 20 46.965036191580005 16.686323869360006 0.04723896164336871 0 0 0
1838 13 45.158688645750004 13.557638143855007 2.9384481404936715 0 0 0
1841 15 43.35234109992 16.686323869360006 2.938448140493671 0 0 0
1847 19 46.96503619158 16.686323869360006 2.938448140493671 0 0 0
1681 1 50.57773128324 12.514742902019986 1.492762124082367 -1 0 0
1845 18 48.77138373741 13.557638143855007 0.04723896164336762 0 0 0
1683 14 52.38407882907 13.557638143855007 0.04723896164336802 -1 0 0
1846 4 48.77138373741 15.643428627524985 1.4927621240823683 0 0 0
1686 16 50.57773128324 16.686323869360006 0.047238961643367786 -1 0 0
1684 2 52.38407882907 15.643428627524985 1.4927621240823676 -1 0 0
1844 17 48.771383737410005 13.557638143855007 2.938448140493672 0 0 0
1682 13 52.38407882907 13.557638143855007 2.9384481404936715 -1 0 0
1685 15 50.57773128324 16.686323869360006 2.938448140493672 -1 0 0
1687 3 54.1904263749 12.514742902019988 1.4927621240823679 -1 0 0
1693 1 57.80312146656 12.514742902019988 1.4927621240823679 -1 0 0
1689 18 55.99677392073 13.557638143855007 0.04723896164336791 -1 0 0
1692 20 54.1904263749 16.686323869360006 0.04723896164336866 -1 0 0
1690 4 55.99677392073 15.643428627524985 1.4927621240823676 -1 0 0
1698 16 57.80312146656 16.686323869360006 0.04723896164336866 -1 0 0
1688 17 55.99677392073 13.557638143855007 2.938448140493672 -1 0 0
1691 19 54.1904263749 16.686323869360006 2.938448140493671 -1 0 0
1697 15 57.80312146656 16.686323869360006 2.938448140493671 -1 0 0
1699 3 61.41581655822 12.514742902019986 1.492762124082367 -1 0 0
1705 1 65.02851164988 12.514742902019988 1.4927621240823685 -1 0 0
1695 14 59.60946901239 13.557638143855007 0.04723896164336801 -1 0 0
1701 18 63.22216410405 13.557638143855007 0.047238961643368216 -1 0 0
1696 2 59.60946901239 15.643428627524985 1.4927621240823676 -1 0 0
1704 20 61.41581655822 16.686323869360006 0.04723896164336775 -1 0 0
1702 4 63.22216410405 15.643428627524985 1.4927621240823676 -1 0 0
1710 16 65.02851164988 16.686323869360006 0.04723896164336937 -1 0 0
1694 13 59.60946901239 13.557638143855007 2.9384481404936715 -1 0 0
1700 17 63.222164104049995 13.557638143855007 2.9384481404936715 -1 0 0
1703 19 61.41581655822 16.686323869360006 2.938448140493672 -1 0 0
1709 15 65.02851164988 16.686323869360006 2.93844814049367 -1 0 0
1711 3 68.64120674153999 12.514742902019988 1.4927621240823676 -1 0 0
1707 14 66.83485919571 13.557638143855007 0.04723896164336691 -1 0 0
1713 18 70.44755428737 13.557638143855007 0.0472389616433678 -1 0 0
1708 2 66.83485919571001 15.643428627524987 1.4927621240823676 -1 0 0
1716 20 68.64120674154 16.686323869360006 0.047238961643367806 -1 0 0
1714 4 70.44755428737 15.643428627524983 1.4927621240823676 -1 0 0
1706 13 66.83485919571 13.557638143855007 2.938448140493673 -1 0 0
1712 17 70.44755428737 13.557638143855007 2.938448140493672 -1 0 0
1715 19 68.64120674154 16.686323869360006 2.938448140493672 -1 0 0
1717 1 72.2539018332 12.514742902019988 1.4927621240823679 -1 0 0