LAMMPS data file via write_data, version 29 Aug 2024, timestep = 2, units = metal

9180 atoms
36 atom types

0 99.59246363574 xlo xhi
0 97.749550671878 ylo yhi
-50 50 zlo zhi

Masses

1 95.95
2 95.95
3 95.95
4 95.95
5 95.95
6 95.95
7 95.95
8 95.95
9 95.95
10 95.95
11 95.95
12 95.95
13 78.971
14 78.971
15 78.971
16 78.971
17 78.971
18 78.971
19 78.971
20 78.971
21 78.971
22 78.971
23 78.971
24 78.971
25 78.971
26 78.971
27 78.971
28 78.971
29 78.971
30 78.971
31 78.971
32 78.971
33 78.971
34 78.971
35 78.971
36 78.971

Atoms # atomic

1536 20 0 0.9583291806948043 0.020253292525026206 0 0 0
1542 16 3.319748787857998 0.9583291806948048 0.02025329252502595 0 0 0
1711 3 0 2.8749861942627333 1.6675126309973018 0 0 0
1717 1 3.319748787857999 2.8749861942627324 1.6675126309973018 0 0 0
1713 18 1.6598743939290002 3.833315965161805 0.02025329252502602 0 0 0
1719 14 4.979623181786998 3.8333159651618045 0.02025329252502636 0 0 0
1714 4 1.659874393928999 5.749972978729734 1.6675126309973018 0 0 0
1720 2 4.979623181786998 5.749972978729735 1.6675126309973016 0 0 0
1548 20 6.639497575716 0.9583291806948043 0.02025329252502627 0 0 0
1554 16 9.959246363573998 0.9583291806948047 0.020253292525025956 0 0 0
1723 3 6.639497575716 2.8749861942627333 1.6675126309973016 0 0 0
1729 1 9.959246363573998 2.8749861942627324 1.6675126309973016 0 0 0
1725 18 8.299371969645 3.833315965161805 0.020253292525025977 0 0 0
1731 14 11.619120757502998 3.8333159651618045 0.020253292525026632 0 0 0
1726 4 8.299371969645 5.749972978729734 1.6675126309973018 0 0 0
1732 2 11.619120757502998 5.749972978729734 1.6675126309973016 0 0 0
1560 20 13.278995151431998 0.9583291806948047 0.020253292525025956 0 0 0
1566 16 16.598743939289996 0.9583291806948043 0.02025329252502626 0 0 0
1735 3 13.278995151431998 2.8749861942627324 1.6675126309973016 0 0 0
1741 1 16.598743939289996 2.8749861942627333 1.6675126309973018 0 0 0
1737 18 14.938869545360996 3.833315965161805 0.02025329252502598 0 0 0
1738 4 14.938869545360996 5.749972978729734 1.6675126309973018 0 0 0
1572 20 19.918492727148 0.9583291806948043 0.020253292525026157 0 0 0
1578 16 23.238241515006003 0.9583291806948043 0.020253292525026164 0 0 0
1747 3 19.918492727148 2.8749861942627333 1.667512630997302 0 0 0
1753 1 23.238241515006003 2.874986194262733 1.667512630997302 0 0 0
1743 14 18.258618333218998 3.8333159651618045 0.02025329252502623 0 0 0
1749 18 21.578367121077 3.8333159651618045 0.020253292525026258 0 0 0
1744 2 18.258618333218998 5.749972978729734 1.6675126309973018 0 0 0
1750 4 21.578367121077 5.749972978729735 1.6675126309973018 0 0 0
1584 20 26.557990302863995 0.9583291806948049 0.0202532925250258 0 0 0
1759 3 26.557990302864 2.874986194262732 1.6675126309973018 0 0 0
1755 14 24.898115908935 3.833315965161805 0.020253292525025855 0 0 0
1761 18 28.217864696792994 3.833315965161805 0.020253292525026292 0 0 0
1756 2 24.898115908934997 5.749972978729733 1.6675126309973018 0 0 0
1762 4 28.217864696792994 5.749972978729734 1.6675126309973018 0 0 0
1590 16 29.877739090721995 0.9583291806948043 0.020253292525026216 0 0 0
1596 20 33.19748787858 0.9583291806948043 0.020253292525026157 0 0 0
1765 1 29.877739090721995 2.8749861942627333 1.667512630997302 0 0 0
1771 3 33.19748787858 2.8749861942627333 1.6675126309973018 0 0 0
1767 14 31.537613484650997 3.8333159651618045 0.020253292525026195 0 0 0
1773 18 34.857362272509 3.8333159651618045 0.020253292525026178 0 0 0
1768 2 31.537613484650997 5.749972978729734 1.667512630997302 0 0 0
1774 4 34.857362272509 5.749972978729734 1.6675126309973018 0 0 0
1602 16 36.517236666438 0.9583291806948043 0.020253292525026168 0 0 0
1608 20 39.83698545429599 0.958329180694805 0.02025329252502585 0 0 0
1777 1 36.517236666438 2.8749861942627333 1.6675126309973018 0 0 0
1783 3 39.836985454296 2.8749861942627315 1.6675126309973018 0 0 0
1779 14 38.177111060367004 3.833315965161805 0.020253292525025866 0 0 0
1780 2 38.177111060367 5.749972978729733 1.6675126309973018 0 0 0
1614 16 43.156734242153995 0.9583291806948043 0.020253292525026164 0 0 0
1620 20 46.476483030012 0.9583291806948043 0.02025329252502616 0 0 0
1789 1 43.156734242153995 2.8749861942627333 1.667512630997302 0 0 0
1795 3 46.476483030012 2.8749861942627333 1.667512630997302 0 0 0
1785 18 41.49685984822499 3.8333159651618045 0.020253292525026296 0 0 0
1791 14 44.816608636083 3.8333159651618045 0.020253292525026195 0 0 0
1786 4 41.49685984822499 5.749972978729735 1.6675126309973018 0 0 0
1792 2 44.816608636083 5.749972978729734 1.667512630997302 0 0 0
1446 16 49.79623181787 0.9583291806948042 0.0202532925250264 -1 0 0
1621 1 49.79623181787 2.8749861942627337 1.6675126309973018 -1 0 0
1797 18 48.136357423941 3.8333159651618045 0.02025329252502621 0 0 0
1623 14 51.456106211799 3.833315965161805 0.020253292525025897 -1 0 0
1798 4 48.136357423941 5.749972978729734 1.6675126309973018 0 0 0
1624 2 51.456106211799 5.749972978729733 1.6675126309973018 -1 0 0
1452 20 53.115980605728 0.9583291806948048 0.02025329252502588 -1 0 0
1458 16 56.435729393586 0.9583291806948043 0.020253292525026157 -1 0 0
1627 3 53.115980605728 2.8749861942627324 1.6675126309973016 -1 0 0
1633 1 56.435729393586 2.8749861942627333 1.6675126309973018 -1 0 0
1629 18 54.775854999657 3.8333159651618045 0.020253292525026497 -1 0 0
1635 14 58.095603787515 3.8333159651618045 0.02025329252502649 -1 0 0
1630 4 54.775854999657 5.749972978729735 1.6675126309973018 -1 0 0
1636 2 58.095603787515 5.749972978729735 1.6675126309973018 -1 0 0
1464 20 59.755478181444005 0.9583291806948048 0.020253292525025886 -1 0 0
1470 16 63.075226969302 0.9583291806948047 0.020253292525025945 -1 0 0
1639 3 59.755478181444005 2.8749861942627324 1.6675126309973018 -1 0 0
1645 1 63.075226969302 2.8749861942627324 1.6675126309973018 -1 0 0
1641 18 61.415352575373 3.833315965161805 0.02025329252502614 -1 0 0
1642 4 61.415352575373 5.749972978729734 1.6675126309973018 -1 0 0
1476 20 66.39497575716 0.9583291806948042 0.020253292525026435 -1 0 0
1482 16 69.714724545018 0.9583291806948043 0.020253292525026157 -1 0 0
1651 3 66.39497575716 2.8749861942627333 1.667512630997302 -1 0 0
1657 1 69.714724545018 2.8749861942627333 1.667512630997302 -1 0 0
1647 14 64.735101363231 3.833315965161805 0.0202532925250259 -1 0 0
1653 18 68.054850151089 3.8333159651618045 0.02025329252502621 -1 0 0
1648 2 64.735101363231 5.749972978729733 1.6675126309973018 -1 0 0
1654 4 68.054850151089 5.749972978729734 1.667512630997302 -1 0 0
1488 20 73.034473332876 0.958329180694804 0.020253292525026546 -1 0 0
1663 3 73.034473332876 2.8749861942627333 1.6675126309973018 -1 0 0
1659 14 71.374598938947 3.8333159651618045 0.020253292525026213 -1 0 0
1665 18 74.694347726805 3.8333159651618054 0.02025329252502603 -1 0 0
1660 2 71.374598938947 5.749972978729734 1.6675126309973018 -1 0 0
1666 4 74.694347726805 5.749972978729733 1.6675126309973018 -1 0 0
1494 16 76.354222120734 0.9583291806948045 0.020253292525025755 -1 0 0
1500 20 79.673970908592 0.9583291806948051 0.020253292525025862 -1 0 0
1669 1 76.35422212073401 2.8749861942627333 1.6675126309973018 -1 0 0
1675 3 79.673970908592 2.8749861942627315 1.6675126309973018 -1 0 0
1671 14 78.01409651466301 3.833315965161805 0.020253292525025918 -1 0 0
1677 18 81.333845302521 3.8333159651618045 0.020253292525026667 -1 0 0
1672 2 78.014096514663 5.749972978729735 1.6675126309973018 -1 0 0
1678 4 81.333845302521 5.749972978729735 1.6675126309973018 -1 0 0
1506 16 82.99371969645 0.9583291806948043 0.020253292525026174 -1 0 0
1512 20 86.313468484308 0.9583291806948051 0.020253292525025862 -1 0 0
1681 1 82.99371969645 2.8749861942627333 1.6675126309973018 -1 0 0
1687 3 86.313468484308 2.8749861942627315 1.6675126309973018 -1 0 0
1683 14 84.653594090379 3.8333159651618045 0.020253292525026667 -1 0 0
1684 2 84.653594090379 5.749972978729735 1.6675126309973018 -1 0 0
1518 16 89.63321727216601 0.9583291806948043 0.02025329252502615 -1 0 0
1524 20 92.95296606002401 0.9583291806948045 0.020253292525025744 -1 0 0
1693 1 89.633217272166 2.8749861942627337 1.6675126309973018 -1 0 0
1699 3 92.952966060024 2.874986194262733 1.6675126309973018 -1 0 0
1689 18 87.97334287823699 3.833315965161805 0.020253292525025907 -1 0 0
1695 14 91.293091666095 3.8333159651618045 0.020253292525026285 -1 0 0
1690 4 87.973342878237 5.749972978729734 1.6675126309973018 -1 0 0
1696 2 91.29309166609501 5.749972978729735 1.6675126309973018 -1 0 0
1530 16 96.272714847882 0.958329180694804 0.02025329252502655 -1 0 0
1705 1 96.272714847882 2.8749861942627333 1.6675126309973018 -1 0 0
1701 18 94.612840453953 3.8333159651618054 0.02025329252502603 -1 0 0
1707 14 97.932589241811 3.8333159651618045 0.02025329252502624 -1 0 0
1702 4 94.612840453953 5.749972978729733 1.6675126309973018 -1 0 0
1708 2 97.932589241811 5.749972978729734 1.6675126309973018 -1 0 0
1716 20 0 6.708302749628807 0.020253292525026202 0 0 0
1722 16 3.319748787857998 6.708302749628808 0.020253292525025893 0 0 0
1891 3 0 8.624959763196735 1.6675126309973016 0 0 0
1897 1 3.319748787857999 8.624959763196735 1.6675126309973018 0 0 0
1893 18 1.659874393929 9.583289534095806 0.020253292525025827 0 0 0
1899 14 4.979623181786998 9.583289534095806 0.020253292525026015 0 0 0
1894 4 1.659874393928999 11.499946547663733 1.6675126309973018 0 0 0
1900 2 4.979623181786998 11.499946547663734 1.6675126309973018 0 0 0
1728 20 6.639497575716 6.708302749628807 0.020253292525026216 0 0 0
1734 16 9.959246363573998 6.708302749628808 0.02025329252502588 0 0 0
1903 3 6.639497575716 8.624959763196735 1.6675126309973016 0 0 0
1909 1 9.959246363573998 8.624959763196735 1.6675126309973018 0 0 0
1905 18 8.299371969645 9.583289534095806 0.020253292525025866 0 0 0
1911 14 11.619120757502998 9.583289534095806 0.020253292525026324 0 0 0
1906 4 8.299371969645 11.499946547663733 1.6675126309973018 0 0 0
1912 2 11.619120757502998 11.499946547663734 1.6675126309973018 0 0 0
1740 20 13.278995151431998 6.708302749628808 0.02025329252502588 0 0 0
1746 16 16.598743939289996 6.708302749628807 0.02025329252502625 0 0 0
1915 3 13.278995151431998 8.624959763196735 1.6675126309973018 0 0 0
1921 1 16.598743939289996 8.624959763196735 1.6675126309973016 0 0 0
1917 18 14.938869545360996 9.583289534095806 0.020253292525025866 0 0 0
1918 4 14.938869545360996 11.499946547663733 1.6675126309973018 0 0 0
1752 20 19.918492727148 6.708302749628807 0.020253292525026126 0 0 0
1758 16 23.238241515006003 6.708302749628807 0.020253292525026063 0 0 0
1927 3 19.918492727148 8.624959763196735 1.6675126309973016 0 0 0
1933 1 23.238241515006003 8.624959763196735 1.6675126309973018 0 0 0
1923 14 18.258618333218998 9.583289534095806 0.020253292525026098 0 0 0
1929 18 21.578367121077 9.583289534095806 0.02025329252502605 0 0 0
1924 2 18.258618333218998 11.499946547663734 1.6675126309973018 0 0 0
1930 4 21.578367121077 11.499946547663734 1.6675126309973018 0 0 0
1764 20 26.557990302863995 6.708302749628807 0.020253292525025703 0 0 0
1939 3 26.557990302864 8.624959763196735 1.667512630997302 0 0 0
1935 14 24.898115908935 9.583289534095806 0.02025329252502563 0 0 0
1941 18 28.217864696792994 9.583289534095806 0.0202532925250261 0 0 0
1936 2 24.898115908934997 11.499946547663733 1.6675126309973018 0 0 0
1942 4 28.217864696792994 11.499946547663734 1.667512630997302 0 0 0
1770 16 29.877739090721995 6.708302749628807 0.020253292525026136 0 0 0
1776 20 33.19748787858 6.708302749628807 0.020253292525026126 0 0 0
1945 1 29.877739090721995 8.624959763196735 1.6675126309973018 0 0 0
1951 3 33.19748787858 8.624959763196735 1.6675126309973016 0 0 0
1947 14 31.537613484650997 9.583289534095806 0.020253292525026074 0 0 0
1953 18 34.857362272509 9.583289534095806 0.020253292525026 0 0 0
1948 2 31.537613484650997 11.499946547663734 1.6675126309973018 0 0 0
1954 4 34.857362272509 11.499946547663734 1.6675126309973018 0 0 0
1782 16 36.517236666438 6.708302749628807 0.02025329252502606 0 0 0
1788 20 39.83698545429599 6.708302749628807 0.020253292525025765 0 0 0
1957 1 36.517236666438 8.624959763196735 1.6675126309973018 0 0 0
1963 3 39.836985454296 8.624959763196733 1.667512630997302 0 0 0
1959 14 38.177111060367004 9.583289534095806 0.020253292525025637 0 0 0
1960 2 38.177111060367 11.499946547663733 1.6675126309973018 0 0 0
1794 16 43.156734242153995 6.708302749628807 0.02025329252502599 0 0 0
1800 20 46.476483030012 6.708302749628807 0.020253292525026046 0 0 0
1969 1 43.156734242153995 8.624959763196735 1.6675126309973018 0 0 0
1975 3 46.476483030012 8.624959763196735 1.6675126309973018 0 0 0
1965 18 41.49685984822499 9.583289534095806 0.02025329252502592 0 0 0
1971 14 44.816608636083 9.583289534095806 0.02025329252502592 0 0 0
1966 4 41.49685984822499 11.499946547663734 1.667512630997302 0 0 0
1972 2 44.816608636083 11.499946547663734 1.6675126309973018 0 0 0
1626 16 49.79623181787 6.708302749628806 0.020253292525026237 -1 0 0
1801 1 49.79623181787 8.624959763196735 1.6675126309973018 -1 0 0
1977 18 48.136357423941 9.583289534095806 0.020253292525025925 0 0 0
1803 14 51.456106211799 9.583289534095806 0.020253292525025765 -1 0 0
1978 4 48.136357423941 11.499946547663734 1.6675126309973018 0 0 0
1804 2 51.456106211799 11.499946547663733 1.6675126309973018 -1 0 0
1632 20 53.115980605728 6.708302749628808 0.02025329252502582 -1 0 0
1638 16 56.435729393586 6.708302749628807 0.02025329252502594 -1 0 0
1807 3 53.115980605728 8.624959763196735 1.6675126309973018 -1 0 0
1813 1 56.435729393586 8.624959763196735 1.6675126309973018 -1 0 0
1809 18 54.775854999657 9.583289534095806 0.020253292525026136 -1 0 0
1815 14 58.095603787515 9.583289534095806 0.020253292525026136 -1 0 0
1810 4 54.775854999657 11.499946547663734 1.6675126309973018 -1 0 0
1816 2 58.095603787515 11.499946547663734 1.6675126309973018 -1 0 0
1644 20 59.755478181444005 6.708302749628808 0.020253292525025772 -1 0 0
1650 16 63.075226969302 6.708302749628808 0.02025329252502591 -1 0 0
1819 3 59.755478181444005 8.624959763196735 1.6675126309973018 -1 0 0
1825 1 63.075226969302 8.624959763196735 1.6675126309973018 -1 0 0
1821 18 61.415352575373 9.583289534095806 0.020253292525025834 -1 0 0
1822 4 61.415352575373 11.499946547663733 1.6675126309973018 -1 0 0
1656 20 66.39497575716 6.708302749628807 0.020253292525026355 -1 0 0
1662 16 69.714724545018 6.708302749628807 0.020253292525026043 -1 0 0
1831 3 66.39497575716 8.624959763196735 1.6675126309973018 -1 0 0
1837 1 69.714724545018 8.624959763196735 1.6675126309973018 -1 0 0
1827 14 64.735101363231 9.583289534095806 0.020253292525025772 -1 0 0
1833 18 68.054850151089 9.583289534095806 0.020253292525026004 -1 0 0
1828 2 64.735101363231 11.499946547663733 1.6675126309973018 -1 0 0
1834 4 68.054850151089 11.499946547663734 1.6675126309973018 -1 0 0
1668 20 73.034473332876 6.708302749628806 0.02025329252502647 -1 0 0
1843 3 73.034473332876 8.624959763196735 1.6675126309973018 -1 0 0
1839 14 71.374598938947 9.583289534095806 0.02025329252502592 -1 0 0
1845 18 74.694347726805 9.583289534095806 0.020253292525025623 -1 0 0
1840 2 71.374598938947 11.499946547663734 1.6675126309973018 -1 0 0
1846 4 74.694347726805 11.499946547663733 1.6675126309973016 -1 0 0
1674 16 76.354222120734 6.708302749628807 0.020253292525025588 -1 0 0
1680 20 79.673970908592 6.708302749628808 0.020253292525025793 -1 0 0
1849 1 76.35422212073401 8.624959763196735 1.6675126309973018 -1 0 0
1855 3 79.673970908592 8.624959763196735 1.6675126309973018 -1 0 0
1851 14 78.01409651466301 9.583289534095806 0.020253292525025647 -1 0 0
1857 18 81.333845302521 9.583289534095806 0.020253292525026476 -1 0 0
1852 2 78.014096514663 11.499946547663734 1.6675126309973018 -1 0 0
1858 4 81.333845302521 11.499946547663734 1.667512630997302 -1 0 0
1686 16 82.99371969645 6.708302749628807 0.020253292525026053 -1 0 0
1692 20 86.313468484308 6.708302749628808 0.020253292525025793 -1 0 0
1861 1 82.99371969645 8.624959763196735 1.6675126309973018 -1 0 0
1867 3 86.313468484308 8.624959763196735 1.6675126309973018 -1 0 0
1863 14 84.653594090379 9.583289534095806 0.02025329252502656 -1 0 0
1864 2 84.653594090379 11.499946547663734 1.667512630997302 -1 0 0
1698 16 89.63321727216601 6.708302749628807 0.02025329252502602 -1 0 0
1704 20 92.95296606002401 6.708302749628807 0.020253292525025578 -1 0 0
1873 1 89.633217272166 8.624959763196735 1.6675126309973016 -1 0 0
1879 3 92.952966060024 8.624959763196735 1.6675126309973018 -1 0 0
1869 18 87.97334287823699 9.583289534095806 0.02025329252502565 -1 0 0
1875 14 91.293091666095 9.583289534095806 0.02025329252502606 -1 0 0
1870 4 87.973342878237 11.499946547663734 1.6675126309973018 -1 0 0
1876 2 91.29309166609501 11.499946547663734 1.6675126309973018 -1 0 0
1710 16 96.272714847882 6.708302749628806 0.020253292525026473 -1 0 0
1885 1 96.272714847882 8.624959763196735 1.6675126309973018 -1 0 0
1881 18 94.612840453953 9.583289534095806 0.02025329252502563 -1 0 0
1887 14 97.932589241811 9.583289534095806 0.02025329252502603 -1 0 0
1882 4 94.612840453953 11.499946547663733 1.6675126309973016 -1 0 0
1888 2 97.932589241811 11.499946547663734 1.6675126309973018 -1 0 0
1896 20 0 12.458276318562806 0.020253292525026338 0 0 0
1902 16 3.319748787857998 12.458276318562806 0.02025329252502612 0 0 0
2071 3 0 14.374933332130734 1.6675126309973018 0 0 0
2077 1 3.319748787857999 14.374933332130734 1.6675126309973018 0 0 0
2073 18 1.6598743939290002 15.333263103029806 0.02025329252502568 0 0 0
2079 14 4.979623181786998 15.333263103029807 0.020253292525026008 0 0 0
2074 4 1.6598743939289993 17.249920116597735 1.6675126309973018 0 0 0
2080 2 4.979623181786998 17.249920116597735 1.6675126309973018 0 0 0
1908 20 6.639497575716 12.458276318562806 0.020253292525026403 0 0 0
1914 16 9.959246363573998 12.458276318562806 0.020253292525026004 0 0 0
2083 3 6.639497575715999 14.374933332130734 1.6675126309973018 0 0 0
2089 1 9.959246363573998 14.374933332130734 1.6675126309973018 0 0 0
2085 18 8.299371969645 15.333263103029806 0.020253292525025588 0 0 0
2091 14 11.619120757502998 15.333263103029807 0.020253292525026174 0 0 0
2086 4 8.299371969645 17.249920116597735 1.6675126309973018 0 0 0
2092 2 11.619120757502998 17.249920116597735 1.6675126309973018 0 0 0
1920 20 13.278995151431998 12.458276318562806 0.020253292525026004 0 0 0
1926 16 16.598743939289996 12.458276318562806 0.020253292525026383 0 0 0
2095 3 13.278995151431998 14.374933332130734 1.6675126309973018 0 0 0
2101 1 16.598743939289996 14.374933332130734 1.6675126309973018 0 0 0
2097 18 14.938869545360996 15.333263103029806 0.020253292525025588 0 0 0
2098 4 14.938869545360996 17.249920116597735 1.6675126309973018 0 0 0
1932 20 19.918492727148 12.458276318562806 0.020253292525026417 0 0 0
1938 16 23.238241515006003 12.458276318562806 0.020253292525026216 0 0 0
2107 3 19.918492727148 14.374933332130736 1.6675126309973018 0 0 0
2113 1 23.238241515006003 14.374933332130734 1.667512630997302 0 0 0
2103 14 18.258618333218998 15.333263103029807 0.02025329252502597 0 0 0
2109 18 21.578367121077 15.333263103029807 0.020253292525025994 0 0 0
2104 2 18.258618333218998 17.249920116597735 1.667512630997302 0 0 0
2110 4 21.578367121077 17.249920116597735 1.667512630997302 0 0 0
1944 20 26.557990302863995 12.458276318562806 0.02025329252502594 0 0 0
2119 3 26.557990302864 14.374933332130734 1.6675126309973018 0 0 0
2115 14 24.898115908935 15.333263103029807 0.020253292525025397 0 0 0
2121 18 28.217864696792994 15.333263103029807 0.02025329252502592 0 0 0
2116 2 24.898115908934997 17.249920116597735 1.6675126309973016 0 0 0
2122 4 28.217864696792994 17.249920116597735 1.6675126309973018 0 0 0
1950 16 29.877739090721995 12.458276318562806 0.0202532925250264 0 0 0
1956 20 33.19748787858 12.458276318562806 0.02025329252502645 0 0 0
2125 1 29.877739090721995 14.374933332130736 1.6675126309973018 0 0 0
2131 3 33.19748787858 14.374933332130736 1.6675126309973018 0 0 0
2127 14 31.537613484650997 15.333263103029807 0.020253292525025945 0 0 0
2133 18 34.857362272509 15.333263103029807 0.020253292525025945 0 0 0
2128 2 31.537613484650997 17.249920116597735 1.667512630997302 0 0 0
2134 4 34.857362272509 17.249920116597735 1.667512630997302 0 0 0
1962 16 36.517236666438 12.458276318562806 0.02025329252502622 0 0 0
1968 20 39.83698545429599 12.458276318562806 0.020253292525025855 0 0 0
2137 1 36.517236666438 14.374933332130736 1.667512630997302 0 0 0
2143 3 39.836985454296 14.374933332130734 1.6675126309973018 0 0 0
2139 14 38.177111060367004 15.333263103029807 0.02025329252502546 0 0 0
2140 2 38.177111060367 17.249920116597732 1.6675126309973016 0 0 0
1974 16 43.156734242153995 12.458276318562806 0.02025329252502626 0 0 0
1980 20 46.476483030012 12.458276318562806 0.020253292525026452 0 0 0
2149 1 43.156734242153995 14.374933332130736 1.6675126309973018 0 0 0
2155 3 46.476483030012 14.374933332130736 1.6675126309973018 0 0 0
2145 18 41.49685984822499 15.333263103029807 0.02025329252502592 0 0 0
2151 14 44.816608636083 15.333263103029807 0.020253292525025945 0 0 0
2146 4 41.49685984822499 17.249920116597735 1.667512630997302 0 0 0
2152 2 44.816608636083 17.249920116597735 1.667512630997302 0 0 0
1806 16 49.79623181787 12.458276318562806 0.02025329252502645 -1 0 0
1981 1 49.79623181787 14.374933332130736 1.6675126309973018 -1 0 0
2157 18 48.136357423941 15.333263103029807 0.020253292525025945 0 0 0
1983 14 51.456106211799 15.333263103029806 0.020253292525025394 -1 0 0
2158 4 48.136357423941 17.249920116597735 1.667512630997302 0 0 0
1984 2 51.456106211799 17.249920116597735 1.6675126309973018 -1 0 0
1812 20 53.115980605728 12.458276318562806 0.02025329252502599 -1 0 0
1818 16 56.435729393586 12.458276318562806 0.020253292525026455 -1 0 0
1987 3 53.115980605728 14.374933332130734 1.6675126309973018 -1 0 0
1993 1 56.435729393586 14.374933332130736 1.6675126309973018 -1 0 0
1989 18 54.775854999657 15.333263103029807 0.02025329252502615 -1 0 0
1995 14 58.095603787515 15.333263103029807 0.02025329252502615 -1 0 0
1990 4 54.775854999657 17.249920116597735 1.6675126309973018 -1 0 0
1996 2 58.095603787515 17.249920116597735 1.6675126309973018 -1 0 0
1824 20 59.755478181444005 12.458276318562806 0.02025329252502599 -1 0 0
1830 16 63.075226969302 12.458276318562806 0.020253292525026157 -1 0 0
1999 3 59.755478181444005 14.374933332130734 1.6675126309973018 -1 0 0
2005 1 63.075226969302 14.374933332130734 1.667512630997302 -1 0 0
2001 18 61.415352575373 15.333263103029807 0.020253292525025463 -1 0 0
2002 4 61.415352575373 17.249920116597735 1.6675126309973018 -1 0 0
1836 20 66.39497575716 12.458276318562806 0.020253292525026445 -1 0 0
1842 16 69.714724545018 12.458276318562806 0.020253292525026445 -1 0 0
2011 3 66.39497575716 14.374933332130736 1.6675126309973018 -1 0 0
2017 1 69.714724545018 14.374933332130736 1.6675126309973018 -1 0 0
2007 14 64.735101363231 15.333263103029807 0.020253292525025397 -1 0 0
2013 18 68.054850151089 15.333263103029807 0.020253292525025945 -1 0 0
2008 2 64.735101363231 17.249920116597735 1.6675126309973018 -1 0 0
2014 4 68.054850151089 17.249920116597735 1.667512630997302 -1 0 0
1848 20 73.034473332876 12.458276318562804 0.020253292525026695 -1 0 0
2023 3 73.034473332876 14.374933332130736 1.667512630997302 -1 0 0
2019 14 71.374598938947 15.333263103029807 0.02025329252502595 -1 0 0
2025 18 74.694347726805 15.333263103029806 0.020253292525025588 -1 0 0
2020 2 71.374598938947 17.249920116597735 1.667512630997302 -1 0 0
2026 4 74.694347726805 17.249920116597732 1.6675126309973018 -1 0 0
1854 16 76.354222120734 12.458276318562806 0.020253292525025824 -1 0 0
1860 20 79.673970908592 12.458276318562806 0.020253292525025956 -1 0 0
2029 1 76.35422212073401 14.374933332130736 1.6675126309973018 -1 0 0
2035 3 79.673970908592 14.374933332130734 1.6675126309973016 -1 0 0
2031 14 78.01409651466301 15.333263103029807 0.020253292525025432 -1 0 0
2037 18 81.333845302521 15.333263103029807 0.02025329252502633 -1 0 0
2032 2 78.014096514663 17.249920116597735 1.6675126309973018 -1 0 0
2038 4 81.333845302521 17.249920116597735 1.6675126309973018 -1 0 0
1866 16 82.99371969645 12.458276318562806 0.020253292525026164 -1 0 0
1872 20 86.313468484308 12.458276318562806 0.020253292525025973 -1 0 0
2041 1 82.99371969645 14.374933332130736 1.6675126309973018 -1 0 0
2047 3 86.313468484308 14.374933332130734 1.6675126309973016 -1 0 0
2043 14 84.653594090379 15.333263103029807 0.02025329252502633 -1 0 0
2044 2 84.653594090379 17.249920116597735 1.6675126309973018 -1 0 0
1878 16 89.63321727216601 12.458276318562806 0.020253292525026383 -1 0 0
1884 20 92.95296606002401 12.458276318562806 0.020253292525025914 -1 0 0
2053 1 89.633217272166 14.374933332130736 1.6675126309973016 -1 0 0
2059 3 92.952966060024 14.374933332130734 1.6675126309973018 -1 0 0
2049 18 87.97334287823699 15.333263103029807 0.020253292525025425 -1 0 0
2055 14 91.293091666095 15.333263103029807 0.020253292525025945 -1 0 0
2050 4 87.973342878237 17.249920116597735 1.6675126309973018 -1 0 0
2056 2 91.29309166609501 17.249920116597735 1.667512630997302 -1 0 0
1890 16 96.272714847882 12.458276318562804 0.020253292525026695 -1 0 0
2065 1 96.272714847882 14.374933332130736 1.667512630997302 -1 0 0
2061 18 94.612840453953 15.333263103029806 0.02025329252502559 -1 0 0
2067 14 97.932589241811 15.333263103029807 0.020253292525025973 -1 0 0
2062 4 94.612840453953 17.249920116597732 1.6675126309973018 -1 0 0
2068 2 97.932589241811 17.249920116597735 1.667512630997302 -1 0 0
2076 20 0 18.208249887496805 0.020253292525026653 0 0 0
2082 16 3.3197487878579977 18.20824988749681 0.020253292525026133 0 0 0
2251 3 0 20.124906901064737 1.6675126309973018 0 0 0
2257 1 3.319748787857999 20.124906901064733 1.6675126309973023 0 0 0
2253 18 1.6598743939290002 21.083236671963807 0.020253292525025904 0 0 0
2259 14 4.979623181786998 21.083236671963807 0.020253292525026143 0 0 0
2254 4 1.6598743939289993 22.999893685531735 1.667512630997302 0 0 0
2260 2 4.979623181786998 22.999893685531735 1.6675126309973018 0 0 0
2088 20 6.639497575716 18.208249887496805 0.020253292525026615 0 0 0
2094 16 9.959246363573998 18.20824988749681 0.020253292525026154 0 0 0
2263 3 6.639497575716 20.124906901064737 1.6675126309973018 0 0 0
2269 1 9.959246363573998 20.124906901064733 1.6675126309973023 0 0 0
2265 18 8.299371969645 21.083236671963807 0.020253292525025883 0 0 0
2271 14 11.619120757502998 21.083236671963807 0.020253292525026268 0 0 0
2266 4 8.299371969645 22.999893685531735 1.6675126309973018 0 0 0
2272 2 11.619120757502998 22.999893685531735 1.667512630997302 0 0 0
2100 20 13.278995151431998 18.20824988749681 0.020253292525026154 0 0 0
2106 16 16.598743939289996 18.208249887496805 0.020253292525026573 0 0 0
2275 3 13.278995151431998 20.124906901064733 1.6675126309973023 0 0 0
2281 1 16.598743939289996 20.124906901064737 1.6675126309973018 0 0 0
2277 18 14.938869545360996 21.083236671963807 0.020253292525025883 0 0 0
2278 4 14.938869545360996 22.999893685531735 1.6675126309973018 0 0 0
2112 20 19.918492727148 18.208249887496805 0.020253292525026497 0 0 0
2118 16 23.238241515006003 18.208249887496805 0.020253292525026598 0 0 0
2287 3 19.918492727148 20.124906901064737 1.6675126309973018 0 0 0
2293 1 23.238241515006003 20.124906901064733 1.6675126309973018 0 0 0
2283 14 18.258618333218998 21.083236671963807 0.020253292525025928 0 0 0
2289 18 21.578367121077 21.083236671963807 0.020253292525025956 0 0 0
2284 2 18.258618333218998 22.999893685531735 1.6675126309973018 0 0 0
2290 4 21.578367121077 22.999893685531735 1.667512630997302 0 0 0
2124 20 26.557990302863995 18.20824988749681 0.020253292525026032 0 0 0
2299 3 26.557990302864 20.124906901064733 1.6675126309973023 0 0 0
2295 14 24.898115908935 21.083236671963807 0.020253292525025494 0 0 0
2301 18 28.217864696792994 21.083236671963807 0.020253292525025852 0 0 0
2296 2 24.898115908934997 22.99989368553173 1.667512630997302 0 0 0
2302 4 28.217864696792994 22.999893685531735 1.667512630997302 0 0 0
2130 16 29.877739090721995 18.208249887496805 0.020253292525026573 0 0 0
2136 20 33.19748787858 18.208249887496805 0.0202532925250265 0 0 0
2305 1 29.877739090721995 20.124906901064737 1.6675126309973018 0 0 0
2311 3 33.19748787858 20.124906901064737 1.6675126309973018 0 0 0
2307 14 31.537613484650997 21.083236671963807 0.0202532925250259 0 0 0
2313 18 34.857362272509 21.083236671963807 0.020253292525025883 0 0 0
2308 2 31.537613484650997 22.999893685531735 1.667512630997302 0 0 0
2314 4 34.857362272509 22.999893685531735 1.6675126309973018 0 0 0
2142 16 36.517236666438 18.208249887496805 0.0202532925250266 0 0 0
2148 20 39.83698545429599 18.20824988749681 0.02025329252502611 0 0 0
2317 1 36.517236666438 20.124906901064737 1.6675126309973018 0 0 0
2323 3 39.836985454296 20.124906901064733 1.6675126309973023 0 0 0
2319 14 38.177111060367004 21.083236671963807 0.020253292525025557 0 0 0
2320 2 38.177111060367 22.99989368553173 1.667512630997302 0 0 0
2154 16 43.156734242153995 18.208249887496805 0.02025329252502652 0 0 0
2160 20 46.476483030012 18.208249887496805 0.020253292525026497 0 0 0
2329 1 43.156734242153995 20.124906901064737 1.6675126309973018 0 0 0
2335 3 46.476483030012 20.124906901064737 1.6675126309973018 0 0 0
2325 18 41.49685984822499 21.083236671963807 0.020253292525025855 0 0 0
2331 14 44.816608636083 21.083236671963807 0.0202532925250259 0 0 0
2326 4 41.49685984822499 22.999893685531735 1.667512630997302 0 0 0
2332 2 44.816608636083 22.999893685531735 1.667512630997302 0 0 0
1986 16 49.79623181787 18.208249887496805 0.020253292525026827 -1 0 0
2161 1 49.79623181787 20.124906901064737 1.6675126309973018 -1 0 0
2337 18 48.136357423941 21.083236671963807 0.020253292525025904 0 0 0
2163 14 51.456106211799 21.083236671963807 0.02025329252502578 -1 0 0
2338 4 48.136357423941 22.999893685531735 1.667512630997302 0 0 0
2164 2 51.456106211799 22.999893685531735 1.6675126309973018 -1 0 0
1992 20 53.115980605728 18.20824988749681 0.020253292525026015 -1 0 0
1998 16 56.435729393586 18.208249887496805 0.02025329252502655 -1 0 0
2167 3 53.115980605728 20.124906901064733 1.6675126309973023 -1 0 0