LAMMPS data file via write_data, version 29 Aug 2024, timestep = 2, units = metal

6120 atoms
24 atom types

0 99.59246363574 xlo xhi
0 97.749550671878 ylo yhi
-50 50 zlo zhi

Masses

1 95.95
2 95.95
3 95.95
4 95.95
5 95.95
6 95.95
7 95.95
8 95.95
9 78.971
10 78.971
11 78.971
12 78.971
13 78.971
14 78.971
15 78.971
16 78.971
17 78.971
18 78.971
19 78.971
20 78.971
21 78.971
22 78.971
23 78.971
24 78.971

Atoms # atomic

1536 16 0 0.9583291855255544 0.020153163864533634 0 0 0
1542 12 3.319748787857998 0.9583291855255547 0.0201531638645332 0 0 0
1711 3 0 2.874986186852263 1.66763613076949 0 0 0
1717 1 3.319748787857999 2.8749861868522624 1.66763613076949 0 0 0
1713 14 1.6598743939290002 3.833315969992555 0.020153163864533467 0 0 0
1719 10 4.979623181786998 3.833315969992555 0.020153163864533797 0 0 0
1714 4 1.659874393928999 5.749972971319264 1.66763613076949 0 0 0
1720 2 4.979623181786998 5.749972971319265 1.66763613076949 0 0 0
1548 16 6.639497575716 0.9583291855255545 0.020153163864533596 0 0 0
1554 12 9.959246363573998 0.9583291855255546 0.020153163864533332 0 0 0
1723 3 6.639497575716 2.874986186852263 1.66763613076949 0 0 0
1729 1 9.959246363573998 2.8749861868522624 1.66763613076949 0 0 0
1725 14 8.299371969645 3.833315969992555 0.020153163864533558 0 0 0
1731 10 11.619120757502998 3.8333159699925545 0.020153163864533644 0 0 0
1726 4 8.299371969644998 5.749972971319264 1.66763613076949 0 0 0
1732 2 11.619120757502998 5.749972971319265 1.66763613076949 0 0 0
1560 16 13.278995151431998 0.9583291855255546 0.020153163864533332 0 0 0
1566 12 16.598743939289996 0.9583291855255545 0.020153163864533585 0 0 0
1735 3 13.278995151431998 2.8749861868522624 1.66763613076949 0 0 0
1741 1 16.598743939289996 2.874986186852263 1.66763613076949 0 0 0
1737 14 14.938869545360996 3.833315969992555 0.020153163864533558 0 0 0
1738 4 14.938869545360998 5.749972971319264 1.66763613076949 0 0 0
1572 16 19.918492727148 0.9583291855255544 0.02015316386453344 0 0 0
1578 12 23.238241515006003 0.9583291855255545 0.020153163864533544 0 0 0
1747 3 19.918492727148 2.8749861868522633 1.66763613076949 0 0 0
1753 1 23.238241515006003 2.874986186852263 1.66763613076949 0 0 0
1743 10 18.258618333218998 3.833315969992555 0.02015316386453373 0 0 0
1749 14 21.578367121077 3.8333159699925545 0.02015316386453376 0 0 0
1744 2 18.258618333218998 5.749972971319265 1.66763613076949 0 0 0
1750 4 21.578367121077 5.749972971319265 1.66763613076949 0 0 0
1584 16 26.557990302863995 0.958329185525555 0.0201531638645332 0 0 0
1759 3 26.557990302864 2.874986186852262 1.66763613076949 0 0 0
1755 10 24.898115908935 3.8333159699925554 0.020153163864533363 0 0 0
1761 14 28.217864696792994 3.8333159699925545 0.02015316386453373 0 0 0
1756 2 24.898115908934997 5.749972971319263 1.66763613076949 0 0 0
1762 4 28.217864696792994 5.749972971319265 1.66763613076949 0 0 0
1590 12 29.877739090721995 0.9583291855255542 0.020153163864533495 0 0 0
1596 16 33.19748787858 0.9583291855255544 0.02015316386453344 0 0 0
1765 1 29.877739090721995 2.8749861868522633 1.66763613076949 0 0 0
1771 3 33.19748787858 2.8749861868522633 1.66763613076949 0 0 0
1767 10 31.537613484650997 3.8333159699925545 0.02015316386453375 0 0 0
1773 14 34.857362272509 3.833315969992555 0.02015316386453371 0 0 0
1768 2 31.537613484650997 5.749972971319265 1.66763613076949 0 0 0
1774 4 34.857362272509 5.749972971319265 1.66763613076949 0 0 0
1602 12 36.517236666438 0.9583291855255544 0.020153163864533547 0 0 0
1608 16 39.83698545429599 0.9583291855255551 0.020153163864533204 0 0 0
1777 1 36.517236666438 2.8749861868522633 1.66763613076949 0 0 0
1783 3 39.836985454296 2.8749861868522615 1.66763613076949 0 0 0
1779 10 38.177111060367004 3.8333159699925554 0.020153163864533353 0 0 0
1780 2 38.177111060367 5.749972971319263 1.66763613076949 0 0 0
1614 12 43.156734242153995 0.9583291855255542 0.02015316386453345 0 0 0
1620 16 46.476483030012 0.9583291855255542 0.020153163864533443 0 0 0
1789 1 43.156734242153995 2.8749861868522633 1.66763613076949 0 0 0
1795 3 46.476483030012 2.8749861868522633 1.66763613076949 0 0 0
1785 14 41.49685984822499 3.8333159699925545 0.02015316386453373 0 0 0
1791 10 44.816608636083 3.8333159699925545 0.02015316386453375 0 0 0
1786 4 41.49685984822499 5.749972971319265 1.66763613076949 0 0 0
1792 2 44.816608636083 5.749972971319265 1.66763613076949 0 0 0
1446 12 49.79623181787 0.9583291855255542 0.02015316386453375 -1 0 0
1621 1 49.79623181787 2.8749861868522633 1.66763613076949 -1 0 0
1797 14 48.136357423941 3.833315969992555 0.020153163864533707 0 0 0
1623 10 51.456106211799 3.8333159699925554 0.02015316386453341 -1 0 0
1798 4 48.136357423941 5.749972971319265 1.66763613076949 0 0 0
1624 2 51.456106211799 5.749972971319264 1.66763613076949 -1 0 0
1452 16 53.115980605728 0.9583291855255549 0.02015316386453309 -1 0 0
1458 12 56.435729393586 0.9583291855255542 0.020153163864533436 -1 0 0
1627 3 53.115980605728 2.8749861868522624 1.66763613076949 -1 0 0
1633 1 56.435729393586 2.8749861868522633 1.66763613076949 -1 0 0
1629 14 54.775854999657 3.8333159699925545 0.020153163864533963 -1 0 0
1635 10 58.095603787515 3.8333159699925545 0.02015316386453396 -1 0 0
1630 4 54.775854999657 5.749972971319265 1.66763613076949 -1 0 0
1636 2 58.095603787515 5.749972971319265 1.66763613076949 -1 0 0
1464 16 59.755478181444005 0.9583291855255549 0.020153163864533093 -1 0 0
1470 12 63.075226969302 0.9583291855255546 0.02015316386453334 -1 0 0
1639 3 59.755478181444005 2.874986186852262 1.66763613076949 -1 0 0
1645 1 63.075226969302 2.8749861868522624 1.6676361307694898 -1 0 0
1641 14 61.415352575373 3.833315969992555 0.02015316386453353 -1 0 0
1642 4 61.415352575373 5.749972971319264 1.66763613076949 -1 0 0
1476 16 66.39497575716 0.9583291855255542 0.02015316386453375 -1 0 0
1482 12 69.714724545018 0.9583291855255544 0.02015316386453344 -1 0 0
1651 3 66.39497575716 2.8749861868522633 1.66763613076949 -1 0 0
1657 1 69.714724545018 2.8749861868522633 1.66763613076949 -1 0 0
1647 10 64.735101363231 3.8333159699925554 0.02015316386453341 -1 0 0
1653 14 68.054850151089 3.833315969992555 0.020153163864533707 -1 0 0
1648 2 64.735101363231 5.749972971319264 1.66763613076949 -1 0 0
1654 4 68.054850151089 5.749972971319265 1.66763613076949 -1 0 0
1488 16 73.034473332876 0.958329185525554 0.02015316386453396 -1 0 0
1663 3 73.034473332876 2.8749861868522633 1.66763613076949 -1 0 0
1659 10 71.374598938947 3.833315969992555 0.020153163864533717 -1 0 0
1665 14 74.694347726805 3.833315969992556 0.020153163864533443 -1 0 0
1660 2 71.374598938947 5.749972971319265 1.66763613076949 -1 0 0
1666 4 74.694347726805 5.749972971319263 1.66763613076949 -1 0 0
1494 12 76.354222120734 0.9583291855255547 0.020153163864533183 -1 0 0
1500 16 79.673970908592 0.958329185525555 0.020153163864533315 -1 0 0
1669 1 76.35422212073401 2.8749861868522633 1.66763613076949 -1 0 0
1675 3 79.673970908592 2.8749861868522615 1.66763613076949 -1 0 0
1671 10 78.01409651466301 3.833315969992555 0.02015316386453343 -1 0 0
1677 14 81.333845302521 3.833315969992554 0.020153163864534133 -1 0 0
1672 2 78.014096514663 5.749972971319265 1.66763613076949 -1 0 0
1678 4 81.333845302521 5.749972971319265 1.66763613076949 -1 0 0
1506 12 82.99371969645 0.9583291855255542 0.020153163864533467 -1 0 0
1512 16 86.313468484308 0.958329185525555 0.020153163864533318 -1 0 0
1681 1 82.99371969645 2.874986186852263 1.66763613076949 -1 0 0
1687 3 86.313468484308 2.8749861868522615 1.66763613076949 -1 0 0
1683 10 84.653594090379 3.833315969992554 0.020153163864534133 -1 0 0
1684 2 84.653594090379 5.749972971319265 1.66763613076949 -1 0 0
1518 12 89.63321727216601 0.9583291855255545 0.02015316386453366 -1 0 0
1524 16 92.95296606002401 0.9583291855255547 0.020153163864533162 -1 0 0
1693 1 89.633217272166 2.8749861868522633 1.6676361307694898 -1 0 0
1699 3 92.952966060024 2.874986186852263 1.66763613076949 -1 0 0
1689 14 87.97334287823699 3.833315969992555 0.02015316386453342 -1 0 0
1695 10 91.293091666095 3.8333159699925545 0.02015316386453382 -1 0 0
1690 4 87.973342878237 5.749972971319265 1.66763613076949 -1 0 0
1696 2 91.29309166609501 5.749972971319265 1.66763613076949 -1 0 0
1530 12 96.272714847882 0.958329185525554 0.020153163864533963 -1 0 0
1705 1 96.272714847882 2.8749861868522633 1.66763613076949 -1 0 0
1701 14 94.612840453953 3.833315969992556 0.020153163864533447 -1 0 0
1707 10 97.932589241811 3.833315969992555 0.020153163864533686 -1 0 0
1702 4 94.612840453953 5.749972971319263 1.66763613076949 -1 0 0
1708 2 97.932589241811 5.749972971319265 1.66763613076949 -1 0 0
1716 16 0 6.708302754459557 0.02015316386453364 0 0 0
1722 12 3.319748787857998 6.708302754459558 0.020153163864533336 0 0 0
1891 3 0 8.624959755786264 1.66763613076949 0 0 0
1897 1 3.319748787857999 8.624959755786264 1.66763613076949 0 0 0
1893 14 1.659874393929 9.583289538926556 0.020153163864533377 0 0 0
1899 10 4.979623181786998 9.583289538926556 0.020153163864533433 0 0 0
1894 4 1.659874393928999 11.499946540253264 1.66763613076949 0 0 0
1900 2 4.979623181786998 11.499946540253264 1.66763613076949 0 0 0
1728 16 6.639497575715999 6.708302754459557 0.02015316386453361 0 0 0
1734 12 9.959246363573998 6.708302754459558 0.02015316386453342 0 0 0
1903 3 6.639497575716 8.624959755786264 1.66763613076949 0 0 0
1909 1 9.959246363574 8.624959755786264 1.66763613076949 0 0 0
1905 14 8.299371969645 9.583289538926556 0.020153163864533325 0 0 0
1911 10 11.619120757502998 9.583289538926556 0.020153163864533395 0 0 0
1906 4 8.299371969644998 11.499946540253264 1.66763613076949 0 0 0
1912 2 11.619120757502998 11.499946540253264 1.66763613076949 0 0 0
1740 16 13.278995151431998 6.708302754459558 0.02015316386453342 0 0 0
1746 12 16.598743939289996 6.708302754459557 0.02015316386453359 0 0 0
1915 3 13.278995151431996 8.624959755786264 1.66763613076949 0 0 0
1921 1 16.598743939289996 8.624959755786264 1.6676361307694902 0 0 0
1917 14 14.938869545360996 9.583289538926556 0.020153163864533325 0 0 0
1918 4 14.938869545360998 11.499946540253264 1.66763613076949 0 0 0
1752 16 19.918492727148 6.708302754459557 0.02015316386453353 0 0 0
1758 12 23.238241515006003 6.708302754459557 0.020153163864533467 0 0 0
1927 3 19.918492727148 8.624959755786264 1.6676361307694902 0 0 0
1933 1 23.238241515006003 8.624959755786264 1.66763613076949 0 0 0
1923 10 18.258618333218998 9.583289538926556 0.020153163864533346 0 0 0
1929 14 21.578367121077 9.583289538926556 0.02015316386453338 0 0 0
1924 2 18.258618333218998 11.499946540253264 1.66763613076949 0 0 0
1930 4 21.578367121077 11.499946540253264 1.66763613076949 0 0 0
1764 16 26.557990302863995 6.708302754459558 0.02015316386453319 0 0 0
1939 3 26.557990302864 8.624959755786264 1.66763613076949 0 0 0
1935 10 24.898115908935 9.583289538926557 0.020153163864533148 0 0 0
1941 14 28.217864696792994 9.583289538926556 0.02015316386453341 0 0 0
1936 2 24.898115908934997 11.499946540253262 1.6676361307694902 0 0 0
1942 4 28.217864696792994 11.499946540253264 1.66763613076949 0 0 0
1770 12 29.877739090721995 6.708302754459557 0.02015316386453354 0 0 0
1776 16 33.19748787858 6.708302754459557 0.02015316386453353 0 0 0
1945 1 29.877739090721995 8.624959755786264 1.6676361307694902 0 0 0
1951 3 33.19748787858 8.624959755786264 1.6676361307694902 0 0 0
1947 10 31.537613484650997 9.583289538926556 0.020153163864533318 0 0 0
1953 14 34.857362272509 9.583289538926556 0.020153163864533336 0 0 0
1948 2 31.537613484650997 11.499946540253264 1.66763613076949 0 0 0
1954 4 34.857362272509 11.499946540253264 1.66763613076949 0 0 0
1782 12 36.517236666438 6.708302754459557 0.02015316386453347 0 0 0
1788 16 39.83698545429599 6.708302754459558 0.02015316386453325 0 0 0
1957 1 36.517236666438 8.624959755786264 1.66763613076949 0 0 0
1963 3 39.836985454296 8.624959755786263 1.66763613076949 0 0 0
1959 10 38.177111060367004 9.583289538926557 0.02015316386453314 0 0 0
1960 2 38.177111060367 11.499946540253262 1.6676361307694902 0 0 0
1794 12 43.156734242153995 6.708302754459557 0.020153163864533495 0 0 0
1800 16 46.476483030012 6.708302754459557 0.02015316386453353 0 0 0
1969 1 43.156734242153995 8.624959755786264 1.6676361307694902 0 0 0
1975 3 46.476483030012 8.624959755786264 1.6676361307694902 0 0 0
1965 14 41.49685984822499 9.583289538926556 0.020153163864533405 0 0 0
1971 10 44.816608636083 9.583289538926556 0.020153163864533315 0 0 0
1966 4 41.49685984822499 11.499946540253264 1.66763613076949 0 0 0
1972 2 44.816608636083 11.499946540253264 1.66763613076949 0 0 0
1626 12 49.79623181787 6.708302754459557 0.02015316386453382 -1 0 0
1801 1 49.79623181787 8.624959755786264 1.6676361307694902 -1 0 0
1977 14 48.136357423941 9.583289538926556 0.020153163864533325 0 0 0
1803 10 51.456106211799 9.583289538926556 0.020153163864533124 -1 0 0
1978 4 48.136357423941 11.499946540253264 1.66763613076949 0 0 0
1804 2 51.456106211799 11.499946540253262 1.66763613076949 -1 0 0
1632 16 53.115980605728 6.708302754459558 0.02015316386453322 -1 0 0
1638 12 56.435729393586 6.708302754459557 0.02015316386453355 -1 0 0
1807 3 53.115980605728 8.624959755786264 1.6676361307694902 -1 0 0
1813 1 56.435729393586 8.624959755786264 1.6676361307694902 -1 0 0
1809 14 54.775854999657 9.583289538926556 0.02015316386453356 -1 0 0
1815 10 58.095603787515 9.583289538926556 0.020153163864533558 -1 0 0
1810 4 54.775854999657 11.499946540253264 1.66763613076949 -1 0 0
1816 2 58.095603787515 11.499946540253264 1.66763613076949 -1 0 0
1644 16 59.755478181444005 6.708302754459558 0.020153163864533225 -1 0 0
1650 12 63.075226969302 6.708302754459558 0.020153163864533478 -1 0 0
1819 3 59.755478181444005 8.624959755786264 1.6676361307694902 -1 0 0
1825 1 63.075226969302 8.624959755786264 1.66763613076949 -1 0 0
1821 14 61.415352575373 9.583289538926556 0.02015316386453325 -1 0 0
1822 4 61.415352575373 11.499946540253264 1.66763613076949 -1 0 0
1656 16 66.39497575716 6.708302754459557 0.02015316386453382 -1 0 0
1662 12 69.714724545018 6.708302754459557 0.02015316386453353 -1 0 0
1831 3 66.39497575716 8.624959755786264 1.6676361307694902 -1 0 0
1837 1 69.714724545018 8.624959755786264 1.6676361307694902 -1 0 0
1827 10 64.735101363231 9.583289538926556 0.020153163864533124 -1 0 0
1833 14 68.054850151089 9.583289538926556 0.020153163864533325 -1 0 0
1828 2 64.735101363231 11.499946540253262 1.66763613076949 -1 0 0
1834 4 68.054850151089 11.499946540253264 1.66763613076949 -1 0 0
1668 16 73.034473332876 6.708302754459557 0.020153163864533898 -1 0 0
1843 3 73.034473332876 8.624959755786264 1.6676361307694902 -1 0 0
1839 10 71.374598938947 9.583289538926556 0.020153163864533336 -1 0 0
1845 14 74.694347726805 9.583289538926557 0.020153163864533162 -1 0 0
1840 2 71.374598938947 11.499946540253264 1.66763613076949 -1 0 0
1846 4 74.694347726805 11.499946540253262 1.6676361307694902 -1 0 0
1674 12 76.354222120734 6.708302754459558 0.020153163864533117 -1 0 0
1680 16 79.673970908592 6.708302754459558 0.02015316386453326 -1 0 0
1849 1 76.35422212073401 8.624959755786264 1.66763613076949 -1 0 0
1855 3 79.673970908592 8.624959755786264 1.66763613076949 -1 0 0
1851 10 78.01409651466301 9.583289538926556 0.020153163864533162 -1 0 0
1857 14 81.333845302521 9.583289538926556 0.020153163864533818 -1 0 0
1852 2 78.014096514663 11.499946540253264 1.66763613076949 -1 0 0
1858 4 81.333845302521 11.499946540253264 1.66763613076949 -1 0 0
1686 12 82.99371969645 6.708302754459557 0.020153163864533464 -1 0 0
1692 16 86.313468484308 6.708302754459558 0.020153163864533256 -1 0 0
1861 1 82.99371969645 8.624959755786264 1.66763613076949 -1 0 0
1867 3 86.313468484308 8.624959755786264 1.66763613076949 -1 0 0
1863 10 84.653594090379 9.583289538926556 0.020153163864533814 -1 0 0
1864 2 84.653594090379 11.499946540253264 1.66763613076949 -1 0 0
1698 12 89.63321727216601 6.708302754459557 0.02015316386453364 -1 0 0
1704 16 92.95296606002401 6.708302754459557 0.020153163864533148 -1 0 0
1873 1 89.633217272166 8.624959755786266 1.66763613076949 -1 0 0
1879 3 92.952966060024 8.624959755786264 1.66763613076949 -1 0 0
1869 14 87.97334287823699 9.583289538926556 0.020153163864533145 -1 0 0
1875 10 91.293091666095 9.583289538926556 0.020153163864533474 -1 0 0
1870 4 87.973342878237 11.499946540253264 1.66763613076949 -1 0 0
1876 2 91.29309166609501 11.499946540253264 1.66763613076949 -1 0 0
1710 12 96.272714847882 6.708302754459557 0.020153163864533898 -1 0 0
1885 1 96.272714847882 8.624959755786264 1.6676361307694902 -1 0 0
1881 14 94.612840453953 9.583289538926557 0.020153163864533162 -1 0 0
1887 10 97.932589241811 9.583289538926556 0.02015316386453337 -1 0 0
1882 4 94.612840453953 11.499946540253262 1.6676361307694902 -1 0 0
1888 2 97.932589241811 11.499946540253264 1.66763613076949 -1 0 0
1896 16 0 12.458276323393555 0.020153163864533943 0 0 0
1902 12 3.319748787857998 12.458276323393555 0.020153163864533568 0 0 0
2071 3 0 14.374933324720265 1.66763613076949 0 0 0
2077 1 3.319748787857999 14.374933324720264 1.66763613076949 0 0 0
2073 14 1.6598743939290002 15.333263107860557 0.020153163864533006 0 0 0
2079 10 4.979623181786998 15.333263107860557 0.02015316386453335 0 0 0
2074 4 1.659874393928999 17.249920109187265 1.66763613076949 0 0 0
2080 2 4.979623181786998 17.249920109187265 1.66763613076949 0 0 0
1908 16 6.639497575715999 12.458276323393555 0.020153163864533877 0 0 0
1914 12 9.959246363573998 12.458276323393555 0.02015316386453358 0 0 0
2083 3 6.639497575716 14.374933324720265 1.66763613076949 0 0 0
2089 1 9.959246363574 14.374933324720264 1.66763613076949 0 0 0
2085 14 8.299371969645 15.333263107860557 0.02015316386453304 0 0 0
2091 10 11.619120757502998 15.333263107860557 0.02015316386453339 0 0 0
2086 4 8.299371969644998 17.249920109187265 1.66763613076949 0 0 0
2092 2 11.619120757502998 17.249920109187265 1.6676361307694902 0 0 0
1920 16 13.278995151431998 12.458276323393555 0.02015316386453358 0 0 0
1926 12 16.598743939289996 12.458276323393555 0.020153163864533856 0 0 0
2095 3 13.278995151431996 14.374933324720264 1.66763613076949 0 0 0
2101 1 16.598743939289996 14.374933324720265 1.66763613076949 0 0 0
2097 14 14.938869545360996 15.333263107860557 0.020153163864533044 0 0 0
2098 4 14.938869545360998 17.249920109187265 1.66763613076949 0 0 0
1932 16 19.918492727148 12.458276323393555 0.02015316386453386 0 0 0
1938 12 23.238241515006003 12.458276323393555 0.020153163864533738 0 0 0
2107 3 19.918492727148 14.374933324720265 1.6676361307694902 0 0 0
2113 1 23.238241515006003 14.374933324720265 1.66763613076949 0 0 0
2103 10 18.258618333218998 15.333263107860557 0.020153163864533388 0 0 0
2109 14 21.578367121077 15.333263107860557 0.020153163864533422 0 0 0
2104 2 18.258618333218998 17.249920109187265 1.6676361307694898 0 0 0
2110 4 21.578367121077 17.249920109187265 1.6676361307694898 0 0 0
1944 16 26.557990302863995 12.458276323393557 0.020153163864533395 0 0 0
2119 3 26.557990302864 14.374933324720264 1.66763613076949 0 0 0
2115 10 24.898115908935 15.333263107860558 0.02015316386453288 0 0 0
2121 14 28.217864696792994 15.333263107860557 0.02015316386453339 0 0 0
2116 2 24.898115908934997 17.249920109187265 1.6676361307694902 0 0 0
2122 4 28.217864696792994 17.249920109187265 1.66763613076949 0 0 0
1950 12 29.877739090721995 12.458276323393555 0.02015316386453392 0 0 0
1956 16 33.19748787858 12.458276323393555 0.020153163864533863 0 0 0
2125 1 29.877739090721995 14.374933324720265 1.66763613076949 0 0 0
2131 3 33.19748787858 14.374933324720265 1.6676361307694902 0 0 0
2127 10 31.537613484650997 15.333263107860557 0.02015316386453336 0 0 0
2133 14 34.857362272509 15.333263107860557 0.020153163864533377 0 0 0
2128 2 31.537613484650997 17.249920109187265 1.6676361307694898 0 0 0
2134 4 34.857362272509 17.249920109187265 1.6676361307694898 0 0 0
1962 12 36.517236666438 12.458276323393555 0.020153163864533738 0 0 0
1968 16 39.83698545429599 12.458276323393557 0.02015316386453344 0 0 0
2137 1 36.517236666438 14.374933324720265 1.66763613076949 0 0 0
2143 3 39.836985454296 14.374933324720264 1.66763613076949 0 0 0
2139 10 38.177111060367004 15.333263107860558 0.020153163864532954 0 0 0
2140 2 38.177111060367 17.249920109187265 1.6676361307694902 0 0 0
1974 12 43.156734242153995 12.458276323393555 0.020153163864533873 0 0 0
1980 16 46.476483030012 12.458276323393555 0.020153163864533863 0 0 0
2149 1 43.156734242153995 14.374933324720265 1.66763613076949 0 0 0
2155 3 46.476483030012 14.374933324720265 1.6676361307694902 0 0 0
2145 14 41.49685984822499 15.333263107860557 0.020153163864533388 0 0 0
2151 10 44.816608636083 15.333263107860557 0.02015316386453336 0 0 0
2146 4 41.49685984822499 17.249920109187265 1.66763613076949 0 0 0
2152 2 44.816608636083 17.249920109187265 1.6676361307694898 0 0 0
1806 12 49.79623181787 12.458276323393555 0.020153163864534092 -1 0 0
1981 1 49.79623181787 14.374933324720265 1.66763613076949 -1 0 0
2157 14 48.136357423941 15.333263107860557 0.020153163864533367 0 0 0
1983 10 51.456106211799 15.333263107860557 0.020153163864532902 -1 0 0
2158 4 48.136357423941 17.249920109187265 1.6676361307694898 0 0 0
1984 2 51.456106211799 17.249920109187265 1.66763613076949 -1 0 0
1812 16 53.115980605728 12.458276323393555 0.020153163864533374 -1 0 0
1818 12 56.435729393586 12.458276323393555 0.020153163864533866 -1 0 0
1987 3 53.115980605728 14.374933324720264 1.66763613076949 -1 0 0
1993 1 56.435729393586 14.374933324720265 1.66763613076949 -1 0 0
1989 14 54.775854999657 15.333263107860557 0.020153163864533478 -1 0 0
1995 10 58.095603787515 15.333263107860557 0.020153163864533478 -1 0 0
1990 4 54.775854999657 17.249920109187265 1.66763613076949 -1 0 0
1996 2 58.095603787515 17.249920109187265 1.66763613076949 -1 0 0
1824 16 59.755478181444005 12.458276323393555 0.020153163864533374 -1 0 0
1830 12 63.075226969302 12.458276323393555 0.020153163864533544 -1 0 0
1999 3 59.755478181444005 14.374933324720264 1.66763613076949 -1 0 0
2005 1 63.075226969302 14.374933324720264 1.66763613076949 -1 0 0
2001 14 61.415352575373 15.333263107860557 0.02015316386453316 -1 0 0
2002 4 61.415352575373 17.249920109187265 1.6676361307694902 -1 0 0
1836 16 66.39497575716 12.458276323393555 0.020153163864534092 -1 0 0
1842 12 69.714724545018 12.458276323393555 0.02015316386453386 -1 0 0
2011 3 66.39497575716 14.374933324720265 1.66763613076949 -1 0 0
2017 1 69.714724545018 14.374933324720265 1.6676361307694902 -1 0 0
2007 10 64.735101363231 15.333263107860557 0.0201531638645329 -1 0 0
2013 14 68.054850151089 15.333263107860557 0.020153163864533367 -1 0 0
2008 2 64.735101363231 17.249920109187265 1.66763613076949 -1 0 0
2014 4 68.054850151089 17.249920109187265 1.6676361307694898 -1 0 0
1848 16 73.034473332876 12.458276323393555 0.020153163864534154 -1 0 0
2023 3 73.034473332876 14.374933324720265 1.66763613076949 -1 0 0
2019 10 71.374598938947 15.333263107860557 0.020153163864533377 -1 0 0
2025 14 74.694347726805 15.333263107860558 0.020153163864532943 -1 0 0
2020 2 71.374598938947 17.249920109187265 1.6676361307694898 -1 0 0
2026 4 74.694347726805 17.249920109187265 1.66763613076949 -1 0 0
1854 12 76.354222120734 12.458276323393555 0.02015316386453342 -1 0 0
1860 16 79.673970908592 12.458276323393557 0.020153163864533426 -1 0 0
2029 1 76.35422212073401 14.374933324720265 1.6676361307694898 -1 0 0
2035 3 79.673970908592 14.374933324720264 1.6676361307694902 -1 0 0
2031 10 78.01409651466301 15.333263107860557 0.02015316386453293 -1 0 0
2037 14 81.333845302521 15.333263107860557 0.020153163864533728 -1 0 0
2032 2 78.014096514663 17.249920109187265 1.66763613076949 -1 0 0
2038 4 81.333845302521 17.249920109187265 1.66763613076949 -1 0 0
1866 12 82.99371969645 12.458276323393555 0.020153163864533887 -1 0 0
1872 16 86.313468484308 12.458276323393557 0.02015316386453343 -1 0 0
2041 1 82.99371969645 14.374933324720265 1.66763613076949 -1 0 0
2047 3 86.313468484308 14.374933324720264 1.6676361307694902 -1 0 0
2043 10 84.653594090379 15.333263107860557 0.020153163864533728 -1 0 0
2044 2 84.653594090379 17.249920109187265 1.66763613076949 -1 0 0
1878 12 89.63321727216601 12.458276323393555 0.020153163864533814 -1 0 0
1884 16 92.95296606002401 12.458276323393555 0.020153163864533495 -1 0 0
2053 1 89.633217272166 14.374933324720265 1.66763613076949 -1 0 0
2059 3 92.952966060024 14.374933324720265 1.6676361307694898 -1 0 0
2049 14 87.97334287823699 15.333263107860557 0.020153163864532916 -1 0 0
2055 10 91.293091666095 15.333263107860557 0.020153163864533415 -1 0 0
2050 4 87.973342878237 17.249920109187265 1.66763613076949 -1 0 0
2056 2 91.29309166609501 17.249920109187265 1.6676361307694898 -1 0 0
1890 12 96.272714847882 12.458276323393555 0.020153163864534154 -1 0 0
2065 1 96.272714847882 14.374933324720265 1.66763613076949 -1 0 0
2061 14 94.612840453953 15.333263107860558 0.020153163864532943 -1 0 0
2067 10 97.932589241811 15.333263107860557 0.020153163864533398 -1 0 0
2062 4 94.612840453953 17.249920109187265 1.66763613076949 -1 0 0
2068 2 97.932589241811 17.249920109187265 1.6676361307694898 -1 0 0
2076 16 0 18.208249892327558 0.02015316386453421 0 0 0
2082 12 3.319748787857998 18.208249892327554 0.020153163864533735 0 0 0
2251 3 0 20.124906893654266 1.66763613076949 0 0 0
2257 1 3.319748787857999 20.124906893654263 1.6676361307694896 0 0 0
2253 14 1.6598743939290002 21.083236676794556 0.020153163864533346 0 0 0
2259 10 4.979623181786998 21.083236676794556 0.020153163864533575 0 0 0
2254 4 1.659874393928999 22.999893678121264 1.66763613076949 0 0 0
2260 2 4.979623181786998 22.999893678121264 1.66763613076949 0 0 0
2088 16 6.639497575716 18.208249892327558 0.020153163864534144 0 0 0
2094 12 9.959246363573998 18.208249892327554 0.020153163864533793 0 0 0
2263 3 6.639497575716 20.124906893654266 1.66763613076949 0 0 0
2269 1 9.959246363574 20.124906893654263 1.6676361307694896 0 0 0
2265 14 8.299371969645 21.083236676794556 0.02015316386453336 0 0 0
2271 10 11.619120757502998 21.083236676794556 0.020153163864533658 0 0 0
2266 4 8.299371969644998 22.999893678121264 1.6676361307694902 0 0 0
2272 2 11.619120757502998 22.999893678121264 1.66763613076949 0 0 0
2100 16 13.278995151431998 18.208249892327554 0.020153163864533797 0 0 0
2106 12 16.598743939289996 18.208249892327558 0.02015316386453412 0 0 0
2275 3 13.278995151431996 20.124906893654263 1.6676361307694896 0 0 0
2281 1 16.598743939289996 20.124906893654266 1.66763613076949 0 0 0
2277 14 14.938869545360996 21.083236676794556 0.020153163864533363 0 0 0
2278 4 14.938869545360998 22.999893678121264 1.6676361307694902 0 0 0
2112 16 19.918492727148 18.208249892327558 0.02015316386453403 0 0 0
2118 12 23.238241515006003 18.208249892327558 0.02015316386453399 0 0 0
2287 3 19.918492727148 20.124906893654266 1.66763613076949 0 0 0
2293 1 23.238241515006003 20.124906893654266 1.66763613076949 0 0 0
2283 10 18.258618333218998 21.083236676794556 0.02015316386453346 0 0 0
2289 14 21.578367121077 21.083236676794556 0.02015316386453349 0 0 0
2284 2 18.258618333218998 22.999893678121264 1.6676361307694902 0 0 0
2290 4 21.578367121077 22.999893678121264 1.66763613076949 0 0 0
2124 16 26.557990302863995 18.208249892327554 0.02015316386453364 0 0 0
2299 3 26.557990302864 20.124906893654263 1.6676361307694896 0 0 0
2295 10 24.898115908935 21.083236676794556 0.020153163864533072 0 0 0
2301 14 28.217864696792994 21.083236676794556 0.020153163864533537 0 0 0
2296 2 24.898115908934997 22.99989367812126 1.66763613076949 0 0 0
2302 4 28.217864696792994 22.999893678121264 1.66763613076949 0 0 0
2130 12 29.877739090721995 18.208249892327558 0.020153163864534113 0 0 0
2136 16 33.19748787858 18.208249892327558 0.020153163864534057 0 0 0
2305 1 29.877739090721995 20.124906893654266 1.66763613076949 0 0 0
2311 3 33.19748787858 20.124906893654266 1.66763613076949 0 0 0
2307 10 31.537613484650997 21.083236676794556 0.020153163864533436 0 0 0
2313 14 34.857362272509 21.083236676794556 0.020153163864533447 0 0 0
2308 2 31.537613484650997 22.999893678121264 1.66763613076949 0 0 0
2314 4 34.857362272509 22.999893678121264 1.66763613076949 0 0 0
2142 12 36.517236666438 18.208249892327558 0.02015316386453399 0 0 0
2148 16 39.83698545429599 18.208249892327554 0.02015316386453363 0 0 0
2317 1 36.517236666438 20.124906893654266 1.66763613076949 0 0 0
2323 3 39.836985454296 20.124906893654263 1.6676361307694898 0 0 0
2319 10 38.177111060367004 21.083236676794556 0.020153163864533058 0 0 0
2320 2 38.177111060367 22.99989367812126 1.66763613076949 0 0 0
2154 12 43.156734242153995 18.208249892327558 0.020153163864534068 0 0 0
2160 16 46.476483030012 18.208249892327558 0.020153163864534057 0 0 0
2329 1 43.156734242153995 20.124906893654266 1.66763613076949 0 0 0
2335 3 46.476483030012 20.124906893654266 1.66763613076949 0 0 0
2325 14 41.49685984822499 21.083236676794556 0.02015316386453354 0 0 0
2331 10 44.816608636083 21.083236676794556 0.020153163864533436 0 0 0
2326 4 41.49685984822499 22.999893678121264 1.66763613076949 0 0 0
2332 2 44.816608636083 22.999893678121264 1.66763613076949 0 0 0
1986 12 49.79623181787 18.208249892327554 0.02015316386453429 -1 0 0
2161 1 49.79623181787 20.124906893654266 1.66763613076949 -1 0 0
2337 14 48.136357423941 21.083236676794556 0.02015316386453344 0 0 0
2163 10 51.456106211799 21.083236676794556 0.02015316386453316 -1 0 0
2338 4 48.136357423941 22.999893678121264 1.66763613076949 0 0 0
2164 2 51.456106211799 22.999893678121264 1.66763613076949 -1 0 0
1992 16 53.115980605728 18.208249892327554 0.020153163864533606 -1 0 0
1998 12 56.435729393586 18.208249892327558 0.020153163864534068 -1 0 0
2167 3 53.115980605728 20.124906893654263 1.6676361307694896 -1 0 0
2173 1 56.435729393586 20.124906893654266 1.6676361307694902 -1 0 0
2169 14 54.775854999657 21.083236676794556 0.020153163864533745 -1 0 0
2175 10 58.095603787515 21.083236676794556 0.020153163864533745 -1 0 0
2170 4 54.775854999657 22.999893678121264 1.6676361307694902 -1 0 0
2176 2 58.095603787515 22.999893678121264 1.6676361307694902 -1 0 0
2004 16 59.755478181444005 18.208249892327554 0.020153163864533613 -1 0 0