LAMMPS data file via write_data, version 29 Aug 2024, timestep = 0, units = metal

4200 atoms
3 atom types

0 99.386128335865 xlo xhi
0 98.366756483 ylo yhi
0 16.898821307482 zlo zhi

Masses

1 58.6934
2 15.999
3 15.999

Atoms # atomic

2213 1 1.4198018333695046 0 0.9494106537409994 0 0 0
2219 1 4.2594055001085 0 0.9494106537409994 0 0 0
2225 1 7.099009166847502 0 0.9494106537409994 0 0 0
2231 1 9.938612833586504 0 0.9494106537409994 0 0 0
2237 1 12.778216500325499 0 0.9494106537409994 0 0 0
2243 1 15.617820167064501 0 0.9494106537409994 0 0 0
2249 1 18.457423833803496 0 0.9494106537409994 0 0 0
2255 1 21.297027500542505 0 0.9494106537409994 0 0 0
2261 1 24.1366311672815 0 0.9494106537409994 0 0 0
2267 1 26.976234834020495 0 0.9494106537409994 0 0 0
2273 1 29.815838500759504 0 0.9494106537409994 0 0 0
2279 1 32.6554421674985 0 0.9494106537409994 0 0 0
2285 1 35.49504583423751 0 0.9494106537409994 0 0 0
2291 1 38.334649500976504 0 0.9494106537409994 0 0 0
2297 1 41.1742531677155 0 0.9494106537409994 0 0 0
2303 1 44.01385683445451 0 0.9494106537409994 0 0 0
2309 1 46.8534605011935 0 0.9494106537409994 0 0 0
2105 1 49.6930641679325 0 0.9494106537409994 -1 0 0
2111 1 52.5326678346715 0 0.9494106537409994 -1 0 0
2117 1 55.372271501410495 0 0.9494106537409994 -1 0 0
2123 1 58.2118751681495 0 0.9494106537409994 -1 0 0
2129 1 61.0514788348885 0 0.9494106537409994 -1 0 0
2135 1 63.891082501627494 0 0.9494106537409994 -1 0 0
2141 1 66.7306861683665 0 0.9494106537409994 -1 0 0
2147 1 69.5702898351055 0 0.9494106537409994 -1 0 0
2153 1 72.4098935018445 0 0.9494106537409994 -1 0 0
2159 1 75.2494971685835 0 0.9494106537409994 -1 0 0
2165 1 78.0891008353225 0 0.9494106537409994 -1 0 0
2171 1 80.92870450206149 0 0.9494106537409994 -1 0 0
2177 1 83.7683081688005 0 0.9494106537409994 -1 0 0
2183 1 86.6079118355395 0 0.9494106537409994 -1 0 0
2189 1 89.44751550227849 0 0.9494106537409994 -1 0 0
2195 1 92.2871191690175 0 0.9494106537409994 -1 0 0
2201 1 95.1267228357565 0 0.9494106537409994 -1 0 0
2207 1 97.96632650249549 0 0.9494106537409994 -1 0 0
2211 3 1.4198018333695046 1.6394459413839968 0 0 0 0
2214 1 2.8396036667385047 2.4591689120750004 0.9494106537409994 0 0 0
2217 3 4.2594055001085 1.6394459413839968 0 0 0 0
2220 1 5.6792073334775 2.4591689120750004 0.9494106537409994 0 0 0
2223 3 7.099009166847502 1.6394459413839968 0 0 0 0
2226 1 8.518811000216502 2.4591689120750004 0.9494106537409994 0 0 0
2229 3 9.938612833586504 1.6394459413839968 0 0 0 0
2232 1 11.358414666955504 2.4591689120750004 0.9494106537409994 0 0 0
2235 3 12.778216500325499 1.6394459413839968 0 0 0 0
2238 1 14.198018333694499 2.4591689120750004 0.9494106537409994 0 0 0
2241 3 15.617820167064501 1.6394459413839968 0 0 0 0
2244 1 17.037622000433508 2.4591689120750004 0.9494106537409994 0 0 0
2247 3 18.457423833803496 1.6394459413839968 0 0 0 0
2250 1 19.877225667172503 2.4591689120750004 0.9494106537409994 0 0 0
2253 3 21.297027500542505 1.6394459413839968 0 0 0 0
2256 1 22.716829333911498 2.4591689120750004 0.9494106537409994 0 0 0
2259 3 24.1366311672815 1.6394459413839968 0 0 0 0
2262 1 25.556433000650507 2.4591689120750004 0.9494106537409994 0 0 0
2265 3 26.976234834020495 1.6394459413839968 0 0 0 0
2268 1 28.396036667389502 2.4591689120750004 0.9494106537409994 0 0 0
2271 3 29.815838500759504 1.6394459413839968 0 0 0 0
2274 1 31.235640334128497 2.4591689120750004 0.9494106537409994 0 0 0
2277 3 32.6554421674985 1.6394459413839968 0 0 0 0
2280 1 34.07524400086751 2.4591689120750004 0.9494106537409994 0 0 0
2283 3 35.49504583423751 1.6394459413839968 0 0 0 0
2286 1 36.9148476676065 2.4591689120750004 0.9494106537409994 0 0 0
2289 3 38.334649500976504 1.6394459413839968 0 0 0 0
2292 1 39.7544513343455 2.4591689120750004 0.9494106537409994 0 0 0
2295 3 41.1742531677155 1.6394459413839968 0 0 0 0
2298 1 42.594055001084506 2.4591689120750004 0.9494106537409994 0 0 0
2301 3 44.01385683445451 1.6394459413839968 0 0 0 0
2304 1 45.4336586678235 2.4591689120750004 0.9494106537409994 0 0 0
2307 3 46.8534605011935 1.6394459413839968 0 0 0 0
2310 1 48.273262334562496 2.4591689120750004 0.9494106537409994 0 0 0
2103 3 49.6930641679325 1.6394459413839968 0 -1 0 0
2106 1 51.1128660013015 2.4591689120750004 0.9494106537409994 -1 0 0
2109 3 52.5326678346715 1.6394459413839968 0 -1 0 0
2112 1 53.9524696680405 2.4591689120750004 0.9494106537409994 -1 0 0
2115 3 55.372271501410495 1.6394459413839968 0 -1 0 0
2118 1 56.792073334779495 2.4591689120750004 0.9494106537409994 -1 0 0
2121 3 58.2118751681495 1.6394459413839968 0 -1 0 0
2124 1 59.6316770015185 2.4591689120750004 0.9494106537409994 -1 0 0
2127 3 61.0514788348885 1.6394459413839968 0 -1 0 0
2130 1 62.4712806682575 2.4591689120750004 0.9494106537409994 -1 0 0
2133 3 63.891082501627494 1.6394459413839968 0 -1 0 0
2136 1 65.3108843349965 2.4591689120750004 0.9494106537409994 -1 0 0
2139 3 66.7306861683665 1.6394459413839968 0 -1 0 0
2142 1 68.1504880017355 2.4591689120750004 0.9494106537409994 -1 0 0
2145 3 69.5702898351055 1.6394459413839968 0 -1 0 0
2148 1 70.99009166847449 2.4591689120750004 0.9494106537409994 -1 0 0
2151 3 72.4098935018445 1.6394459413839968 0 -1 0 0
2154 1 73.8296953352135 2.4591689120750004 0.9494106537409994 -1 0 0
2157 3 75.2494971685835 1.6394459413839968 0 -1 0 0
2160 1 76.6692990019525 2.4591689120750004 0.9494106537409994 -1 0 0
2163 3 78.0891008353225 1.6394459413839968 0 -1 0 0
2166 1 79.50890266869149 2.4591689120750004 0.9494106537409994 -1 0 0
2169 3 80.92870450206149 1.6394459413839968 0 -1 0 0
2172 1 82.3485063354305 2.4591689120750004 0.9494106537409994 -1 0 0
2175 3 83.7683081688005 1.6394459413839968 0 -1 0 0
2178 1 85.1881100021695 2.4591689120750004 0.9494106537409994 -1 0 0
2181 3 86.6079118355395 1.6394459413839968 0 -1 0 0
2184 1 88.02771366890849 2.4591689120750004 0.9494106537409994 -1 0 0
2187 3 89.44751550227849 1.6394459413839968 0 -1 0 0
2190 1 90.8673173356475 2.4591689120750004 0.9494106537409994 -1 0 0
2193 3 92.2871191690175 1.6394459413839968 0 -1 0 0
2196 1 93.70692100238651 2.4591689120750004 0.9494106537409994 -1 0 0
2199 3 95.1267228357565 1.6394459413839968 0 -1 0 0
2202 1 96.54652466912549 2.4591689120750004 0.9494106537409994 -1 0 0
2205 3 97.96632650249549 1.6394459413839968 0 -1 0 0
2208 1 99.3861283358645 2.4591689120750004 0.9494106537409994 -1 0 0
2212 3 2.8396036667385047 4.098614853458997 0 0 0 0
2218 3 5.6792073334775 4.098614853458997 0 0 0 0
2224 3 8.518811000216502 4.098614853458997 0 0 0 0
2230 3 11.358414666955504 4.098614853458997 0 0 0 0
2236 3 14.198018333694499 4.098614853458997 0 0 0 0
2242 3 17.037622000433508 4.098614853458997 0 0 0 0
2248 3 19.877225667172503 4.098614853458997 0 0 0 0
2254 3 22.716829333911498 4.098614853458997 0 0 0 0
2260 3 25.556433000650507 4.098614853458997 0 0 0 0
2266 3 28.396036667389502 4.098614853458997 0 0 0 0
2272 3 31.235640334128497 4.098614853458997 0 0 0 0
2278 3 34.07524400086751 4.098614853458997 0 0 0 0
2284 3 36.9148476676065 4.098614853458997 0 0 0 0
2290 3 39.7544513343455 4.098614853458997 0 0 0 0
2296 3 42.594055001084506 4.098614853458997 0 0 0 0
2302 3 45.4336586678235 4.098614853458997 0 0 0 0
2308 3 48.273262334562496 4.098614853458997 0 0 0 0
2104 3 51.1128660013015 4.098614853458997 0 -1 0 0
2110 3 53.9524696680405 4.098614853458997 0 -1 0 0
2116 3 56.792073334779495 4.098614853458997 0 -1 0 0
2122 3 59.6316770015185 4.098614853458997 0 -1 0 0
2128 3 62.4712806682575 4.098614853458997 0 -1 0 0
2134 3 65.3108843349965 4.098614853458997 0 -1 0 0
2140 3 68.1504880017355 4.098614853458997 0 -1 0 0
2146 3 70.99009166847449 4.098614853458997 0 -1 0 0
2152 3 73.8296953352135 4.098614853458997 0 -1 0 0
2158 3 76.6692990019525 4.098614853458997 0 -1 0 0
2164 3 79.50890266869149 4.098614853458997 0 -1 0 0
2170 3 82.3485063354305 4.098614853458997 0 -1 0 0
2176 3 85.1881100021695 4.098614853458997 0 -1 0 0
2182 3 88.02771366890849 4.098614853458997 0 -1 0 0
2188 3 90.8673173356475 4.098614853458997 0 -1 0 0
2194 3 93.70692100238651 4.098614853458997 0 -1 0 0
2200 3 96.54652466912549 4.098614853458997 0 -1 0 0
2206 3 99.3861283358645 4.098614853458997 0 -1 0 0
2423 1 1.4198018333695046 4.918337824150001 0.9494106537409994 0 0 0
2429 1 4.2594055001085 4.918337824150001 0.9494106537409994 0 0 0
2435 1 7.099009166847502 4.918337824150001 0.9494106537409994 0 0 0
2441 1 9.938612833586504 4.918337824150001 0.9494106537409994 0 0 0
2447 1 12.778216500325499 4.918337824150001 0.9494106537409994 0 0 0
2453 1 15.617820167064501 4.918337824150001 0.9494106537409994 0 0 0
2459 1 18.457423833803496 4.918337824150001 0.9494106537409994 0 0 0
2465 1 21.297027500542505 4.918337824150001 0.9494106537409994 0 0 0
2471 1 24.1366311672815 4.918337824150001 0.9494106537409994 0 0 0
2477 1 26.976234834020495 4.918337824150001 0.9494106537409994 0 0 0
2483 1 29.815838500759504 4.918337824150001 0.9494106537409994 0 0 0
2489 1 32.6554421674985 4.918337824150001 0.9494106537409994 0 0 0
2495 1 35.49504583423751 4.918337824150001 0.9494106537409994 0 0 0
2501 1 38.334649500976504 4.918337824150001 0.9494106537409994 0 0 0
2507 1 41.1742531677155 4.918337824150001 0.9494106537409994 0 0 0
2513 1 44.01385683445451 4.918337824150001 0.9494106537409994 0 0 0
2519 1 46.8534605011935 4.918337824150001 0.9494106537409994 0 0 0
2315 1 49.6930641679325 4.918337824150001 0.9494106537409994 -1 0 0
2321 1 52.5326678346715 4.918337824150001 0.9494106537409994 -1 0 0
2327 1 55.372271501410495 4.918337824150001 0.9494106537409994 -1 0 0
2333 1 58.2118751681495 4.918337824150001 0.9494106537409994 -1 0 0
2339 1 61.0514788348885 4.918337824150001 0.9494106537409994 -1 0 0
2345 1 63.891082501627494 4.918337824150001 0.9494106537409994 -1 0 0
2351 1 66.7306861683665 4.918337824150001 0.9494106537409994 -1 0 0
2357 1 69.5702898351055 4.918337824150001 0.9494106537409994 -1 0 0
2363 1 72.4098935018445 4.918337824150001 0.9494106537409994 -1 0 0
2369 1 75.2494971685835 4.918337824150001 0.9494106537409994 -1 0 0
2375 1 78.0891008353225 4.918337824150001 0.9494106537409994 -1 0 0
2381 1 80.92870450206149 4.918337824150001 0.9494106537409994 -1 0 0
2387 1 83.7683081688005 4.918337824150001 0.9494106537409994 -1 0 0
2393 1 86.6079118355395 4.918337824150001 0.9494106537409994 -1 0 0
2399 1 89.44751550227849 4.918337824150001 0.9494106537409994 -1 0 0
2405 1 92.2871191690175 4.918337824150001 0.9494106537409994 -1 0 0
2411 1 95.1267228357565 4.918337824150001 0.9494106537409994 -1 0 0
2417 1 97.96632650249549 4.918337824150001 0.9494106537409994 -1 0 0
2421 3 1.4198018333695046 6.557783765533998 0 0 0 0
2427 3 4.2594055001085 6.557783765533998 0 0 0 0
2433 3 7.099009166847502 6.557783765533998 0 0 0 0
2439 3 9.938612833586504 6.557783765533998 0 0 0 0
2445 3 12.778216500325499 6.557783765533998 0 0 0 0
2451 3 15.617820167064501 6.557783765533998 0 0 0 0
2457 3 18.457423833803496 6.557783765533998 0 0 0 0
2463 3 21.297027500542505 6.557783765533998 0 0 0 0
2469 3 24.1366311672815 6.557783765533998 0 0 0 0
2475 3 26.976234834020495 6.557783765533998 0 0 0 0
2481 3 29.815838500759504 6.557783765533998 0 0 0 0
2487 3 32.6554421674985 6.557783765533998 0 0 0 0
2493 3 35.49504583423751 6.557783765533998 0 0 0 0
2499 3 38.334649500976504 6.557783765533998 0 0 0 0
2505 3 41.1742531677155 6.557783765533998 0 0 0 0
2511 3 44.01385683445451 6.557783765533998 0 0 0 0
2517 3 46.8534605011935 6.557783765533998 0 0 0 0
2313 3 49.6930641679325 6.557783765533998 0 -1 0 0
2319 3 52.5326678346715 6.557783765533998 0 -1 0 0
2325 3 55.372271501410495 6.557783765533998 0 -1 0 0
2331 3 58.2118751681495 6.557783765533998 0 -1 0 0
2337 3 61.0514788348885 6.557783765533998 0 -1 0 0
2343 3 63.891082501627494 6.557783765533998 0 -1 0 0
2349 3 66.7306861683665 6.557783765533998 0 -1 0 0
2355 3 69.5702898351055 6.557783765533998 0 -1 0 0
2361 3 72.4098935018445 6.557783765533998 0 -1 0 0
2367 3 75.2494971685835 6.557783765533998 0 -1 0 0
2373 3 78.0891008353225 6.557783765533998 0 -1 0 0
2379 3 80.92870450206149 6.557783765533998 0 -1 0 0
2385 3 83.7683081688005 6.557783765533998 0 -1 0 0
2391 3 86.6079118355395 6.557783765533998 0 -1 0 0
2397 3 89.44751550227849 6.557783765533998 0 -1 0 0
2403 3 92.2871191690175 6.557783765533998 0 -1 0 0
2409 3 95.1267228357565 6.557783765533998 0 -1 0 0
2415 3 97.96632650249549 6.557783765533998 0 -1 0 0
2424 1 2.8396036667385047 7.377506736225001 0.9494106537409994 0 0 0
2430 1 5.6792073334775 7.377506736225001 0.9494106537409994 0 0 0
2436 1 8.518811000216502 7.377506736225001 0.9494106537409994 0 0 0
2442 1 11.358414666955504 7.377506736225001 0.9494106537409994 0 0 0
2448 1 14.198018333694499 7.377506736225001 0.9494106537409994 0 0 0
2454 1 17.037622000433508 7.377506736225001 0.9494106537409994 0 0 0
2460 1 19.877225667172503 7.377506736225001 0.9494106537409994 0 0 0
2466 1 22.716829333911498 7.377506736225001 0.9494106537409994 0 0 0
2472 1 25.556433000650507 7.377506736225001 0.9494106537409994 0 0 0
2478 1 28.396036667389502 7.377506736225001 0.9494106537409994 0 0 0
2484 1 31.235640334128497 7.377506736225001 0.9494106537409994 0 0 0
2490 1 34.07524400086751 7.377506736225001 0.9494106537409994 0 0 0
2496 1 36.9148476676065 7.377506736225001 0.9494106537409994 0 0 0
2502 1 39.7544513343455 7.377506736225001 0.9494106537409994 0 0 0
2508 1 42.594055001084506 7.377506736225001 0.9494106537409994 0 0 0
2514 1 45.4336586678235 7.377506736225001 0.9494106537409994 0 0 0
2520 1 48.273262334562496 7.377506736225001 0.9494106537409994 0 0 0
2316 1 51.1128660013015 7.377506736225001 0.9494106537409994 -1 0 0
2322 1 53.9524696680405 7.377506736225001 0.9494106537409994 -1 0 0
2328 1 56.792073334779495 7.377506736225001 0.9494106537409994 -1 0 0
2334 1 59.6316770015185 7.377506736225001 0.9494106537409994 -1 0 0
2340 1 62.4712806682575 7.377506736225001 0.9494106537409994 -1 0 0
2346 1 65.3108843349965 7.377506736225001 0.9494106537409994 -1 0 0
2352 1 68.1504880017355 7.377506736225001 0.9494106537409994 -1 0 0
2358 1 70.99009166847449 7.377506736225001 0.9494106537409994 -1 0 0
2364 1 73.8296953352135 7.377506736225001 0.9494106537409994 -1 0 0
2370 1 76.6692990019525 7.377506736225001 0.9494106537409994 -1 0 0
2376 1 79.50890266869149 7.377506736225001 0.9494106537409994 -1 0 0
2382 1 82.3485063354305 7.377506736225001 0.9494106537409994 -1 0 0
2388 1 85.1881100021695 7.377506736225001 0.9494106537409994 -1 0 0
2394 1 88.02771366890849 7.377506736225001 0.9494106537409994 -1 0 0
2400 1 90.8673173356475 7.377506736225001 0.9494106537409994 -1 0 0
2406 1 93.70692100238651 7.377506736225001 0.9494106537409994 -1 0 0
2412 1 96.54652466912549 7.377506736225001 0.9494106537409994 -1 0 0
2418 1 99.3861283358645 7.377506736225001 0.9494106537409994 -1 0 0
2633 1 1.4198018333695046 9.836675648300002 0.9494106537409994 0 0 0
2422 3 2.8396036667385047 9.016952677608998 0 0 0 0
2639 1 4.2594055001085 9.836675648300002 0.9494106537409994 0 0 0
2428 3 5.6792073334775 9.016952677608998 0 0 0 0
2645 1 7.099009166847502 9.836675648300002 0.9494106537409994 0 0 0
2434 3 8.518811000216502 9.016952677608998 0 0 0 0
2651 1 9.938612833586504 9.836675648300002 0.9494106537409994 0 0 0
2440 3 11.358414666955504 9.016952677608998 0 0 0 0
2657 1 12.778216500325499 9.836675648300002 0.9494106537409994 0 0 0
2446 3 14.198018333694499 9.016952677608998 0 0 0 0
2663 1 15.617820167064501 9.836675648300002 0.9494106537409994 0 0 0
2452 3 17.037622000433508 9.016952677608998 0 0 0 0
2669 1 18.457423833803496 9.836675648300002 0.9494106537409994 0 0 0
2458 3 19.877225667172503 9.016952677608998 0 0 0 0
2675 1 21.297027500542505 9.836675648300002 0.9494106537409994 0 0 0
2464 3 22.716829333911498 9.016952677608998 0 0 0 0
2681 1 24.1366311672815 9.836675648300002 0.9494106537409994 0 0 0
2470 3 25.556433000650507 9.016952677608998 0 0 0 0
2687 1 26.976234834020495 9.836675648300002 0.9494106537409994 0 0 0
2476 3 28.396036667389502 9.016952677608998 0 0 0 0
2693 1 29.815838500759504 9.836675648300002 0.9494106537409994 0 0 0
2482 3 31.235640334128497 9.016952677608998 0 0 0 0
2699 1 32.6554421674985 9.836675648300002 0.9494106537409994 0 0 0
2488 3 34.07524400086751 9.016952677608998 0 0 0 0
2705 1 35.49504583423751 9.836675648300002 0.9494106537409994 0 0 0
2494 3 36.9148476676065 9.016952677608998 0 0 0 0
2711 1 38.334649500976504 9.836675648300002 0.9494106537409994 0 0 0
2500 3 39.7544513343455 9.016952677608998 0 0 0 0
2717 1 41.1742531677155 9.836675648300002 0.9494106537409994 0 0 0
2506 3 42.594055001084506 9.016952677608998 0 0 0 0
2723 1 44.01385683445451 9.836675648300002 0.9494106537409994 0 0 0
2512 3 45.4336586678235 9.016952677608998 0 0 0 0
2729 1 46.8534605011935 9.836675648300002 0.9494106537409994 0 0 0
2518 3 48.273262334562496 9.016952677608998 0 0 0 0
2314 3 51.1128660013015 9.016952677608998 0 -1 0 0
2525 1 49.6930641679325 9.836675648300002 0.9494106537409994 -1 0 0
2531 1 52.5326678346715 9.836675648300002 0.9494106537409994 -1 0 0
2320 3 53.9524696680405 9.016952677608998 0 -1 0 0
2537 1 55.372271501410495 9.836675648300002 0.9494106537409994 -1 0 0
2326 3 56.792073334779495 9.016952677608998 0 -1 0 0
2543 1 58.2118751681495 9.836675648300002 0.9494106537409994 -1 0 0
2332 3 59.6316770015185 9.016952677608998 0 -1 0 0
2549 1 61.0514788348885 9.836675648300002 0.9494106537409994 -1 0 0
2338 3 62.4712806682575 9.016952677608998 0 -1 0 0
2555 1 63.891082501627494 9.836675648300002 0.9494106537409994 -1 0 0
2344 3 65.3108843349965 9.016952677608998 0 -1 0 0
2561 1 66.7306861683665 9.836675648300002 0.9494106537409994 -1 0 0
2350 3 68.1504880017355 9.016952677608998 0 -1 0 0
2567 1 69.5702898351055 9.836675648300002 0.9494106537409994 -1 0 0
2356 3 70.99009166847449 9.016952677608998 0 -1 0 0
2573 1 72.4098935018445 9.836675648300002 0.9494106537409994 -1 0 0
2362 3 73.8296953352135 9.016952677608998 0 -1 0 0
2579 1 75.2494971685835 9.836675648300002 0.9494106537409994 -1 0 0
2368 3 76.6692990019525 9.016952677608998 0 -1 0 0
2585 1 78.0891008353225 9.836675648300002 0.9494106537409994 -1 0 0
2374 3 79.50890266869149 9.016952677608998 0 -1 0 0
2591 1 80.92870450206149 9.836675648300002 0.9494106537409994 -1 0 0
2380 3 82.3485063354305 9.016952677608998 0 -1 0 0
2597 1 83.7683081688005 9.836675648300002 0.9494106537409994 -1 0 0
2386 3 85.1881100021695 9.016952677608998 0 -1 0 0
2603 1 86.6079118355395 9.836675648300002 0.9494106537409994 -1 0 0
2392 3 88.02771366890849 9.016952677608998 0 -1 0 0
2609 1 89.44751550227849 9.836675648300002 0.9494106537409994 -1 0 0
2398 3 90.8673173356475 9.016952677608998 0 -1 0 0
2615 1 92.2871191690175 9.836675648300002 0.9494106537409994 -1 0 0
2404 3 93.70692100238651 9.016952677608998 0 -1 0 0
2621 1 95.1267228357565 9.836675648300002 0.9494106537409994 -1 0 0
2410 3 96.54652466912549 9.016952677608998 0 -1 0 0
2416 3 99.3861283358645 9.016952677608998 0 -1 0 0
2627 1 97.96632650249549 9.836675648300002 0.9494106537409994 -1 0 0
2631 3 1.4198018333695046 11.476121589683999 0 0 0 0
2637 3 4.2594055001085 11.476121589683999 0 0 0 0
2643 3 7.099009166847502 11.476121589683999 0 0 0 0
2649 3 9.938612833586504 11.476121589683999 0 0 0 0
2655 3 12.778216500325499 11.476121589683999 0 0 0 0
2661 3 15.617820167064501 11.476121589683999 0 0 0 0
2667 3 18.457423833803496 11.476121589683999 0 0 0 0
2673 3 21.297027500542505 11.476121589683999 0 0 0 0
2679 3 24.1366311672815 11.476121589683999 0 0 0 0
2685 3 26.976234834020495 11.476121589683999 0 0 0 0
2691 3 29.815838500759504 11.476121589683999 0 0 0 0
2697 3 32.6554421674985 11.476121589683999 0 0 0 0
2703 3 35.49504583423751 11.476121589683999 0 0 0 0
2709 3 38.334649500976504 11.476121589683999 0 0 0 0
2715 3 41.1742531677155 11.476121589683999 0 0 0 0
2721 3 44.01385683445451 11.476121589683999 0 0 0 0
2727 3 46.8534605011935 11.476121589683999 0 0 0 0
2523 3 49.6930641679325 11.476121589683999 0 -1 0 0
2529 3 52.5326678346715 11.476121589683999 0 -1 0 0
2535 3 55.372271501410495 11.476121589683999 0 -1 0 0
2541 3 58.2118751681495 11.476121589683999 0 -1 0 0
2547 3 61.0514788348885 11.476121589683999 0 -1 0 0
2553 3 63.891082501627494 11.476121589683999 0 -1 0 0
2559 3 66.7306861683665 11.476121589683999 0 -1 0 0
2565 3 69.5702898351055 11.476121589683999 0 -1 0 0
2571 3 72.4098935018445 11.476121589683999 0 -1 0 0
2577 3 75.2494971685835 11.476121589683999 0 -1 0 0
2583 3 78.0891008353225 11.476121589683999 0 -1 0 0
2589 3 80.92870450206149 11.476121589683999 0 -1 0 0
2595 3 83.7683081688005 11.476121589683999 0 -1 0 0
2601 3 86.6079118355395 11.476121589683999 0 -1 0 0
2607 3 89.44751550227849 11.476121589683999 0 -1 0 0
2613 3 92.2871191690175 11.476121589683999 0 -1 0 0
2619 3 95.1267228357565 11.476121589683999 0 -1 0 0
2625 3 97.96632650249549 11.476121589683999 0 -1 0 0
2634 1 2.8396036667385047 12.295844560374995 0.9494106537409994 0 0 0
2640 1 5.6792073334775 12.295844560374995 0.9494106537409994 0 0 0
2646 1 8.518811000216502 12.295844560374995 0.9494106537409994 0 0 0
2652 1 11.358414666955504 12.295844560374995 0.9494106537409994 0 0 0
2658 1 14.198018333694499 12.295844560374995 0.9494106537409994 0 0 0
2664 1 17.037622000433508 12.295844560374995 0.9494106537409994 0 0 0
2670 1 19.877225667172503 12.295844560374995 0.9494106537409994 0 0 0
2676 1 22.716829333911498 12.295844560374995 0.9494106537409994 0 0 0
2682 1 25.556433000650507 12.295844560374995 0.9494106537409994 0 0 0
2688 1 28.396036667389502 12.295844560374995 0.9494106537409994 0 0 0
2694 1 31.235640334128497 12.295844560374995 0.9494106537409994 0 0 0
2700 1 34.07524400086751 12.295844560374995 0.9494106537409994 0 0 0
2706 1 36.9148476676065 12.295844560374995 0.9494106537409994 0 0 0
2712 1 39.7544513343455 12.295844560374995 0.9494106537409994 0 0 0
2718 1 42.594055001084506 12.295844560374995 0.9494106537409994 0 0 0
2724 1 45.4336586678235 12.295844560374995 0.9494106537409994 0 0 0
2730 1 48.273262334562496 12.295844560374995 0.9494106537409994 0 0 0
2526 1 51.1128660013015 12.295844560374995 0.9494106537409994 -1 0 0
2532 1 53.9524696680405 12.295844560374995 0.9494106537409994 -1 0 0
2538 1 56.792073334779495 12.295844560374995 0.9494106537409994 -1 0 0
2544 1 59.6316770015185 12.295844560374995 0.9494106537409994 -1 0 0
2550 1 62.4712806682575 12.295844560374995 0.9494106537409994 -1 0 0
2556 1 65.3108843349965 12.295844560374995 0.9494106537409994 -1 0 0
2562 1 68.1504880017355 12.295844560374995 0.9494106537409994 -1 0 0
2568 1 70.99009166847449 12.295844560374995 0.9494106537409994 -1 0 0
2574 1 73.8296953352135 12.295844560374995 0.9494106537409994 -1 0 0
2580 1 76.6692990019525 12.295844560374995 0.9494106537409994 -1 0 0
2586 1 79.50890266869149 12.295844560374995 0.9494106537409994 -1 0 0
2592 1 82.3485063354305 12.295844560374995 0.9494106537409994 -1 0 0
2598 1 85.1881100021695 12.295844560374995 0.9494106537409994 -1 0 0
2604 1 88.02771366890849 12.295844560374995 0.9494106537409994 -1 0 0
2610 1 90.8673173356475 12.295844560374995 0.9494106537409994 -1 0 0
2616 1 93.70692100238651 12.295844560374995 0.9494106537409994 -1 0 0
2622 1 96.54652466912549 12.295844560374995 0.9494106537409994 -1 0 0
2628 1 99.3861283358645 12.295844560374995 0.9494106537409994 -1 0 0
2632 3 2.8396036667385047 13.935290501758999 0 0 0 0
2638 3 5.6792073334775 13.935290501758999 0 0 0 0
2644 3 8.518811000216502 13.935290501758999 0 0 0 0
2650 3 11.358414666955504 13.935290501758999 0 0 0 0
2656 3 14.198018333694499 13.935290501758999 0 0 0 0
2662 3 17.037622000433508 13.935290501758999 0 0 0 0
2668 3 19.877225667172503 13.935290501758999 0 0 0 0
2674 3 22.716829333911498 13.935290501758999 0 0 0 0
2680 3 25.556433000650507 13.935290501758999 0 0 0 0
2686 3 28.396036667389502 13.935290501758999 0 0 0 0
2692 3 31.235640334128497 13.935290501758999 0 0 0 0
2698 3 34.07524400086751 13.935290501758999 0 0 0 0
2704 3 36.9148476676065 13.935290501758999 0 0 0 0
2710 3 39.7544513343455 13.935290501758999 0 0 0 0
2716 3 42.594055001084506 13.935290501758999 0 0 0 0
2722 3 45.4336586678235 13.935290501758999 0 0 0 0
2728 3 48.273262334562496 13.935290501758999 0 0 0 0
2524 3 51.1128660013015 13.935290501758999 0 -1 0 0
2530 3 53.9524696680405 13.935290501758999 0 -1 0 0
2536 3 56.792073334779495 13.935290501758999 0 -1 0 0
2542 3 59.6316770015185 13.935290501758999 0 -1 0 0
2548 3 62.4712806682575 13.935290501758999 0 -1 0 0
2554 3 65.3108843349965 13.935290501758999 0 -1 0 0
2560 3 68.1504880017355 13.935290501758999 0 -1 0 0
2566 3 70.99009166847449 13.935290501758999 0 -1 0 0
2572 3 73.8296953352135 13.935290501758999 0 -1 0 0
2578 3 76.6692990019525 13.935290501758999 0 -1 0 0
2584 3 79.50890266869149 13.935290501758999 0 -1 0 0
2590 3 82.3485063354305 13.935290501758999 0 -1 0 0
2596 3 85.1881100021695 13.935290501758999 0 -1 0 0
2602 3 88.02771366890849 13.935290501758999 0 -1 0 0
2608 3 90.8673173356475 13.935290501758999 0 -1 0 0
2614 3 93.70692100238651 13.935290501758999 0 -1 0 0
2620 3 96.54652466912549 13.935290501758999 0 -1 0 0
2626 3 99.3861283358645 13.935290501758999 0 -1 0 0
2843 1 1.4198018333695046 14.755013472449996 0.9494106537409994 0 0 0
2849 1 4.2594055001085 14.755013472449996 0.9494106537409994 0 0 0
2855 1 7.099009166847502 14.755013472449996 0.9494106537409994 0 0 0
2861 1 9.938612833586504 14.755013472449996 0.9494106537409994 0 0 0
2867 1 12.778216500325499 14.755013472449996 0.9494106537409994 0 0 0
2873 1 15.617820167064501 14.755013472449996 0.9494106537409994 0 0 0
2879 1 18.457423833803496 14.755013472449996 0.9494106537409994 0 0 0
2885 1 21.297027500542505 14.755013472449996 0.9494106537409994 0 0 0
2891 1 24.1366311672815 14.755013472449996 0.9494106537409994 0 0 0
2897 1 26.976234834020495 14.755013472449996 0.9494106537409994 0 0 0
2903 1 29.815838500759504 14.755013472449996 0.9494106537409994 0 0 0
2909 1 32.6554421674985 14.755013472449996 0.9494106537409994 0 0 0
2915 1 35.49504583423751 14.755013472449996 0.9494106537409994 0 0 0
2921 1 38.334649500976504 14.755013472449996 0.9494106537409994 0 0 0
2927 1 41.1742531677155 14.755013472449996 0.9494106537409994 0 0 0
2933 1 44.01385683445451 14.755013472449996 0.9494106537409994 0 0 0
2939 1 46.8534605011935 14.755013472449996 0.9494106537409994 0 0 0
2735 1 49.6930641679325 14.755013472449996 0.9494106537409994 -1 0 0
2741 1 52.5326678346715 14.755013472449996 0.9494106537409994 -1 0 0
2747 1 55.372271501410495 14.755013472449996 0.9494106537409994 -1 0 0
2753 1 58.2118751681495 14.755013472449996 0.9494106537409994 -1 0 0
2759 1 61.0514788348885 14.755013472449996 0.9494106537409994 -1 0 0
2765 1 63.891082501627494 14.755013472449996 0.9494106537409994 -1 0 0
2771 1 66.7306861683665 14.755013472449996 0.9494106537409994 -1 0 0
2777 1 69.5702898351055 14.755013472449996 0.9494106537409994 -1 0 0
2783 1 72.4098935018445 14.755013472449996 0.9494106537409994 -1 0 0
2789 1 75.2494971685835 14.755013472449996 0.9494106537409994 -1 0 0
2795 1 78.0891008353225 14.755013472449996 0.9494106537409994 -1 0 0
2801 1 80.92870450206149 14.755013472449996 0.9494106537409994 -1 0 0
2807 1 83.7683081688005 14.755013472449996 0.9494106537409994 -1 0 0
2813 1 86.6079118355395 14.755013472449996 0.9494106537409994 -1 0 0
2819 1 89.44751550227849 14.755013472449996 0.9494106537409994 -1 0 0
2825 1 92.2871191690175 14.755013472449996 0.9494106537409994 -1 0 0
2831 1 95.1267228357565 14.755013472449996 0.9494106537409994 -1 0 0
2837 1 97.96632650249549 14.755013472449996 0.9494106537409994 -1 0 0
2841 3 1.4198018333695046 16.394459413833992 0 0 0 0
2844 1 2.8396036667385047 17.214182384524996 0.9494106537409994 0 0 0
2847 3 4.2594055001085 16.394459413833992 0 0 0 0
2850 1 5.6792073334775 17.214182384524996 0.9494106537409994 0 0 0
2853 3 7.099009166847502 16.394459413833992 0 0 0 0
2856 1 8.518811000216502 17.214182384524996 0.9494106537409994 0 0 0
2859 3 9.938612833586504 16.394459413833992 0 0 0 0
2862 1 11.358414666955504 17.214182384524996 0.9494106537409994 0 0 0
2865 3 12.778216500325499 16.394459413833992 0 0 0 0
2868 1 14.198018333694499 17.214182384524996 0.9494106537409994 0 0 0
2871 3 15.617820167064501 16.394459413833992 0 0 0 0
2874 1 17.037622000433508 17.214182384524996 0.9494106537409994 0 0 0
2877 3 18.457423833803496 16.394459413833992 0 0 0 0
2880 1 19.877225667172503 17.214182384524996 0.9494106537409994 0 0 0
2883 3 21.297027500542505 16.394459413833992 0 0 0 0
2886 1 22.716829333911498 17.214182384524996 0.9494106537409994 0 0 0
2889 3 24.1366311672815 16.394459413833992 0 0 0 0
2892 1 25.556433000650507 17.214182384524996 0.9494106537409994 0 0 0
2895 3 26.976234834020495 16.394459413833992 0 0 0 0
2898 1 28.396036667389502 17.214182384524996 0.9494106537409994 0 0 0
2901 3 29.815838500759504 16.394459413833992 0 0 0 0
2904 1 31.235640334128497 17.214182384524996 0.9494106537409994 0 0 0
2907 3 32.6554421674985 16.394459413833992 0 0 0 0
2910 1 34.07524400086751 17.214182384524996 0.9494106537409994 0 0 0
2913 3 35.49504583423751 16.394459413833992 0 0 0 0
2916 1 36.9148476676065 17.214182384524996 0.9494106537409994 0 0 0
2919 3 38.334649500976504 16.394459413833992 0 0 0 0
2922 1 39.7544513343455 17.214182384524996 0.9494106537409994 0 0 0
2925 3 41.1742531677155 16.394459413833992 0 0 0 0
2928 1 42.594055001084506 17.214182384524996 0.9494106537409994 0 0 0
2931 3 44.01385683445451 16.394459413833992 0 0 0 0
2934 1 45.4336586678235 17.214182384524996 0.9494106537409994 0 0 0
2937 3 46.8534605011935 16.394459413833992 0 0 0 0
2940 1 48.273262334562496 17.214182384524996 0.9494106537409994 0 0 0
2733 3 49.6930641679325 16.394459413833992 0 -1 0 0
2736 1 51.1128660013015 17.214182384524996 0.9494106537409994 -1 0 0
2739 3 52.5326678346715 16.394459413833992 0 -1 0 0
2742 1 53.9524696680405 17.214182384524996 0.9494106537409994 -1 0 0
2745 3 55.372271501410495 16.394459413833992 0 -1 0 0
2748 1 56.792073334779495 17.214182384524996 0.9494106537409994 -1 0 0
2751 3 58.2118751681495 16.394459413833992 0 -1 0 0
2754 1 59.6316770015185 17.214182384524996 0.9494106537409994 -1 0 0