LAMMPS data file via write_data, version 29 Aug 2024, timestep = 2, units = metal

8400 atoms
6 atom types

0 99.386128335865 xlo xhi
0 98.366756483 ylo yhi
-50 50 zlo zhi

Masses

1 58.6934
2 58.6934
3 15.999
4 15.999
5 15.999
6 15.999

Atoms # atomic

2211 4 1.4198013124096864 1.6394461349263894 0.06586189696268988 0 0 0
2214 1 2.839599869001442 2.459165886712661 0.9500908371950749 0 0 0
2217 4 4.2594049791486865 1.63944613492639 0.06586189696269126 0 0 0
2220 1 5.679203535740437 2.459165886712661 0.9500908371950749 0 0 0
2212 4 2.8396031457789976 4.09861504700139 0.06586189696269039 0 0 0
2218 4 5.679206812517997 4.098615047001391 0.06586189696269099 0 0 0
2423 1 1.4197980356325697 4.918334798787663 0.9500908371950764 0 0 0
2429 1 4.259401702371564 4.9183347987876616 0.9500908371950747 0 0 0
2209 3 2.839601436096661 0.8197212002760365 1.8338046611336933 0 0 0
2215 3 5.679205102835662 0.8197212002760366 1.8338046611336942 0 0 0
2210 3 1.419799602727331 3.2788901123510357 1.833804661133693 0 0 0
2216 3 4.259403269466333 3.2788901123510366 1.8338046611336938 0 0 0
2419 3 2.839601436096661 5.738059024426037 1.8338046611336936 0 0 0
2425 3 5.679205102835663 5.738059024426037 1.8338046611336942 0 0 0
2223 4 7.099008645887688 1.6394461349263905 0.06586189696269158 0 0 0
2226 1 8.518807202479437 2.459165886712661 0.9500908371950751 0 0 0
2229 4 9.938612312626686 1.6394461349263894 0.06586189696268951 0 0 0
2232 1 11.35841086921844 2.459165886712661 0.950090837195075 0 0 0
2224 4 8.518810479256997 4.09861504700139 0.06586189696268994 0 0 0
2230 4 11.358414145995997 4.09861504700139 0.06586189696269046 0 0 0
2435 1 7.099005369110564 4.918334798787662 0.9500908371950749 0 0 0
2441 1 9.938609035849566 4.918334798787663 0.9500908371950759 0 0 0
2221 3 8.518808769574663 0.8197212002760357 1.833804661133693 0 0 0
2227 3 11.35841243631366 0.8197212002760363 1.8338046611336933 0 0 0
2222 3 7.099006936205335 3.278890112351036 1.833804661133693 0 0 0
2228 3 9.938610602944333 3.278890112351037 1.8338046611336944 0 0 0
2431 3 8.518808769574663 5.738059024426036 1.8338046611336927 0 0 0
2437 3 11.35841243631366 5.738059024426037 1.8338046611336936 0 0 0
2235 4 12.778215979365687 1.63944613492639 0.06586189696269137 0 0 0
2238 1 14.198014535957435 2.459165886712661 0.9500908371950748 0 0 0
2241 4 15.617819646104683 1.639446134926389 0.06586189696268868 0 0 0
2244 1 17.03761820269645 2.4591658867126607 0.950090837195075 0 0 0
2236 4 14.198017812734996 4.098615047001391 0.06586189696269058 0 0 0
2242 4 17.037621479473998 4.09861504700139 0.06586189696269046 0 0 0
2447 1 12.778212702588561 4.9183347987876616 0.9500908371950745 0 0 0
2453 1 15.617816369327564 4.918334798787663 0.9500908371950763 0 0 0
2233 3 14.198016103052664 0.819721200276036 1.8338046611336933 0 0 0
2239 3 17.03761976979166 0.8197212002760355 1.8338046611336922 0 0 0
2234 3 12.778214269683332 3.2788901123510366 1.8338046611336936 0 0 0
2240 3 15.61781793642233 3.278890112351038 1.8338046611336953 0 0 0
2443 3 14.198016103052664 5.738059024426036 1.8338046611336933 0 0 0
2449 3 17.03761976979166 5.738059024426036 1.8338046611336922 0 0 0
2247 4 18.45742331284368 1.6394461349263907 0.0658618969626921 0 0 0
2250 1 19.87722186943544 2.459165886712661 0.9500908371950748 0 0 0
2253 4 21.297026979582686 1.6394461349263911 0.06586189696269332 0 0 0
2256 1 22.71682553617443 2.4591658867126607 0.9500908371950751 0 0 0
2248 4 19.877225146212997 4.09861504700139 0.06586189696269039 0 0 0
2254 4 22.716828812951995 4.098615047001392 0.06586189696269255 0 0 0
2459 1 18.45742003606656 4.9183347987876616 0.950090837195074 0 0 0
2465 1 21.297023702805568 4.91833479878766 0.9500908371950744 0 0 0
2245 3 19.87722343653066 0.8197212002760381 1.8338046611336962 0 0 0
2251 3 22.716827103269665 0.8197212002760352 1.8338046611336918 0 0 0
2246 3 18.45742160316133 3.2788901123510357 1.8338046611336924 0 0 0
2252 3 21.29702526990033 3.2788901123510357 1.8338046611336922 0 0 0
2455 3 19.87722343653066 5.738059024426039 1.8338046611336964 0 0 0
2461 3 22.716827103269665 5.738059024426036 1.833804661133692 0 0 0
2259 4 24.136630646321684 1.6394461349263882 0.06586189696268731 0 0 0
2262 1 25.55642920291345 2.4591658867126607 0.9500908371950751 0 0 0
2265 4 26.97623431306068 1.6394461349263907 0.0658618969626921 0 0 0
2268 1 28.39603286965244 2.459165886712661 0.9500908371950748 0 0 0
2260 4 25.556432479691 4.098615047001389 0.06586189696268877 0 0 0
2266 4 28.396036146429996 4.09861504700139 0.06586189696269039 0 0 0
2471 1 24.13662736954456 4.918334798787663 0.9500908371950764 0 0 0
2477 1 26.976231036283558 4.9183347987876616 0.9500908371950739 0 0 0
2257 3 25.556430770008664 0.8197212002760356 1.8338046611336927 0 0 0
2263 3 28.39603443674766 0.8197212002760381 1.8338046611336964 0 0 0
2258 3 24.136628936639333 3.2788901123510383 1.8338046611336964 0 0 0
2264 3 26.976232603378328 3.2788901123510357 1.8338046611336924 0 0 0
2467 3 25.556430770008664 5.738059024426036 1.833804661133693 0 0 0
2473 3 28.39603443674766 5.738059024426039 1.8338046611336964 0 0 0
2271 4 29.815837979799685 1.6394461349263911 0.06586189696269339 0 0 0
2274 1 31.23563653639143 2.4591658867126607 0.950090837195075 0 0 0
2277 4 32.65544164653869 1.6394461349263896 0.06586189696268957 0 0 0
2280 1 34.07524020313044 2.459165886712661 0.9500908371950749 0 0 0
2272 4 31.235639813168994 4.098615047001391 0.06586189696269154 0 0 0
2278 4 34.075243479907996 4.098615047001389 0.06586189696268845 0 0 0
2483 1 29.815834703022567 4.91833479878766 0.9500908371950744 0 0 0
2489 1 32.65543836976156 4.918334798787664 0.950090837195077 0 0 0
2269 3 31.235638103486664 0.819721200276036 1.8338046611336927 0 0 0
2275 3 34.07524177022566 0.8197212002760355 1.8338046611336933 0 0 0
2270 3 29.81583627011733 3.2788901123510357 1.833804661133692 0 0 0
2276 3 32.65543993685633 3.278890112351037 1.8338046611336944 0 0 0
2479 3 31.235638103486664 5.738059024426037 1.833804661133693 0 0 0
2485 3 34.07524177022566 5.738059024426036 1.8338046611336933 0 0 0
2283 4 35.495045313277686 1.6394461349263911 0.06586189696269265 0 0 0
2286 1 36.914843869869436 2.459165886712661 0.9500908371950747 0 0 0
2289 4 38.33464898001669 1.6394461349263894 0.06586189696269035 0 0 0
2292 1 39.75444753660843 2.4591658867126607 0.950090837195075 0 0 0
2284 4 36.914847146647 4.098615047001392 0.06586189696269232 0 0 0
2290 4 39.75445081338599 4.098615047001391 0.06586189696269093 0 0 0
2495 1 35.49504203650058 4.918334798787661 0.9500908371950731 0 0 0
2501 1 38.334645703239566 4.918334798787661 0.9500908371950749 0 0 0
2281 3 36.91484543696466 0.8197212002760371 1.8338046611336944 0 0 0
2287 3 39.754449103703664 0.8197212002760365 1.8338046611336933 0 0 0
2282 3 35.495043603595335 3.2788901123510357 1.8338046611336918 0 0 0
2288 3 38.33464727033434 3.2788901123510374 1.8338046611336953 0 0 0
2491 3 36.91484543696466 5.738059024426038 1.8338046611336944 0 0 0
2497 3 39.754449103703664 5.738059024426037 1.8338046611336936 0 0 0
2295 4 41.17425264675569 1.6394461349263896 0.06586189696268963 0 0 0
2298 1 42.59405120334744 2.459165886712661 0.9500908371950749 0 0 0
2301 4 44.013856313494685 1.6394461349263911 0.06586189696269265 0 0 0
2304 1 45.433654870086436 2.459165886712661 0.9500908371950747 0 0 0
2296 4 42.594054480124996 4.098615047001389 0.06586189696268845 0 0 0
2302 4 45.433658146864 4.098615047001392 0.06586189696269232 0 0 0
2507 1 41.17424936997856 4.918334798787663 0.9500908371950761 0 0 0
2513 1 44.01385303671758 4.918334798787661 0.9500908371950731 0 0 0
2293 3 42.59405277044266 0.8197212002760353 1.8338046611336933 0 0 0
2299 3 45.43365643718166 0.8197212002760371 1.8338046611336944 0 0 0
2294 3 41.17425093707333 3.278890112351037 1.8338046611336942 0 0 0
2300 3 44.013854603812334 3.2788901123510357 1.8338046611336918 0 0 0
2503 3 42.59405277044266 5.738059024426036 1.8338046611336933 0 0 0
2509 3 45.43365643718166 5.738059024426038 1.8338046611336944 0 0 0
2307 4 46.85345998023369 1.6394461349263894 0.06586189696269039 0 0 0
2310 1 48.27325853682543 2.4591658867126607 0.950090837195075 0 0 0
2103 4 49.69306364697269 1.6394461349263898 0.06586189696268967 -1 0 0
2106 1 51.11286220356443 2.459165886712661 0.9500908371950749 -1 0 0
2109 4 52.532667313711684 1.6394461349263894 0.0658618969626897 -1 0 0
2308 4 48.27326181360299 4.098615047001391 0.06586189696269168 0 0 0
2104 4 51.112865480341995 4.098615047001389 0.06586189696268831 -1 0 0
2519 1 46.853456703456565 4.918334798787661 0.9500908371950749 0 0 0
2315 1 49.69306037019556 4.9183347987876616 0.9500908371950737 -1 0 0
2321 1 52.53266403693456 4.918334798787664 0.9500908371950775 -1 0 0
2305 3 48.27326010392066 0.8197212002760367 1.8338046611336938 0 0 0
2101 3 51.11286377065966 0.8197212002760358 1.8338046611336933 -1 0 0
2306 3 46.853458270551336 3.2788901123510374 1.8338046611336951 0 0 0
2102 3 49.69306193729033 3.2788901123510374 1.8338046611336942 -1 0 0
2108 3 52.532665604029326 3.278890112351037 1.8338046611336944 -1 0 0
2515 3 48.27326010392066 5.738059024426037 1.833804661133694 0 0 0
2311 3 51.11286377065966 5.738059024426036 1.8338046611336933 -1 0 0
2112 1 53.952465870303435 2.459165886712661 0.9500908371950749 -1 0 0
2115 4 55.37227098045068 1.6394461349263905 0.0658618969626915 -1 0 0
2118 1 56.79206953704243 2.459165886712661 0.9500908371950749 -1 0 0
2121 4 58.21187464718968 1.6394461349263905 0.06586189696269133 -1 0 0
2110 4 53.95246914708099 4.09861504700139 0.06586189696269087 -1 0 0
2116 4 56.79207281381999 4.098615047001391 0.06586189696269149 -1 0 0
2327 1 55.37226770367356 4.918334798787661 0.9500908371950728 -1 0 0
2333 1 58.21187137041256 4.918334798787662 0.950090837195075 -1 0 0
2107 3 53.95246743739866 0.8197212002760362 1.833804661133693 -1 0 0
2113 3 56.79207110413766 0.8197212002760362 1.8338046611336936 -1 0 0
2114 3 55.37226927076833 3.2788901123510366 1.8338046611336936 -1 0 0
2120 3 58.21187293750733 3.278890112351036 1.8338046611336933 -1 0 0
2317 3 53.95246743739866 5.738059024426037 1.8338046611336931 -1 0 0
2323 3 56.79207110413766 5.738059024426037 1.8338046611336936 -1 0 0
2124 1 59.63167320378143 2.459165886712661 0.9500908371950748 -1 0 0
2127 4 61.05147831392868 1.6394461349263891 0.06586189696268971 -1 0 0
2130 1 62.47127687052044 2.4591658867126607 0.9500908371950753 -1 0 0
2133 4 63.891081980667686 1.6394461349263916 0.0658618969626928 -1 0 0
2122 4 59.631676480558994 4.09861504700139 0.06586189696268943 -1 0 0
2128 4 62.471280147297996 4.098615047001391 0.06586189696269168 -1 0 0
2339 1 61.05147503715156 4.918334798787662 0.9500908371950767 -1 0 0
2345 1 63.89107870389056 4.918334798787661 0.950090837195072 -1 0 0
2119 3 59.63167477087666 0.8197212002760367 1.8338046611336947 -1 0 0
2125 3 62.47127843761566 0.8197212002760348 1.833804661133691 -1 0 0
2126 3 61.051476604246325 3.2788901123510374 1.833804661133695 -1 0 0
2132 3 63.89108027098533 3.2788901123510352 1.8338046611336911 -1 0 0
2329 3 59.63167477087666 5.738059024426037 1.8338046611336947 -1 0 0
2335 3 62.47127843761566 5.738059024426035 1.8338046611336911 -1 0 0
2136 1 65.31088053725944 2.459165886712661 0.9500908371950749 -1 0 0
2139 4 66.73068564740669 1.6394461349263894 0.0658618969626902 -1 0 0
2142 1 68.15048420399843 2.459165886712661 0.9500908371950748 -1 0 0
2145 4 69.57028931414568 1.639446134926391 0.065861896962693 -1 0 0
2134 4 65.310883814037 4.09861504700139 0.06586189696269053 -1 0 0
2140 4 68.150487480776 4.098615047001391 0.06586189696269078 -1 0 0
2351 1 66.73068237062957 4.918334798787661 0.9500908371950769 -1 0 0
2357 1 69.57028603736856 4.918334798787662 0.9500908371950747 -1 0 0
2131 3 65.31088210435466 0.8197212002760373 1.833804661133695 -1 0 0
2137 3 68.15048577109366 0.8197212002760382 1.8338046611336962 -1 0 0
2138 3 66.73068393772434 3.278890112351037 1.8338046611336953 -1 0 0
2144 3 69.57028760446333 3.2788901123510357 1.8338046611336918 -1 0 0
2341 3 65.31088210435466 5.738059024426038 1.8338046611336951 -1 0 0
2347 3 68.15048577109366 5.738059024426039 1.8338046611336962 -1 0 0
2148 1 70.99008787073743 2.4591658867126607 0.9500908371950749 -1 0 0
2151 4 72.40989298088469 1.6394461349263898 0.0658618969626895 -1 0 0
2154 1 73.82969153747644 2.459165886712661 0.9500908371950748 -1 0 0
2157 4 75.24949664762369 1.6394461349263894 0.06586189696269015 -1 0 0
2146 4 70.99009114751499 4.098615047001391 0.065861896962691 -1 0 0
2152 4 73.829694814254 4.09861504700139 0.06586189696268992 -1 0 0
2363 1 72.40988970410756 4.9183347987876616 0.9500908371950726 -1 0 0
2369 1 75.24949337084657 4.9183347987876616 0.950090837195077 -1 0 0
2143 3 70.99008943783267 0.8197212002760337 1.8338046611336905 -1 0 0
2149 3 73.82969310457166 0.8197212002760369 1.8338046611336944 -1 0 0
2150 3 72.40989127120234 3.2788901123510374 1.8338046611336942 -1 0 0
2156 3 75.24949493794134 3.278890112351037 1.8338046611336953 -1 0 0
2353 3 70.99008943783267 5.738059024426034 1.8338046611336905 -1 0 0
2359 3 73.82969310457166 5.738059024426038 1.8338046611336944 -1 0 0
2160 1 76.66929520421543 2.459165886712661 0.9500908371950748 -1 0 0
2163 4 78.08910031436268 1.639446134926391 0.065861896962693 -1 0 0
2166 1 79.50889887095443 2.4591658867126607 0.9500908371950749 -1 0 0
2169 4 80.92870398110169 1.6394461349263898 0.0658618969626895 -1 0 0
2158 4 76.66929848099299 4.098615047001391 0.06586189696269079 -1 0 0
2164 4 79.50890214773199 4.098615047001391 0.06586189696269099 -1 0 0
2375 1 78.08909703758556 4.918334798787662 0.9500908371950747 -1 0 0
2381 1 80.92870070432456 4.9183347987876616 0.9500908371950726 -1 0 0
2155 3 76.66929677131066 0.8197212002760382 1.8338046611336962 -1 0 0
2161 3 79.50890043804966 0.8197212002760337 1.8338046611336905 -1 0 0
2162 3 78.08909860468033 3.2788901123510357 1.8338046611336918 -1 0 0
2168 3 80.92870227141934 3.2788901123510374 1.8338046611336942 -1 0 0
2365 3 76.66929677131066 5.738059024426039 1.8338046611336962 -1 0 0
2371 3 79.50890043804966 5.738059024426034 1.8338046611336905 -1 0 0
2172 1 82.34850253769343 2.459165886712661 0.9500908371950748 -1 0 0
2175 4 83.76830764784069 1.6394461349263894 0.06586189696269015 -1 0 0
2178 1 85.18810620443243 2.459165886712661 0.9500908371950748 -1 0 0
2181 4 86.60791131457968 1.639446134926391 0.065861896962693 -1 0 0
2170 4 82.348505814471 4.09861504700139 0.0658618969626899 -1 0 0
2176 4 85.18810948120999 4.098615047001391 0.06586189696269078 -1 0 0
2387 1 83.76830437106356 4.9183347987876616 0.950090837195077 -1 0 0
2393 1 86.60790803780256 4.918334798787662 0.9500908371950747 -1 0 0
2167 3 82.34850410478866 0.8197212002760369 1.8338046611336944 -1 0 0
2173 3 85.18810777152765 0.8197212002760382 1.8338046611336962 -1 0 0
2174 3 83.76830593815833 3.278890112351037 1.8338046611336953 -1 0 0
2180 3 86.60790960489733 3.2788901123510357 1.8338046611336918 -1 0 0
2377 3 82.34850410478866 5.738059024426038 1.8338046611336944 -1 0 0
2383 3 85.18810777152765 5.738059024426039 1.8338046611336962 -1 0 0
2184 1 88.02770987117142 2.4591658867126607 0.9500908371950749 -1 0 0
2187 4 89.44751498131869 1.6394461349263896 0.06586189696268915 -1 0 0
2190 1 90.86731353791043 2.459165886712661 0.9500908371950748 -1 0 0
2193 4 92.28711864805769 1.6394461349263894 0.06586189696269015 -1 0 0
2182 4 88.02771314794899 4.098615047001391 0.065861896962691 -1 0 0
2188 4 90.867316814688 4.098615047001389 0.06586189696268828 -1 0 0
2399 1 89.44751170454155 4.9183347987876616 0.9500908371950727 -1 0 0
2405 1 92.28711537128056 4.918334798787663 0.9500908371950781 -1 0 0
2179 3 88.02771143826666 0.8197212002760337 1.8338046611336905 -1 0 0
2185 3 90.86731510500566 0.8197212002760356 1.8338046611336936 -1 0 0
2186 3 89.44751327163634 3.2788901123510374 1.8338046611336947 -1 0 0
2192 3 92.28711693837533 3.2788901123510366 1.8338046611336947 -1 0 0
2389 3 88.02771143826666 5.738059024426034 1.8338046611336905 -1 0 0
2395 3 90.86731510500566 5.738059024426036 1.8338046611336936 -1 0 0
2203 3 99.38612610522266 0.8197212002760355 1.8338046611336931 -1 0 0
2413 3 99.38612610522266 5.738059024426036 1.8338046611336933 -1 0 0
2196 1 93.70691720464946 2.459165886712661 0.9500908371950748 -1 0 0
2199 4 95.12672231479668 1.639446134926391 0.06586189696269305 -1 0 0
2202 1 96.54652087138842 2.4591658867126616 0.9500908371950746 -1 0 0
2205 4 97.96632598153569 1.63944613492639 0.06586189696268976 -1 0 0
2208 1 99.38612453812743 2.4591658867126625 0.9500908371950764 -1 0 0
2194 4 93.70692048142699 4.098615047001392 0.06586189696269401 -1 0 0
2200 4 96.546524148166 4.09861504700139 0.06586189696268996 -1 0 0
2206 4 99.386127814905 4.098615047001389 0.06586189696268877 -1 0 0
2411 1 95.12671903801956 4.918334798787661 0.9500908371950735 -1 0 0
2417 1 97.96632270475855 4.9183347987876616 0.9500908371950734 -1 0 0
2191 3 93.70691877174465 0.8197212002760365 1.8338046611336927 -1 0 0
2197 3 96.54652243848366 0.8197212002760373 1.8338046611336953 -1 0 0
2198 3 95.12672060511433 3.2788901123510357 1.8338046611336924 -1 0 0
2204 3 97.96632427185334 3.2788901123510374 1.8338046611336942 -1 0 0
2401 3 93.70691877174465 5.738059024426037 1.8338046611336927 -1 0 0
2407 3 96.54652243848366 5.738059024426038 1.8338046611336953 -1 0 0
2421 4 1.4198013124096864 6.55778395907639 0.06586189696268963 0 0 0
2427 4 4.259404979148686 6.5577839590763904 0.06586189696269093 0 0 0
2424 1 2.839599869001442 7.377503710862663 0.9500908371950749 0 0 0
2430 1 5.679203535740437 7.377503710862662 0.950090837195075 0 0 0
2633 1 1.4197980356325697 9.836672622937662 0.9500908371950773 0 0 0
2422 4 2.8396031457789976 9.01695287115139 0.06586189696269022 0 0 0
2639 1 4.259401702371564 9.83667262293766 0.9500908371950758 0 0 0
2428 4 5.679206812517997 9.01695287115139 0.06586189696269096 0 0 0
2631 4 1.4198013124096869 11.476121783226393 0.06586189696269149 0 0 0
2637 4 4.259404979148686 11.476121783226395 0.06586189696269273 0 0 0
2420 3 1.4197996027273312 8.197227936501037 1.8338046611336927 0 0 0
2426 3 4.259403269466333 8.197227936501037 1.8338046611336936 0 0 0
2629 3 2.839601436096661 10.65639684857604 1.8338046611336913 0 0 0
2635 3 5.679205102835662 10.65639684857604 1.8338046611336924 0 0 0
2433 4 7.099008645887688 6.557783959076391 0.06586189696269133 0 0 0
2439 4 9.938612312626686 6.55778395907639 0.0658618969626892 0 0 0
2436 1 8.518807202479437 7.377503710862662 0.9500908371950754 0 0 0
2442 1 11.35841086921844 7.377503710862663 0.950090837195075 0 0 0
2645 1 7.099005369110565 9.83667262293766 0.9500908371950754 0 0 0
2434 4 8.518810479256997 9.01695287115139 0.06586189696268993 0 0 0
2651 1 9.938609035849566 9.836672622937662 0.9500908371950766 0 0 0
2440 4 11.358414145995997 9.01695287115139 0.06586189696269025 0 0 0
2643 4 7.099008645887688 11.476121783226395 0.06586189696269261 0 0 0
2649 4 9.938612312626686 11.476121783226393 0.06586189696269122 0 0 0
2432 3 7.099006936205335 8.197227936501037 1.8338046611336924 0 0 0
2438 3 9.938610602944333 8.197227936501037 1.8338046611336942 0 0 0
2641 3 8.518808769574663 10.656396848576039 1.8338046611336911 0 0 0
2647 3 11.35841243631366 10.65639684857604 1.8338046611336913 0 0 0
2445 4 12.778215979365687 6.5577839590763904 0.06586189696269104 0 0 0
2451 4 15.617819646104683 6.55778395907639 0.06586189696268842 0 0 0
2448 1 14.198014535957435 7.377503710862662 0.950090837195075 0 0 0
2454 1 17.03761820269645 7.377503710862662 0.9500908371950748 0 0 0
2657 1 12.778212702588561 9.83667262293766 0.9500908371950756 0 0 0
2446 4 14.198017812734996 9.01695287115139 0.06586189696269049 0 0 0
2663 1 15.617816369327564 9.836672622937662 0.9500908371950774 0 0 0
2452 4 17.037621479473998 9.01695287115139 0.06586189696269053 0 0 0
2655 4 12.778215979365685 11.476121783226395 0.06586189696269289 0 0 0
2661 4 15.617819646104683 11.476121783226393 0.06586189696269011 0 0 0
2444 3 12.778214269683332 8.197227936501037 1.8338046611336933 0 0 0
2450 3 15.61781793642233 8.197227936501038 1.8338046611336953 0 0 0
2653 3 14.198016103052664 10.656396848576039 1.8338046611336916 0 0 0
2659 3 17.03761976979166 10.656396848576039 1.8338046611336902 0 0 0
2457 4 18.45742331284368 6.557783959076391 0.06586189696269178 0 0 0
2463 4 21.297026979582686 6.557783959076392 0.06586189696269279 0 0 0
2460 1 19.87722186943544 7.377503710862662 0.9500908371950749 0 0 0
2466 1 22.71682553617443 7.377503710862662 0.9500908371950746 0 0 0
2669 1 18.45742003606656 9.83667262293766 0.9500908371950746 0 0 0
2458 4 19.877225146212997 9.01695287115139 0.06586189696269033 0 0 0
2675 1 21.297023702805568 9.836672622937659 0.9500908371950755 0 0 0
2464 4 22.716828812951995 9.016952871151393 0.06586189696269253 0 0 0
2667 4 18.457423312843684 11.476121783226395 0.06586189696269419 0 0 0
2673 4 21.297026979582686 11.476121783226395 0.06586189696269355 0 0 0
2456 3 18.45742160316133 8.197227936501037 1.8338046611336922 0 0 0
2462 3 21.297025269900335 8.197227936501037 1.833804661133692 0 0 0
2665 3 19.87722343653066 10.656396848576042 1.8338046611336947 0 0 0
2671 3 22.716827103269665 10.656396848576039 1.8338046611336902 0 0 0
2469 4 24.136630646321684 6.557783959076389 0.06586189696268693 0 0 0
2475 4 26.97623431306068 6.557783959076391 0.06586189696269178 0 0 0
2472 1 25.55642920291345 7.377503710862662 0.9500908371950748 0 0 0
2478 1 28.39603286965244 7.377503710862662 0.9500908371950749 0 0 0
2681 1 24.13662736954456 9.836672622937662 0.950090837195078 0 0 0
2470 4 25.556432479691 9.016952871151389 0.06586189696268883 0 0 0
2687 1 26.976231036283558 9.83667262293766 0.9500908371950747 0 0 0
2476 4 28.396036146429996 9.01695287115139 0.06586189696269032 0 0 0
2679 4 24.136630646321684 11.476121783226393 0.06586189696268852 0 0 0
2685 4 26.976234313060683 11.476121783226395 0.06586189696269419 0 0 0
2468 3 24.136628936639333 8.197227936501038 1.833804661133696 0 0 0
2474 3 26.976232603378328 8.197227936501037 1.8338046611336922 0 0 0
2677 3 25.556430770008664 10.65639684857604 1.833804661133691 0 0 0
2683 3 28.39603443674766 10.656396848576042 1.8338046611336947 0 0 0
2481 4 29.815837979799685 6.557783959076392 0.06586189696269286 0 0 0
2487 4 32.65544164653869 6.5577839590763904 0.06586189696268924 0 0 0
2484 1 31.23563653639143 7.377503710862662 0.9500908371950746 0 0 0
2490 1 34.07524020313044 7.377503710862662 0.9500908371950749 0 0 0
2693 1 29.815834703022567 9.836672622937659 0.9500908371950755 0 0 0
2482 4 31.235639813168994 9.01695287115139 0.06586189696269161 0 0 0
2699 1 32.65543836976156 9.836672622937662 0.9500908371950785 0 0 0
2488 4 34.075243479907996 9.016952871151389 0.06586189696268843 0 0 0
2691 4 29.815837979799685 11.476121783226395 0.06586189696269362 0 0 0
2697 4 32.65544164653869 11.476121783226393 0.06586189696269058 0 0 0
2480 3 29.81583627011733 8.197227936501037 1.833804661133692 0 0 0
2486 3 32.65543993685633 8.197227936501038 1.8338046611336938 0 0 0
2689 3 31.235638103486664 10.656396848576039 1.8338046611336913 0 0 0
2695 3 34.07524177022566 10.656396848576039 1.8338046611336918 0 0 0
2493 4 35.495045313277686 6.557783959076391 0.0658618969626925 0 0 0
2499 4 38.33464898001669 6.5577839590763904 0.06586189696268985 0 0 0
2496 1 36.914843869869436 7.377503710862663 0.9500908371950748 0 0 0
2502 1 39.75444753660843 7.377503710862662 0.9500908371950747 0 0 0
2705 1 35.49504203650058 9.83667262293766 0.9500908371950739 0 0 0
2494 4 36.914847146647 9.01695287115139 0.06586189696269237 0 0 0
2711 1 38.334645703239566 9.83667262293766 0.9500908371950765 0 0 0
2500 4 39.75445081338599 9.01695287115139 0.06586189696269103 0 0 0
2703 4 35.495045313277686 11.476121783226395 0.0658618969626939 0 0 0
2709 4 38.33464898001669 11.476121783226393 0.06586189696269135 0 0 0
2492 3 35.495043603595335 8.197227936501037 1.8338046611336913 0 0 0
2498 3 38.33464727033434 8.197227936501038 1.8338046611336951 0 0 0
2701 3 36.91484543696466 10.65639684857604 1.833804661133693 0 0 0
2707 3 39.754449103703664 10.65639684857604 1.833804661133692 0 0 0
2505 4 41.17425264675569 6.5577839590763904 0.06586189696268928 0 0 0
2511 4 44.013856313494685 6.557783959076391 0.0658618969626925 0 0 0
2508 1 42.59405120334744 7.377503710862662 0.9500908371950749 0 0 0
2514 1 45.433654870086436 7.377503710862663 0.9500908371950748 0 0 0
2717 1 41.17424936997856 9.836672622937662 0.9500908371950776 0 0 0
2506 4 42.594054480124996 9.016952871151389 0.06586189696268843 0 0 0
2723 1 44.01385303671758 9.83667262293766 0.9500908371950739 0 0 0
2512 4 45.433658146864 9.01695287115139 0.06586189696269237 0 0 0
2715 4 41.17425264675569 11.476121783226393 0.06586189696269064 0 0 0
2721 4 44.013856313494685 11.476121783226395 0.0658618969626939 0 0 0
2504 3 41.17425093707333 8.197227936501038 1.8338046611336938 0 0 0
2510 3 44.013854603812334 8.197227936501037 1.8338046611336913 0 0 0
2713 3 42.59405277044266 10.656396848576039 1.8338046611336918 0 0 0
2719 3 45.43365643718166 10.65639684857604 1.833804661133693 0 0 0
2517 4 46.85345998023369 6.5577839590763904 0.06586189696268986 0 0 0
2313 4 49.69306364697269 6.5577839590763904 0.06586189696268938 -1 0 0
2319 4 52.532667313711684 6.55778395907639 0.06586189696268928 -1 0 0
2520 1 48.27325853682543 7.377503710862663 0.9500908371950749 0 0 0
2316 1 51.11286220356443 7.377503710862662 0.9500908371950751 -1 0 0
2729 1 46.853456703456565 9.83667262293766 0.9500908371950764 0 0 0
2518 4 48.27326181360299 9.01695287115139 0.0658618969626916 0 0 0
2314 4 51.112865480341995 9.016952871151389 0.06586189696268815 -1 0 0
2525 1 49.69306037019556 9.836672622937662 0.9500908371950747 -1 0 0
2531 1 52.53266403693456 9.836672622937664 0.9500908371950783 -1 0 0
2727 4 46.85345998023369 11.476121783226393 0.06586189696269136 0 0 0
2523 4 49.69306364697269 11.476121783226393 0.06586189696269094 -1 0 0
2529 4 52.532667313711684 11.476121783226393 0.06586189696269129 -1 0 0
2516 3 46.853458270551336 8.197227936501038 1.8338046611336951 0 0 0
2312 3 49.69306193729033 8.197227936501038 1.8338046611336942 -1 0 0
2318 3 52.532665604029326 8.197227936501037 1.8338046611336942 -1 0 0
2725 3 48.27326010392066 10.65639684857604 1.8338046611336922 0 0 0
2521 3 51.11286377065966 10.656396848576039 1.8338046611336916 -1 0 0
2325 4 55.37227098045068 6.5577839590763904 0.06586189696269107 -1 0 0
2331 4 58.21187464718968 6.557783959076391 0.06586189696269107 -1 0 0
2322 1 53.952465870303435 7.377503710862663 0.950090837195075 -1 0 0
2328 1 56.79206953704243 7.377503710862662 0.950090837195075 -1 0 0
2320 4 53.95246914708099 9.01695287115139 0.06586189696269067 -1 0 0
2537 1 55.37226770367356 9.836672622937659 0.9500908371950739 -1 0 0
2326 4 56.79207281381999 9.01695287115139 0.06586189696269155 -1 0 0
2543 1 58.21187137041256 9.83667262293766 0.9500908371950754 -1 0 0
2535 4 55.37227098045068 11.476121783226395 0.06586189696269287 -1 0 0
2541 4 58.21187464718968 11.476121783226395 0.06586189696269229 -1 0 0
2324 3 55.37226927076833 8.197227936501037 1.8338046611336933 -1 0 0
2330 3 58.21187293750733 8.197227936501037 1.833804661133693 -1 0 0
2527 3 53.95246743739866 10.65639684857604 1.833804661133691 -1 0 0
2533 3 56.79207110413766 10.65639684857604 1.833804661133692 -1 0 0
2337 4 61.05147831392868 6.55778395907639 0.06586189696268938 -1 0 0
2343 4 63.891081980667686 6.557783959076392 0.06586189696269257 -1 0 0
2334 1 59.63167320378143 7.377503710862662 0.9500908371950753 -1 0 0
2340 1 62.47127687052044 7.377503710862663 0.950090837195075 -1 0 0
2332 4 59.631676480558994 9.01695287115139 0.06586189696268956 -1 0 0
2549 1 61.05147503715156 9.836672622937662 0.9500908371950773 -1 0 0
2338 4 62.471280147297996 9.01695287115139 0.0658618969626917 -1 0 0
2555 1 63.89107870389056 9.83667262293766 0.9500908371950731 -1 0 0
2547 4 61.05147831392868 11.476121783226393 0.06586189696269107 -1 0 0
2553 4 63.891081980667686 11.476121783226395 0.06586189696269432 -1 0 0
2336 3 61.051476604246325 8.197227936501038 1.8338046611336944 -1 0 0
2342 3 63.89108027098533 8.197227936501037 1.833804661133691 -1 0 0
2539 3 59.63167477087666 10.65639684857604 1.8338046611336933 -1 0 0
2545 3 62.47127843761566 10.656396848576039 1.833804661133689 -1 0 0
2349 4 66.73068564740669 6.5577839590763904 0.06586189696268976 -1 0 0
2355 4 69.57028931414568 6.557783959076391 0.06586189696269278 -1 0 0
2346 1 65.31088053725944 7.377503710862662 0.950090837195075 -1 0 0
2352 1 68.15048420399843 7.377503710862662 0.9500908371950746 -1 0 0
2344 4 65.310883814037 9.01695287115139 0.06586189696269035 -1 0 0
2561 1 66.73068237062957 9.83667262293766 0.9500908371950774 -1 0 0
2350 4 68.150487480776 9.01695287115139 0.06586189696269079 -1 0 0
2567 1 69.57028603736856 9.83667262293766 0.9500908371950768 -1 0 0
2559 4 66.73068564740669 11.476121783226395 0.06586189696269465 -1 0 0
2565 4 69.5702893141457 11.476121783226393 0.06586189696269065 -1 0 0
2348 3 66.73068393772434 8.197227936501037 1.8338046611336953 -1 0 0
2354 3 69.57028760446333 8.197227936501037 1.8338046611336913 -1 0 0
2551 3 65.31088210435466 10.65639684857604 1.8338046611336933 -1 0 0
2557 3 68.15048577109366 10.656396848576042 1.8338046611336947 -1 0 0
2361 4 72.40989298088469 6.5577839590763904 0.06586189696268915 -1 0 0
2367 4 75.24949664762369 6.5577839590763904 0.06586189696268972 -1 0 0
2358 1 70.99008787073743 7.377503710862662 0.9500908371950746 -1 0 0
2364 1 73.82969153747644 7.377503710862662 0.9500908371950748 -1 0 0
2356 4 70.99009114751499 9.01695287115139 0.06586189696269112 -1 0 0
2573 1 72.40988970410756 9.83667262293766 0.9500908371950743 -1 0 0
2362 4 73.829694814254 9.016952871151389 0.06586189696268988 -1 0 0
2579 1 75.24949337084657 9.83667262293766 0.9500908371950774 -1 0 0
2571 4 72.40989298088469 11.476121783226393 0.0658618969626905 -1 0 0
2577 4 75.24949664762369 11.476121783226395 0.06586189696269464 -1 0 0
2360 3 72.40989127120234 8.197227936501038 1.8338046611336936 -1 0 0
2366 3 75.24949493794134 8.197227936501037 1.8338046611336953 -1 0 0
2563 3 70.99008943783267 10.656396848576037 1.8338046611336891 -1 0 0