LAMMPS data file via write_data, version 29 Aug 2024, timestep = 2, units = metal

12600 atoms
9 atom types

0 99.386128335865 xlo xhi
0 98.366756483 ylo yhi
-50 50 zlo zhi

Masses

1 58.6934
2 58.6934
3 58.6934
4 15.999
5 15.999
6 15.999
7 15.999
8 15.999
9 15.999

Atoms # atomic

2211 5 1.4198013127708946 1.6394461351705365 0.06588099371171996 0 0 0
2214 1 2.8395998399923585 2.45916591618968 0.9500981442169159 0 0 0
2217 5 4.259404979509898 1.6394461351705363 0.06588099371171957 0 0 0
2220 1 5.679203506731353 2.45916591618968 0.9500981442169156 0 0 0
2212 5 2.8396031461402065 4.098615047245537 0.06588099371171892 0 0 0
2218 5 5.6792068128792055 4.098615047245537 0.06588099371171936 0 0 0
2423 1 1.4197980066234932 4.918334828264682 0.9500981442169174 0 0 0
2429 1 4.259401673362487 4.91833482826468 0.9500981442169155 0 0 0
2209 4 2.8396014467376447 0.8197213559060103 1.8337887789117076 0 0 0
2215 4 5.679205113476646 0.8197213559060106 1.8337887789117082 0 0 0
2210 4 1.419799613368316 3.278890267981009 1.833788778911705 0 0 0
2216 4 4.25940328010732 3.2788902679810104 1.8337887789117078 0 0 0
2419 4 2.8396014467376447 5.738059180056011 1.8337887789117076 0 0 0
2425 4 5.679205113476646 5.738059180056012 1.8337887789117082 0 0 0
2223 5 7.099008646248898 1.6394461351705365 0.06588099371171936 0 0 0
2226 1 8.518807173470353 2.45916591618968 0.950098144216916 0 0 0
2229 5 9.938612312987898 1.6394461351705358 0.06588099371171817 0 0 0
2232 1 11.358410840209357 2.45916591618968 0.9500981442169157 0 0 0
2224 5 8.518810479618205 4.098615047245536 0.0658809937117179 0 0 0
2230 5 11.358414146357205 4.098615047245537 0.06588099371171878 0 0 0
2435 1 7.099005340101488 4.918334828264681 0.9500981442169156 0 0 0
2441 1 9.938609006840492 4.9183348282646815 0.9500981442169167 0 0 0
2221 4 8.518808780215647 0.8197213559060098 1.8337887789117073 0 0 0
2227 4 11.358412446954645 0.8197213559060099 1.833788778911707 0 0 0
2222 4 7.0990069468463215 3.2788902679810104 1.8337887789117073 0 0 0
2228 4 9.93861061358532 3.278890267981011 1.8337887789117082 0 0 0
2431 4 8.518808780215647 5.738059180056011 1.8337887789117073 0 0 0
2437 4 11.358412446954643 5.738059180056011 1.8337887789117076 0 0 0
2235 5 12.778215979726898 1.639446135170536 0.06588099371171957 0 0 0
2238 1 14.198014506948352 2.45916591618968 0.9500981442169157 0 0 0
2241 5 15.617819646465895 1.6394461351705352 0.06588099371171714 0 0 0
2244 1 17.037618173687363 2.45916591618968 0.9500981442169163 0 0 0
2236 5 14.198017813096204 4.098615047245537 0.06588099371171949 0 0 0
2242 5 17.03762147983521 4.098615047245537 0.06588099371171935 0 0 0
2447 1 12.778212673579487 4.91833482826468 0.9500981442169153 0 0 0
2453 1 15.617816340318486 4.918334828264681 0.9500981442169165 0 0 0
2233 4 14.198016113693647 0.8197213559060099 1.8337887789117076 0 0 0
2239 4 17.037619780432646 0.8197213559060091 1.8337887789117062 0 0 0
2234 4 12.77821428032432 3.2788902679810104 1.8337887789117076 0 0 0
2240 4 15.617817947063319 3.2788902679810117 1.833788778911709 0 0 0
2443 4 14.198016113693647 5.738059180056011 1.8337887789117069 0 0 0
2449 4 17.037619780432646 5.73805918005601 1.8337887789117062 0 0 0
2247 5 18.457423313204895 1.639446135170537 0.06588099371172021 0 0 0
2250 1 19.87722184042636 2.45916591618968 0.9500981442169156 0 0 0
2253 5 21.2970269799439 1.6394461351705374 0.06588099371172139 0 0 0
2256 1 22.716825507165346 2.4591659161896793 0.9500981442169149 0 0 0
2248 5 19.877225146574208 4.098615047245536 0.06588099371171857 0 0 0
2254 5 22.716828813313207 4.098615047245537 0.06588099371172014 0 0 0
2459 1 18.45742000705748 4.91833482826468 0.9500981442169157 0 0 0
2465 1 21.29702367379649 4.918334828264679 0.9500981442169151 0 0 0
2245 4 19.877223447171648 0.819721355906012 1.8337887789117104 0 0 0
2251 4 22.71682711391065 0.8197213559060097 1.8337887789117067 0 0 0
2246 4 18.457421613802317 3.27889026798101 1.8337887789117067 0 0 0
2252 4 21.297025280541323 3.278890267981009 1.8337887789117064 0 0 0
2455 4 19.877223447171648 5.738059180056013 1.8337887789117104 0 0 0
2461 4 22.71682711391065 5.738059180056011 1.8337887789117067 0 0 0
2259 5 24.1366306466829 1.6394461351705343 0.06588099371171553 0 0 0
2262 1 25.556429173904363 2.45916591618968 0.9500981442169167 0 0 0
2265 5 26.976234313421894 1.639446135170537 0.06588099371172024 0 0 0
2268 1 28.396032840643358 2.45916591618968 0.9500981442169156 0 0 0
2260 5 25.55643248005221 4.098615047245536 0.06588099371171802 0 0 0
2266 5 28.396036146791207 4.098615047245536 0.06588099371171859 0 0 0
2471 1 24.136627340535483 4.9183348282646815 0.9500981442169163 0 0 0
2477 1 26.976231007274478 4.91833482826468 0.9500981442169159 0 0 0
2257 4 25.55643078064965 0.8197213559060088 1.8337887789117062 0 0 0
2263 4 28.396034447388647 0.819721355906012 1.8337887789117104 0 0 0
2258 4 24.13662894728032 3.2788902679810126 1.8337887789117104 0 0 0
2264 4 26.976232614019317 3.27889026798101 1.8337887789117069 0 0 0
2467 4 25.55643078064965 5.73805918005601 1.8337887789117062 0 0 0
2473 4 28.396034447388647 5.738059180056013 1.8337887789117104 0 0 0
2271 5 29.8158379801609 1.6394461351705374 0.06588099371172144 0 0 0
2274 1 31.23563650738235 2.4591659161896793 0.950098144216915 0 0 0
2277 5 32.6554416468999 1.6394461351705352 0.06588099371171673 0 0 0
2280 1 34.07524017412137 2.4591659161896797 0.9500981442169159 0 0 0
2272 5 31.235639813530206 4.098615047245538 0.06588099371172074 0 0 0
2278 5 34.07524348026921 4.098615047245534 0.06588099371171512 0 0 0
2483 1 29.81583467401349 4.918334828264679 0.9500981442169151 0 0 0
2489 1 32.65543834075248 4.918334828264682 0.9500981442169172 0 0 0
2269 4 31.23563811412765 0.8197213559060093 1.833788778911706 0 0 0
2275 4 34.07524178086665 0.8197213559060109 1.8337887789117093 0 0 0
2270 4 29.815836280758322 3.278890267981009 1.8337887789117064 0 0 0
2276 4 32.65543994749732 3.2788902679810117 1.833788778911709 0 0 0
2479 4 31.23563811412765 5.73805918005601 1.833788778911706 0 0 0
2485 4 34.07524178086665 5.738059180056012 1.8337887789117093 0 0 0
2283 5 35.4950453136389 1.6394461351705374 0.06588099371172099 0 0 0
2286 1 36.91484384086036 2.45916591618968 0.9500981442169156 0 0 0
2289 5 38.3346489803779 1.6394461351705354 0.06588099371171839 0 0 0
2292 1 39.75444750759935 2.4591659161896797 0.9500981442169159 0 0 0
2284 5 36.9148471470082 4.098615047245538 0.06588099371172056 0 0 0
2290 5 39.754450813747205 4.098615047245538 0.06588099371172094 0 0 0
2495 1 35.4950420074915 4.918334828264681 0.950098144216916 0 0 0
2501 1 38.334645674230494 4.918334828264679 0.9500981442169143 0 0 0
2281 4 36.91484544760564 0.8197213559060111 1.8337887789117084 0 0 0
2287 4 39.75444911434465 0.819721355906009 1.8337887789117058 0 0 0
2282 4 35.49504361423632 3.2788902679810095 1.833788778911706 0 0 0
2288 4 38.334647280975325 3.2788902679810112 1.8337887789117095 0 0 0
2491 4 36.91484544760564 5.738059180056012 1.8337887789117084 0 0 0
2497 4 39.75444911434465 5.73805918005601 1.8337887789117058 0 0 0
2295 5 41.1742526471169 1.6394461351705356 0.0658809937117176 0 0 0
2298 1 42.59405117433836 2.4591659161896797 0.9500981442169159 0 0 0
2301 5 44.0138563138559 1.6394461351705374 0.065880993711721 0 0 0
2304 1 45.433654841077356 2.45916591618968 0.9500981442169156 0 0 0
2296 5 42.59405448048621 4.098615047245534 0.06588099371171512 0 0 0
2302 5 45.4336581472252 4.098615047245538 0.06588099371172053 0 0 0
2507 1 41.17424934096948 4.918334828264682 0.9500981442169172 0 0 0
2513 1 44.0138530077085 4.918334828264681 0.950098144216916 0 0 0
2293 4 42.59405278108365 0.8197213559060108 1.8337887789117093 0 0 0
2299 4 45.43365644782264 0.8197213559060111 1.8337887789117084 0 0 0
2294 4 41.17425094771432 3.2788902679810112 1.8337887789117084 0 0 0
2300 4 44.01385461445332 3.2788902679810095 1.833788778911706 0 0 0
2503 4 42.59405278108365 5.738059180056012 1.8337887789117093 0 0 0
2509 4 45.43365644782264 5.738059180056012 1.8337887789117084 0 0 0
2307 5 46.8534599805949 1.6394461351705356 0.06588099371171856 0 0 0
2310 1 48.273258507816344 2.45916591618968 0.9500981442169155 0 0 0
2103 5 49.693063647333894 1.6394461351705356 0.06588099371171782 -1 0 0
2106 1 51.112862174555346 2.4591659161896797 0.950098144216916 -1 0 0
2109 5 52.53266731407289 1.6394461351705356 0.06588099371171798 -1 0 0
2308 5 48.273261813964204 4.098615047245537 0.06588099371172003 0 0 0
2104 5 51.1128654807032 4.098615047245535 0.06588099371171656 -1 0 0
2519 1 46.85345667444749 4.918334828264679 0.9500981442169144 0 0 0
2315 1 49.69306034118648 4.918334828264681 0.950098144216915 -1 0 0
2321 1 52.53266400792549 4.918334828264682 0.9500981442169185 -1 0 0
2305 4 48.273260114561644 0.8197213559060105 1.8337887789117078 0 0 0
2101 4 51.11286378130064 0.8197213559060098 1.8337887789117076 -1 0 0
2306 4 46.853458281192324 3.2788902679810112 1.8337887789117093 0 0 0
2102 4 49.69306194793132 3.2788902679810112 1.8337887789117084 -1 0 0
2108 4 52.532665614670314 3.2788902679810112 1.8337887789117087 -1 0 0
2515 4 48.273260114561644 5.738059180056012 1.8337887789117078 0 0 0
2311 4 51.11286378130064 5.738059180056011 1.8337887789117076 -1 0 0
2112 1 53.952465841294355 2.459165916189681 0.9500981442169174 -1 0 0
2115 5 55.37227098081189 1.6394461351705365 0.06588099371171958 -1 0 0
2118 1 56.79206950803335 2.4591659161896793 0.9500981442169141 -1 0 0
2121 5 58.21187464755089 1.6394461351705365 0.0658809937117195 -1 0 0
2110 5 53.9524691474422 4.098615047245537 0.06588099371171927 -1 0 0
2116 5 56.7920728141812 4.098615047245537 0.06588099371171995 -1 0 0
2327 1 55.372267674664485 4.918334828264679 0.9500981442169136 -1 0 0
2333 1 58.21187134140348 4.918334828264681 0.9500981442169157 -1 0 0
2107 4 53.95246744803964 0.8197213559060099 1.8337887789117073 -1 0 0
2113 4 56.79207111477864 0.8197213559060105 1.8337887789117076 -1 0 0
2114 4 55.37226928140932 3.2788902679810104 1.8337887789117073 -1 0 0
2120 4 58.21187294814832 3.2788902679810104 1.833788778911707 -1 0 0
2317 4 53.95246744803964 5.738059180056011 1.8337887789117073 -1 0 0
2323 4 56.79207111477864 5.738059180056012 1.8337887789117076 -1 0 0
2124 1 59.631673174772345 2.45916591618968 0.9500981442169157 -1 0 0
2127 5 61.051478314289895 1.639446135170536 0.06588099371171968 -1 0 0
2130 1 62.47127684151135 2.4591659161896797 0.950098144216916 -1 0 0
2133 5 63.8910819810289 1.639446135170536 0.06588099371171763 -1 0 0
2122 5 59.631676480920206 4.098615047245537 0.06588099371171946 -1 0 0
2128 5 62.47128014765921 4.098615047245536 0.06588099371171839 -1 0 0
2339 1 61.05147500814248 4.9183348282646815 0.9500981442169174 -1 0 0
2345 1 63.89107867488148 4.918334828264679 0.950098144216913 -1 0 0
2119 4 59.631674781517646 0.8197213559060099 1.8337887789117073 -1 0 0
2125 4 62.47127844825665 0.8197213559060095 1.8337887789117069 -1 0 0
2126 4 61.05147661488732 3.2788902679810104 1.8337887789117073 -1 0 0
2132 4 63.891080281626316 3.2788902679810112 1.8337887789117084 -1 0 0
2329 4 59.631674781517646 5.738059180056011 1.8337887789117073 -1 0 0
2335 4 62.47127844825665 5.73805918005601 1.8337887789117069 -1 0 0
2136 1 65.31088050825035 2.45916591618968 0.9500981442169155 -1 0 0
2139 5 66.7306856477679 1.6394461351705376 0.0658809937117218 -1 0 0
2142 1 68.15048417498933 2.45916591618968 0.9500981442169155 -1 0 0
2145 5 69.5702893145069 1.6394461351705354 0.06588099371171777 -1 0 0
2134 5 65.3108838143982 4.098615047245535 0.06588099371171707 -1 0 0
2140 5 68.1504874811372 4.098615047245539 0.06588099371172235 -1 0 0
2351 1 66.7306823416205 4.918334828264681 0.950098144216918 -1 0 0
2357 1 69.57028600835947 4.918334828264681 0.9500981442169156 -1 0 0
2131 4 65.31088211499564 0.8197213559060121 1.8337887789117107 -1 0 0
2137 4 68.15048578173464 0.8197213559060104 1.8337887789117069 -1 0 0
2138 4 66.73068394836531 3.2788902679810086 1.8337887789117064 -1 0 0
2144 4 69.57028761510432 3.2788902679810117 1.8337887789117093 -1 0 0
2341 4 65.31088211499564 5.738059180056013 1.8337887789117107 -1 0 0
2347 4 68.15048578173464 5.738059180056011 1.8337887789117069 -1 0 0
2148 1 70.99008784172834 2.4591659161896797 0.9500981442169159 -1 0 0
2151 5 72.40989298124589 1.6394461351705358 0.06588099371171746 -1 0 0
2154 1 73.82969150846735 2.45916591618968 0.9500981442169156 -1 0 0
2157 5 75.2494966479849 1.6394461351705376 0.06588099371172176 -1 0 0
2146 5 70.9900911478762 4.098615047245535 0.0658809937117161 -1 0 0
2152 5 73.8296948146152 4.098615047245536 0.06588099371171802 -1 0 0
2363 1 72.40988967509848 4.91833482826468 0.9500981442169137 -1 0 0
2369 1 75.24949334183749 4.918334828264681 0.9500981442169181 -1 0 0
2143 4 70.99008944847364 0.8197213559060095 1.833788778911708 -1 0 0
2149 4 73.82969311521263 0.8197213559060109 1.8337887789117087 -1 0 0
2150 4 72.40989128184331 3.2788902679810112 1.8337887789117082 -1 0 0
2156 4 75.24949494858231 3.278890267981009 1.8337887789117064 -1 0 0
2353 4 70.99008944847364 5.73805918005601 1.833788778911708 -1 0 0
2359 4 73.82969311521263 5.738059180056012 1.8337887789117087 -1 0 0
2160 1 76.66929517520633 2.45916591618968 0.9500981442169155 -1 0 0
2163 5 78.0891003147239 1.6394461351705354 0.06588099371171777 -1 0 0
2166 1 79.50889884194534 2.4591659161896797 0.9500981442169159 -1 0 0
2169 5 80.92870398146289 1.6394461351705358 0.06588099371171746 -1 0 0
2158 5 76.6692984813542 4.098615047245539 0.06588099371172236 -1 0 0
2164 5 79.5089021480932 4.098615047245535 0.06588099371171609 -1 0 0
2375 1 78.08909700857647 4.918334828264681 0.9500981442169156 -1 0 0
2381 1 80.92870067531548 4.91833482826468 0.9500981442169137 -1 0 0
2155 4 76.66929678195164 0.8197213559060104 1.8337887789117069 -1 0 0
2161 4 79.50890044869064 0.8197213559060095 1.833788778911708 -1 0 0
2162 4 78.08909861532132 3.2788902679810117 1.8337887789117093 -1 0 0
2168 4 80.92870228206031 3.2788902679810112 1.8337887789117082 -1 0 0
2365 4 76.66929678195164 5.738059180056011 1.8337887789117069 -1 0 0
2371 4 79.50890044869064 5.73805918005601 1.833788778911708 -1 0 0
2172 1 82.34850250868435 2.45916591618968 0.9500981442169156 -1 0 0
2175 5 83.7683076482019 1.6394461351705376 0.06588099371172176 -1 0 0
2178 1 85.18810617542333 2.45916591618968 0.9500981442169155 -1 0 0
2181 5 86.60791131494089 1.6394461351705354 0.06588099371171777 -1 0 0
2170 5 82.3485058148322 4.098615047245536 0.06588099371171802 -1 0 0
2176 5 85.1881094815712 4.098615047245539 0.06588099371172235 -1 0 0
2387 1 83.76830434205449 4.918334828264681 0.9500981442169181 -1 0 0
2393 1 86.60790800879347 4.918334828264681 0.9500981442169156 -1 0 0
2167 4 82.34850411542963 0.8197213559060109 1.8337887789117087 -1 0 0
2173 4 85.18810778216864 0.8197213559060104 1.8337887789117069 -1 0 0
2174 4 83.76830594879931 3.278890267981009 1.8337887789117064 -1 0 0
2180 4 86.60790961553832 3.2788902679810117 1.8337887789117093 -1 0 0
2377 4 82.34850411542963 5.738059180056012 1.8337887789117087 -1 0 0
2383 4 85.18810778216864 5.738059180056011 1.8337887789117069 -1 0 0
2184 1 88.02770984216234 2.4591659161896797 0.9500981442169159 -1 0 0
2187 5 89.44751498167989 1.6394461351705356 0.0658809937117171 -1 0 0
2190 1 90.86731350890136 2.45916591618968 0.9500981442169157 -1 0 0
2193 5 92.28711864841888 1.6394461351705356 0.06588099371171824 -1 0 0
2182 5 88.0277131483102 4.098615047245535 0.06588099371171612 -1 0 0
2188 5 90.86731681504921 4.098615047245537 0.06588099371171988 -1 0 0
2399 1 89.44751167553248 4.91833482826468 0.9500981442169139 -1 0 0
2405 1 92.28711534227148 4.918334828264682 0.9500981442169191 -1 0 0
2179 4 88.02771144890764 0.8197213559060095 1.833788778911708 -1 0 0
2185 4 90.86731511564663 0.8197213559060077 1.8337887789117044 -1 0 0
2186 4 89.44751328227731 3.2788902679810117 1.8337887789117087 -1 0 0
2192 4 92.28711694901631 3.278890267981011 1.8337887789117089 -1 0 0
2389 4 88.02771144890764 5.73805918005601 1.833788778911708 -1 0 0
2395 4 90.86731511564663 5.738059180056008 1.8337887789117044 -1 0 0
2203 4 99.38612611586363 0.8197213559060088 1.8337887789117053 -1 0 0
2413 4 99.38612611586363 5.73805918005601 1.8337887789117056 -1 0 0
2196 1 93.70691717564037 2.45916591618968 0.9500981442169156 -1 0 0
2199 5 95.12672231515789 1.6394461351705372 0.06588099371172124 -1 0 0
2202 1 96.54652084237935 2.45916591618968 0.9500981442169156 -1 0 0
2205 5 97.96632598189689 1.639446135170536 0.06588099371171771 -1 0 0
2208 1 99.38612450911836 2.459165916189681 0.9500981442169175 -1 0 0
2194 5 93.7069204817882 4.098615047245537 0.06588099371171906 -1 0 0
2200 5 96.5465241485272 4.098615047245536 0.06588099371171818 -1 0 0
2206 5 99.38612781526619 4.098615047245536 0.06588099371171871 -1 0 0
2411 1 95.12671900901049 4.918334828264679 0.9500981442169144 -1 0 0
2417 1 97.96632267574948 4.918334828264681 0.9500981442169147 -1 0 0
2191 4 93.70691878238564 0.8197213559060121 1.8337887789117104 -1 0 0
2197 4 96.54652244912464 0.8197213559060116 1.8337887789117098 -1 0 0
2198 4 95.12672061575532 3.27889026798101 1.8337887789117067 -1 0 0
2204 4 97.96632428249431 3.278890267981011 1.8337887789117087 -1 0 0
2401 4 93.70691878238564 5.738059180056013 1.8337887789117104 -1 0 0
2407 4 96.54652244912464 5.738059180056013 1.8337887789117098 -1 0 0
2421 5 1.4198013127708948 6.557783959320537 0.06588099371171975 0 0 0
2427 5 4.259404979509898 6.557783959320537 0.06588099371171942 0 0 0
2424 1 2.839599839992358 7.377503740339681 0.9500981442169161 0 0 0
2430 1 5.679203506731353 7.377503740339681 0.9500981442169159 0 0 0
2633 1 1.4197980066234932 9.83667265241468 0.950098144216918 0 0 0
2422 5 2.8396031461402065 9.016952871395537 0.06588099371171878 0 0 0
2639 1 4.259401673362487 9.836672652414679 0.9500981442169161 0 0 0
2428 5 5.6792068128792055 9.016952871395537 0.0658809937117193 0 0 0
2631 5 1.4198013127708948 11.476121783470541 0.0658809937117214 0 0 0
2637 5 4.259404979509898 11.476121783470541 0.06588099371172096 0 0 0
2420 4 1.419799613368316 8.19722809213101 1.8337887789117049 0 0 0
2426 4 4.25940328010732 8.197228092131011 1.8337887789117076 0 0 0
2629 4 2.8396014467376447 10.656397004206013 1.833788778911706 0 0 0
2635 4 5.679205113476646 10.656397004206013 1.8337887789117067 0 0 0
2433 5 7.099008646248898 6.557783959320537 0.06588099371171924 0 0 0
2439 5 9.938612312987898 6.5577839593205365 0.06588099371171803 0 0 0
2436 1 8.518807173470353 7.377503740339681 0.9500981442169162 0 0 0
2442 1 11.358410840209357 7.377503740339681 0.950098144216916 0 0 0
2645 1 7.099005340101488 9.83667265241468 0.9500981442169166 0 0 0
2434 5 8.518810479618205 9.016952871395537 0.06588099371171785 0 0 0
2651 1 9.938609006840492 9.83667265241468 0.9500981442169173 0 0 0
2440 5 11.358414146357205 9.016952871395537 0.06588099371171864 0 0 0
2643 5 7.099008646248899 11.476121783470541 0.06588099371172047 0 0 0
2649 5 9.938612312987898 11.47612178347054 0.06588099371171963 0 0 0
2432 4 7.0990069468463215 8.197228092131011 1.833788778911707 0 0 0
2438 4 9.93861061358532 8.197228092131011 1.8337887789117082 0 0 0
2641 4 8.518808780215647 10.656397004206013 1.833788778911706 0 0 0
2647 4 11.358412446954643 10.656397004206013 1.833788778911706 0 0 0
2445 5 12.778215979726898 6.557783959320537 0.06588099371171947 0 0 0
2451 5 15.617819646465895 6.557783959320536 0.06588099371171693 0 0 0
2448 1 14.198014506948352 7.377503740339681 0.9500981442169159 0 0 0
2454 1 17.037618173687363 7.37750374033968 0.9500981442169164 0 0 0
2657 1 12.778212673579487 9.83667265241468 0.950098144216916 0 0 0
2446 5 14.198017813096206 9.016952871395537 0.06588099371171917 0 0 0
2663 1 15.617816340318486 9.83667265241468 0.9500981442169174 0 0 0
2452 5 17.03762147983521 9.016952871395537 0.06588099371171904 0 0 0
2655 5 12.778215979726898 11.476121783470541 0.06588099371172096 0 0 0
2661 5 15.617819646465895 11.47612178347054 0.06588099371171859 0 0 0
2444 4 12.77821428032432 8.197228092131011 1.8337887789117076 0 0 0
2450 4 15.617817947063319 8.197228092131011 1.833788778911709 0 0 0
2653 4 14.198016113693647 10.656397004206013 1.8337887789117053 0 0 0
2659 4 17.037619780432646 10.656397004206013 1.8337887789117044 0 0 0
2457 5 18.457423313204895 6.557783959320537 0.06588099371171999 0 0 0
2463 5 21.2970269799439 6.557783959320538 0.06588099371172139 0 0 0
2460 1 19.87722184042636 7.377503740339681 0.9500981442169152 0 0 0
2466 1 22.716825507165346 7.37750374033968 0.9500981442169147 0 0 0
2669 1 18.45742000705748 9.836672652414679 0.9500981442169171 0 0 0
2458 5 19.877225146574208 9.016952871395537 0.06588099371171863 0 0 0
2675 1 21.29702367379649 9.836672652414677 0.9500981442169162 0 0 0
2464 5 22.716828813313207 9.016952871395539 0.06588099371172004 0 0 0
2667 5 18.457423313204895 11.476121783470541 0.06588099371172133 0 0 0
2673 5 21.2970269799439 11.476121783470541 0.0658809937117227 0 0 0
2456 4 18.457421613802317 8.197228092131011 1.8337887789117064 0 0 0
2462 4 21.297025280541323 8.19722809213101 1.833788778911706 0 0 0
2665 4 19.877223447171648 10.656397004206015 1.833788778911709 0 0 0
2671 4 22.71682711391065 10.656397004206013 1.833788778911705 0 0 0
2469 5 24.1366306466829 6.557783959320535 0.06588099371171527 0 0 0
2475 5 26.976234313421894 6.557783959320537 0.06588099371171999 0 0 0
2472 1 25.556429173904363 7.37750374033968 0.9500981442169169 0 0 0
2478 1 28.396032840643358 7.377503740339681 0.9500981442169152 0 0 0
2681 1 24.136627340535483 9.83667265241468 0.950098144216917 0 0 0
2470 5 25.55643248005221 9.016952871395537 0.06588099371171784 0 0 0
2687 1 26.976231007274478 9.836672652414679 0.9500981442169171 0 0 0
2476 5 28.396036146791207 9.016952871395537 0.06588099371171863 0 0 0
2679 5 24.1366306466829 11.47612178347054 0.06588099371171655 0 0 0
2685 5 26.976234313421894 11.476121783470541 0.06588099371172133 0 0 0
2468 4 24.13662894728032 8.197228092131013 1.8337887789117102 0 0 0
2474 4 26.976232614019317 8.197228092131011 1.8337887789117064 0 0 0
2677 4 25.55643078064965 10.656397004206013 1.8337887789117047 0 0 0
2683 4 28.396034447388647 10.656397004206015 1.833788778911709 0 0 0
2481 5 29.8158379801609 6.557783959320538 0.06588099371172133 0 0 0
2487 5 32.6554416468999 6.557783959320536 0.06588099371171652 0 0 0
2484 1 31.23563650738235 7.37750374033968 0.9500981442169147 0 0 0
2490 1 34.07524017412137 7.377503740339681 0.9500981442169154 0 0 0
2693 1 29.81583467401349 9.836672652414677 0.9500981442169163 0 0 0
2482 5 31.235639813530206 9.016952871395539 0.06588099371172063 0 0 0
2699 1 32.65543834075248 9.83667265241468 0.950098144216918 0 0 0
2488 5 34.07524348026921 9.016952871395535 0.0658809937117151 0 0 0
2691 5 29.8158379801609 11.476121783470541 0.06588099371172264 0 0 0
2697 5 32.6554416468999 11.47612178347054 0.06588099371171798 0 0 0
2480 4 29.815836280758322 8.19722809213101 1.833788778911706 0 0 0
2486 4 32.65543994749732 8.197228092131013 1.8337887789117089 0 0 0
2689 4 31.23563811412765 10.656397004206013 1.8337887789117044 0 0 0
2695 4 34.07524178086665 10.656397004206015 1.8337887789117078 0 0 0
2493 5 35.4950453136389 6.557783959320538 0.06588099371172089 0 0 0
2499 5 38.3346489803779 6.5577839593205365 0.06588099371171825 0 0 0
2496 1 36.91484384086036 7.377503740339681 0.9500981442169155 0 0 0
2502 1 39.75444750759935 7.377503740339681 0.9500981442169156 0 0 0
2705 1 35.4950420074915 9.836672652414679 0.9500981442169171 0 0 0
2494 5 36.9148471470082 9.016952871395539 0.06588099371172061 0 0 0
2711 1 38.334645674230494 9.836672652414677 0.9500981442169145 0 0 0
2500 5 39.754450813747205 9.016952871395539 0.06588099371172089 0 0 0
2703 5 35.4950453136389 11.476121783470541 0.06588099371172208 0 0 0
2709 5 38.3346489803779 11.47612178347054 0.06588099371171956 0 0 0
2492 4 35.49504361423632 8.19722809213101 1.8337887789117056 0 0 0
2498 4 38.334647280975325 8.197228092131013 1.8337887789117093 0 0 0
2701 4 36.91484544760564 10.656397004206015 1.8337887789117069 0 0 0
2707 4 39.75444911434465 10.656397004206013 1.8337887789117042 0 0 0
2505 5 41.1742526471169 6.5577839593205365 0.06588099371171739 0 0 0
2511 5 44.0138563138559 6.557783959320538 0.06588099371172086 0 0 0
2508 1 42.59405117433837 7.377503740339681 0.9500981442169154 0 0 0
2514 1 45.433654841077356 7.377503740339681 0.9500981442169156 0 0 0
2717 1 41.17424934096948 9.83667265241468 0.950098144216918 0 0 0
2506 5 42.59405448048621 9.016952871395535 0.0658809937117151 0 0 0
2723 1 44.0138530077085 9.836672652414679 0.9500981442169171 0 0 0
2512 5 45.4336581472252 9.016952871395539 0.0658809937117206 0 0 0
2715 5 41.1742526471169 11.47612178347054 0.06588099371171884 0 0 0
2721 5 44.0138563138559 11.476121783470541 0.06588099371172208 0 0 0
2504 4 41.17425094771432 8.197228092131011 1.833788778911708 0 0 0
2510 4 44.01385461445332 8.19722809213101 1.8337887789117056 0 0 0
2713 4 42.59405278108365 10.656397004206015 1.8337887789117078 0 0 0
2719 4 45.43365644782264 10.656397004206015 1.8337887789117069 0 0 0
2517 5 46.8534599805949 6.5577839593205365 0.06588099371171835 0 0 0
2313 5 49.693063647333894 6.5577839593205365 0.0658809937117177 -1 0 0
2319 5 52.53266731407289 6.5577839593205365 0.06588099371171767 -1 0 0
2520 1 48.273258507816344 7.377503740339681 0.9500981442169157 0 0 0
2316 1 51.112862174555346 7.377503740339681 0.9500981442169162 -1 0 0
2729 1 46.85345667444749 9.836672652414677 0.9500981442169145 0 0 0
2518 5 48.273261813964204 9.016952871395537 0.06588099371171988 0 0 0
2314 5 51.1128654807032 9.016952871395535 0.06588099371171645 -1 0 0
2525 1 49.69306034118648 9.83667265241468 0.9500981442169155 -1 0 0
2531 1 52.53266400792549 9.836672652414682 0.9500981442169191 -1 0 0
2727 5 46.8534599805949 11.47612178347054 0.06588099371171974 0 0 0
2523 5 49.693063647333894 11.47612178347054 0.06588099371171917 -1 0 0
2529 5 52.53266731407289 11.47612178347054 0.06588099371171936 -1 0 0
2516 4 46.853458281192324 8.197228092131011 1.8337887789117089 0 0 0
2312 4 49.69306194793132 8.197228092131011 1.8337887789117084 -1 0 0
2318 4 52.532665614670314 8.197228092131011 1.8337887789117087 -1 0 0
2725 4 48.273260114561644 10.656397004206013 1.833788778911706 0 0 0
2521 4 51.11286378130064 10.656397004206013 1.833788778911706 -1 0 0
2325 5 55.37227098081189 6.557783959320537 0.06588099371171947 -1 0 0
2331 5 58.21187464755089 6.557783959320537 0.06588099371171932 -1 0 0
2322 1 53.952465841294355 7.377503740339682 0.9500981442169177 -1 0 0
2328 1 56.79206950803335 7.37750374033968 0.9500981442169143 -1 0 0
2320 5 53.9524691474422 9.016952871395537 0.06588099371171888 -1 0 0
2537 1 55.372267674664485 9.836672652414679 0.9500981442169142 -1 0 0
2326 5 56.7920728141812 9.016952871395537 0.06588099371172 -1 0 0
2543 1 58.21187134140348 9.83667265241468 0.9500981442169166 -1 0 0
2535 5 55.37227098081189 11.476121783470541 0.06588099371172106 -1 0 0
2541 5 58.21187464755089 11.476121783470541 0.06588099371172078 -1 0 0
2324 4 55.37226928140932 8.197228092131011 1.8337887789117073 -1 0 0
2330 4 58.21187294814832 8.197228092131011 1.8337887789117069 -1 0 0
2527 4 53.95246744803964 10.656397004206013 1.8337887789117056 -1 0 0
2533 4 56.79207111477864 10.656397004206013 1.833788778911706 -1 0 0
2337 5 61.051478314289895 6.5577839593205365 0.06588099371171943 -1 0 0
2343 5 63.8910819810289 6.5577839593205365 0.06588099371171732 -1 0 0
2334 1 59.631673174772345 7.377503740339681 0.9500981442169162 -1 0 0
2340 1 62.47127684151135 7.377503740339681 0.9500981442169164 -1 0 0
2332 5 59.631676480920206 9.016952871395537 0.06588099371171945 -1 0 0
2549 1 61.05147500814248 9.83667265241468 0.9500981442169183 -1 0 0
2338 5 62.47128014765921 9.016952871395537 0.06588099371171811 -1 0 0
2555 1 63.89107867488148 9.836672652414679 0.950098144216914 -1 0 0
2547 5 61.051478314289895 11.476121783470541 0.06588099371172088 -1 0 0
2553 5 63.8910819810289 11.47612178347054 0.06588099371171904 -1 0 0
2336 4 61.05147661488732 8.197228092131011 1.8337887789117069 -1 0 0
2342 4 63.891080281626316 8.197228092131011 1.8337887789117084 -1 0 0
2539 4 59.631674781517646 10.656397004206013 1.8337887789117058 -1 0 0
2545 4 62.47127844825665 10.656397004206013 1.8337887789117053 -1 0 0
2349 5 66.7306856477679 6.557783959320538 0.0658809937117217 -1 0 0
2355 5 69.5702893145069 6.557783959320536 0.06588099371171759 -1 0 0
2346 1 65.31088050825035 7.377503740339681 0.9500981442169154 -1 0 0
2352 1 68.15048417498933 7.377503740339681 0.9500981442169156 -1 0 0
2344 5 65.3108838143982 9.016952871395535 0.06588099371171685 -1 0 0
2561 1 66.7306823416205 9.836672652414679 0.9500981442169187 -1 0 0
2350 5 68.1504874811372 9.016952871395539 0.0658809937117224 -1 0 0
2567 1 69.57028600835947 9.836672652414679 0.9500981442169162 -1 0 0
2559 5 66.7306856477679 11.476121783470541 0.06588099371172298 -1 0 0
2565 5 69.5702893145069 11.47612178347054 0.0658809937117189 -1 0 0
2348 4 66.73068394836531 8.19722809213101 1.833788778911706 -1 0 0
2354 4 69.57028761510432 8.197228092131013 1.8337887789117089 -1 0 0
2551 4 65.31088211499564 10.656397004206015 1.8337887789117093 -1 0 0
2557 4 68.15048578173464 10.656397004206013 1.8337887789117053 -1 0 0
2361 5 72.40989298124589 6.5577839593205365 0.06588099371171723 -1 0 0
2367 5 75.2494966479849 6.557783959320538 0.06588099371172165 -1 0 0
2358 1 70.99008784172834 7.37750374033968 0.9500981442169161 -1 0 0
2364 1 73.82969150846735 7.377503740339681 0.9500981442169153 -1 0 0
2356 5 70.9900911478762 9.016952871395535 0.06588099371171596 -1 0 0
2573 1 72.40988967509848 9.836672652414679 0.9500981442169146 -1 0 0
2362 5 73.8296948146152 9.016952871395537 0.0658809937117181 -1 0 0
2579 1 75.24949334183749 9.836672652414679 0.9500981442169187 -1 0 0
2571 5 72.40989298124589 11.476121783470541 0.0658809937117187 -1 0 0
2577 5 75.2494966479849 11.476121783470541 0.06588099371172293 -1 0 0
2360 4 72.40989128184331 8.197228092131013 1.833788778911708 -1 0 0
2366 4 75.24949494858231 8.19722809213101 1.833788778911706 -1 0 0
2563 4 70.99008944847364 10.656397004206013 1.8337887789117067 -1 0 0
2569 4 73.82969311521263 10.656397004206015 1.833788778911707 -1 0 0