LAMMPS data file via write_data, version 29 Aug 2024, timestep = 0, units = metal

4200 atoms
3 atom types

0 101.2984496223 xlo xhi
0 100.25946369928 ylo yhi
0 17.007469209752 zlo zhi

Masses

1 54.938044
2 15.999
3 15.999

Atoms # atomic

2211 1 1.4471207088900044 0 0.960039772989 0 0 0
2217 1 4.341362126669999 0 0.960039772989 0 0 0
2223 1 7.235603544450001 0 0.960039772989 0 0 0
2229 1 10.129844962230003 0 0.960039772989 0 0 0
2235 1 13.024086380010004 0 0.960039772989 0 0 0
2241 1 15.918327797790006 0 0.960039772989 0 0 0
2247 1 18.81256921557 0 0.960039772989 0 0 0
2253 1 21.706810633349995 0 0.960039772989 0 0 0
2259 1 24.601052051130004 0 0.960039772989 0 0 0
2265 1 27.49529346891 0 0.960039772989 0 0 0
2271 1 30.389534886690008 0 0.960039772989 0 0 0
2277 1 33.28377630447 0 0.960039772989 0 0 0
2283 1 36.17801772225 0 0.960039772989 0 0 0
2289 1 39.072259140030006 0 0.960039772989 0 0 0
2295 1 41.96650055781 0 0.960039772989 0 0 0
2301 1 44.860741975589995 0 0.960039772989 0 0 0
2307 1 47.754983393370004 0 0.960039772989 0 0 0
2103 1 50.64922481115 0 0.960039772989 -1 0 0
2109 1 53.54346622893 0 0.960039772989 -1 0 0
2115 1 56.437707646709995 0 0.960039772989 -1 0 0
2121 1 59.33194906449 0 0.960039772989 -1 0 0
2127 1 62.22619048227 0 0.960039772989 -1 0 0
2133 1 65.12043190005 0 0.960039772989 -1 0 0
2139 1 68.01467331783 0 0.960039772989 -1 0 0
2145 1 70.90891473561 0 0.960039772989 -1 0 0
2151 1 73.80315615339 0 0.960039772989 -1 0 0
2157 1 76.69739757117 0 0.960039772989 -1 0 0
2163 1 79.59163898895 0 0.960039772989 -1 0 0
2169 1 82.48588040673 0 0.960039772989 -1 0 0
2175 1 85.38012182451 0 0.960039772989 -1 0 0
2181 1 88.27436324229001 0 0.960039772989 -1 0 0
2187 1 91.16860466007 0 0.960039772989 -1 0 0
2193 1 94.06284607785 0 0.960039772989 -1 0 0
2199 1 96.95708749562999 0 0.960039772989 -1 0 0
2205 1 99.85132891341 0 0.960039772989 -1 0 0
2206 1 0 2.5064865924819983 0.960039772989 0 0 0
2209 3 1.4471207088900044 1.6709910616549948 0 0 0 0
2212 1 2.8942414177800018 2.5064865924819983 0.960039772989 0 0 0
2215 3 4.341362126669999 1.6709910616549948 0 0 0 0
2218 1 5.7884828355600035 2.5064865924819983 0.960039772989 0 0 0
2221 3 7.235603544450001 1.6709910616549948 0 0 0 0
2224 1 8.682724253339998 2.5064865924819983 0.960039772989 0 0 0
2227 3 10.129844962230003 1.6709910616549948 0 0 0 0
2230 1 11.57696567112 2.5064865924819983 0.960039772989 0 0 0
2233 3 13.024086380010004 1.6709910616549948 0 0 0 0
2236 1 14.471207088899995 2.5064865924819983 0.960039772989 0 0 0
2239 3 15.918327797790006 1.6709910616549948 0 0 0 0
2242 1 17.365448506680004 2.5064865924819983 0.960039772989 0 0 0
2245 3 18.81256921557 1.6709910616549948 0 0 0 0
2248 1 20.259689924459998 2.5064865924819983 0.960039772989 0 0 0
2251 3 21.706810633349995 1.6709910616549948 0 0 0 0
2254 1 23.153931342240007 2.5064865924819983 0.960039772989 0 0 0
2257 3 24.601052051130004 1.6709910616549948 0 0 0 0
2260 1 26.04817276002 2.5064865924819983 0.960039772989 0 0 0
2263 3 27.49529346891 1.6709910616549948 0 0 0 0
2266 1 28.942414177799996 2.5064865924819983 0.960039772989 0 0 0
2269 3 30.389534886690008 1.6709910616549948 0 0 0 0
2272 1 31.836655595580005 2.5064865924819983 0.960039772989 0 0 0
2275 3 33.28377630447 1.6709910616549948 0 0 0 0
2278 1 34.73089701336 2.5064865924819983 0.960039772989 0 0 0
2281 3 36.17801772225 1.6709910616549948 0 0 0 0
2284 1 37.625138431139995 2.5064865924819983 0.960039772989 0 0 0
2287 3 39.072259140030006 1.6709910616549948 0 0 0 0
2290 1 40.51937984892 2.5064865924819983 0.960039772989 0 0 0
2293 3 41.96650055781 1.6709910616549948 0 0 0 0
2296 1 43.4136212667 2.5064865924819983 0.960039772989 0 0 0
2299 3 44.860741975589995 1.6709910616549948 0 0 0 0
2302 1 46.30786268448001 2.5064865924819983 0.960039772989 0 0 0
2305 3 47.754983393370004 1.6709910616549948 0 0 0 0
2308 1 49.20210410226 2.5064865924819983 0.960039772989 0 0 0
2101 3 50.64922481115 1.6709910616549948 0 -1 0 0
2104 1 52.096345520039996 2.5064865924819983 0.960039772989 -1 0 0
2107 3 53.54346622893 1.6709910616549948 0 -1 0 0
2110 1 54.99058693782 2.5064865924819983 0.960039772989 -1 0 0
2113 3 56.437707646709995 1.6709910616549948 0 -1 0 0
2116 1 57.8848283556 2.5064865924819983 0.960039772989 -1 0 0
2119 3 59.33194906449 1.6709910616549948 0 -1 0 0
2122 1 60.77906977338 2.5064865924819983 0.960039772989 -1 0 0
2125 3 62.22619048227 1.6709910616549948 0 -1 0 0
2128 1 63.673311191159996 2.5064865924819983 0.960039772989 -1 0 0
2131 3 65.12043190005 1.6709910616549948 0 -1 0 0
2134 1 66.56755260893999 2.5064865924819983 0.960039772989 -1 0 0
2137 3 68.01467331783 1.6709910616549948 0 -1 0 0
2140 1 69.46179402672 2.5064865924819983 0.960039772989 -1 0 0
2143 3 70.90891473561 1.6709910616549948 0 -1 0 0
2146 1 72.3560354445 2.5064865924819983 0.960039772989 -1 0 0
2149 3 73.80315615339 1.6709910616549948 0 -1 0 0
2152 1 75.25027686228 2.5064865924819983 0.960039772989 -1 0 0
2155 3 76.69739757117 1.6709910616549948 0 -1 0 0
2158 1 78.14451828006 2.5064865924819983 0.960039772989 -1 0 0
2161 3 79.59163898895 1.6709910616549948 0 -1 0 0
2164 1 81.03875969783999 2.5064865924819983 0.960039772989 -1 0 0
2167 3 82.48588040673 1.6709910616549948 0 -1 0 0
2170 1 83.93300111562 2.5064865924819983 0.960039772989 -1 0 0
2173 3 85.38012182451 1.6709910616549948 0 -1 0 0
2176 1 86.8272425334 2.5064865924819983 0.960039772989 -1 0 0
2179 3 88.27436324229001 1.6709910616549948 0 -1 0 0
2182 1 89.72148395118 2.5064865924819983 0.960039772989 -1 0 0
2185 3 91.16860466007 1.6709910616549948 0 -1 0 0
2188 1 92.61572536896 2.5064865924819983 0.960039772989 -1 0 0
2191 3 94.06284607785 1.6709910616549948 0 -1 0 0
2194 1 95.50996678674 2.5064865924819983 0.960039772989 -1 0 0
2197 3 96.95708749562999 1.6709910616549948 0 -1 0 0
2200 1 98.40420820451999 2.5064865924819983 0.960039772989 -1 0 0
2203 3 99.85132891341 1.6709910616549948 0 -1 0 0
2204 3 0 4.177477654137 0 0 0 0
2210 3 2.8942414177800018 4.177477654137 0 0 0 0
2216 3 5.7884828355600035 4.177477654137 0 0 0 0
2222 3 8.682724253339998 4.177477654137 0 0 0 0
2228 3 11.57696567112 4.177477654137 0 0 0 0
2234 3 14.471207088899995 4.177477654137 0 0 0 0
2240 3 17.365448506680004 4.177477654137 0 0 0 0
2246 3 20.259689924459998 4.177477654137 0 0 0 0
2252 3 23.153931342240007 4.177477654137 0 0 0 0
2258 3 26.04817276002 4.177477654137 0 0 0 0
2264 3 28.942414177799996 4.177477654137 0 0 0 0
2270 3 31.836655595580005 4.177477654137 0 0 0 0
2276 3 34.73089701336 4.177477654137 0 0 0 0
2282 3 37.625138431139995 4.177477654137 0 0 0 0
2288 3 40.51937984892 4.177477654137 0 0 0 0
2294 3 43.4136212667 4.177477654137 0 0 0 0
2300 3 46.30786268448001 4.177477654137 0 0 0 0
2306 3 49.20210410226 4.177477654137 0 0 0 0
2102 3 52.096345520039996 4.177477654137 0 -1 0 0
2108 3 54.99058693782 4.177477654137 0 -1 0 0
2114 3 57.8848283556 4.177477654137 0 -1 0 0
2120 3 60.77906977338 4.177477654137 0 -1 0 0
2126 3 63.673311191159996 4.177477654137 0 -1 0 0
2132 3 66.56755260893999 4.177477654137 0 -1 0 0
2138 3 69.46179402672 4.177477654137 0 -1 0 0
2144 3 72.3560354445 4.177477654137 0 -1 0 0
2150 3 75.25027686228 4.177477654137 0 -1 0 0
2156 3 78.14451828006 4.177477654137 0 -1 0 0
2162 3 81.03875969783999 4.177477654137 0 -1 0 0
2168 3 83.93300111562 4.177477654137 0 -1 0 0
2174 3 86.8272425334 4.177477654137 0 -1 0 0
2180 3 89.72148395118 4.177477654137 0 -1 0 0
2186 3 92.61572536896 4.177477654137 0 -1 0 0
2192 3 95.50996678674 4.177477654137 0 -1 0 0
2198 3 98.40420820451999 4.177477654137 0 -1 0 0
2421 1 1.4471207088900044 5.012973184963997 0.960039772989 0 0 0
2427 1 4.341362126669999 5.012973184963997 0.960039772989 0 0 0
2433 1 7.235603544450001 5.012973184963997 0.960039772989 0 0 0
2439 1 10.129844962230003 5.012973184963997 0.960039772989 0 0 0
2445 1 13.024086380010004 5.012973184963997 0.960039772989 0 0 0
2451 1 15.918327797790006 5.012973184963997 0.960039772989 0 0 0
2457 1 18.81256921557 5.012973184963997 0.960039772989 0 0 0
2463 1 21.706810633349995 5.012973184963997 0.960039772989 0 0 0
2469 1 24.601052051130004 5.012973184963997 0.960039772989 0 0 0
2475 1 27.49529346891 5.012973184963997 0.960039772989 0 0 0
2481 1 30.389534886690008 5.012973184963997 0.960039772989 0 0 0
2487 1 33.28377630447 5.012973184963997 0.960039772989 0 0 0
2493 1 36.17801772225 5.012973184963997 0.960039772989 0 0 0
2499 1 39.072259140030006 5.012973184963997 0.960039772989 0 0 0
2505 1 41.96650055781 5.012973184963997 0.960039772989 0 0 0
2511 1 44.860741975589995 5.012973184963997 0.960039772989 0 0 0
2517 1 47.754983393370004 5.012973184963997 0.960039772989 0 0 0
2313 1 50.64922481115 5.012973184963997 0.960039772989 -1 0 0
2319 1 53.54346622893 5.012973184963997 0.960039772989 -1 0 0
2325 1 56.437707646709995 5.012973184963997 0.960039772989 -1 0 0
2331 1 59.33194906449 5.012973184963997 0.960039772989 -1 0 0
2337 1 62.22619048227 5.012973184963997 0.960039772989 -1 0 0
2343 1 65.12043190005 5.012973184963997 0.960039772989 -1 0 0
2349 1 68.01467331783 5.012973184963997 0.960039772989 -1 0 0
2355 1 70.90891473561 5.012973184963997 0.960039772989 -1 0 0
2361 1 73.80315615339 5.012973184963997 0.960039772989 -1 0 0
2367 1 76.69739757117 5.012973184963997 0.960039772989 -1 0 0
2373 1 79.59163898895 5.012973184963997 0.960039772989 -1 0 0
2379 1 82.48588040673 5.012973184963997 0.960039772989 -1 0 0
2385 1 85.38012182451 5.012973184963997 0.960039772989 -1 0 0
2391 1 88.27436324229001 5.012973184963997 0.960039772989 -1 0 0
2397 1 91.16860466007 5.012973184963997 0.960039772989 -1 0 0
2403 1 94.06284607785 5.012973184963997 0.960039772989 -1 0 0
2409 1 96.95708749562999 5.012973184963997 0.960039772989 -1 0 0
2415 1 99.85132891341 5.012973184963997 0.960039772989 -1 0 0
2419 3 1.4471207088900044 6.683964246618999 0 0 0 0
2425 3 4.341362126669999 6.683964246618999 0 0 0 0
2431 3 7.235603544450001 6.683964246618999 0 0 0 0
2437 3 10.129844962230003 6.683964246618999 0 0 0 0
2443 3 13.024086380010004 6.683964246618999 0 0 0 0
2449 3 15.918327797790006 6.683964246618999 0 0 0 0
2455 3 18.81256921557 6.683964246618999 0 0 0 0
2461 3 21.706810633349995 6.683964246618999 0 0 0 0
2467 3 24.601052051130004 6.683964246618999 0 0 0 0
2473 3 27.49529346891 6.683964246618999 0 0 0 0
2479 3 30.389534886690008 6.683964246618999 0 0 0 0
2485 3 33.28377630447 6.683964246618999 0 0 0 0
2491 3 36.17801772225 6.683964246618999 0 0 0 0
2497 3 39.072259140030006 6.683964246618999 0 0 0 0
2503 3 41.96650055781 6.683964246618999 0 0 0 0
2509 3 44.860741975589995 6.683964246618999 0 0 0 0
2515 3 47.754983393370004 6.683964246618999 0 0 0 0
2311 3 50.64922481115 6.683964246618999 0 -1 0 0
2317 3 53.54346622893 6.683964246618999 0 -1 0 0
2323 3 56.437707646709995 6.683964246618999 0 -1 0 0
2329 3 59.33194906449 6.683964246618999 0 -1 0 0
2335 3 62.22619048227 6.683964246618999 0 -1 0 0
2341 3 65.12043190005 6.683964246618999 0 -1 0 0
2347 3 68.01467331783 6.683964246618999 0 -1 0 0
2353 3 70.90891473561 6.683964246618999 0 -1 0 0
2359 3 73.80315615339 6.683964246618999 0 -1 0 0
2365 3 76.69739757117 6.683964246618999 0 -1 0 0
2371 3 79.59163898895 6.683964246618999 0 -1 0 0
2377 3 82.48588040673 6.683964246618999 0 -1 0 0
2383 3 85.38012182451 6.683964246618999 0 -1 0 0
2389 3 88.27436324229001 6.683964246618999 0 -1 0 0
2395 3 91.16860466007 6.683964246618999 0 -1 0 0
2401 3 94.06284607785 6.683964246618999 0 -1 0 0
2407 3 96.95708749562999 6.683964246618999 0 -1 0 0
2413 3 99.85132891341 6.683964246618999 0 -1 0 0
2416 1 0 7.519459777445995 0.960039772989 0 0 0
2422 1 2.8942414177800018 7.519459777445995 0.960039772989 0 0 0
2428 1 5.7884828355600035 7.519459777445995 0.960039772989 0 0 0
2434 1 8.682724253339998 7.519459777445995 0.960039772989 0 0 0
2440 1 11.57696567112 7.519459777445995 0.960039772989 0 0 0
2446 1 14.471207088899995 7.519459777445995 0.960039772989 0 0 0
2452 1 17.365448506680004 7.519459777445995 0.960039772989 0 0 0
2458 1 20.259689924459998 7.519459777445995 0.960039772989 0 0 0
2464 1 23.153931342240007 7.519459777445995 0.960039772989 0 0 0
2470 1 26.04817276002 7.519459777445995 0.960039772989 0 0 0
2476 1 28.942414177799996 7.519459777445995 0.960039772989 0 0 0
2482 1 31.836655595580005 7.519459777445995 0.960039772989 0 0 0
2488 1 34.73089701336 7.519459777445995 0.960039772989 0 0 0
2494 1 37.625138431139995 7.519459777445995 0.960039772989 0 0 0
2500 1 40.51937984892 7.519459777445995 0.960039772989 0 0 0
2506 1 43.4136212667 7.519459777445995 0.960039772989 0 0 0
2512 1 46.30786268448001 7.519459777445995 0.960039772989 0 0 0
2518 1 49.20210410226 7.519459777445995 0.960039772989 0 0 0
2314 1 52.096345520039996 7.519459777445995 0.960039772989 -1 0 0
2320 1 54.99058693782 7.519459777445995 0.960039772989 -1 0 0
2326 1 57.8848283556 7.519459777445995 0.960039772989 -1 0 0
2332 1 60.77906977338 7.519459777445995 0.960039772989 -1 0 0
2338 1 63.673311191159996 7.519459777445995 0.960039772989 -1 0 0
2344 1 66.56755260893999 7.519459777445995 0.960039772989 -1 0 0
2350 1 69.46179402672 7.519459777445995 0.960039772989 -1 0 0
2356 1 72.3560354445 7.519459777445995 0.960039772989 -1 0 0
2362 1 75.25027686228 7.519459777445995 0.960039772989 -1 0 0
2368 1 78.14451828006 7.519459777445995 0.960039772989 -1 0 0
2374 1 81.03875969783999 7.519459777445995 0.960039772989 -1 0 0
2380 1 83.93300111562 7.519459777445995 0.960039772989 -1 0 0
2386 1 86.8272425334 7.519459777445995 0.960039772989 -1 0 0
2392 1 89.72148395118 7.519459777445995 0.960039772989 -1 0 0
2398 1 92.61572536896 7.519459777445995 0.960039772989 -1 0 0
2404 1 95.50996678674 7.519459777445995 0.960039772989 -1 0 0
2410 1 98.40420820451999 7.519459777445995 0.960039772989 -1 0 0
2414 3 0 9.190450839100997 0 0 0 0
2631 1 1.4471207088900044 10.025946369928 0.960039772989 0 0 0
2420 3 2.8942414177800018 9.190450839100997 0 0 0 0
2637 1 4.341362126669999 10.025946369928 0.960039772989 0 0 0
2426 3 5.7884828355600035 9.190450839100997 0 0 0 0
2643 1 7.235603544450001 10.025946369928 0.960039772989 0 0 0
2432 3 8.682724253339998 9.190450839100997 0 0 0 0
2649 1 10.129844962230003 10.025946369928 0.960039772989 0 0 0
2438 3 11.57696567112 9.190450839100997 0 0 0 0
2655 1 13.024086380010004 10.025946369928 0.960039772989 0 0 0
2444 3 14.471207088899995 9.190450839100997 0 0 0 0
2661 1 15.918327797790006 10.025946369928 0.960039772989 0 0 0
2450 3 17.365448506680004 9.190450839100997 0 0 0 0
2667 1 18.81256921557 10.025946369928 0.960039772989 0 0 0
2456 3 20.259689924459998 9.190450839100997 0 0 0 0
2673 1 21.706810633349995 10.025946369928 0.960039772989 0 0 0
2462 3 23.153931342240007 9.190450839100997 0 0 0 0
2679 1 24.601052051130004 10.025946369928 0.960039772989 0 0 0
2468 3 26.04817276002 9.190450839100997 0 0 0 0
2685 1 27.49529346891 10.025946369928 0.960039772989 0 0 0
2474 3 28.942414177799996 9.190450839100997 0 0 0 0
2691 1 30.389534886690008 10.025946369928 0.960039772989 0 0 0
2480 3 31.836655595580005 9.190450839100997 0 0 0 0
2697 1 33.28377630447 10.025946369928 0.960039772989 0 0 0
2486 3 34.73089701336 9.190450839100997 0 0 0 0
2703 1 36.17801772225 10.025946369928 0.960039772989 0 0 0
2492 3 37.625138431139995 9.190450839100997 0 0 0 0
2709 1 39.072259140030006 10.025946369928 0.960039772989 0 0 0
2498 3 40.51937984892 9.190450839100997 0 0 0 0
2715 1 41.96650055781 10.025946369928 0.960039772989 0 0 0
2504 3 43.4136212667 9.190450839100997 0 0 0 0
2721 1 44.860741975589995 10.025946369928 0.960039772989 0 0 0
2510 3 46.30786268448001 9.190450839100997 0 0 0 0
2727 1 47.754983393370004 10.025946369928 0.960039772989 0 0 0
2516 3 49.20210410226 9.190450839100997 0 0 0 0
2523 1 50.64922481115 10.025946369928 0.960039772989 -1 0 0
2312 3 52.096345520039996 9.190450839100997 0 -1 0 0
2529 1 53.54346622893 10.025946369928 0.960039772989 -1 0 0
2318 3 54.99058693782 9.190450839100997 0 -1 0 0
2535 1 56.437707646709995 10.025946369928 0.960039772989 -1 0 0
2324 3 57.8848283556 9.190450839100997 0 -1 0 0
2541 1 59.33194906449 10.025946369928 0.960039772989 -1 0 0
2330 3 60.77906977338 9.190450839100997 0 -1 0 0
2547 1 62.22619048227 10.025946369928 0.960039772989 -1 0 0
2336 3 63.673311191159996 9.190450839100997 0 -1 0 0
2553 1 65.12043190005 10.025946369928 0.960039772989 -1 0 0
2342 3 66.56755260893999 9.190450839100997 0 -1 0 0
2559 1 68.01467331783 10.025946369928 0.960039772989 -1 0 0
2348 3 69.46179402672 9.190450839100997 0 -1 0 0
2565 1 70.90891473561 10.025946369928 0.960039772989 -1 0 0
2354 3 72.3560354445 9.190450839100997 0 -1 0 0
2571 1 73.80315615339 10.025946369928 0.960039772989 -1 0 0
2360 3 75.25027686228 9.190450839100997 0 -1 0 0
2577 1 76.69739757117 10.025946369928 0.960039772989 -1 0 0
2366 3 78.14451828006 9.190450839100997 0 -1 0 0
2583 1 79.59163898895 10.025946369928 0.960039772989 -1 0 0
2372 3 81.03875969783999 9.190450839100997 0 -1 0 0
2589 1 82.48588040673 10.025946369928 0.960039772989 -1 0 0
2378 3 83.93300111562 9.190450839100997 0 -1 0 0
2595 1 85.38012182451 10.025946369928 0.960039772989 -1 0 0
2384 3 86.8272425334 9.190450839100997 0 -1 0 0
2601 1 88.27436324229001 10.025946369928 0.960039772989 -1 0 0
2390 3 89.72148395118 9.190450839100997 0 -1 0 0
2607 1 91.16860466007 10.025946369928 0.960039772989 -1 0 0
2396 3 92.61572536896 9.190450839100997 0 -1 0 0
2613 1 94.06284607785 10.025946369928 0.960039772989 -1 0 0
2402 3 95.50996678674 9.190450839100997 0 -1 0 0
2619 1 96.95708749562999 10.025946369928 0.960039772989 -1 0 0
2408 3 98.40420820451999 9.190450839100997 0 -1 0 0
2625 1 99.85132891341 10.025946369928 0.960039772989 -1 0 0
2629 3 1.4471207088900044 11.696937431582995 0 0 0 0
2635 3 4.341362126669999 11.696937431582995 0 0 0 0
2641 3 7.235603544450001 11.696937431582995 0 0 0 0
2647 3 10.129844962230003 11.696937431582995 0 0 0 0
2653 3 13.024086380010004 11.696937431582995 0 0 0 0
2659 3 15.918327797790006 11.696937431582995 0 0 0 0
2665 3 18.81256921557 11.696937431582995 0 0 0 0
2671 3 21.706810633349995 11.696937431582995 0 0 0 0
2677 3 24.601052051130004 11.696937431582995 0 0 0 0
2683 3 27.49529346891 11.696937431582995 0 0 0 0
2689 3 30.389534886690008 11.696937431582995 0 0 0 0
2695 3 33.28377630447 11.696937431582995 0 0 0 0
2701 3 36.17801772225 11.696937431582995 0 0 0 0
2707 3 39.072259140030006 11.696937431582995 0 0 0 0
2713 3 41.96650055781 11.696937431582995 0 0 0 0
2719 3 44.860741975589995 11.696937431582995 0 0 0 0
2725 3 47.754983393370004 11.696937431582995 0 0 0 0
2521 3 50.64922481115 11.696937431582995 0 -1 0 0
2527 3 53.54346622893 11.696937431582995 0 -1 0 0
2533 3 56.437707646709995 11.696937431582995 0 -1 0 0
2539 3 59.33194906449 11.696937431582995 0 -1 0 0
2545 3 62.22619048227 11.696937431582995 0 -1 0 0
2551 3 65.12043190005 11.696937431582995 0 -1 0 0
2557 3 68.01467331783 11.696937431582995 0 -1 0 0
2563 3 70.90891473561 11.696937431582995 0 -1 0 0
2569 3 73.80315615339 11.696937431582995 0 -1 0 0
2575 3 76.69739757117 11.696937431582995 0 -1 0 0
2581 3 79.59163898895 11.696937431582995 0 -1 0 0
2587 3 82.48588040673 11.696937431582995 0 -1 0 0
2593 3 85.38012182451 11.696937431582995 0 -1 0 0
2599 3 88.27436324229001 11.696937431582995 0 -1 0 0
2605 3 91.16860466007 11.696937431582995 0 -1 0 0
2611 3 94.06284607785 11.696937431582995 0 -1 0 0
2617 3 96.95708749562999 11.696937431582995 0 -1 0 0
2623 3 99.85132891341 11.696937431582995 0 -1 0 0
2626 1 0 12.532432962409999 0.960039772989 0 0 0
2632 1 2.8942414177800018 12.532432962409999 0.960039772989 0 0 0
2638 1 5.7884828355600035 12.532432962409999 0.960039772989 0 0 0
2644 1 8.682724253339998 12.532432962409999 0.960039772989 0 0 0
2650 1 11.57696567112 12.532432962409999 0.960039772989 0 0 0
2656 1 14.471207088899995 12.532432962409999 0.960039772989 0 0 0
2662 1 17.365448506680004 12.532432962409999 0.960039772989 0 0 0
2668 1 20.259689924459998 12.532432962409999 0.960039772989 0 0 0
2674 1 23.153931342240007 12.532432962409999 0.960039772989 0 0 0
2680 1 26.04817276002 12.532432962409999 0.960039772989 0 0 0
2686 1 28.942414177799996 12.532432962409999 0.960039772989 0 0 0
2692 1 31.836655595580005 12.532432962409999 0.960039772989 0 0 0
2698 1 34.73089701336 12.532432962409999 0.960039772989 0 0 0
2704 1 37.625138431139995 12.532432962409999 0.960039772989 0 0 0
2710 1 40.51937984892 12.532432962409999 0.960039772989 0 0 0
2716 1 43.4136212667 12.532432962409999 0.960039772989 0 0 0
2722 1 46.30786268448001 12.532432962409999 0.960039772989 0 0 0
2728 1 49.20210410226 12.532432962409999 0.960039772989 0 0 0
2524 1 52.096345520039996 12.532432962409999 0.960039772989 -1 0 0
2530 1 54.99058693782 12.532432962409999 0.960039772989 -1 0 0
2536 1 57.8848283556 12.532432962409999 0.960039772989 -1 0 0
2542 1 60.77906977338 12.532432962409999 0.960039772989 -1 0 0
2548 1 63.673311191159996 12.532432962409999 0.960039772989 -1 0 0
2554 1 66.56755260893999 12.532432962409999 0.960039772989 -1 0 0
2560 1 69.46179402672 12.532432962409999 0.960039772989 -1 0 0
2566 1 72.3560354445 12.532432962409999 0.960039772989 -1 0 0
2572 1 75.25027686228 12.532432962409999 0.960039772989 -1 0 0
2578 1 78.14451828006 12.532432962409999 0.960039772989 -1 0 0
2584 1 81.03875969783999 12.532432962409999 0.960039772989 -1 0 0
2590 1 83.93300111562 12.532432962409999 0.960039772989 -1 0 0
2596 1 86.8272425334 12.532432962409999 0.960039772989 -1 0 0
2602 1 89.72148395118 12.532432962409999 0.960039772989 -1 0 0
2608 1 92.61572536896 12.532432962409999 0.960039772989 -1 0 0
2614 1 95.50996678674 12.532432962409999 0.960039772989 -1 0 0
2620 1 98.40420820451999 12.532432962409999 0.960039772989 -1 0 0
2624 3 0 14.203424024064994 0 0 0 0
2630 3 2.8942414177800018 14.203424024064994 0 0 0 0
2636 3 5.7884828355600035 14.203424024064994 0 0 0 0
2642 3 8.682724253339998 14.203424024064994 0 0 0 0
2648 3 11.57696567112 14.203424024064994 0 0 0 0
2654 3 14.471207088899995 14.203424024064994 0 0 0 0
2660 3 17.365448506680004 14.203424024064994 0 0 0 0
2666 3 20.259689924459998 14.203424024064994 0 0 0 0
2672 3 23.153931342240007 14.203424024064994 0 0 0 0
2678 3 26.04817276002 14.203424024064994 0 0 0 0
2684 3 28.942414177799996 14.203424024064994 0 0 0 0
2690 3 31.836655595580005 14.203424024064994 0 0 0 0
2696 3 34.73089701336 14.203424024064994 0 0 0 0
2702 3 37.625138431139995 14.203424024064994 0 0 0 0
2708 3 40.51937984892 14.203424024064994 0 0 0 0
2714 3 43.4136212667 14.203424024064994 0 0 0 0
2720 3 46.30786268448001 14.203424024064994 0 0 0 0
2726 3 49.20210410226 14.203424024064994 0 0 0 0
2522 3 52.096345520039996 14.203424024064994 0 -1 0 0
2528 3 54.99058693782 14.203424024064994 0 -1 0 0
2534 3 57.8848283556 14.203424024064994 0 -1 0 0
2540 3 60.77906977338 14.203424024064994 0 -1 0 0
2546 3 63.673311191159996 14.203424024064994 0 -1 0 0
2552 3 66.56755260893999 14.203424024064994 0 -1 0 0
2558 3 69.46179402672 14.203424024064994 0 -1 0 0
2564 3 72.3560354445 14.203424024064994 0 -1 0 0
2570 3 75.25027686228 14.203424024064994 0 -1 0 0
2576 3 78.14451828006 14.203424024064994 0 -1 0 0
2582 3 81.03875969783999 14.203424024064994 0 -1 0 0
2588 3 83.93300111562 14.203424024064994 0 -1 0 0
2594 3 86.8272425334 14.203424024064994 0 -1 0 0
2600 3 89.72148395118 14.203424024064994 0 -1 0 0
2606 3 92.61572536896 14.203424024064994 0 -1 0 0
2612 3 95.50996678674 14.203424024064994 0 -1 0 0
2618 3 98.40420820451999 14.203424024064994 0 -1 0 0
2841 1 1.4471207088900044 15.038919554891997 0.960039772989 0 0 0
2847 1 4.341362126669999 15.038919554891997 0.960039772989 0 0 0
2853 1 7.235603544450001 15.038919554891997 0.960039772989 0 0 0
2859 1 10.129844962230003 15.038919554891997 0.960039772989 0 0 0
2865 1 13.024086380010004 15.038919554891997 0.960039772989 0 0 0
2871 1 15.918327797790006 15.038919554891997 0.960039772989 0 0 0
2877 1 18.81256921557 15.038919554891997 0.960039772989 0 0 0
2883 1 21.706810633349995 15.038919554891997 0.960039772989 0 0 0
2889 1 24.601052051130004 15.038919554891997 0.960039772989 0 0 0
2895 1 27.49529346891 15.038919554891997 0.960039772989 0 0 0
2901 1 30.389534886690008 15.038919554891997 0.960039772989 0 0 0
2907 1 33.28377630447 15.038919554891997 0.960039772989 0 0 0
2913 1 36.17801772225 15.038919554891997 0.960039772989 0 0 0
2919 1 39.072259140030006 15.038919554891997 0.960039772989 0 0 0
2925 1 41.96650055781 15.038919554891997 0.960039772989 0 0 0
2931 1 44.860741975589995 15.038919554891997 0.960039772989 0 0 0
2937 1 47.754983393370004 15.038919554891997 0.960039772989 0 0 0
2733 1 50.64922481115 15.038919554891997 0.960039772989 -1 0 0
2739 1 53.54346622893 15.038919554891997 0.960039772989 -1 0 0
2745 1 56.437707646709995 15.038919554891997 0.960039772989 -1 0 0
2751 1 59.33194906449 15.038919554891997 0.960039772989 -1 0 0
2757 1 62.22619048227 15.038919554891997 0.960039772989 -1 0 0
2763 1 65.12043190005 15.038919554891997 0.960039772989 -1 0 0
2769 1 68.01467331783 15.038919554891997 0.960039772989 -1 0 0
2775 1 70.90891473561 15.038919554891997 0.960039772989 -1 0 0
2781 1 73.80315615339 15.038919554891997 0.960039772989 -1 0 0
2787 1 76.69739757117 15.038919554891997 0.960039772989 -1 0 0
2793 1 79.59163898895 15.038919554891997 0.960039772989 -1 0 0
2799 1 82.48588040673 15.038919554891997 0.960039772989 -1 0 0
2805 1 85.38012182451 15.038919554891997 0.960039772989 -1 0 0
2811 1 88.27436324229001 15.038919554891997 0.960039772989 -1 0 0
2817 1 91.16860466007 15.038919554891997 0.960039772989 -1 0 0
2823 1 94.06284607785 15.038919554891997 0.960039772989 -1 0 0
2829 1 96.95708749562999 15.038919554891997 0.960039772989 -1 0 0
2835 1 99.85132891341 15.038919554891997 0.960039772989 -1 0 0
2836 1 0 17.545406147374003 0.960039772989 0 0 0
2839 3 1.4471207088900044 16.709910616547 0 0 0 0
2842 1 2.8942414177800018 17.545406147374003 0.960039772989 0 0 0
2845 3 4.341362126669999 16.709910616547 0 0 0 0
2848 1 5.7884828355600035 17.545406147374003 0.960039772989 0 0 0
2851 3 7.235603544450001 16.709910616547 0 0 0 0
2854 1 8.682724253339998 17.545406147374003 0.960039772989 0 0 0
2857 3 10.129844962230003 16.709910616547 0 0 0 0
2860 1 11.57696567112 17.545406147374003 0.960039772989 0 0 0
2863 3 13.024086380010004 16.709910616547 0 0 0 0
2866 1 14.471207088899995 17.545406147374003 0.960039772989 0 0 0
2869 3 15.918327797790006 16.709910616547 0 0 0 0
2872 1 17.365448506680004 17.545406147374003 0.960039772989 0 0 0
2875 3 18.81256921557 16.709910616547 0 0 0 0
2878 1 20.259689924459998 17.545406147374003 0.960039772989 0 0 0
2881 3 21.706810633349995 16.709910616547 0 0 0 0
2884 1 23.153931342240007 17.545406147374003 0.960039772989 0 0 0
2887 3 24.601052051130004 16.709910616547 0 0 0 0
2890 1 26.04817276002 17.545406147374003 0.960039772989 0 0 0
2893 3 27.49529346891 16.709910616547 0 0 0 0
2896 1 28.942414177799996 17.545406147374003 0.960039772989 0 0 0
2899 3 30.389534886690008 16.709910616547 0 0 0 0
2902 1 31.836655595580005 17.545406147374003 0.960039772989 0 0 0
2905 3 33.28377630447 16.709910616547 0 0 0 0
2908 1 34.73089701336 17.545406147374003 0.960039772989 0 0 0
2911 3 36.17801772225 16.709910616547 0 0 0 0
2914 1 37.625138431139995 17.545406147374003 0.960039772989 0 0 0
2917 3 39.072259140030006 16.709910616547 0 0 0 0
2920 1 40.51937984892 17.545406147374003 0.960039772989 0 0 0
2923 3 41.96650055781 16.709910616547 0 0 0 0
2926 1 43.4136212667 17.545406147374003 0.960039772989 0 0 0
2929 3 44.860741975589995 16.709910616547 0 0 0 0
2932 1 46.30786268448001 17.545406147374003 0.960039772989 0 0 0
2935 3 47.754983393370004 16.709910616547 0 0 0 0
2938 1 49.20210410226 17.545406147374003 0.960039772989 0 0 0
2731 3 50.64922481115 16.709910616547 0 -1 0 0
2734 1 52.096345520039996 17.545406147374003 0.960039772989 -1 0 0
2737 3 53.54346622893 16.709910616547 0 -1 0 0
2740 1 54.99058693782 17.545406147374003 0.960039772989 -1 0 0
2743 3 56.437707646709995 16.709910616547 0 -1 0 0
2746 1 57.8848283556 17.545406147374003 0.960039772989 -1 0 0
2749 3 59.33194906449 16.709910616547 0 -1 0 0
2752 1 60.77906977338 17.545406147374003 0.960039772989 -1 0 0
2755 3 62.22619048227 16.709910616547 0 -1 0 0
2758 1 63.673311191159996 17.545406147374003 0.960039772989 -1 0 0
2761 3 65.12043190005 16.709910616547 0 -1 0 0
2764 1 66.56755260893999 17.545406147374003 0.960039772989 -1 0 0
2767 3 68.01467331783 16.709910616547 0 -1 0 0
2770 1 69.46179402672 17.545406147374003 0.960039772989 -1 0 0
2773 3 70.90891473561 16.709910616547 0 -1 0 0
2776 1 72.3560354445 17.545406147374003 0.960039772989 -1 0 0
2779 3 73.80315615339 16.709910616547 0 -1 0 0
2782 1 75.25027686228 17.545406147374003 0.960039772989 -1 0 0
2785 3 76.69739757117 16.709910616547 0 -1 0 0
2788 1 78.14451828006 17.545406147374003 0.960039772989 -1 0 0
2791 3 79.59163898895 16.709910616547 0 -1 0 0
2794 1 81.03875969783999 17.545406147374003 0.960039772989 -1 0 0
2797 3 82.48588040673 16.709910616547 0 -1 0 0
2800 1 83.93300111562 17.545406147374003 0.960039772989 -1 0 0
2803 3 85.38012182451 16.709910616547 0 -1 0 0
2806 1 86.8272425334 17.545406147374003 0.960039772989 -1 0 0
2809 3 88.27436324229001 16.709910616547 0 -1 0 0
2812 1 89.72148395118 17.545406147374003 0.960039772989 -1 0 0
2815 3 91.16860466007 16.709910616547 0 -1 0 0
2818 1 92.61572536896 17.545406147374003 0.960039772989 -1 0 0
2821 3 94.06284607785 16.709910616547 0 -1 0 0
2824 1 95.50996678674 17.545406147374003 0.960039772989 -1 0 0
2827 3 96.95708749562999 16.709910616547 0 -1 0 0
2830 1 98.40420820451999 17.545406147374003 0.960039772989 -1 0 0
2833 3 99.85132891341 16.709910616547 0 -1 0 0
2834 3 0 19.216397209029005 0 0 0 0
3051 1 1.4471207088900044 20.051892739855994 0.960039772989 0 0 0
2840 3 2.8942414177800018 19.216397209029005 0 0 0 0
3057 1 4.341362126669999 20.051892739855994 0.960039772989 0 0 0
2846 3 5.7884828355600035 19.216397209029005 0 0 0 0
3063 1 7.235603544450001 20.051892739855994 0.960039772989 0 0 0
2852 3 8.682724253339998 19.216397209029005 0 0 0 0
3069 1 10.129844962230003 20.051892739855994 0.960039772989 0 0 0