LAMMPS data file via write_data, version 29 Aug 2024, timestep = 2, units = metal

8400 atoms
6 atom types

0 101.2984496223 xlo xhi
0 100.25946369928 ylo yhi
-50 50 zlo zhi

Masses

1 54.938044
2 54.938044
3 15.999
4 15.999
5 15.999
6 15.999

Atoms # atomic

2209 4 1.4471200657861405 1.6709911112708686 0.047192240251794 0 0 0
2212 1 2.8942368779103034 2.5064834353027154 0.9606983929082867 0 0 0
2215 4 4.341361483566139 1.6709911112708686 0.04719224025179393 0 0 0
2218 1 5.7884782956903065 2.5064834353027154 0.9606983929082868 0 0 0
2210 4 2.8942407746761396 4.177477703752874 0.04719224025179823 0 0 0
2216 4 5.78848219245614 4.177477703752873 0.04719224025179644 0 0 0
2421 1 1.4471161690203065 5.012970027784708 0.9606983929082838 0 0 0
2427 1 4.341357586800299 5.012970027784708 0.9606983929082841 0 0 0
2213 3 2.8942381990573627 0.8354930620914773 1.8737379572550754 0 0 0
2219 3 5.788479616837363 0.8354930620914783 1.873737957255077 0 0 0
2214 3 1.4471174901673636 3.34197965457348 1.8737379572550765 0 0 0
2220 3 4.341358907947362 3.3419796545734797 1.8737379572550765 0 0 0
2423 3 2.8942381990573627 5.848466247055483 1.8737379572550776 0 0 0
2429 3 5.788479616837363 5.848466247055484 1.8737379572550794 0 0 0
2221 4 7.235602901346139 1.6709911112708697 0.0471922402517958 0 0 0
2224 1 8.682719713470298 2.506483435302715 0.9606983929082863 0 0 0
2227 4 10.129844319126141 1.670991111270869 0.047192240251794644 0 0 0
2230 1 11.5769611312503 2.506483435302716 0.9606983929082873 0 0 0
2222 4 8.682723610236138 4.177477703752873 0.04719224025179653 0 0 0
2228 4 11.576965028016136 4.177477703752873 0.047192240251796434 0 0 0
2433 1 7.235599004580303 5.012970027784708 0.9606983929082836 0 0 0
2439 1 10.129840422360305 5.012970027784708 0.9606983929082844 0 0 0
2225 3 8.682721034617362 0.8354930620914783 1.8737379572550767 0 0 0
2231 3 11.576962452397359 0.8354930620914784 1.8737379572550772 0 0 0
2226 3 7.235600325727362 3.341979654573479 1.8737379572550745 0 0 0
2232 3 10.129841743507365 3.3419796545734792 1.8737379572550756 0 0 0
2435 3 8.682721034617362 5.848466247055484 1.8737379572550792 0 0 0
2441 3 11.576962452397359 5.848466247055484 1.8737379572550794 0 0 0
2233 4 13.024085736906143 1.6709911112708697 0.04719224025179589 0 0 0
2236 1 14.471202549030291 2.5064834353027154 0.9606983929082866 0 0 0
2239 4 15.918327154686144 1.6709911112708682 0.04719224025179328 0 0 0
2242 1 17.365443966810304 2.5064834353027154 0.9606983929082866 0 0 0
2234 4 14.471206445796136 4.177477703752873 0.047192240251797496 0 0 0
2240 4 17.36544786357614 4.177477703752874 0.04719224025179823 0 0 0
2445 1 13.024081840140308 5.012970027784708 0.9606983929082837 0 0 0
2451 1 15.91832325792031 5.012970027784708 0.9606983929082846 0 0 0
2237 3 14.47120387017736 0.8354930620914774 1.873737957255076 0 0 0
2243 3 17.36544528795736 0.8354930620914772 1.8737379572550754 0 0 0
2238 3 13.024083161287367 3.341979654573479 1.8737379572550743 0 0 0
2244 3 15.918324579067367 3.34197965457348 1.8737379572550772 0 0 0
2447 3 14.47120387017736 5.848466247055483 1.8737379572550783 0 0 0
2453 3 17.36544528795736 5.848466247055483 1.8737379572550776 0 0 0
2245 4 18.81256857246614 1.670991111270868 0.04719224025179328 0 0 0
2248 1 20.259685384590302 2.506483435302715 0.9606983929082857 0 0 0
2251 4 21.70680999024614 1.670991111270869 0.04719224025179442 0 0 0
2254 1 23.15392680237031 2.5064834353027163 0.9606983929082873 0 0 0
2246 4 20.259689281356142 4.177477703752874 0.047192240251798113 0 0 0
2252 4 23.153930699136144 4.177477703752873 0.04719224025179698 0 0 0
2457 1 18.8125646757003 5.012970027784708 0.9606983929082841 0 0 0
2463 1 21.706806093480292 5.012970027784708 0.9606983929082837 0 0 0
2249 3 20.259686705737366 0.8354930620914772 1.8737379572550752 0 0 0
2255 3 23.153928123517364 0.8354930620914777 1.8737379572550767 0 0 0
2250 3 18.81256599684736 3.3419796545734806 1.873737957255077 0 0 0
2256 3 21.70680741462736 3.3419796545734797 1.8737379572550759 0 0 0
2459 3 20.259686705737366 5.848466247055483 1.8737379572550776 0 0 0
2465 3 23.153928123517364 5.848466247055484 1.873737957255079 0 0 0
2257 4 24.60105140802614 1.6709911112708697 0.04719224025179565 0 0 0
2260 1 26.048168220150302 2.5064834353027154 0.9606983929082866 0 0 0
2263 4 27.495292825806143 1.6709911112708697 0.04719224025179556 0 0 0
2266 1 28.942409637930293 2.506483435302716 0.9606983929082865 0 0 0
2258 4 26.04817211691614 4.1774777037528725 0.0471922402517957 0 0 0
2264 4 28.94241353469614 4.177477703752873 0.047192240251797066 0 0 0
2469 1 24.6010475112603 5.012970027784708 0.9606983929082842 0 0 0
2475 1 27.495288929040303 5.012970027784707 0.9606983929082833 0 0 0
2261 3 26.048169541297362 0.8354930620914788 1.8737379572550779 0 0 0
2267 3 28.94241095907736 0.8354930620914778 1.8737379572550765 0 0 0
2262 3 24.60104883240736 3.341979654573479 1.8737379572550747 0 0 0
2268 3 27.495290250187367 3.341979654573479 1.8737379572550745 0 0 0
2471 3 26.048169541297362 5.848466247055485 1.87373795725508 0 0 0
2477 3 28.94241095907736 5.848466247055484 1.8737379572550787 0 0 0
2269 4 30.389534243586144 1.670991111270869 0.047192240251794346 0 0 0
2272 1 31.836651055710302 2.5064834353027146 0.9606983929082848 0 0 0
2275 4 33.28377566136614 1.6709911112708682 0.047192240251793326 0 0 0
2278 1 34.7308924734903 2.5064834353027154 0.9606983929082866 0 0 0
2270 4 31.83665495247614 4.177477703752874 0.047192240251797975 0 0 0
2276 4 34.73089637025614 4.1774777037528725 0.04719224025179585 0 0 0
2481 1 30.38953034682031 5.012970027784709 0.9606983929082846 0 0 0
2487 1 33.2837717646003 5.012970027784707 0.9606983929082825 0 0 0
2273 3 31.836652376857362 0.8354930620914773 1.8737379572550754 0 0 0
2279 3 34.73089379463736 0.8354930620914786 1.8737379572550776 0 0 0
2274 3 30.389531667967365 3.3419796545734792 1.8737379572550759 0 0 0
2280 3 33.28377308574736 3.3419796545734806 1.8737379572550767 0 0 0
2483 3 31.836652376857362 5.848466247055483 1.8737379572550776 0 0 0
2489 3 34.73089379463736 5.848466247055485 1.8737379572550799 0 0 0
2281 4 36.17801707914614 1.6709911112708689 0.04719224025179477 0 0 0
2284 1 37.625133891270295 2.5064834353027168 0.9606983929082883 0 0 0
2287 4 39.07225849692614 1.6709911112708695 0.047192240251795255 0 0 0
2290 1 40.519375309050304 2.5064834353027146 0.9606983929082848 0 0 0
2282 4 37.625137788036135 4.177477703752873 0.04719224025179636 0 0 0
2288 4 40.519379205816136 4.177477703752874 0.04719224025179882 0 0 0
2493 1 36.1780131823803 5.012970027784709 0.9606983929082858 0 0 0
2499 1 39.072254600160306 5.012970027784708 0.9606983929082838 0 0 0
2285 3 37.625135212417355 0.835493062091478 1.8737379572550776 0 0 0
2291 3 40.51937663019736 0.835493062091477 1.8737379572550745 0 0 0
2286 3 36.178014503527365 3.3419796545734792 1.8737379572550756 0 0 0
2292 3 39.07225592130736 3.3419796545734792 1.873737957255075 0 0 0
2495 3 37.625135212417355 5.848466247055484 1.8737379572550796 0 0 0
2501 3 40.51937663019736 5.848466247055483 1.8737379572550767 0 0 0
2293 4 41.96649991470614 1.6709911112708684 0.047192240251793235 0 0 0
2296 1 43.4136167268303 2.5064834353027163 0.9606983929082883 0 0 0
2299 4 44.860741332486135 1.6709911112708686 0.04719224025179371 0 0 0
2302 1 46.30785814461031 2.506483435302716 0.9606983929082865 0 0 0
2294 4 43.41362062359614 4.177477703752873 0.04719224025179731 0 0 0
2300 4 46.30786204137614 4.177477703752874 0.04719224025179789 0 0 0
2505 1 41.9664960179403 5.012970027784707 0.9606983929082824 0 0 0
2511 1 44.860737435720296 5.012970027784709 0.9606983929082855 0 0 0
2297 3 43.413618047977366 0.8354930620914777 1.8737379572550763 0 0 0
2303 3 46.30785946575736 0.8354930620914773 1.8737379572550756 0 0 0
2298 3 41.96649733908736 3.3419796545734806 1.873737957255077 0 0 0
2304 3 44.860738756867356 3.3419796545734797 1.8737379572550767 0 0 0
2507 3 43.413618047977366 5.848466247055484 1.8737379572550787 0 0 0
2513 3 46.30785946575736 5.848466247055483 1.8737379572550779 0 0 0
2305 4 47.75498275026614 1.67099111127087 0.047192240251796275 0 0 0
2308 1 49.2020995623903 2.5064834353027146 0.9606983929082852 0 0 0
2101 4 50.64922416804614 1.6709911112708689 0.047192240251794984 -1 0 0
2104 1 52.0963409801703 2.5064834353027163 0.9606983929082884 -1 0 0
2107 4 53.54346558582614 1.6709911112708684 0.04719224025179359 -1 0 0
2306 4 49.20210345915614 4.1774777037528725 0.0471922402517956 0 0 0
2102 4 52.096344876936136 4.1774777037528725 0.04719224025179618 -1 0 0
2517 1 47.754978853500305 5.012970027784707 0.9606983929082824 0 0 0
2313 1 50.6492202712803 5.012970027784709 0.9606983929082857 -1 0 0
2319 1 53.54346168906031 5.012970027784707 0.9606983929082823 -1 0 0
2309 3 49.20210088353736 0.8354930620914787 1.8737379572550779 0 0 0
2105 3 52.09634230131736 0.8354930620914783 1.8737379572550774 -1 0 0
2310 3 47.75498017464736 3.3419796545734783 1.8737379572550736 0 0 0
2106 3 50.64922159242737 3.3419796545734792 1.8737379572550756 -1 0 0
2112 3 53.54346301020736 3.34197965457348 1.8737379572550767 -1 0 0
2519 3 49.20210088353736 5.848466247055485 1.87373795725508 0 0 0
2315 3 52.09634230131736 5.848466247055485 1.8737379572550799 -1 0 0
2110 1 54.9905823979503 2.5064834353027154 0.9606983929082866 -1 0 0
2113 4 56.437707003606135 1.6709911112708682 0.047192240251793555 -1 0 0
2116 1 57.88482381573031 2.5064834353027154 0.9606983929082866 -1 0 0
2119 4 59.33194842138614 1.6709911112708695 0.0471922402517951 -1 0 0
2108 4 54.99058629471614 4.177477703752874 0.047192240251798974 -1 0 0
2114 4 57.88482771249614 4.177477703752874 0.04719224025179757 -1 0 0
2325 1 56.437703106840296 5.012970027784709 0.9606983929082856 -1 0 0
2331 1 59.3319445246203 5.012970027784708 0.960698392908284 -1 0 0
2111 3 54.99058371909736 0.8354930620914768 1.8737379572550745 -1 0 0
2117 3 57.88482513687736 0.8354930620914776 1.873737957255076 -1 0 0
2118 3 56.437704427987356 3.34197965457348 1.8737379572550772 -1 0 0
2124 3 59.33194584576736 3.3419796545734792 1.8737379572550752 -1 0 0
2321 3 54.99058371909736 5.848466247055483 1.873737957255077 -1 0 0
2327 3 57.88482513687736 5.848466247055484 1.8737379572550785 -1 0 0
2122 1 60.7790652335103 2.5064834353027154 0.9606983929082867 -1 0 0
2125 4 62.22618983916613 1.6709911112708693 0.047192240251794984 -1 0 0
2128 1 63.67330665129029 2.5064834353027154 0.9606983929082867 -1 0 0
2131 4 65.12043125694613 1.67099111127087 0.04719224025179626 -1 0 0
2120 4 60.77906913027614 4.1774777037528725 0.04719224025179601 -1 0 0
2126 4 63.673310548056136 4.1774777037528725 0.0471922402517956 -1 0 0
2337 1 62.2261859424003 5.012970027784707 0.9606983929082824 -1 0 0
2343 1 65.1204273601803 5.012970027784709 0.9606983929082858 -1 0 0
2123 3 60.77906655465736 0.8354930620914787 1.8737379572550774 -1 0 0
2129 3 63.67330797243736 0.8354930620914789 1.8737379572550779 -1 0 0
2130 3 62.22618726354736 3.3419796545734792 1.8737379572550752 -1 0 0
2136 3 65.12042868132735 3.3419796545734783 1.873737957255074 -1 0 0
2333 3 60.77906655465736 5.848466247055485 1.8737379572550796 -1 0 0
2339 3 63.67330797243736 5.848466247055485 1.87373795725508 -1 0 0
2134 1 66.56754806907028 2.506483435302716 0.9606983929082864 -1 0 0
2137 4 68.01467267472614 1.6709911112708684 0.04719224025179373 -1 0 0
2140 1 69.4617894868503 2.5064834353027154 0.9606983929082866 -1 0 0
2143 4 70.90891409250614 1.6709911112708702 0.047192240251796046 -1 0 0
2132 4 66.56755196583613 4.177477703752873 0.04719224025179608 -1 0 0
2138 4 69.46179338361614 4.177477703752874 0.04719224025179884 -1 0 0
2349 1 68.01466877796031 5.012970027784708 0.9606983929082841 -1 0 0
2355 1 70.9089101957403 5.012970027784708 0.9606983929082841 -1 0 0
2135 3 66.56754939021735 0.8354930620914781 1.8737379572550776 -1 0 0
2141 3 69.46179080799736 0.8354930620914772 1.8737379572550747 -1 0 0
2142 3 68.01467009910736 3.34197965457348 1.8737379572550765 -1 0 0
2148 3 70.90891151688736 3.3419796545734783 1.8737379572550743 -1 0 0
2345 3 66.56754939021735 5.848466247055484 1.8737379572550796 -1 0 0
2351 3 69.46179080799736 5.848466247055483 1.873737957255077 -1 0 0
2146 1 72.35603090463029 2.506483435302716 0.9606983929082864 -1 0 0
2149 4 73.80315551028615 1.6709911112708684 0.04719224025179372 -1 0 0
2152 1 75.2502723224103 2.5064834353027154 0.9606983929082865 -1 0 0
2155 4 76.69739692806614 1.6709911112708682 0.047192240251793575 -1 0 0
2144 4 72.35603480139613 4.177477703752873 0.047192240251795955 -1 0 0
2150 4 75.25027621917614 4.177477703752874 0.047192240251799196 -1 0 0
2361 1 73.80315161352031 5.012970027784708 0.9606983929082841 -1 0 0
2367 1 76.6973930313003 5.012970027784708 0.9606983929082842 -1 0 0
2147 3 72.35603222577735 0.8354930620914781 1.8737379572550776 -1 0 0
2153 3 75.25027364355736 0.8354930620914769 1.8737379572550745 -1 0 0
2154 3 73.80315293466737 3.34197965457348 1.8737379572550767 -1 0 0
2160 3 76.69739435244736 3.34197965457348 1.8737379572550767 -1 0 0
2357 3 72.35603222577735 5.848466247055484 1.8737379572550796 -1 0 0
2363 3 75.25027364355736 5.848466247055483 1.8737379572550765 -1 0 0
2158 1 78.14451374019029 2.5064834353027154 0.9606983929082866 -1 0 0
2161 4 79.59163834584614 1.6709911112708702 0.04719224025179613 -1 0 0
2164 1 81.03875515797029 2.506483435302716 0.9606983929082864 -1 0 0
2167 4 82.48587976362614 1.6709911112708684 0.04719224025179373 -1 0 0
2156 4 78.14451763695614 4.1774777037528725 0.04719224025179566 -1 0 0
2162 4 81.03875905473613 4.177477703752873 0.04719224025179594 -1 0 0
2373 1 79.5916344490803 5.012970027784708 0.9606983929082842 -1 0 0
2379 1 82.48587586686031 5.012970027784708 0.9606983929082841 -1 0 0
2159 3 78.14451506133736 0.8354930620914788 1.8737379572550779 -1 0 0
2165 3 81.03875647911735 0.8354930620914781 1.8737379572550776 -1 0 0
2166 3 79.59163577022736 3.3419796545734783 1.873737957255074 -1 0 0
2172 3 82.48587718800736 3.34197965457348 1.8737379572550765 -1 0 0
2369 3 78.14451506133736 5.848466247055485 1.87373795725508 -1 0 0
2375 3 81.03875647911735 5.848466247055484 1.8737379572550796 -1 0 0
2170 1 83.9329965757503 2.5064834353027154 0.9606983929082866 -1 0 0
2173 4 85.38012118140614 1.6709911112708702 0.04719224025179605 -1 0 0
2176 1 86.82723799353029 2.506483435302716 0.9606983929082864 -1 0 0
2179 4 88.27436259918615 1.6709911112708684 0.04719224025179372 -1 0 0
2168 4 83.93300047251614 4.177477703752874 0.047192240251798856 -1 0 0
2174 4 86.82724189029614 4.177477703752873 0.04719224025179595 -1 0 0
2385 1 85.3801172846403 5.012970027784708 0.9606983929082841 -1 0 0
2391 1 88.27435870242032 5.012970027784708 0.9606983929082841 -1 0 0
2171 3 83.93299789689736 0.8354930620914772 1.8737379572550747 -1 0 0
2177 3 86.82723931467736 0.8354930620914781 1.8737379572550776 -1 0 0
2178 3 85.38011860578736 3.3419796545734783 1.8737379572550743 -1 0 0
2184 3 88.27436002356737 3.34197965457348 1.8737379572550767 -1 0 0
2381 3 83.93299789689736 5.848466247055483 1.873737957255077 -1 0 0
2387 3 86.82723931467736 5.848466247055484 1.8737379572550796 -1 0 0
2182 1 89.7214794113103 2.5064834353027154 0.9606983929082865 -1 0 0
2185 4 91.16860401696614 1.6709911112708682 0.047192240251793575 -1 0 0
2188 1 92.6157208290903 2.5064834353027154 0.9606983929082865 -1 0 0
2191 4 94.06284543474614 1.6709911112708684 0.047192240251793666 -1 0 0
2180 4 89.72148330807615 4.177477703752874 0.0471922402517992 -1 0 0
2186 4 92.61572472585614 4.1774777037528725 0.04719224025179601 -1 0 0
2397 1 91.1686001202003 5.012970027784708 0.9606983929082842 -1 0 0
2403 1 94.06284153798029 5.012970027784708 0.9606983929082842 -1 0 0
2183 3 89.72148073245737 0.8354930620914769 1.8737379572550745 -1 0 0
2189 3 92.61572215023736 0.8354930620914784 1.8737379572550774 -1 0 0
2190 3 91.16860144134736 3.34197965457348 1.8737379572550767 -1 0 0
2196 3 94.06284285912736 3.34197965457348 1.8737379572550767 -1 0 0
2393 3 89.72148073245737 5.848466247055483 1.8737379572550765 -1 0 0
2399 3 92.61572215023736 5.848466247055485 1.8737379572550796 -1 0 0
2206 1 101.2984450824303 2.5064834353027154 0.9606983929082865 -1 0 0
2204 4 101.29844897919614 4.177477703752874 0.04719224025179798 -1 0 0
2207 3 101.29844640357736 0.8354930620914774 1.8737379572550754 -1 0 0
2417 3 101.29844640357736 5.848466247055483 1.8737379572550776 -1 0 0
2194 1 95.50996224687029 2.5064834353027154 0.9606983929082866 -1 0 0
2197 4 96.95708685252613 1.6709911112708702 0.047192240251796136 -1 0 0
2200 1 98.40420366465028 2.506483435302716 0.9606983929082865 -1 0 0
2203 4 99.85132827030614 1.6709911112708689 0.04719224025179432 -1 0 0
2192 4 95.50996614363613 4.1774777037528725 0.04719224025179565 -1 0 0
2198 4 98.40420756141613 4.177477703752873 0.0471922402517959 -1 0 0
2409 1 96.9570829557603 5.012970027784708 0.9606983929082842 -1 0 0
2415 1 99.85132437354031 5.012970027784708 0.9606983929082841 -1 0 0
2195 3 95.50996356801735 0.8354930620914788 1.8737379572550779 -1 0 0
2201 3 98.40420498579735 0.8354930620914782 1.8737379572550776 -1 0 0
2202 3 96.95708427690735 3.3419796545734783 1.873737957255074 -1 0 0
2208 3 99.85132569468736 3.3419796545734797 1.8737379572550759 -1 0 0
2405 3 95.50996356801735 5.848466247055485 1.87373795725508 -1 0 0
2411 3 98.40420498579735 5.848466247055484 1.8737379572550796 -1 0 0
2419 4 1.4471200657861405 6.683964296234874 0.047192240251795324 0 0 0
2425 4 4.341361483566139 6.683964296234874 0.04719224025179534 0 0 0
2422 1 2.8942368779103034 7.519456620266707 0.9606983929082848 0 0 0
2428 1 5.7884782956903065 7.519456620266706 0.9606983929082842 0 0 0
2631 1 1.4471161690203065 10.02594321274872 0.9606983929082861 0 0 0
2420 4 2.8942407746761396 9.190450888716873 0.04719224025179405 0 0 0
2637 1 4.341357586800299 10.025943212748718 0.9606983929082858 0 0 0
2426 4 5.78848219245614 9.190450888716871 0.047192240251792465 0 0 0
2629 4 1.4471200657861405 11.696937481198868 0.04719224025179363 0 0 0
2635 4 4.341361483566139 11.696937481198868 0.047192240251793804 0 0 0
2424 3 1.4471174901673636 8.35495283953748 1.8737379572550805 0 0 0
2430 3 4.341358907947362 8.35495283953748 1.8737379572550805 0 0 0
2633 3 2.8942381990573627 10.861439432019475 1.873737957255077 0 0 0
2639 3 5.788479616837363 10.861439432019475 1.8737379572550787 0 0 0
2431 4 7.235602901346139 6.683964296234875 0.04719224025179732 0 0 0
2437 4 10.129844319126141 6.683964296234875 0.04719224025179613 0 0 0
2434 1 8.682719713470298 7.519456620266706 0.9606983929082837 0 0 0
2440 1 11.5769611312503 7.519456620266707 0.9606983929082846 0 0 0
2643 1 7.235599004580303 10.025943212748718 0.9606983929082857 0 0 0
2432 4 8.682723610236138 9.190450888716871 0.04719224025179256 0 0 0
2649 1 10.129840422360305 10.025943212748718 0.960698392908286 0 0 0
2438 4 11.576965028016136 9.190450888716871 0.04719224025179233 0 0 0
2641 4 7.235602901346139 11.69693748119887 0.04719224025179574 0 0 0
2647 4 10.129844319126141 11.696937481198868 0.04719224025179473 0 0 0
2436 3 7.235600325727362 8.35495283953748 1.8737379572550785 0 0 0
2442 3 10.129841743507365 8.35495283953748 1.8737379572550796 0 0 0
2645 3 8.682721034617362 10.861439432019477 1.8737379572550787 0 0 0
2651 3 11.576962452397359 10.861439432019477 1.873737957255079 0 0 0
2443 4 13.024085736906143 6.683964296234876 0.04719224025179746 0 0 0
2449 4 15.918327154686143 6.683964296234874 0.04719224025179476 0 0 0
2446 1 14.471202549030291 7.519456620266706 0.960698392908284 0 0 0
2452 1 17.365443966810304 7.519456620266706 0.9606983929082844 0 0 0
2655 1 13.024081840140308 10.025943212748718 0.9606983929082858 0 0 0
2444 4 14.471206445796136 9.190450888716873 0.04719224025179341 0 0 0
2661 1 15.91832325792031 10.025943212748718 0.9606983929082863 0 0 0
2450 4 17.36544786357614 9.190450888716873 0.04719224025179425 0 0 0
2653 4 13.024085736906143 11.69693748119887 0.0471922402517958 0 0 0
2659 4 15.918327154686143 11.696937481198868 0.04719224025179313 0 0 0
2448 3 13.024083161287367 8.35495283953748 1.8737379572550785 0 0 0
2454 3 15.918324579067367 8.35495283953748 1.873737957255081 0 0 0
2657 3 14.47120387017736 10.861439432019475 1.8737379572550776 0 0 0
2663 3 17.36544528795736 10.861439432019475 1.873737957255077 0 0 0
2455 4 18.81256857246614 6.6839642962348735 0.047192240251794755 0 0 0
2461 4 21.70680999024614 6.683964296234875 0.0471922402517961 0 0 0
2458 1 20.259685384590302 7.5194566202667055 0.9606983929082835 0 0 0
2464 1 23.15392680237031 7.519456620266707 0.9606983929082847 0 0 0
2667 1 18.8125646757003 10.025943212748718 0.9606983929082862 0 0 0
2456 4 20.259689281356142 9.190450888716873 0.04719224025179407 0 0 0
2673 1 21.706806093480292 10.025943212748718 0.9606983929082867 0 0 0
2462 4 23.153930699136144 9.190450888716871 0.04719224025179288 0 0 0
2665 4 18.81256857246614 11.696937481198866 0.04719224025179311 0 0 0
2671 4 21.70680999024614 11.696937481198868 0.04719224025179444 0 0 0
2460 3 18.81256599684736 8.354952839537482 1.8737379572550812 0 0 0
2466 3 21.70680741462736 8.35495283953748 1.8737379572550799 0 0 0
2669 3 20.259686705737366 10.861439432019475 1.8737379572550767 0 0 0
2675 3 23.153928123517364 10.861439432019475 1.873737957255078 0 0 0
2467 4 24.60105140802614 6.683964296234875 0.04719224025179713 0 0 0
2473 4 27.495292825806143 6.683964296234875 0.047192240251797024 0 0 0
2470 1 26.048168220150302 7.519456620266706 0.9606983929082838 0 0 0
2476 1 28.942409637930293 7.519456620266706 0.9606983929082841 0 0 0
2679 1 24.6010475112603 10.025943212748718 0.9606983929082868 0 0 0
2468 4 26.04817211691614 9.190450888716871 0.047192240251791404 0 0 0
2685 1 27.495288929040303 10.025943212748718 0.960698392908286 0 0 0
2474 4 28.94241353469614 9.190450888716871 0.04719224025179295 0 0 0
2677 4 24.60105140802614 11.69693748119887 0.047192240251795636 0 0 0
2683 4 27.495292825806143 11.69693748119887 0.04719224025179557 0 0 0
2472 3 24.60104883240736 8.35495283953748 1.873737957255079 0 0 0
2478 3 27.495290250187367 8.35495283953748 1.8737379572550787 0 0 0
2681 3 26.048169541297362 10.861439432019477 1.8737379572550794 0 0 0
2687 3 28.94241095907736 10.861439432019475 1.873737957255078 0 0 0
2479 4 30.389534243586144 6.683964296234874 0.04719224025179602 0 0 0
2485 4 33.28377566136614 6.683964296234874 0.047192240251794776 0 0 0
2482 1 31.836651055710302 7.5194566202667055 0.9606983929082826 0 0 0
2488 1 34.7308924734903 7.519456620266706 0.9606983929082837 0 0 0
2691 1 30.38953034682031 10.025943212748718 0.9606983929082873 0 0 0
2480 4 31.83665495247614 9.190450888716873 0.047192240251793985 0 0 0
2697 1 33.2837717646003 10.025943212748718 0.9606983929082847 0 0 0
2486 4 34.73089637025614 9.190450888716871 0.04719224025179182 0 0 0
2689 4 30.389534243586144 11.696937481198868 0.04719224025179439 0 0 0
2695 4 33.28377566136614 11.696937481198868 0.047192240251793235 0 0 0
2484 3 30.389531667967365 8.35495283953748 1.87373795725508 0 0 0
2490 3 33.28377308574736 8.354952839537482 1.873737957255081 0 0 0
2693 3 31.836652376857362 10.861439432019475 1.873737957255077 0 0 0
2699 3 34.73089379463736 10.861439432019477 1.8737379572550792 0 0 0
2491 4 36.17801707914614 6.683964296234875 0.04719224025179632 0 0 0
2497 4 39.07225849692614 6.683964296234875 0.04719224025179692 0 0 0
2494 1 37.625133891270295 7.519456620266707 0.9606983929082857 0 0 0
2500 1 40.519375309050304 7.5194566202667055 0.9606983929082827 0 0 0
2703 1 36.1780131823803 10.02594321274872 0.9606983929082885 0 0 0
2492 4 37.625137788036135 9.190450888716871 0.04719224025179217 0 0 0
2709 1 39.072254600160306 10.025943212748718 0.9606983929082865 0 0 0
2498 4 40.519379205816136 9.190450888716873 0.04719224025179478 0 0 0
2701 4 36.17801707914614 11.696937481198868 0.047192240251794866 0 0 0
2707 4 39.07225849692614 11.696937481198868 0.0471922402517952 0 0 0
2496 3 36.178014503527365 8.35495283953748 1.8737379572550799 0 0 0
2502 3 39.07225592130736 8.35495283953748 1.873737957255079 0 0 0
2705 3 37.625135212417355 10.861439432019475 1.8737379572550792 0 0 0
2711 3 40.51937663019736 10.861439432019475 1.873737957255076 0 0 0
2503 4 41.96649991470614 6.683964296234874 0.0471922402517947 0 0 0
2509 4 44.860741332486135 6.683964296234874 0.04719224025179537 0 0 0
2506 1 43.4136167268303 7.519456620266707 0.960698392908286 0 0 0
2512 1 46.30785814461031 7.519456620266706 0.9606983929082841 0 0 0
2715 1 41.9664960179403 10.025943212748716 0.9606983929082846 0 0 0
2504 4 43.41362062359614 9.190450888716871 0.047192240251793145 0 0 0
2721 1 44.860737435720296 10.02594321274872 0.9606983929082884 0 0 0
2510 4 46.30786204137614 9.190450888716873 0.04719224025179372 0 0 0
2713 4 41.96649991470614 11.696937481198868 0.04719224025179311 0 0 0
2719 4 44.860741332486135 11.696937481198868 0.04719224025179365 0 0 0
2508 3 41.96649733908736 8.354952839537482 1.8737379572550812 0 0 0
2514 3 44.860738756867356 8.35495283953748 1.8737379572550807 0 0 0
2717 3 43.413618047977366 10.861439432019475 1.8737379572550779 0 0 0
2723 3 46.30785946575736 10.861439432019475 1.8737379572550772 0 0 0
2515 4 47.75498275026614 6.683964296234876 0.047192240251797836 0 0 0
2311 4 50.64922416804614 6.683964296234875 0.04719224025179651 -1 0 0
2317 4 53.54346558582614 6.683964296234874 0.0471922402517949 -1 0 0
2518 1 49.2020995623903 7.5194566202667055 0.9606983929082821 0 0 0
2314 1 52.0963409801703 7.519456620266707 0.9606983929082858 -1 0 0
2727 1 47.754978853500305 10.025943212748718 0.9606983929082851 0 0 0
2516 4 49.20210345915614 9.190450888716871 0.04719224025179157 0 0 0
2523 1 50.6492202712803 10.02594321274872 0.9606983929082882 -1 0 0
2312 4 52.096344876936136 9.190450888716871 0.04719224025179217 -1 0 0
2529 1 53.54346168906031 10.025943212748718 0.960698392908284 -1 0 0
2725 4 47.75498275026614 11.69693748119887 0.047192240251796344 0 0 0
2521 4 50.64922416804614 11.696937481198868 0.047192240251795 -1 0 0
2527 4 53.54346558582614 11.696937481198868 0.04719224025179358 -1 0 0
2520 3 47.75498017464736 8.354952839537479 1.8737379572550779 0 0 0
2316 3 50.64922159242737 8.35495283953748 1.8737379572550794 -1 0 0
2322 3 53.54346301020736 8.354952839537482 1.873737957255081 -1 0 0
2729 3 49.20210088353736 10.861439432019477 1.8737379572550792 0 0 0
2525 3 52.09634230131736 10.861439432019477 1.8737379572550792 -1 0 0
2323 4 56.437707003606135 6.6839642962348735 0.04719224025179484 -1 0 0
2329 4 59.33194842138614 6.683964296234875 0.04719224025179654 -1 0 0
2320 1 54.9905823979503 7.519456620266706 0.9606983929082848 -1 0 0
2326 1 57.88482381573031 7.519456620266707 0.9606983929082844 -1 0 0
2318 4 54.99058629471614 9.190450888716873 0.0471922402517949 -1 0 0
2535 1 56.437703106840296 10.02594321274872 0.9606983929082876 -1 0 0
2324 4 57.88482771249614 9.190450888716873 0.0471922402517936 -1 0 0
2541 1 59.33194452462029 10.025943212748718 0.9606983929082856 -1 0 0
2533 4 56.437707003606135 11.696937481198868 0.047192240251793506 -1 0 0
2539 4 59.33194842138614 11.696937481198868 0.047192240251794984 -1 0 0
2328 3 56.437704427987356 8.35495283953748 1.873737957255081 -1 0 0
2334 3 59.33194584576736 8.35495283953748 1.8737379572550792 -1 0 0
2531 3 54.99058371909736 10.861439432019475 1.8737379572550756 -1 0 0
2537 3 57.88482513687736 10.861439432019475 1.8737379572550776 -1 0 0
2335 4 62.22618983916613 6.683964296234875 0.04719224025179651 -1 0 0
2341 4 65.12043125694613 6.683964296234876 0.04719224025179782 -1 0 0
2332 1 60.7790652335103 7.519456620266706 0.9606983929082842 -1 0 0
2338 1 63.67330665129029 7.519456620266706 0.9606983929082836 -1 0 0
2330 4 60.77906913027614 9.190450888716871 0.04719224025179201 -1 0 0
2547 1 62.2261859424003 10.025943212748718 0.9606983929082847 -1 0 0
2336 4 63.673310548056136 9.190450888716871 0.04719224025179158 -1 0 0
2553 1 65.1204273601803 10.02594321274872 0.9606983929082885 -1 0 0
2545 4 62.22618983916613 11.696937481198868 0.04719224025179501 -1 0 0
2551 4 65.12043125694613 11.69693748119887 0.04719224025179627 -1 0 0
2340 3 62.22618726354736 8.35495283953748 1.8737379572550792 -1 0 0
2346 3 65.12042868132735 8.354952839537479 1.873737957255078 -1 0 0
2543 3 60.77906655465736 10.861439432019477 1.8737379572550792 -1 0 0
2549 3 63.67330797243736 10.861439432019477 1.8737379572550794 -1 0 0
2347 4 68.01467267472614 6.683964296234874 0.04719224025179537 -1 0 0
2353 4 70.90891409250614 6.683964296234876 0.047192240251797614 -1 0 0
2344 1 66.56754806907028 7.519456620266706 0.9606983929082841 -1 0 0
2350 1 69.4617894868503 7.519456620266706 0.9606983929082844 -1 0 0
2342 4 66.56755196583613 9.190450888716871 0.04719224025179205 -1 0 0
2559 1 68.01466877796031 10.025943212748718 0.9606983929082865 -1 0 0
2348 4 69.46179338361614 9.190450888716873 0.04719224025179479 -1 0 0
2565 1 70.9089101957403 10.025943212748718 0.9606983929082865 -1 0 0
2557 4 68.01467267472614 11.696937481198868 0.047192240251793666 -1 0 0
2563 4 70.90891409250614 11.69693748119887 0.047192240251796025 -1 0 0
2352 3 68.01467009910736 8.35495283953748 1.8737379572550805 -1 0 0
2358 3 70.90891151688736 8.354952839537479 1.8737379572550783 -1 0 0
2555 3 66.56754939021735 10.861439432019475 1.873737957255079 -1 0 0
2561 3 69.46179080799736 10.861439432019475 1.8737379572550763 -1 0 0
2359 4 73.80315551028615 6.683964296234874 0.04719224025179537 -1 0 0
2365 4 76.69739692806614 6.683964296234874 0.04719224025179505 -1 0 0
2356 1 72.35603090463029 7.519456620266706 0.9606983929082841 -1 0 0
2362 1 75.2502723224103 7.519456620266706 0.9606983929082844 -1 0 0
2354 4 72.35603480139613 9.190450888716871 0.04719224025179196 -1 0 0
2571 1 73.80315161352031 10.025943212748718 0.9606983929082865 -1 0 0
2360 4 75.25027621917614 9.190450888716873 0.04719224025179512 -1 0 0
2577 1 76.6973930313003 10.025943212748718 0.9606983929082866 -1 0 0
2569 4 73.80315551028615 11.696937481198868 0.04719224025179366 -1 0 0
2575 4 76.69739692806614 11.696937481198868 0.0471922402517935 -1 0 0
2364 3 73.80315293466737 8.35495283953748 1.8737379572550805 -1 0 0
2370 3 76.69739435244736 8.35495283953748 1.873737957255081 -1 0 0