LAMMPS data file via write_data, version 29 Aug 2024, timestep = 2, units = metal

12600 atoms
9 atom types

0 101.2984496223 xlo xhi
0 100.25946369928 ylo yhi
-50 50 zlo zhi

Masses

1 54.938044
2 54.938044
3 54.938044
4 15.999
5 15.999
6 15.999
7 15.999
8 15.999
9 15.999

Atoms # atomic

2209 5 1.4471200656668783 1.6709911109089073 0.04720666275046406 0 0 0
2212 1 2.894236852111895 2.50648346967182 0.960704435059999 0 0 0
2215 5 4.341361483446877 1.6709911109089075 0.04720666275046424 0 0 0
2218 1 5.788478269891897 2.5064834696718203 0.9607044350599989 0 0 0
2210 5 2.8942407745568777 4.177477703390913 0.0472066627504687 0 0 0
2216 5 5.788482192336878 4.177477703390912 0.04720666275046695 0 0 0
2421 1 1.4471161432218984 5.012970062153813 0.9607044350599968 0 0 0
2427 1 4.341357561001891 5.012970062153813 0.9607044350599965 0 0 0
2213 4 2.89423820642231 0.835493123405627 1.8737271240687097 0 0 0
2219 4 5.78847962420231 0.8354931234056282 1.8737271240687117 0 0 0
2214 4 1.4471174975323107 3.34197971588763 1.873727124068711 0 0 0
2220 4 4.341358915312309 3.34197971588763 1.8737271240687108 0 0 0
2423 4 2.89423820642231 5.848466308369633 1.873727124068712 0 0 0
2429 4 5.78847962420231 5.848466308369634 1.8737271240687137 0 0 0
2221 5 7.235602901226877 1.6709911109089084 0.047206662750465644 0 0 0
2224 1 8.68271968767189 2.5064834696718203 0.9607044350599991 0 0 0
2227 5 10.129844319006878 1.6709911109089082 0.04720666275046528 0 0 0
2230 1 11.576961105451891 2.5064834696718203 0.960704435059999 0 0 0
2222 5 8.682723610116875 4.177477703390911 0.04720666275046665 0 0 0
2228 5 11.576965027896874 4.177477703390912 0.04720666275046725 0 0 0
2433 1 7.235598978781893 5.012970062153813 0.9607044350599965 0 0 0
2439 1 10.129840396561898 5.012970062153813 0.9607044350599966 0 0 0
2225 4 8.682721041982308 0.8354931234056284 1.873727124068712 0 0 0
2231 4 11.576962459762306 0.835493123405628 1.8737271240687114 0 0 0
2226 4 7.235600333092309 3.3419797158876285 1.8737271240687094 0 0 0
2232 4 10.12984175087231 3.341979715887629 1.8737271240687097 0 0 0
2435 4 8.682721041982308 5.848466308369634 1.873727124068714 0 0 0
2441 4 11.576962459762306 5.848466308369634 1.8737271240687132 0 0 0
2233 5 13.02408573678688 1.6709911109089084 0.04720666275046574 0 0 0
2236 1 14.471202523231884 2.506483469671821 0.9607044350599993 0 0 0
2239 5 15.918327154566882 1.6709911109089073 0.047206662750463944 0 0 0
2242 1 17.365443941011893 2.506483469671821 0.9607044350599998 0 0 0
2234 5 14.471206445676874 4.177477703390912 0.04720666275046769 0 0 0
2240 5 17.365447863456875 4.177477703390913 0.04720666275046924 0 0 0
2445 1 13.0240818143419 5.012970062153813 0.9607044350599966 0 0 0
2451 1 15.918323232121903 5.012970062153814 0.960704435059997 0 0 0
2237 4 14.471203877542306 0.8354931234056276 1.873727124068711 0 0 0
2243 4 17.365445295322306 0.8354931234056268 1.8737271240687094 0 0 0
2238 4 13.024083168652313 3.3419797158876285 1.8737271240687092 0 0 0
2244 4 15.918324586432313 3.3419797158876294 1.873727124068711 0 0 0
2447 4 14.471203877542306 5.848466308369634 1.873727124068713 0 0 0
2453 4 17.365445295322306 5.848466308369633 1.8737271240687114 0 0 0
2245 5 18.812568572346876 1.6709911109089066 0.04720666275046352 0 0 0
2248 1 20.25968535879189 2.50648346967182 0.9607044350599984 0 0 0
2251 5 21.706809990126875 1.6709911109089077 0.04720666275046465 0 0 0
2254 1 23.1539267765719 2.506483469671821 0.96070443506 0 0 0
2246 5 20.25968928123688 4.177477703390913 0.047206662750468545 0 0 0
2252 5 23.15393069901688 4.177477703390912 0.0472066627504674 0 0 0
2457 1 18.812564649901894 5.012970062153813 0.9607044350599965 0 0 0
2463 1 21.706806067681885 5.012970062153813 0.9607044350599958 0 0 0
2249 4 20.25968671310231 0.8354931234056271 1.87372712406871 0 0 0
2255 4 23.153928130882313 0.8354931234056278 1.873727124068711 0 0 0
2250 4 18.81256600421231 3.3419797158876303 1.8737271240687117 0 0 0
2256 4 21.70680742199231 3.3419797158876294 1.8737271240687103 0 0 0
2459 4 20.25968671310231 5.848466308369633 1.873727124068712 0 0 0
2465 4 23.153928130882313 5.848466308369634 1.8737271240687132 0 0 0
2257 5 24.601051407906876 1.6709911109089084 0.047206662750466 0 0 0
2260 1 26.048168194351895 2.5064834696718203 0.960704435059999 0 0 0
2263 5 27.49529282568688 1.6709911109089084 0.0472066627504658 0 0 0
2266 1 28.942409612131886 2.50648346967182 0.9607044350599983 0 0 0
2258 5 26.048172116796877 4.177477703390911 0.047206662750466144 0 0 0
2264 5 28.942413534576875 4.177477703390912 0.047206662750467344 0 0 0
2469 1 24.601047485461894 5.012970062153814 0.9607044350599975 0 0 0
2475 1 27.495288903241892 5.012970062153813 0.9607044350599958 0 0 0
2261 4 26.04816954866231 0.8354931234056288 1.8737271240687123 0 0 0
2267 4 28.94241096644231 0.8354931234056279 1.873727124068711 0 0 0
2262 4 24.60104883977231 3.3419797158876285 1.8737271240687092 0 0 0
2268 4 27.495290257552313 3.3419797158876285 1.873727124068709 0 0 0
2471 4 26.04816954866231 5.848466308369635 1.8737271240687143 0 0 0
2477 4 28.94241096644231 5.848466308369634 1.873727124068713 0 0 0
2269 5 30.38953424346688 1.6709911109089077 0.0472066627504647 0 0 0
2272 1 31.836651029911895 2.506483469671821 0.9607044350600001 0 0 0
2275 5 33.28377566124688 1.6709911109089068 0.047206662750463736 0 0 0
2278 1 34.73089244769189 2.5064834696718203 0.960704435059999 0 0 0
2270 5 31.836654952356877 4.177477703390913 0.047206662750468635 0 0 0
2276 5 34.730896370136875 4.177477703390911 0.04720666275046631 0 0 0
2481 1 30.3895303210219 5.012970062153814 0.9607044350599975 0 0 0
2487 1 33.283771738801896 5.012970062153814 0.9607044350599966 0 0 0
2273 4 31.83665238422231 0.835493123405627 1.87372712406871 0 0 0
2279 4 34.730893802002306 0.8354931234056286 1.8737271240687121 0 0 0
2274 4 30.389531675332314 3.341979715887629 1.8737271240687106 0 0 0
2280 4 33.28377309311231 3.3419797158876303 1.8737271240687114 0 0 0
2483 4 31.83665238422231 5.848466308369633 1.8737271240687121 0 0 0
2489 4 34.730893802002306 5.848466308369635 1.8737271240687141 0 0 0
2281 5 36.17801707902688 1.6709911109089082 0.04720666275046499 0 0 0
2284 1 37.62513386547189 2.5064834696718203 0.9607044350599991 0 0 0
2287 5 39.072258496806874 1.6709911109089082 0.04720666275046552 0 0 0
2290 1 40.51937528325189 2.5064834696718203 0.9607044350599993 0 0 0
2282 5 37.62513778791687 4.177477703390911 0.04720666275046653 0 0 0
2288 5 40.51937920569687 4.177477703390913 0.04720666275046951 0 0 0
2493 1 36.17801315658189 5.012970062153814 0.9607044350599967 0 0 0
2499 1 39.07225457436191 5.012970062153813 0.9607044350599966 0 0 0
2285 4 37.62513521978231 0.8354931234056282 1.873727124068712 0 0 0
2291 4 40.51937663756231 0.8354931234056265 1.873727124068709 0 0 0
2286 4 36.17801451089231 3.341979715887629 1.8737271240687101 0 0 0
2292 4 39.07225592867231 3.341979715887629 1.8737271240687097 0 0 0
2495 4 37.62513521978231 5.848466308369634 1.873727124068714 0 0 0
2501 4 40.51937663756231 5.848466308369632 1.8737271240687112 0 0 0
2293 5 41.966499914586876 1.6709911109089066 0.04720666275046346 0 0 0
2296 1 43.41361670103189 2.5064834696718203 0.9607044350599993 0 0 0
2299 5 44.86074133236687 1.6709911109089073 0.04720666275046385 0 0 0
2302 1 46.30785811881191 2.5064834696718203 0.9607044350599993 0 0 0
2294 5 43.41362062347688 4.177477703390912 0.04720666275046784 0 0 0
2300 5 46.307862041256875 4.177477703390912 0.04720666275046822 0 0 0
2505 1 41.966495992141894 5.012970062153813 0.9607044350599965 0 0 0
2511 1 44.86073740992189 5.012970062153813 0.9607044350599966 0 0 0
2297 4 43.41361805534231 0.8354931234056273 1.8737271240687106 0 0 0
2303 4 46.30785947312231 0.8354931234056273 1.8737271240687101 0 0 0
2298 4 41.96649734645231 3.3419797158876303 1.8737271240687117 0 0 0
2304 4 44.86073876423231 3.34197971588763 1.8737271240687112 0 0 0
2507 4 43.41361805534231 5.848466308369633 1.8737271240687128 0 0 0
2513 4 46.30785947312231 5.848466308369633 1.8737271240687121 0 0 0
2305 5 47.75498275014687 1.670991110908909 0.047206662750466664 0 0 0
2308 1 49.202099536591895 2.506483469671821 0.9607044350599991 0 0 0
2101 5 50.64922416792688 1.670991110908908 0.0472066627504651 -1 0 0
2104 1 52.09634095437189 2.5064834696718203 0.960704435059999 -1 0 0
2107 5 53.543465585706876 1.6709911109089068 0.04720666275046366 -1 0 0
2306 5 49.20210345903688 4.177477703390911 0.04720666275046611 0 0 0
2102 5 52.09634487681687 4.177477703390911 0.047206662750466574 -1 0 0
2517 1 47.75497882770189 5.012970062153814 0.9607044350599967 0 0 0
2313 1 50.64922024548189 5.012970062153813 0.9607044350599949 -1 0 0
2319 1 53.543461663261894 5.012970062153814 0.9607044350599983 -1 0 0
2309 4 49.20210089090231 0.8354931234056286 1.8737271240687123 0 0 0
2105 4 52.09634230868231 0.8354931234056282 1.873727124068712 -1 0 0
2310 4 47.75498018201231 3.341979715887628 1.8737271240687083 0 0 0
2106 4 50.64922159979231 3.3419797158876294 1.87372712406871 -1 0 0
2112 4 53.54346301757231 3.34197971588763 1.8737271240687112 -1 0 0
2519 4 49.20210089090231 5.848466308369635 1.8737271240687141 0 0 0
2315 4 52.09634230868231 5.848466308369634 1.873727124068714 -1 0 0
2110 1 54.99058237215189 2.5064834696718195 0.9607044350599975 -1 0 0
2113 5 56.43770700348687 1.670991110908907 0.047206662750463584 -1 0 0
2116 1 57.8848237899319 2.5064834696718203 0.9607044350599993 -1 0 0
2119 5 59.33194842126687 1.6709911109089082 0.04720666275046529 -1 0 0
2108 5 54.99058629459687 4.177477703390913 0.047206662750469565 -1 0 0
2114 5 57.884827712376875 4.177477703390912 0.04720666275046793 -1 0 0
2325 1 56.43770308104189 5.012970062153813 0.9607044350599967 -1 0 0
2331 1 59.33194449882189 5.012970062153813 0.9607044350599966 -1 0 0
2111 4 54.990583726462305 0.8354931234056268 1.873727124068709 -1 0 0
2117 4 57.88482514424231 0.8354931234056275 1.8737271240687106 -1 0 0
2118 4 56.43770443535231 3.34197971588763 1.8737271240687112 -1 0 0
2124 4 59.331945853132304 3.341979715887629 1.8737271240687097 -1 0 0
2321 4 54.990583726462305 5.848466308369633 1.873727124068711 -1 0 0
2327 4 57.88482514424231 5.848466308369633 1.8737271240687126 -1 0 0
2122 1 60.779065207711895 2.5064834696718212 0.9607044350600008 -1 0 0
2125 5 62.226189839046874 1.670991110908908 0.04720666275046539 -1 0 0
2128 1 63.67330662549189 2.5064834696718203 0.960704435059999 -1 0 0
2131 5 65.12043125682688 1.6709911109089077 0.04720666275046499 -1 0 0
2120 5 60.77906913015688 4.177477703390911 0.04720666275046654 -1 0 0
2126 5 63.67331054793687 4.1774777033909105 0.0472066627504647 -1 0 0
2337 1 62.22618591660189 5.012970062153814 0.9607044350599967 -1 0 0
2343 1 65.12042733438189 5.012970062153814 0.9607044350599967 -1 0 0
2123 4 60.77906656202231 0.8354931234056282 1.873727124068712 -1 0 0
2129 4 63.6733079798023 0.8354931234056294 1.873727124068714 -1 0 0
2130 4 62.226187270912305 3.3419797158876294 1.87372712406871 -1 0 0
2136 4 65.1204286886923 3.3419797158876294 1.8737271240687101 -1 0 0
2333 4 60.77906656202231 5.848466308369634 1.8737271240687141 -1 0 0
2339 4 63.6733079798023 5.848466308369636 1.8737271240687157 -1 0 0
2134 1 66.56754804327188 2.5064834696718203 0.9607044350599991 -1 0 0
2137 5 68.01467267460687 1.6709911109089075 0.04720666275046372 -1 0 0
2140 1 69.4617894610519 2.5064834696718203 0.9607044350599991 -1 0 0
2143 5 70.90891409238688 1.6709911109089086 0.04720666275046658 -1 0 0
2132 5 66.56755196571687 4.177477703390914 0.047206662750469856 -1 0 0
2138 5 69.46179338349687 4.177477703390911 0.047206662750465964 -1 0 0
2349 1 68.0146687521619 5.012970062153813 0.9607044350599965 -1 0 0
2355 1 70.90891016994189 5.012970062153813 0.9607044350599966 -1 0 0
2135 4 66.5675493975823 0.8354931234056262 1.8737271240687086 -1 0 0
2141 4 69.4617908153623 0.8354931234056288 1.8737271240687126 -1 0 0
2142 4 68.01467010647231 3.3419797158876294 1.8737271240687112 -1 0 0
2148 4 70.9089115242523 3.3419797158876285 1.8737271240687086 -1 0 0
2345 4 66.5675493975823 5.848466308369632 1.8737271240687106 -1 0 0
2351 4 69.4617908153623 5.848466308369635 1.8737271240687146 -1 0 0
2146 1 72.35603087883189 2.5064834696718203 0.9607044350599991 -1 0 0
2149 5 73.80315551016687 1.6709911109089075 0.047206662750463715 -1 0 0
2152 1 75.2502722966119 2.5064834696718203 0.9607044350599993 -1 0 0
2155 5 76.69739692794687 1.6709911109089068 0.04720666275046371 -1 0 0
2144 5 72.35603480127688 4.177477703390914 0.04720666275046987 -1 0 0
2150 5 75.25027621905687 4.177477703390911 0.04720666275046605 -1 0 0
2361 1 73.8031515877219 5.012970062153813 0.9607044350599965 -1 0 0
2367 1 76.6973930055019 5.012970062153814 0.9607044350599966 -1 0 0
2147 4 72.3560322331423 0.8354931234056262 1.8737271240687086 -1 0 0
2153 4 75.25027365092231 0.8354931234056286 1.8737271240687123 -1 0 0
2154 4 73.80315294203231 3.3419797158876294 1.8737271240687112 -1 0 0
2160 4 76.69739435981231 3.34197971588763 1.8737271240687114 -1 0 0
2357 4 72.3560322331423 5.848466308369632 1.8737271240687106 -1 0 0
2363 4 75.25027365092231 5.848466308369635 1.8737271240687146 -1 0 0
2158 1 78.14451371439189 2.506483469671821 0.9607044350599991 -1 0 0
2161 5 79.59163834572688 1.6709911109089086 0.04720666275046666 -1 0 0
2164 1 81.03875513217189 2.5064834696718203 0.9607044350599991 -1 0 0
2167 5 82.48587976350687 1.6709911109089075 0.04720666275046372 -1 0 0
2156 5 78.14451763683687 4.177477703390911 0.047206662750466505 -1 0 0
2162 5 81.03875905461688 4.177477703390914 0.04720666275046984 -1 0 0
2373 1 79.59163442328189 5.012970062153814 0.9607044350599967 -1 0 0
2379 1 82.4858758410619 5.012970062153813 0.9607044350599965 -1 0 0
2159 4 78.1445150687023 0.8354931234056285 1.8737271240687121 -1 0 0
2165 4 81.0387564864823 0.8354931234056262 1.8737271240687086 -1 0 0
2166 4 79.5916357775923 3.3419797158876285 1.8737271240687083 -1 0 0
2172 4 82.48587719537231 3.3419797158876294 1.8737271240687112 -1 0 0
2369 4 78.1445150687023 5.848466308369635 1.873727124068714 -1 0 0
2375 4 81.0387564864823 5.848466308369632 1.8737271240687106 -1 0 0
2170 1 83.9329965499519 2.5064834696718203 0.9607044350599991 -1 0 0
2173 5 85.38012118128688 1.6709911109089086 0.04720666275046658 -1 0 0
2176 1 86.82723796773189 2.5064834696718203 0.9607044350599991 -1 0 0
2179 5 88.27436259906688 1.6709911109089075 0.047206662750463715 -1 0 0
2168 5 83.93300047239687 4.177477703390911 0.04720666275046597 -1 0 0
2174 5 86.82724189017688 4.177477703390914 0.047206662750469856 -1 0 0
2385 1 85.38011725884189 5.012970062153813 0.9607044350599966 -1 0 0
2391 1 88.2743586766219 5.012970062153813 0.9607044350599965 -1 0 0
2171 4 83.93299790426231 0.8354931234056288 1.8737271240687126 -1 0 0
2177 4 86.8272393220423 0.8354931234056262 1.8737271240687086 -1 0 0
2178 4 85.3801186131523 3.3419797158876285 1.8737271240687086 -1 0 0
2184 4 88.27436003093231 3.3419797158876294 1.8737271240687112 -1 0 0
2381 4 83.93299790426231 5.848466308369635 1.8737271240687146 -1 0 0
2387 4 86.8272393220423 5.848466308369632 1.8737271240687106 -1 0 0
2182 1 89.7214793855119 2.5064834696718203 0.9607044350599993 -1 0 0
2185 5 91.16860401684687 1.6709911109089068 0.047206662750463695 -1 0 0
2188 1 92.6157208032919 2.506483469671821 0.9607044350599991 -1 0 0
2191 5 94.06284543462687 1.670991110908907 0.04720666275046378 -1 0 0
2180 5 89.72148330795687 4.177477703390911 0.047206662750466054 -1 0 0
2186 5 92.61572472573687 4.177477703390911 0.04720666275046658 -1 0 0
2397 1 91.1686000944019 5.012970062153814 0.9607044350599966 -1 0 0
2403 1 94.06284151218189 5.012970062153814 0.9607044350599967 -1 0 0
2183 4 89.72148073982231 0.8354931234056286 1.8737271240687123 -1 0 0
2189 4 92.6157221576023 0.8354931234056284 1.873727124068712 -1 0 0
2190 4 91.16860144871231 3.34197971588763 1.8737271240687114 -1 0 0
2196 4 94.0628428664923 3.34197971588763 1.8737271240687112 -1 0 0
2393 4 89.72148073982231 5.848466308369635 1.8737271240687146 -1 0 0
2399 4 92.6157221576023 5.848466308369635 1.873727124068714 -1 0 0
2206 1 101.29844505663189 2.5064834696718203 0.9607044350599986 -1 0 0
2204 5 101.29844897907688 4.177477703390912 0.04720666275046719 -1 0 0
2207 4 101.2984464109423 0.8354931234056279 1.873727124068711 -1 0 0
2417 4 101.2984464109423 5.848466308369634 1.873727124068713 -1 0 0
2194 1 95.50996222107189 2.506483469671821 0.9607044350599991 -1 0 0
2197 5 96.95708685240687 1.6709911109089086 0.04720666275046666 -1 0 0
2200 1 98.40420363885188 2.5064834696718203 0.9607044350599991 -1 0 0
2203 5 99.85132827018687 1.6709911109089088 0.047206662750465825 -1 0 0
2192 5 95.50996614351686 4.177477703390911 0.04720666275046648 -1 0 0
2198 5 98.40420756129687 4.177477703390914 0.04720666275046979 -1 0 0
2409 1 96.95708292996189 5.012970062153814 0.9607044350599967 -1 0 0
2415 1 99.8513243477419 5.012970062153813 0.9607044350599967 -1 0 0
2195 4 95.5099635753823 0.8354931234056285 1.8737271240687121 -1 0 0
2201 4 98.4042049931623 0.8354931234056262 1.8737271240687086 -1 0 0
2202 4 96.9570842842723 3.3419797158876285 1.8737271240687083 -1 0 0
2208 4 99.8513257020523 3.3419797158876285 1.8737271240687092 -1 0 0
2405 4 95.5099635753823 5.848466308369635 1.873727124068714 -1 0 0
2411 4 98.4042049931623 5.848466308369632 1.8737271240687106 -1 0 0
2419 5 1.4471200656668783 6.683964295872913 0.04720666275046625 0 0 0
2425 5 4.341361483446877 6.683964295872913 0.047206662750466345 0 0 0
2422 1 2.894236852111895 7.519456654635811 0.9607044350599961 0 0 0
2428 1 5.788478269891898 7.51945665463581 0.9607044350599968 0 0 0
2631 1 1.4471161432218984 10.025943247117821 0.9607044350599991 0 0 0
2420 5 2.8942407745568777 9.190450888354912 0.047206662750465145 0 0 0
2637 1 4.341357561001891 10.025943247117821 0.9607044350599989 0 0 0
2426 5 5.788482192336878 9.190450888354912 0.04720666275046328 0 0 0
2629 5 1.4471200656668783 11.696937480836906 0.04720666275046444 0 0 0
2635 5 4.341361483446877 11.696937480836908 0.047206662750464576 0 0 0
2424 4 1.4471174975323107 8.354952900851632 1.8737271240687146 0 0 0
2430 4 4.341358915312309 8.354952900851632 1.8737271240687146 0 0 0
2633 4 2.89423820642231 10.861439493333627 1.8737271240687112 0 0 0
2639 4 5.788479624202311 10.861439493333627 1.8737271240687132 0 0 0
2431 5 7.235602901226877 6.683964295872914 0.04720666275046787 0 0 0
2437 5 10.129844319006878 6.683964295872914 0.047206662750467525 0 0 0
2434 1 8.68271968767189 7.519456654635811 0.960704435059997 0 0 0
2440 1 11.576961105451891 7.519456654635811 0.960704435059997 0 0 0
2643 1 7.235598978781893 10.025943247117821 0.9607044350599988 0 0 0
2432 5 8.682723610116875 9.190450888354912 0.04720666275046294 0 0 0
2649 1 10.129840396561898 10.025943247117823 0.9607044350599984 0 0 0
2438 5 11.576965027896874 9.190450888354912 0.04720666275046333 0 0 0
2641 5 7.235602901226877 11.696937480836908 0.04720666275046593 0 0 0
2647 5 10.129844319006878 11.696937480836908 0.047206662750465686 0 0 0
2436 4 7.235600333092309 8.35495290085163 1.873727124068713 0 0 0
2442 4 10.12984175087231 8.35495290085163 1.8737271240687134 0 0 0
2645 4 8.682721041982308 10.861439493333627 1.8737271240687134 0 0 0
2651 4 11.576962459762306 10.861439493333627 1.8737271240687126 0 0 0
2443 5 13.024085736786882 6.683964295872914 0.047206662750467906 0 0 0
2449 5 15.918327154566882 6.683964295872913 0.04720666275046612 0 0 0
2446 1 14.471202523231884 7.51945665463581 0.9607044350599971 0 0 0
2452 1 17.365443941011893 7.519456654635812 0.9607044350599969 0 0 0
2655 1 13.0240818143419 10.025943247117823 0.9607044350599988 0 0 0
2444 5 14.471206445676874 9.190450888354912 0.04720666275046357 0 0 0
2661 1 15.918323232121903 10.025943247117823 0.9607044350599991 0 0 0
2450 5 17.365447863456875 9.190450888354913 0.047206662750465624 0 0 0
2653 5 13.024085736786882 11.696937480836908 0.04720666275046651 0 0 0
2659 5 15.918327154566882 11.696937480836908 0.04720666275046425 0 0 0
2448 4 13.024083168652313 8.35495290085163 1.8737271240687134 0 0 0
2454 4 15.918324586432313 8.354952900851632 1.8737271240687148 0 0 0
2657 4 14.471203877542306 10.861439493333627 1.8737271240687121 0 0 0
2663 4 17.365445295322306 10.861439493333625 1.873727124068711 0 0 0
2455 5 18.812568572346876 6.683964295872912 0.04720666275046555 0 0 0
2461 5 21.706809990126875 6.683964295872914 0.047206662750466914 0 0 0
2458 1 20.25968535879189 7.519456654635811 0.9607044350599955 0 0 0
2464 1 23.1539267765719 7.519456654635811 0.9607044350599976 0 0 0
2667 1 18.812564649901894 10.025943247117823 0.9607044350599991 0 0 0
2456 5 20.25968928123688 9.190450888354912 0.0472066627504649 0 0 0
2673 1 21.706806067681885 10.025943247117823 0.960704435059998 0 0 0
2462 5 23.15393069901688 9.190450888354912 0.04720666275046378 0 0 0
2665 5 18.812568572346876 11.696937480836906 0.04720666275046369 0 0 0
2671 5 21.706809990126875 11.696937480836908 0.04720666275046492 0 0 0
2460 4 18.81256600421231 8.354952900851632 1.8737271240687152 0 0 0
2466 4 21.70680742199231 8.35495290085163 1.8737271240687141 0 0 0
2669 4 20.25968671310231 10.861439493333627 1.8737271240687114 0 0 0
2675 4 23.153928130882313 10.861439493333627 1.8737271240687128 0 0 0
2467 5 24.601051407906876 6.683964295872914 0.04720666275046806 0 0 0
2473 5 27.49529282568688 6.683964295872914 0.04720666275046794 0 0 0
2470 1 26.048168194351895 7.519456654635811 0.9607044350599966 0 0 0
2476 1 28.942409612131886 7.51945665463581 0.9607044350599958 0 0 0
2679 1 24.601047485461894 10.025943247117823 0.9607044350600003 0 0 0
2468 5 26.048172116796877 9.19045088835491 0.04720666275046247 0 0 0
2685 1 27.495288903241892 10.025943247117821 0.9607044350599986 0 0 0
2474 5 28.942413534576875 9.190450888354912 0.047206662750463715 0 0 0
2677 5 24.601051407906876 11.696937480836908 0.04720666275046631 0 0 0
2683 5 27.49529282568688 11.696937480836908 0.047206662750466116 0 0 0
2472 4 24.60104883977231 8.35495290085163 1.873727124068713 0 0 0
2478 4 27.495290257552313 8.35495290085163 1.8737271240687128 0 0 0
2681 4 26.04816954866231 10.861439493333627 1.873727124068714 0 0 0
2687 4 28.94241096644231 10.861439493333627 1.8737271240687126 0 0 0
2479 5 30.38953424346688 6.683964295872914 0.04720666275046693 0 0 0
2485 5 33.28377566124688 6.683964295872913 0.04720666275046578 0 0 0
2482 1 31.836651029911895 7.519456654635812 0.9607044350599973 0 0 0
2488 1 34.73089244769189 7.519456654635811 0.9607044350599966 0 0 0
2691 1 30.3895303210219 10.025943247117823 0.9607044350599998 0 0 0
2480 5 31.836654952356877 9.190450888354912 0.04720666275046502 0 0 0
2697 1 33.283771738801896 10.025943247117823 0.9607044350599993 0 0 0
2486 5 34.730896370136875 9.19045088835491 0.04720666275046262 0 0 0
2689 5 30.38953424346688 11.696937480836908 0.04720666275046508 0 0 0
2695 5 33.28377566124688 11.696937480836906 0.047206662750463924 0 0 0
2484 4 30.389531675332314 8.35495290085163 1.8737271240687141 0 0 0
2490 4 33.28377309311231 8.354952900851632 1.8737271240687152 0 0 0
2693 4 31.83665238422231 10.861439493333627 1.8737271240687114 0 0 0
2699 4 34.730893802002306 10.861439493333627 1.8737271240687137 0 0 0
2491 5 36.17801707902688 6.683964295872914 0.04720666275046714 0 0 0
2497 5 39.072258496806874 6.683964295872914 0.04720666275046775 0 0 0
2494 1 37.62513386547189 7.519456654635811 0.9607044350599967 0 0 0
2500 1 40.51937528325189 7.519456654635811 0.9607044350599965 0 0 0
2703 1 36.17801315658189 10.025943247117823 0.9607044350599995 0 0 0
2492 5 37.62513778791687 9.190450888354912 0.04720666275046285 0 0 0
2709 1 39.07225457436191 10.025943247117823 0.9607044350599989 0 0 0
2498 5 40.51937920569687 9.190450888354913 0.04720666275046587 0 0 0
2701 5 36.17801707902688 11.696937480836908 0.04720666275046532 0 0 0
2707 5 39.072258496806874 11.696937480836908 0.0472066627504659 0 0 0
2496 4 36.17801451089231 8.35495290085163 1.873727124068714 0 0 0
2502 4 39.07225592867231 8.35495290085163 1.8737271240687132 0 0 0
2705 4 37.62513521978231 10.861439493333627 1.8737271240687134 0 0 0
2711 4 40.51937663756231 10.861439493333625 1.8737271240687106 0 0 0
2503 5 41.966499914586876 6.683964295872912 0.047206662750465485 0 0 0
2509 5 44.86074133236687 6.683964295872913 0.04720666275046616 0 0 0
2506 1 43.41361670103189 7.519456654635811 0.9607044350599964 0 0 0
2512 1 46.30785811881191 7.519456654635811 0.9607044350599967 0 0 0
2715 1 41.966495992141894 10.025943247117823 0.9607044350599991 0 0 0
2504 5 43.41362062347688 9.190450888354912 0.04720666275046419 0 0 0
2721 1 44.86073740992189 10.025943247117823 0.9607044350599988 0 0 0
2510 5 46.307862041256875 9.190450888354912 0.0472066627504646 0 0 0
2713 5 41.966499914586876 11.696937480836906 0.047206662750463625 0 0 0
2719 5 44.86074133236687 11.696937480836908 0.047206662750464146 0 0 0
2508 4 41.96649734645231 8.354952900851632 1.8737271240687154 0 0 0
2514 4 44.86073876423231 8.354952900851632 1.8737271240687148 0 0 0
2717 4 43.41361805534231 10.861439493333627 1.8737271240687123 0 0 0
2723 4 46.30785947312231 10.861439493333627 1.8737271240687117 0 0 0
2515 5 47.75498275014687 6.683964295872915 0.04720666275046881 0 0 0
2311 5 50.64922416792688 6.683964295872914 0.04720666275046727 -1 0 0
2317 5 53.543465585706876 6.683964295872913 0.04720666275046577 -1 0 0
2518 1 49.202099536591895 7.519456654635811 0.9607044350599966 0 0 0
2314 1 52.09634095437189 7.51945665463581 0.9607044350599969 -1 0 0
2727 1 47.75497882770189 10.025943247117823 0.9607044350599994 0 0 0
2516 5 49.20210345903688 9.19045088835491 0.04720666275046246 0 0 0
2523 1 50.64922024548189 10.025943247117821 0.9607044350599974 -1 0 0
2312 5 52.09634487681687 9.190450888354912 0.047206662750462806 -1 0 0
2529 1 53.543461663261894 10.025943247117823 0.9607044350600007 -1 0 0
2725 5 47.75498275014687 11.69693748083691 0.047206662750467074 0 0 0
2521 5 50.64922416792688 11.696937480836908 0.04720666275046533 -1 0 0
2527 5 53.543465585706876 11.696937480836906 0.047206662750463924 -1 0 0
2520 4 47.75498018201231 8.35495290085163 1.8737271240687121 0 0 0
2316 4 50.64922159979231 8.35495290085163 1.8737271240687134 -1 0 0
2322 4 53.54346301757231 8.354952900851632 1.873727124068715 -1 0 0
2729 4 49.20210089090231 10.861439493333627 1.8737271240687137 0 0 0
2525 4 52.09634230868231 10.861439493333627 1.8737271240687134 -1 0 0
2323 5 56.43770700348687 6.683964295872913 0.047206662750465686 -1 0 0
2329 5 59.33194842126687 6.683964295872914 0.04720666275046744 -1 0 0
2320 1 54.99058237215189 7.51945665463581 0.9607044350599945 -1 0 0
2326 1 57.8848237899319 7.51945665463581 0.9607044350599969 -1 0 0
2318 5 54.99058629459687 9.190450888354913 0.047206662750465984 -1 0 0
2535 1 56.43770308104189 10.025943247117821 0.960704435059999 -1 0 0
2324 5 57.884827712376875 9.190450888354912 0.04720666275046442 -1 0 0
2541 1 59.33194449882189 10.025943247117823 0.9607044350599981 -1 0 0
2533 5 56.43770700348687 11.696937480836906 0.047206662750463896 -1 0 0
2539 5 59.33194842126687 11.696937480836908 0.04720666275046567 -1 0 0
2328 4 56.43770443535231 8.354952900851632 1.873727124068715 -1 0 0
2334 4 59.331945853132304 8.35495290085163 1.8737271240687134 -1 0 0
2531 4 54.990583726462305 10.861439493333627 1.8737271240687106 -1 0 0
2537 4 57.88482514424231 10.861439493333627 1.8737271240687121 -1 0 0
2335 5 62.226189839046874 6.683964295872914 0.047206662750467525 -1 0 0
2341 5 65.12043125682688 6.683964295872914 0.04720666275046713 -1 0 0
2332 1 60.779065207711895 7.519456654635812 0.9607044350599988 -1 0 0
2338 1 63.67330662549189 7.519456654635811 0.9607044350599966 -1 0 0
2330 5 60.77906913015688 9.190450888354912 0.0472066627504629 -1 0 0
2547 1 62.22618591660189 10.025943247117821 0.9607044350599991 -1 0 0
2336 5 63.67331054793687 9.19045088835491 0.04720666275046106 -1 0 0
2553 1 65.12042733438189 10.025943247117823 0.9607044350599995 -1 0 0
2545 5 62.226189839046874 11.696937480836908 0.047206662750465624 -1 0 0
2551 5 65.12043125682688 11.696937480836908 0.04720666275046531 -1 0 0
2340 4 62.226187270912305 8.35495290085163 1.8737271240687134 -1 0 0
2346 4 65.1204286886923 8.35495290085163 1.873727124068714 -1 0 0
2543 4 60.77906656202231 10.861439493333627 1.8737271240687134 -1 0 0
2549 4 63.6733079798023 10.861439493333629 1.8737271240687152 -1 0 0
2347 5 68.01467267460687 6.683964295872913 0.047206662750466026 -1 0 0
2353 5 70.90891409238688 6.683964295872915 0.047206662750468774 -1 0 0
2344 1 66.56754804327188 7.519456654635811 0.9607044350599967 -1 0 0
2350 1 69.4617894610519 7.519456654635811 0.9607044350599965 -1 0 0
2342 5 66.56755196571687 9.190450888354913 0.04720666275046615 -1 0 0
2559 1 68.0146687521619 10.025943247117823 0.9607044350599988 -1 0 0
2348 5 69.46179338349687 9.19045088835491 0.04720666275046235 -1 0 0
2565 1 70.90891016994189 10.025943247117823 0.9607044350599994 -1 0 0
2557 5 68.01467267460687 11.696937480836908 0.047206662750464014 -1 0 0
2563 5 70.90891409238688 11.696937480836908 0.047206662750466886 -1 0 0
2352 4 68.01467010647231 8.354952900851632 1.873727124068715 -1 0 0
2358 4 70.9089115242523 8.35495290085163 1.8737271240687121 -1 0 0
2555 4 66.5675493975823 10.861439493333625 1.8737271240687101 -1 0 0
2561 4 69.4617908153623 10.861439493333629 1.8737271240687141 -1 0 0
2359 5 73.80315551016687 6.683964295872913 0.04720666275046602 -1 0 0
2365 5 76.69739692794687 6.683964295872913 0.04720666275046576 -1 0 0
2356 1 72.35603087883189 7.519456654635811 0.9607044350599967 -1 0 0
2362 1 75.2502722966119 7.519456654635811 0.9607044350599965 -1 0 0
2354 5 72.35603480127688 9.190450888354913 0.04720666275046616 -1 0 0
2571 1 73.8031515877219 10.025943247117823 0.9607044350599988 -1 0 0
2360 5 75.25027621905687 9.19045088835491 0.047206662750462425 -1 0 0
2577 1 76.6973930055019 10.025943247117823 0.9607044350599994 -1 0 0
2569 5 73.80315551016687 11.696937480836908 0.047206662750464014 -1 0 0
2575 5 76.69739692794687 11.696937480836906 0.047206662750464035 -1 0 0
2364 4 73.80315294203231 8.354952900851632 1.873727124068715 -1 0 0
2370 4 76.69739435981231 8.354952900851632 1.873727124068715 -1 0 0