LAMMPS data file via write_data, version 29 Aug 2024, timestep = 1, units = metal

2016 atoms
2 atom types

0 98.099239610967 xlo xhi
0 97.093066965744 ylo yhi
-50 50 zlo zhi

Masses

1 118.71
2 118.71

Atoms # atomic

549 1 4.671008760751866 1.348530656716503 -0.0023370824116559323 0 0 0
548 1 0.003236106783035141 4.0416722412824315 0.8459599979380921 0 0 0
552 1 4.674628469210039 4.041672241282429 0.8459599979380934 0 0 0
550 1 2.335312579538824 5.394075113622503 -0.0023370824116559245 0 0 0
553 1 9.342401123178865 1.348530656716503 -0.002337082411655918 0 0 0
556 1 9.346020831637038 4.041672241282429 0.8459599979380934 0 0 0
554 1 7.006704941965824 5.394075113622503 -0.002337082411655883 0 0 0
557 1 14.013793485605861 1.348530656716505 -0.0023370824116573374 0 0 0
560 1 14.017413194064034 4.041672241282427 0.8459599979380948 0 0 0
558 1 11.678097304392823 5.394075113622503 -0.0023370824116558807 0 0 0
562 1 16.349489666819824 5.394075113622503 -0.0023370824116559037 0 0 0
561 1 18.685185848032862 1.3485306567164987 -0.0023370824116530882 0 0 0
564 1 18.688805556491037 4.041672241282433 0.8459599979380905 0 0 0
566 1 21.02088202924682 5.394075113622503 -0.002337082411655928 0 0 0
565 1 23.356578210459872 1.348530656716503 -0.002337082411655929 0 0 0
569 1 28.027970572886872 1.348530656716503 -0.002337082411655926 0 0 0
568 1 23.360197918918043 4.041672241282429 0.8459599979380934 0 0 0
572 1 28.031590281345043 4.041672241282429 0.8459599979380933 0 0 0
570 1 25.69227439167382 5.394075113622503 -0.002337082411655884 0 0 0
573 1 32.69936293531387 1.348530656716503 -0.0023370824116559228 0 0 0
576 1 32.702982643772046 4.041672241282429 0.8459599979380934 0 0 0
574 1 30.36366675410082 5.394075113622503 -0.0023370824116558803 0 0 0
577 1 37.37075529774087 1.348530656716503 -0.002337082411655911 0 0 0
580 1 37.374375006199045 4.041672241282429 0.8459599979380934 0 0 0
578 1 35.03505911652782 5.394075113622503 -0.0023370824116558807 0 0 0
582 1 39.70645147895482 5.394075113622503 -0.0023370824116558885 0 0 0
581 1 42.04214766016787 1.348530656716503 -0.002337082411655915 0 0 0
584 1 42.045767368626045 4.041672241282429 0.8459599979380934 0 0 0
586 1 44.37784384138182 5.394075113622503 -0.0023370824116558764 0 0 0
585 1 46.71354002259487 1.348530656716503 -0.002337082411655935 0 0 0
505 1 51.38493238502187 1.348530656716503 -0.0023370824116559176 -1 0 0
588 1 46.717159731053044 4.041672241282429 0.8459599979380933 0 0 0
508 1 51.388552093480044 4.041672241282429 0.8459599979380934 -1 0 0
506 1 49.049236203808825 5.394075113622502 -0.002337082411654457 -1 0 0
509 1 56.05632474744887 1.3485306567165027 -0.00233708241165589 -1 0 0
512 1 56.05994445590704 4.041672241282429 0.8459599979380934 -1 0 0
510 1 53.72062856623583 5.394075113622502 -0.0023370824116544678 -1 0 0
513 1 60.72771710987587 1.348530656716503 -0.0023370824116559124 -1 0 0
516 1 60.73133681833404 4.041672241282429 0.8459599979380934 -1 0 0
514 1 58.39202092866283 5.394075113622503 -0.0023370824116558985 -1 0 0
518 1 63.06341329108983 5.394075113622503 -0.002337082411655921 -1 0 0
517 1 65.39910947230287 1.3485306567165027 -0.002337082411655876 -1 0 0
520 1 65.40272918076104 4.041672241282429 0.8459599979380934 -1 0 0
522 1 67.73480565351683 5.394075113622503 -0.002337082411655852 -1 0 0
521 1 70.07050183472987 1.348530656716503 -0.0023370824116559006 -1 0 0
525 1 74.74189419715687 1.3485306567165027 -0.0023370824116558833 -1 0 0
524 1 70.07412154318804 4.041672241282429 0.8459599979380934 -1 0 0
528 1 74.74551390561504 4.041672241282429 0.8459599979380935 -1 0 0
526 1 72.40619801594383 5.394075113622503 -0.0023370824116559505 -1 0 0
529 1 79.41328655958387 1.348530656716503 -0.002337082411655894 -1 0 0
532 1 79.41690626804204 4.041672241282429 0.8459599979380934 -1 0 0
530 1 77.07759037837083 5.394075113622503 -0.002337082411655851 -1 0 0
533 1 84.08467892201087 1.3485306567165027 -0.0023370824116558833 -1 0 0
536 1 84.08829863046904 4.041672241282429 0.8459599979380935 -1 0 0
534 1 81.74898274079783 5.394075113622503 -0.0023370824116559466 -1 0 0
538 1 86.42037510322483 5.394075113622503 -0.0023370824116558967 -1 0 0
537 1 88.75607128443788 1.3485306567164985 -0.002337082411652938 -1 0 0
540 1 88.75969099289604 4.041672241282433 0.8459599979380906 -1 0 0
542 1 91.09176746565183 5.394075113622503 -0.002337082411655929 -1 0 0
541 1 93.42746364686487 1.348530656716507 -0.0023370824116587152 -1 0 0
545 1 98.09885600929188 1.3485306567164985 -0.0023370824116529503 -1 0 0
544 1 93.43108335532304 4.041672241282424 0.8459599979380963 -1 0 0
546 1 95.76315982807883 5.394075113622503 -0.0023370824116558287 -1 0 0
635 1 2.3389322879960655 8.087216698188433 0.8459599979380917 0 0 0
633 1 4.671008760751866 9.439619570528505 -0.002337082411655919 0 0 0
639 1 7.010324650423073 8.08721669818843 0.8459599979380948 0 0 0
637 1 9.342401123178865 9.439619570528505 -0.002337082411655904 0 0 0
643 1 11.681717012850076 8.087216698188431 0.8459599979380932 0 0 0
647 1 16.353109375277082 8.08721669818843 0.8459599979380948 0 0 0
641 1 14.013793485605861 9.439619570528507 -0.002337082411657325 0 0 0
651 1 21.024501737704078 8.08721669818843 0.8459599979380947 0 0 0
645 1 18.685185848032862 9.4396195705285 -0.0023370824116530735 0 0 0
655 1 25.695894100131078 8.08721669818843 0.845959997938095 0 0 0
649 1 23.356578210459872 9.439619570528505 -0.0023370824116559154 0 0 0
653 1 28.027970572886872 9.439619570528505 -0.0023370824116559124 0 0 0
659 1 30.367286462558077 8.08721669818843 0.8459599979380948 0 0 0
657 1 32.69936293531387 9.439619570528505 -0.0023370824116559093 0 0 0
663 1 35.03867882498508 8.08721669818843 0.8459599979380948 0 0 0
667 1 39.710071187412076 8.08721669818843 0.8459599979380947 0 0 0
661 1 37.37075529774087 9.439619570528505 -0.0023370824116558967 0 0 0
671 1 44.381463549839076 8.08721669818843 0.8459599979380947 0 0 0
665 1 42.04214766016787 9.439619570528505 -0.002337082411655902 0 0 0
591 1 49.05285591226608 8.087216698188431 0.8459599979380934 -1 0 0
669 1 46.71354002259487 9.439619570528505 -0.002337082411655921 0 0 0
589 1 51.38493238502187 9.439619570528505 -0.0023370824116559046 -1 0 0
595 1 53.72424827469308 8.08721669818843 0.8459599979380947 -1 0 0
593 1 56.05632474744887 9.439619570528505 -0.002337082411655876 -1 0 0
599 1 58.39564063712008 8.08721669818843 0.8459599979380947 -1 0 0
603 1 63.06703299954709 8.087216698188431 0.8459599979380933 -1 0 0
597 1 60.72771710987587 9.439619570528505 -0.0023370824116558985 -1 0 0
607 1 67.73842536197408 8.087216698188424 0.8459599979380976 -1 0 0
601 1 65.39910947230287 9.439619570528505 -0.002337082411655864 -1 0 0
611 1 72.40981772440108 8.087216698188433 0.8459599979380918 -1 0 0
605 1 70.07050183472987 9.439619570528505 -0.0023370824116558855 -1 0 0
609 1 74.74189419715687 9.439619570528505 -0.002337082411655871 -1 0 0
615 1 77.08121008682808 8.087216698188424 0.8459599979380974 -1 0 0
613 1 79.41328655958387 9.439619570528505 -0.00233708241165588 -1 0 0
619 1 81.75260244925508 8.087216698188433 0.845959997938092 -1 0 0
623 1 86.42399481168208 8.087216698188424 0.8459599979380975 -1 0 0
617 1 84.08467892201087 9.439619570528505 -0.002337082411655871 -1 0 0
627 1 91.09538717410908 8.087216698188433 0.8459599979380917 -1 0 0
621 1 88.75607128443788 9.4396195705285 -0.002337082411652926 -1 0 0
631 1 95.76677953653608 8.087216698188424 0.8459599979380976 -1 0 0
625 1 93.42746364686487 9.439619570528508 -0.0023370824116587027 -1 0 0
629 1 98.09885600929188 9.4396195705285 -0.002337082411652937 -1 0 0
632 1 0.003236106783035141 12.132761155094432 0.8459599979380921 0 0 0
636 1 4.674628469210039 12.13276115509443 0.8459599979380934 0 0 0
634 1 2.335312579538824 13.4851640274345 -0.0023370824116575586 0 0 0
719 1 2.3389322879960655 16.178305612000436 0.8459599979380918 0 0 0
640 1 9.346020831637038 12.13276115509443 0.8459599979380934 0 0 0
638 1 7.006704941965824 13.4851640274345 -0.002337082411657517 0 0 0
723 1 7.010324650423073 16.178305612000432 0.845959997938095 0 0 0
644 1 14.017413194064034 12.132761155094428 0.8459599979380948 0 0 0
642 1 11.678097304392823 13.4851640274345 -0.0023370824116575118 0 0 0
646 1 16.349489666819824 13.4851640274345 -0.0023370824116575365 0 0 0
727 1 11.681717012850077 16.178305612000432 0.8459599979380932 0 0 0
731 1 16.353109375277082 16.178305612000432 0.8459599979380948 0 0 0
648 1 18.688805556491037 12.132761155094434 0.8459599979380904 0 0 0
650 1 21.02088202924682 13.4851640274345 -0.0023370824116575608 0 0 0
735 1 21.024501737704078 16.178305612000432 0.845959997938095 0 0 0
652 1 23.360197918918043 12.13276115509443 0.8459599979380934 0 0 0
656 1 28.031590281345043 12.13276115509443 0.8459599979380933 0 0 0
654 1 25.69227439167382 13.4851640274345 -0.0023370824116575174 0 0 0
739 1 25.695894100131078 16.178305612000432 0.8459599979380951 0 0 0
660 1 32.702982643772046 12.13276115509443 0.8459599979380933 0 0 0
658 1 30.36366675410082 13.4851640274345 -0.0023370824116575152 0 0 0
743 1 30.367286462558077 16.178305612000432 0.845959997938095 0 0 0
664 1 37.374375006199045 12.13276115509443 0.8459599979380933 0 0 0
662 1 35.03505911652782 13.4851640274345 -0.0023370824116575144 0 0 0
666 1 39.70645147895482 13.4851640274345 -0.0023370824116575213 0 0 0
747 1 35.03867882498508 16.178305612000432 0.845959997938095 0 0 0
751 1 39.710071187412076 16.178305612000432 0.8459599979380948 0 0 0
668 1 42.045767368626045 12.13276115509443 0.8459599979380934 0 0 0
670 1 44.37784384138182 13.4851640274345 -0.002337082411657509 0 0 0
755 1 44.381463549839076 16.178305612000432 0.845959997938095 0 0 0
672 1 46.717159731053044 12.13276115509443 0.8459599979380933 0 0 0
592 1 51.388552093480044 12.13276115509443 0.8459599979380934 -1 0 0
590 1 49.049236203808825 13.485164027434498 -0.0023370824116560915 -1 0 0
675 1 49.05285591226608 16.178305612000432 0.8459599979380934 -1 0 0
596 1 56.05994445590704 12.13276115509443 0.8459599979380934 -1 0 0
594 1 53.72062856623583 13.485164027434498 -0.002337082411656099 -1 0 0
679 1 53.72424827469308 16.178305612000432 0.8459599979380948 -1 0 0
600 1 60.73133681833404 12.13276115509443 0.8459599979380934 -1 0 0
598 1 58.39202092866283 13.4851640274345 -0.0023370824116575296 -1 0 0
602 1 63.06341329108983 13.4851640274345 -0.002337082411657553 -1 0 0
683 1 58.39564063712008 16.178305612000432 0.8459599979380948 -1 0 0
687 1 63.06703299954709 16.178305612000432 0.8459599979380934 -1 0 0
604 1 65.40272918076104 12.13276115509443 0.8459599979380934 -1 0 0
606 1 67.73480565351683 13.4851640274345 -0.0023370824116574853 -1 0 0
691 1 67.73842536197408 16.178305612000425 0.8459599979380977 -1 0 0
608 1 70.07412154318804 12.13276115509443 0.8459599979380934 -1 0 0
612 1 74.74551390561504 12.13276115509443 0.8459599979380935 -1 0 0
610 1 72.40619801594383 13.4851640274345 -0.002337082411657583 -1 0 0
695 1 72.40981772440108 16.178305612000436 0.845959997938092 -1 0 0
616 1 79.41690626804204 12.13276115509443 0.8459599979380934 -1 0 0
614 1 77.07759037837083 13.4851640274345 -0.002337082411657485 -1 0 0
699 1 77.08121008682808 16.178305612000425 0.8459599979380975 -1 0 0
620 1 84.08829863046904 12.13276115509443 0.8459599979380935 -1 0 0
618 1 81.74898274079783 13.4851640274345 -0.0023370824116575786 -1 0 0
622 1 86.42037510322483 13.4851640274345 -0.0023370824116575304 -1 0 0
703 1 81.75260244925508 16.178305612000436 0.845959997938092 -1 0 0
707 1 86.42399481168208 16.178305612000425 0.8459599979380976 -1 0 0
624 1 88.75969099289604 12.132761155094434 0.8459599979380906 -1 0 0
626 1 91.09176746565183 13.4851640274345 -0.002337082411657561 -1 0 0
711 1 91.09538717410908 16.178305612000436 0.8459599979380918 -1 0 0
628 1 93.43108335532304 12.132761155094427 0.8459599979380963 -1 0 0
630 1 95.76315982807883 13.4851640274345 -0.0023370824116574623 -1 0 0
715 1 95.76677953653608 16.178305612000425 0.8459599979380977 -1 0 0
717 1 4.671008760751866 17.530708484340497 -0.002337082411656015 0 0 0
716 1 0.00323610678303538 20.223850068906433 0.8459599979380922 0 0 0
720 1 4.674628469210039 20.223850068906433 0.8459599979380935 0 0 0
718 1 2.3353125795388237 21.576252941246498 -0.0023370824116559366 0 0 0
721 1 9.342401123178865 17.530708484340497 -0.0023370824116560004 0 0 0
724 1 9.34602083163704 20.223850068906433 0.8459599979380935 0 0 0
722 1 7.006704941965823 21.576252941246498 -0.002337082411655894 0 0 0
725 1 14.01379348560586 17.5307084843405 -0.0023370824116573045 0 0 0
728 1 14.017413194064034 20.22385006890643 0.8459599979380951 0 0 0
726 1 11.678097304392823 21.576252941246498 -0.0023370824116558946 0 0 0
730 1 16.349489666819824 21.576252941246498 -0.002337082411656003 0 0 0
729 1 18.685185848032862 17.530708484340494 -0.002337082411653071 0 0 0
732 1 18.688805556491037 20.223850068906437 0.8459599979380905 0 0 0
734 1 21.02088202924682 21.576252941246498 -0.0023370824116559184 0 0 0
733 1 23.356578210459872 17.530708484340497 -0.002337082411656015 0 0 0
737 1 28.027970572886872 17.530708484340497 -0.0023370824116560125 0 0 0
736 1 23.360197918918047 20.223850068906433 0.8459599979380935 0 0 0
740 1 28.031590281345046 20.223850068906433 0.8459599979380934 0 0 0
738 1 25.69227439167382 21.576252941246498 -0.0023370824116558738 0 0 0
741 1 32.69936293531387 17.530708484340497 -0.002337082411656007 0 0 0
744 1 32.702982643772046 20.223850068906433 0.8459599979380934 0 0 0
742 1 30.36366675410082 21.576252941246498 -0.00233708241165587 0 0 0
745 1 37.37075529774087 17.530708484340497 -0.002337082411655996 0 0 0
748 1 37.374375006199045 20.223850068906433 0.8459599979380934 0 0 0
746 1 35.03505911652782 21.576252941246498 -0.0023370824116558707 0 0 0
750 1 39.70645147895482 21.576252941246498 -0.0023370824116558772 0 0 0
749 1 42.04214766016787 17.530708484340497 -0.0023370824116560013 0 0 0
752 1 42.045767368626045 20.223850068906433 0.8459599979380935 0 0 0
754 1 44.37784384138182 21.576252941246498 -0.002337082411655864 0 0 0
753 1 46.71354002259487 17.530708484340497 -0.0023370824116560173 0 0 0
673 1 51.38493238502187 17.530708484340497 -0.002337082411655917 -1 0 0
756 1 46.717159731053044 20.223850068906433 0.8459599979380934 0 0 0
676 1 51.388552093480044 20.223850068906433 0.8459599979380935 -1 0 0
674 1 49.049236203808825 21.576252941246494 -0.0023370824116544773 -1 0 0
677 1 56.05632474744887 17.530708484340497 -0.002337082411655887 -1 0 0
680 1 56.05994445590704 20.223850068906433 0.8459599979380936 -1 0 0
678 1 53.72062856623583 21.576252941246494 -0.0023370824116544535 -1 0 0
681 1 60.72771710987587 17.530708484340497 -0.00233708241165591 -1 0 0
684 1 60.73133681833404 20.223850068906433 0.8459599979380936 -1 0 0
682 1 58.39202092866283 21.576252941246498 -0.0023370824116559956 -1 0 0
686 1 63.06341329108983 21.576252941246498 -0.0023370824116560195 -1 0 0
685 1 65.39910947230287 17.530708484340497 -0.0023370824116558534 -1 0 0
688 1 65.40272918076104 20.223850068906433 0.8459599979380936 -1 0 0
690 1 67.73480565351683 21.576252941246498 -0.0023370824116559527 -1 0 0
689 1 70.07050183472987 17.530708484340497 -0.002337082411655988 -1 0 0
693 1 74.74189419715687 17.530708484340497 -0.0023370824116558616 -1 0 0
692 1 70.07412154318804 20.223850068906433 0.8459599979380936 -1 0 0
696 1 74.74551390561504 20.223850068906433 0.8459599979380936 -1 0 0
694 1 72.40619801594383 21.576252941246498 -0.002337082411656048 -1 0 0
697 1 79.41328655958387 17.530708484340497 -0.0023370824116559817 -1 0 0
700 1 79.41690626804204 20.223850068906433 0.8459599979380936 -1 0 0
698 1 77.07759037837083 21.576252941246498 -0.002337082411655952 -1 0 0
701 1 84.08467892201087 17.530708484340497 -0.002337082411655863 -1 0 0
704 1 84.08829863046904 20.223850068906433 0.8459599979380936 -1 0 0
702 1 81.74898274079783 21.576252941246498 -0.002337082411656044 -1 0 0
706 1 86.42037510322483 21.576252941246498 -0.002337082411655998 -1 0 0
705 1 88.75607128443788 17.530708484340494 -0.0023370824116530136 -1 0 0
708 1 88.75969099289604 20.223850068906437 0.8459599979380907 -1 0 0
710 1 91.09176746565183 21.576252941246498 -0.0023370824116559215 -1 0 0
709 1 93.42746364686487 17.5307084843405 -0.002337082411658791 -1 0 0
713 1 98.09885600929188 17.530708484340494 -0.0023370824116530236 -1 0 0
712 1 93.43108335532304 20.22385006890643 0.8459599979380964 -1 0 0
714 1 95.76315982807883 21.576252941246498 -0.0023370824116559267 -1 0 0
803 1 2.3389322879960655 24.269394525812437 0.845959997938092 0 0 0
801 1 4.671008760751866 25.6217973981525 -0.002337082411656017 0 0 0
800 1 0.003236106783035379 28.314938982718434 0.8459599979380922 0 0 0
804 1 4.674628469210039 28.314938982718434 0.8459599979380935 0 0 0
807 1 7.010324650423073 24.269394525812434 0.8459599979380951 0 0 0
805 1 9.342401123178865 25.6217973981525 -0.002337082411656002 0 0 0
808 1 9.34602083163704 28.314938982718434 0.8459599979380935 0 0 0
811 1 11.681717012850077 24.269394525812434 0.8459599979380933 0 0 0
815 1 16.353109375277082 24.269394525812434 0.8459599979380948 0 0 0
809 1 14.01379348560586 25.621797398152502 -0.0023370824116573066 0 0 0
812 1 14.017413194064034 28.31493898271843 0.8459599979380951 0 0 0
819 1 21.024501737704078 24.269394525812434 0.845959997938095 0 0 0
813 1 18.685185848032862 25.621797398152495 -0.00233708241165307 0 0 0
816 1 18.688805556491037 28.314938982718438 0.8459599979380905 0 0 0
823 1 25.695894100131078 24.269394525812434 0.8459599979380952 0 0 0
817 1 23.356578210459872 25.6217973981525 -0.002337082411656015 0 0 0
821 1 28.027970572886872 25.6217973981525 -0.0023370824116560095 0 0 0
820 1 23.360197918918047 28.314938982718434 0.8459599979380935 0 0 0
824 1 28.031590281345046 28.314938982718434 0.8459599979380934 0 0 0
827 1 30.367286462558077 24.269394525812434 0.8459599979380951 0 0 0
825 1 32.69936293531387 25.6217973981525 -0.0023370824116560065 0 0 0
828 1 32.702982643772046 28.314938982718434 0.8459599979380934 0 0 0
831 1 35.03867882498508 24.269394525812434 0.8459599979380951 0 0 0
835 1 39.710071187412076 24.269394525812434 0.845959997938095 0 0 0
829 1 37.37075529774087 25.6217973981525 -0.002337082411655997 0 0 0
832 1 37.374375006199045 28.314938982718434 0.8459599979380934 0 0 0
839 1 44.381463549839076 24.269394525812434 0.845959997938095 0 0 0
833 1 42.04214766016787 25.6217973981525 -0.0023370824116560026 0 0 0
836 1 42.045767368626045 28.314938982718434 0.8459599979380935 0 0 0
759 1 49.05285591226608 24.269394525812434 0.8459599979380935 -1 0 0
837 1 46.71354002259487 25.6217973981525 -0.002337082411656019 0 0 0
757 1 51.38493238502187 25.6217973981525 -0.0023370824116559163 -1 0 0
840 1 46.717159731053044 28.314938982718434 0.8459599979380934 0 0 0
760 1 51.388552093480044 28.314938982718434 0.8459599979380935 -1 0 0
763 1 53.72424827469308 24.269394525812434 0.8459599979380948 -1 0 0
761 1 56.05632474744887 25.6217973981525 -0.0023370824116558863 -1 0 0
764 1 56.05994445590704 28.314938982718434 0.8459599979380936 -1 0 0
767 1 58.39564063712008 24.269394525812434 0.8459599979380948 -1 0 0
771 1 63.06703299954709 24.269394525812434 0.8459599979380934 -1 0 0
765 1 60.72771710987587 25.6217973981525 -0.0023370824116559098 -1 0 0
768 1 60.73133681833404 28.314938982718434 0.8459599979380936 -1 0 0
775 1 67.73842536197408 24.269394525812427 0.8459599979380978 -1 0 0
769 1 65.39910947230287 25.6217973981525 -0.0023370824116558542 -1 0 0
772 1 65.40272918076104 28.314938982718434 0.8459599979380936 -1 0 0
779 1 72.40981772440108 24.269394525812437 0.845959997938092 -1 0 0
773 1 70.07050183472987 25.6217973981525 -0.002337082411655988 -1 0 0
777 1 74.74189419715687 25.6217973981525 -0.0023370824116558625 -1 0 0
776 1 70.07412154318804 28.314938982718434 0.8459599979380936 -1 0 0
780 1 74.74551390561504 28.314938982718434 0.8459599979380936 -1 0 0
783 1 77.08121008682808 24.269394525812427 0.8459599979380976 -1 0 0
781 1 79.41328655958387 25.6217973981525 -0.002337082411655982 -1 0 0
784 1 79.41690626804204 28.314938982718434 0.8459599979380936 -1 0 0
787 1 81.75260244925508 24.269394525812437 0.8459599979380921 -1 0 0
791 1 86.42399481168208 24.269394525812427 0.8459599979380976 -1 0 0
785 1 84.08467892201087 25.6217973981525 -0.0023370824116558625 -1 0 0
788 1 84.08829863046904 28.314938982718434 0.8459599979380936 -1 0 0
795 1 91.09538717410908 24.269394525812437 0.845959997938092 -1 0 0
789 1 88.75607128443788 25.621797398152495 -0.002337082411653016 -1 0 0
792 1 88.75969099289604 28.314938982718438 0.8459599979380907 -1 0 0
799 1 95.76677953653608 24.269394525812427 0.8459599979380978 -1 0 0
793 1 93.42746364686487 25.621797398152502 -0.002337082411658793 -1 0 0
797 1 98.09885600929188 25.621797398152495 -0.002337082411653025 -1 0 0
796 1 93.43108335532304 28.31493898271843 0.8459599979380964 -1 0 0
802 1 2.3353125795388237 29.6673418550585 -0.002337082411655938 0 0 0
887 1 2.3389322879960655 32.36048343962444 0.845959997938092 0 0 0
885 1 4.671008760751866 33.7128863119645 -0.0023370824116560147 0 0 0
806 1 7.006704941965823 29.6673418550585 -0.002337082411655896 0 0 0
891 1 7.010324650423073 32.36048343962443 0.8459599979380951 0 0 0
889 1 9.342401123178865 33.7128863119645 -0.0023370824116560026 0 0 0
810 1 11.678097304392823 29.6673418550585 -0.0023370824116558946 0 0 0
814 1 16.349489666819824 29.6673418550585 -0.0023370824116560034 0 0 0
895 1 11.681717012850077 32.36048343962444 0.8459599979380933 0 0 0
899 1 16.353109375277082 32.36048343962443 0.8459599979380948 0 0 0
893 1 14.01379348560586 33.7128863119645 -0.0023370824116573058 0 0 0
818 1 21.02088202924682 29.6673418550585 -0.002337082411655918 0 0 0
903 1 21.024501737704078 32.36048343962443 0.845959997938095 0 0 0
897 1 18.685185848032862 33.712886311964496 -0.0023370824116530696 0 0 0
822 1 25.69227439167382 29.6673418550585 -0.0023370824116558746 0 0 0
907 1 25.695894100131078 32.36048343962443 0.8459599979380952 0 0 0
901 1 23.356578210459872 33.7128863119645 -0.0023370824116560134 0 0 0
905 1 28.027970572886872 33.7128863119645 -0.002337082411656009 0 0 0
826 1 30.36366675410082 29.6673418550585 -0.0023370824116558694 0 0 0
911 1 30.367286462558077 32.36048343962443 0.8459599979380951 0 0 0
909 1 32.69936293531387 33.7128863119645 -0.002337082411656006 0 0 0
830 1 35.03505911652782 29.6673418550585 -0.0023370824116558686 0 0 0
834 1 39.70645147895482 29.6673418550585 -0.0023370824116558794 0 0 0
915 1 35.03867882498508 32.36048343962443 0.8459599979380951 0 0 0
919 1 39.710071187412076 32.36048343962443 0.845959997938095 0 0 0
913 1 37.37075529774087 33.7128863119645 -0.002337082411655995 0 0 0
838 1 44.37784384138182 29.6673418550585 -0.002337082411655866 0 0 0
923 1 44.381463549839076 32.36048343962443 0.845959997938095 0 0 0
917 1 42.04214766016787 33.7128863119645 -0.0023370824116560004 0 0 0
758 1 49.049236203808825 29.667341855058496 -0.0023370824116544773 -1 0 0
843 1 49.05285591226608 32.36048343962444 0.8459599979380935 -1 0 0
921 1 46.71354002259487 33.7128863119645 -0.0023370824116560173 0 0 0
841 1 51.38493238502187 33.7128863119645 -0.0023370824116559145 -1 0 0
762 1 53.72062856623583 29.667341855058496 -0.0023370824116544535 -1 0 0
847 1 53.72424827469308 32.36048343962443 0.8459599979380948 -1 0 0
845 1 56.05632474744887 33.712886311964496 -0.0023370824116558855 -1 0 0
766 1 58.39202092866283 29.6673418550585 -0.0023370824116559948 -1 0 0
770 1 63.06341329108983 29.6673418550585 -0.0023370824116560177 -1 0 0
851 1 58.39564063712008 32.36048343962443 0.8459599979380948 -1 0 0
855 1 63.06703299954709 32.36048343962444 0.8459599979380934 -1 0 0
849 1 60.72771710987587 33.7128863119645 -0.002337082411655908 -1 0 0
774 1 67.73480565351683 29.6673418550585 -0.0023370824116559536 -1 0 0
859 1 67.73842536197408 32.36048343962443 0.8459599979380978 -1 0 0
853 1 65.39910947230287 33.712886311964496 -0.0023370824116558525 -1 0 0
778 1 72.40619801594383 29.6673418550585 -0.002337082411656048 -1 0 0
863 1 72.40981772440108 32.36048343962444 0.845959997938092 -1 0 0
857 1 70.07050183472987 33.7128863119645 -0.002337082411655988 -1 0 0
861 1 74.74189419715687 33.712886311964496 -0.002337082411655861 -1 0 0
782 1 77.07759037837083 29.6673418550585 -0.002337082411655952 -1 0 0
867 1 77.08121008682808 32.36048343962443 0.8459599979380976 -1 0 0
865 1 79.41328655958387 33.7128863119645 -0.0023370824116559813 -1 0 0
786 1 81.74898274079783 29.6673418550585 -0.002337082411656045 -1 0 0
790 1 86.42037510322483 29.6673418550585 -0.0023370824116559974 -1 0 0
871 1 81.75260244925508 32.36048343962444 0.845959997938092 -1 0 0
875 1 86.42399481168208 32.36048343962443 0.8459599979380976 -1 0 0
869 1 84.08467892201087 33.712886311964496 -0.0023370824116558616 -1 0 0
794 1 91.09176746565183 29.6673418550585 -0.00233708241165592 -1 0 0
879 1 91.09538717410908 32.36048343962444 0.845959997938092 -1 0 0
873 1 88.75607128443788 33.712886311964496 -0.002337082411653013 -1 0 0
798 1 95.76315982807883 29.6673418550585 -0.0023370824116559267 -1 0 0
883 1 95.76677953653608 32.36048343962443 0.8459599979380978 -1 0 0
877 1 93.42746364686487 33.7128863119645 -0.0023370824116587924 -1 0 0
881 1 98.09885600929188 33.712886311964496 -0.0023370824116530236 -1 0 0
884 1 0.0032361067830353808 36.40602789653044 0.8459599979380922 0 0 0
888 1 4.674628469210039 36.40602789653043 0.8459599979380935 0 0 0
886 1 2.3353125795388237 37.7584307688705 -0.002337082411655789 0 0 0
892 1 9.34602083163704 36.40602789653043 0.8459599979380935 0 0 0
890 1 7.006704941965823 37.7584307688705 -0.002337082411655745 0 0 0
896 1 14.017413194064034 36.40602789653043 0.8459599979380951 0 0 0
894 1 11.678097304392823 37.7584307688705 -0.0023370824116557476 0 0 0
898 1 16.349489666819824 37.758430768870504 -0.0023370824116558555 0 0 0
900 1 18.688805556491037 36.40602789653044 0.8459599979380905 0 0 0
902 1 21.02088202924682 37.7584307688705 -0.0023370824116557684 0 0 0
904 1 23.360197918918047 36.40602789653043 0.8459599979380935 0 0 0
908 1 28.031590281345046 36.40602789653043 0.8459599979380934 0 0 0
906 1 25.69227439167382 37.7584307688705 -0.002337082411655725 0 0 0
912 1 32.702982643772046 36.40602789653043 0.8459599979380934 0 0 0
910 1 30.36366675410082 37.7584307688705 -0.002337082411655721 0 0 0
916 1 37.374375006199045 36.40602789653043 0.8459599979380934 0 0 0
914 1 35.03505911652782 37.7584307688705 -0.002337082411655721 0 0 0
918 1 39.70645147895482 37.7584307688705 -0.0023370824116557293 0 0 0
920 1 42.045767368626045 36.40602789653043 0.8459599979380935 0 0 0
922 1 44.37784384138182 37.7584307688705 -0.002337082411655716 0 0 0
924 1 46.717159731053044 36.40602789653043 0.8459599979380934 0 0 0
844 1 51.388552093480044 36.40602789653043 0.8459599979380935 -1 0 0
842 1 49.049236203808825 37.7584307688705 -0.0023370824116543303 -1 0 0
848 1 56.05994445590704 36.40602789653043 0.8459599979380936 -1 0 0
846 1 53.72062856623583 37.7584307688705 -0.0023370824116543077 -1 0 0
852 1 60.73133681833404 36.40602789653043 0.8459599979380936 -1 0 0
850 1 58.39202092866283 37.758430768870504 -0.0023370824116558495 -1 0 0
854 1 63.06341329108983 37.758430768870504 -0.002337082411655872 -1 0 0
856 1 65.40272918076104 36.40602789653043 0.8459599979380936 -1 0 0
858 1 67.73480565351683 37.758430768870504 -0.002337082411655805 -1 0 0
860 1 70.07412154318804 36.40602789653043 0.8459599979380936 -1 0 0
864 1 74.74551390561504 36.40602789653043 0.8459599979380936 -1 0 0
862 1 72.40619801594383 37.7584307688705 -0.0023370824116559015 -1 0 0
868 1 79.41690626804204 36.40602789653043 0.8459599979380936 -1 0 0
866 1 77.07759037837083 37.758430768870504 -0.002337082411655804 -1 0 0
872 1 84.08829863046904 36.40602789653043 0.8459599979380937 -1 0 0
870 1 81.74898274079783 37.7584307688705 -0.0023370824116558967 -1 0 0
874 1 86.42037510322483 37.758430768870504 -0.0023370824116558495 -1 0 0
876 1 88.75969099289604 36.40602789653044 0.8459599979380907 -1 0 0
878 1 91.09176746565183 37.7584307688705 -0.0023370824116557723 -1 0 0
880 1 93.43108335532304 36.40602789653043 0.8459599979380964 -1 0 0
882 1 95.76315982807883 37.758430768870504 -0.0023370824116557792 -1 0 0
971 1 2.3389322879960655 40.45157235343643 0.845959997938095 0 0 0
969 1 4.671008760751866 41.803975225776504 -0.00233708241165596 0 0 0
968 1 0.0032361067830351154 44.49711681034242 0.8459599979380921 0 0 0
972 1 4.674628469210039 44.49711681034242 0.8459599979380934 0 0 0
975 1 7.010324650423073 40.451572353436426 0.8459599979380981 0 0 0
973 1 9.342401123178865 41.803975225776504 -0.0023370824116559475 0 0 0
976 1 9.346020831637038 44.49711681034242 0.8459599979380935 0 0 0
979 1 11.681717012850076 40.45157235343643 0.8459599979380964 0 0 0
983 1 16.353109375277082 40.451572353436426 0.8459599979380981 0 0 0
977 1 14.013793485605861 41.803975225776504 -0.0023370824116573986 0 0 0
980 1 14.017413194064035 44.49711681034242 0.8459599979380948 0 0 0
987 1 21.024501737704078 40.451572353436426 0.8459599979380981 0 0 0
981 1 18.685185848032862 41.8039752257765 -0.0023370824116531273 0 0 0
984 1 18.688805556491037 44.497116810342426 0.8459599979380904 0 0 0
991 1 25.695894100131078 40.451572353436426 0.8459599979380982 0 0 0
985 1 23.356578210459872 41.803975225776504 -0.0023370824116559458 0 0 0
989 1 28.027970572886872 41.803975225776504 -0.0023370824116559392 0 0 0
988 1 23.360197918918043 44.49711681034242 0.8459599979380935 0 0 0
992 1 28.031590281345043 44.49711681034242 0.8459599979380934 0 0 0
995 1 30.367286462558077 40.451572353436426 0.8459599979380981 0 0 0
993 1 32.69936293531387 41.803975225776504 -0.0023370824116559353 0 0 0
996 1 32.702982643772046 44.49711681034242 0.8459599979380934 0 0 0
999 1 35.03867882498508 40.451572353436426 0.8459599979380981 0 0 0
1003 1 39.710071187412076 40.451572353436426 0.845959997938098 0 0 0
997 1 37.37075529774087 41.803975225776504 -0.002337082411655926 0 0 0
1000 1 37.374375006199045 44.49711681034242 0.8459599979380934 0 0 0
1007 1 44.381463549839076 40.451572353436426 0.845959997938098 0 0 0