LAMMPS data file via write_data, version 29 Aug 2024, timestep = 0, units = metal

1008 atoms
1 atom types

0 98.099239610967 xlo xhi
0 97.093066965744 ylo yhi
0 15.2 zlo zhi

Masses

1 118.71

Atoms # atomic

551 1 2.3356961812134998 0 0.846707393847999 0 0 0
549 1 4.671392362426495 1.3485148189690008 0 0 0 0
555 1 7.007088543640499 0 0.846707393847999 0 0 0
553 1 9.342784724853495 1.3485148189690008 0 0 0 0
559 1 11.678480906067499 0 0.846707393847999 0 0 0
557 1 14.014177087280501 1.3485148189690008 0 0 0 0
563 1 16.34987326849449 0 0.846707393847999 0 0 0
561 1 18.6855694497075 1.3485148189690008 0 0 0 0
567 1 21.021265630921505 0 0.846707393847999 0 0 0
565 1 23.3569618121345 1.3485148189690008 0 0 0 0
571 1 25.692657993348504 0 0.846707393847999 0 0 0
569 1 28.0283541745615 1.3485148189690008 0 0 0 0
575 1 30.364050355775504 0 0.846707393847999 0 0 0
573 1 32.6997465369885 1.3485148189690008 0 0 0 0
579 1 35.0354427182025 0 0.846707393847999 0 0 0
577 1 37.3711388994155 1.3485148189690008 0 0 0 0
583 1 39.7068350806295 0 0.846707393847999 0 0 0
581 1 42.0425312618425 1.3485148189690008 0 0 0 0
587 1 44.3782274430565 0 0.846707393847999 0 0 0
585 1 46.7139236242695 1.3485148189690008 0 0 0 0
507 1 49.0496198054835 0 0.846707393847999 -1 0 0
505 1 51.385315986696504 1.3485148189690008 0 -1 0 0
511 1 53.7210121679105 0 0.846707393847999 -1 0 0
509 1 56.056708349123504 1.3485148189690008 0 -1 0 0
515 1 58.3924045303375 0 0.846707393847999 -1 0 0
513 1 60.7281007115505 1.3485148189690008 0 -1 0 0
519 1 63.0637968927645 0 0.846707393847999 -1 0 0
517 1 65.39949307397751 1.3485148189690008 0 -1 0 0
523 1 67.7351892551915 0 0.846707393847999 -1 0 0
521 1 70.0708854364045 1.3485148189690008 0 -1 0 0
527 1 72.4065816176185 0 0.846707393847999 -1 0 0
525 1 74.74227779883151 1.3485148189690008 0 -1 0 0
531 1 77.0779739800455 0 0.846707393847999 -1 0 0
529 1 79.4136701612585 1.3485148189690008 0 -1 0 0
535 1 81.7493663424725 0 0.846707393847999 -1 0 0
533 1 84.08506252368551 1.3485148189690008 0 -1 0 0
539 1 86.4207587048995 0 0.846707393847999 -1 0 0
537 1 88.7564548861125 1.3485148189690008 0 -1 0 0
543 1 91.09215106732651 0 0.846707393847999 -1 0 0
541 1 93.4278472485395 1.3485148189690008 0 -1 0 0
547 1 95.7635434297535 0 0.846707393847999 -1 0 0
545 1 98.09923961096649 1.3485148189690008 0 -1 0 0
548 1 4.973799150320701e-13 4.045544456906001 0.846707393847999 0 0 0
552 1 4.671392362427497 4.045544456906001 0.846707393847999 0 0 0
556 1 9.342784724854496 4.045544456906001 0.846707393847999 0 0 0
560 1 14.014177087281496 4.045544456906001 0.846707393847999 0 0 0
564 1 18.685569449708495 4.045544456906001 0.846707393847999 0 0 0
568 1 23.356961812135495 4.045544456906001 0.846707393847999 0 0 0
572 1 28.028354174562494 4.045544456906001 0.846707393847999 0 0 0
576 1 32.699746536989494 4.045544456906001 0.846707393847999 0 0 0
580 1 37.37113889941649 4.045544456906001 0.846707393847999 0 0 0
584 1 42.04253126184349 4.045544456906001 0.846707393847999 0 0 0
588 1 46.71392362427049 4.045544456906001 0.846707393847999 0 0 0
508 1 51.3853159866975 4.045544456906001 0.846707393847999 -1 0 0
512 1 56.056708349124506 4.045544456906001 0.846707393847999 -1 0 0
516 1 60.728100711551505 4.045544456906001 0.846707393847999 -1 0 0
520 1 65.3994930739785 4.045544456906001 0.846707393847999 -1 0 0
524 1 70.0708854364055 4.045544456906001 0.846707393847999 -1 0 0
528 1 74.7422777988325 4.045544456906001 0.846707393847999 -1 0 0
532 1 79.4136701612595 4.045544456906001 0.846707393847999 -1 0 0
536 1 84.0850625236865 4.045544456906001 0.846707393847999 -1 0 0
540 1 88.7564548861135 4.045544456906001 0.846707393847999 -1 0 0
544 1 93.4278472485405 4.045544456906001 0.846707393847999 -1 0 0
550 1 2.3356961812134998 5.3940592758750014 0 0 0 0
554 1 7.007088543640499 5.3940592758750014 0 0 0 0
558 1 11.678480906067499 5.3940592758750014 0 0 0 0
562 1 16.34987326849449 5.3940592758750014 0 0 0 0
566 1 21.021265630921505 5.3940592758750014 0 0 0 0
570 1 25.692657993348504 5.3940592758750014 0 0 0 0
574 1 30.364050355775504 5.3940592758750014 0 0 0 0
578 1 35.0354427182025 5.3940592758750014 0 0 0 0
582 1 39.7068350806295 5.3940592758750014 0 0 0 0
586 1 44.3782274430565 5.3940592758750014 0 0 0 0
506 1 49.0496198054835 5.3940592758750014 0 -1 0 0
510 1 53.7210121679105 5.3940592758750014 0 -1 0 0
514 1 58.3924045303375 5.3940592758750014 0 -1 0 0
518 1 63.0637968927645 5.3940592758750014 0 -1 0 0
522 1 67.7351892551915 5.3940592758750014 0 -1 0 0
526 1 72.4065816176185 5.3940592758750014 0 -1 0 0
530 1 77.0779739800455 5.3940592758750014 0 -1 0 0
534 1 81.7493663424725 5.3940592758750014 0 -1 0 0
538 1 86.4207587048995 5.3940592758750014 0 -1 0 0
542 1 91.09215106732651 5.3940592758750014 0 -1 0 0
546 1 95.7635434297535 5.3940592758750014 0 -1 0 0
635 1 2.3356961812134998 8.091088913812001 0.846707393847999 0 0 0
639 1 7.007088543640499 8.091088913812001 0.846707393847999 0 0 0
643 1 11.678480906067499 8.091088913812001 0.846707393847999 0 0 0
647 1 16.34987326849449 8.091088913812001 0.846707393847999 0 0 0
651 1 21.021265630921505 8.091088913812001 0.846707393847999 0 0 0
655 1 25.692657993348504 8.091088913812001 0.846707393847999 0 0 0
659 1 30.364050355775504 8.091088913812001 0.846707393847999 0 0 0
663 1 35.0354427182025 8.091088913812001 0.846707393847999 0 0 0
667 1 39.7068350806295 8.091088913812001 0.846707393847999 0 0 0
671 1 44.3782274430565 8.091088913812001 0.846707393847999 0 0 0
591 1 49.0496198054835 8.091088913812001 0.846707393847999 -1 0 0
595 1 53.7210121679105 8.091088913812001 0.846707393847999 -1 0 0
599 1 58.3924045303375 8.091088913812001 0.846707393847999 -1 0 0
603 1 63.0637968927645 8.091088913812001 0.846707393847999 -1 0 0
607 1 67.7351892551915 8.091088913812001 0.846707393847999 -1 0 0
611 1 72.4065816176185 8.091088913812001 0.846707393847999 -1 0 0
615 1 77.0779739800455 8.091088913812001 0.846707393847999 -1 0 0
619 1 81.7493663424725 8.091088913812001 0.846707393847999 -1 0 0
623 1 86.4207587048995 8.091088913812001 0.846707393847999 -1 0 0
627 1 91.09215106732651 8.091088913812001 0.846707393847999 -1 0 0
631 1 95.7635434297535 8.091088913812001 0.846707393847999 -1 0 0
633 1 4.671392362426495 9.439603732781002 0 0 0 0
637 1 9.342784724853495 9.439603732781002 0 0 0 0
641 1 14.014177087280501 9.439603732781002 0 0 0 0
645 1 18.6855694497075 9.439603732781002 0 0 0 0
649 1 23.3569618121345 9.439603732781002 0 0 0 0
653 1 28.0283541745615 9.439603732781002 0 0 0 0
657 1 32.6997465369885 9.439603732781002 0 0 0 0
661 1 37.3711388994155 9.439603732781002 0 0 0 0
665 1 42.0425312618425 9.439603732781002 0 0 0 0
669 1 46.7139236242695 9.439603732781002 0 0 0 0
589 1 51.385315986696504 9.439603732781002 0 -1 0 0
593 1 56.056708349123504 9.439603732781002 0 -1 0 0
597 1 60.7281007115505 9.439603732781002 0 -1 0 0
601 1 65.39949307397751 9.439603732781002 0 -1 0 0
605 1 70.0708854364045 9.439603732781002 0 -1 0 0
609 1 74.74227779883151 9.439603732781002 0 -1 0 0
613 1 79.4136701612585 9.439603732781002 0 -1 0 0
617 1 84.08506252368551 9.439603732781002 0 -1 0 0
621 1 88.7564548861125 9.439603732781002 0 -1 0 0
625 1 93.4278472485395 9.439603732781002 0 -1 0 0
629 1 98.09923961096649 9.439603732781002 0 -1 0 0
632 1 4.973799150320701e-13 12.136633370718002 0.846707393847999 0 0 0
636 1 4.671392362427497 12.136633370718002 0.846707393847999 0 0 0
640 1 9.342784724854496 12.136633370718002 0.846707393847999 0 0 0
644 1 14.014177087281496 12.136633370718002 0.846707393847999 0 0 0
648 1 18.685569449708495 12.136633370718002 0.846707393847999 0 0 0
652 1 23.356961812135495 12.136633370718002 0.846707393847999 0 0 0
656 1 28.028354174562494 12.136633370718002 0.846707393847999 0 0 0
660 1 32.699746536989494 12.136633370718002 0.846707393847999 0 0 0
664 1 37.37113889941649 12.136633370718002 0.846707393847999 0 0 0
668 1 42.04253126184349 12.136633370718002 0.846707393847999 0 0 0
672 1 46.71392362427049 12.136633370718002 0.846707393847999 0 0 0
592 1 51.3853159866975 12.136633370718002 0.846707393847999 -1 0 0
596 1 56.056708349124506 12.136633370718002 0.846707393847999 -1 0 0
600 1 60.728100711551505 12.136633370718002 0.846707393847999 -1 0 0
604 1 65.3994930739785 12.136633370718002 0.846707393847999 -1 0 0
608 1 70.0708854364055 12.136633370718002 0.846707393847999 -1 0 0
612 1 74.7422777988325 12.136633370718002 0.846707393847999 -1 0 0
616 1 79.4136701612595 12.136633370718002 0.846707393847999 -1 0 0
620 1 84.0850625236865 12.136633370718002 0.846707393847999 -1 0 0
624 1 88.7564548861135 12.136633370718002 0.846707393847999 -1 0 0
628 1 93.4278472485405 12.136633370718002 0.846707393847999 -1 0 0
634 1 2.3356961812134998 13.485148189687003 0 0 0 0
638 1 7.007088543640499 13.485148189687003 0 0 0 0
642 1 11.678480906067499 13.485148189687003 0 0 0 0
646 1 16.34987326849449 13.485148189687003 0 0 0 0
650 1 21.021265630921505 13.485148189687003 0 0 0 0
654 1 25.692657993348504 13.485148189687003 0 0 0 0
658 1 30.364050355775504 13.485148189687003 0 0 0 0
662 1 35.0354427182025 13.485148189687003 0 0 0 0
666 1 39.7068350806295 13.485148189687003 0 0 0 0
670 1 44.3782274430565 13.485148189687003 0 0 0 0
590 1 49.0496198054835 13.485148189687003 0 -1 0 0
594 1 53.7210121679105 13.485148189687003 0 -1 0 0
598 1 58.3924045303375 13.485148189687003 0 -1 0 0
602 1 63.0637968927645 13.485148189687003 0 -1 0 0
606 1 67.7351892551915 13.485148189687003 0 -1 0 0
610 1 72.4065816176185 13.485148189687003 0 -1 0 0
614 1 77.0779739800455 13.485148189687003 0 -1 0 0
618 1 81.7493663424725 13.485148189687003 0 -1 0 0
622 1 86.4207587048995 13.485148189687003 0 -1 0 0
626 1 91.09215106732651 13.485148189687003 0 -1 0 0
630 1 95.7635434297535 13.485148189687003 0 -1 0 0
719 1 2.3356961812134998 16.182177827623995 0.846707393847999 0 0 0
723 1 7.007088543640499 16.182177827623995 0.846707393847999 0 0 0
727 1 11.678480906067499 16.182177827623995 0.846707393847999 0 0 0
731 1 16.34987326849449 16.182177827623995 0.846707393847999 0 0 0
735 1 21.021265630921505 16.182177827623995 0.846707393847999 0 0 0
739 1 25.692657993348504 16.182177827623995 0.846707393847999 0 0 0
743 1 30.364050355775504 16.182177827623995 0.846707393847999 0 0 0
747 1 35.0354427182025 16.182177827623995 0.846707393847999 0 0 0
751 1 39.7068350806295 16.182177827623995 0.846707393847999 0 0 0
755 1 44.3782274430565 16.182177827623995 0.846707393847999 0 0 0
675 1 49.0496198054835 16.182177827623995 0.846707393847999 -1 0 0
679 1 53.7210121679105 16.182177827623995 0.846707393847999 -1 0 0
683 1 58.3924045303375 16.182177827623995 0.846707393847999 -1 0 0
687 1 63.0637968927645 16.182177827623995 0.846707393847999 -1 0 0
691 1 67.7351892551915 16.182177827623995 0.846707393847999 -1 0 0
695 1 72.4065816176185 16.182177827623995 0.846707393847999 -1 0 0
699 1 77.0779739800455 16.182177827623995 0.846707393847999 -1 0 0
703 1 81.7493663424725 16.182177827623995 0.846707393847999 -1 0 0
707 1 86.4207587048995 16.182177827623995 0.846707393847999 -1 0 0
711 1 91.09215106732651 16.182177827623995 0.846707393847999 -1 0 0
715 1 95.7635434297535 16.182177827623995 0.846707393847999 -1 0 0
717 1 4.671392362426495 17.530692646593003 0 0 0 0
721 1 9.342784724853495 17.530692646593003 0 0 0 0
725 1 14.014177087280501 17.530692646593003 0 0 0 0
729 1 18.6855694497075 17.530692646593003 0 0 0 0
733 1 23.3569618121345 17.530692646593003 0 0 0 0
737 1 28.0283541745615 17.530692646593003 0 0 0 0
741 1 32.6997465369885 17.530692646593003 0 0 0 0
745 1 37.3711388994155 17.530692646593003 0 0 0 0
749 1 42.0425312618425 17.530692646593003 0 0 0 0
753 1 46.7139236242695 17.530692646593003 0 0 0 0
673 1 51.385315986696504 17.530692646593003 0 -1 0 0
677 1 56.056708349123504 17.530692646593003 0 -1 0 0
681 1 60.7281007115505 17.530692646593003 0 -1 0 0
685 1 65.39949307397751 17.530692646593003 0 -1 0 0
689 1 70.0708854364045 17.530692646593003 0 -1 0 0
693 1 74.74227779883151 17.530692646593003 0 -1 0 0
697 1 79.4136701612585 17.530692646593003 0 -1 0 0
701 1 84.08506252368551 17.530692646593003 0 -1 0 0
705 1 88.7564548861125 17.530692646593003 0 -1 0 0
709 1 93.4278472485395 17.530692646593003 0 -1 0 0
713 1 98.09923961096649 17.530692646593003 0 -1 0 0
716 1 4.973799150320701e-13 20.227722284529996 0.846707393847999 0 0 0
720 1 4.671392362427497 20.227722284529996 0.846707393847999 0 0 0
724 1 9.342784724854496 20.227722284529996 0.846707393847999 0 0 0
728 1 14.014177087281496 20.227722284529996 0.846707393847999 0 0 0
732 1 18.685569449708495 20.227722284529996 0.846707393847999 0 0 0
736 1 23.356961812135495 20.227722284529996 0.846707393847999 0 0 0
740 1 28.028354174562494 20.227722284529996 0.846707393847999 0 0 0
744 1 32.699746536989494 20.227722284529996 0.846707393847999 0 0 0
748 1 37.37113889941649 20.227722284529996 0.846707393847999 0 0 0
752 1 42.04253126184349 20.227722284529996 0.846707393847999 0 0 0
756 1 46.71392362427049 20.227722284529996 0.846707393847999 0 0 0
676 1 51.3853159866975 20.227722284529996 0.846707393847999 -1 0 0
680 1 56.056708349124506 20.227722284529996 0.846707393847999 -1 0 0
684 1 60.728100711551505 20.227722284529996 0.846707393847999 -1 0 0
688 1 65.3994930739785 20.227722284529996 0.846707393847999 -1 0 0
692 1 70.0708854364055 20.227722284529996 0.846707393847999 -1 0 0
696 1 74.7422777988325 20.227722284529996 0.846707393847999 -1 0 0
700 1 79.4136701612595 20.227722284529996 0.846707393847999 -1 0 0
704 1 84.0850625236865 20.227722284529996 0.846707393847999 -1 0 0
708 1 88.7564548861135 20.227722284529996 0.846707393847999 -1 0 0
712 1 93.4278472485405 20.227722284529996 0.846707393847999 -1 0 0
718 1 2.3356961812134998 21.576237103499004 0 0 0 0
722 1 7.007088543640499 21.576237103499004 0 0 0 0
726 1 11.678480906067499 21.576237103499004 0 0 0 0
730 1 16.34987326849449 21.576237103499004 0 0 0 0
734 1 21.021265630921505 21.576237103499004 0 0 0 0
738 1 25.692657993348504 21.576237103499004 0 0 0 0
742 1 30.364050355775504 21.576237103499004 0 0 0 0
746 1 35.0354427182025 21.576237103499004 0 0 0 0
750 1 39.7068350806295 21.576237103499004 0 0 0 0
754 1 44.3782274430565 21.576237103499004 0 0 0 0
674 1 49.0496198054835 21.576237103499004 0 -1 0 0
678 1 53.7210121679105 21.576237103499004 0 -1 0 0
682 1 58.3924045303375 21.576237103499004 0 -1 0 0
686 1 63.0637968927645 21.576237103499004 0 -1 0 0
690 1 67.7351892551915 21.576237103499004 0 -1 0 0
694 1 72.4065816176185 21.576237103499004 0 -1 0 0
698 1 77.0779739800455 21.576237103499004 0 -1 0 0
702 1 81.7493663424725 21.576237103499004 0 -1 0 0
706 1 86.4207587048995 21.576237103499004 0 -1 0 0
710 1 91.09215106732651 21.576237103499004 0 -1 0 0
714 1 95.7635434297535 21.576237103499004 0 -1 0 0
803 1 2.3356961812134998 24.273266741435997 0.846707393847999 0 0 0
807 1 7.007088543640499 24.273266741435997 0.846707393847999 0 0 0
811 1 11.678480906067499 24.273266741435997 0.846707393847999 0 0 0
815 1 16.34987326849449 24.273266741435997 0.846707393847999 0 0 0
819 1 21.021265630921505 24.273266741435997 0.846707393847999 0 0 0
823 1 25.692657993348504 24.273266741435997 0.846707393847999 0 0 0
827 1 30.364050355775504 24.273266741435997 0.846707393847999 0 0 0
831 1 35.0354427182025 24.273266741435997 0.846707393847999 0 0 0
835 1 39.7068350806295 24.273266741435997 0.846707393847999 0 0 0
839 1 44.3782274430565 24.273266741435997 0.846707393847999 0 0 0
759 1 49.0496198054835 24.273266741435997 0.846707393847999 -1 0 0
763 1 53.7210121679105 24.273266741435997 0.846707393847999 -1 0 0
767 1 58.3924045303375 24.273266741435997 0.846707393847999 -1 0 0
771 1 63.0637968927645 24.273266741435997 0.846707393847999 -1 0 0
775 1 67.7351892551915 24.273266741435997 0.846707393847999 -1 0 0
779 1 72.4065816176185 24.273266741435997 0.846707393847999 -1 0 0
783 1 77.0779739800455 24.273266741435997 0.846707393847999 -1 0 0
787 1 81.7493663424725 24.273266741435997 0.846707393847999 -1 0 0
791 1 86.4207587048995 24.273266741435997 0.846707393847999 -1 0 0
795 1 91.09215106732651 24.273266741435997 0.846707393847999 -1 0 0
799 1 95.7635434297535 24.273266741435997 0.846707393847999 -1 0 0
801 1 4.671392362426495 25.621781560405005 0 0 0 0
805 1 9.342784724853495 25.621781560405005 0 0 0 0
809 1 14.014177087280501 25.621781560405005 0 0 0 0
813 1 18.6855694497075 25.621781560405005 0 0 0 0
817 1 23.3569618121345 25.621781560405005 0 0 0 0
821 1 28.0283541745615 25.621781560405005 0 0 0 0
825 1 32.6997465369885 25.621781560405005 0 0 0 0
829 1 37.3711388994155 25.621781560405005 0 0 0 0
833 1 42.0425312618425 25.621781560405005 0 0 0 0
837 1 46.7139236242695 25.621781560405005 0 0 0 0
757 1 51.385315986696504 25.621781560405005 0 -1 0 0
761 1 56.056708349123504 25.621781560405005 0 -1 0 0
765 1 60.7281007115505 25.621781560405005 0 -1 0 0
769 1 65.39949307397751 25.621781560405005 0 -1 0 0
773 1 70.0708854364045 25.621781560405005 0 -1 0 0
777 1 74.74227779883151 25.621781560405005 0 -1 0 0
781 1 79.4136701612585 25.621781560405005 0 -1 0 0
785 1 84.08506252368551 25.621781560405005 0 -1 0 0
789 1 88.7564548861125 25.621781560405005 0 -1 0 0
793 1 93.4278472485395 25.621781560405005 0 -1 0 0
797 1 98.09923961096649 25.621781560405005 0 -1 0 0
800 1 4.973799150320701e-13 28.318811198341997 0.846707393847999 0 0 0
804 1 4.671392362427497 28.318811198341997 0.846707393847999 0 0 0
808 1 9.342784724854496 28.318811198341997 0.846707393847999 0 0 0
812 1 14.014177087281496 28.318811198341997 0.846707393847999 0 0 0
816 1 18.685569449708495 28.318811198341997 0.846707393847999 0 0 0
820 1 23.356961812135495 28.318811198341997 0.846707393847999 0 0 0
824 1 28.028354174562494 28.318811198341997 0.846707393847999 0 0 0
828 1 32.699746536989494 28.318811198341997 0.846707393847999 0 0 0
832 1 37.37113889941649 28.318811198341997 0.846707393847999 0 0 0
836 1 42.04253126184349 28.318811198341997 0.846707393847999 0 0 0
840 1 46.71392362427049 28.318811198341997 0.846707393847999 0 0 0
760 1 51.3853159866975 28.318811198341997 0.846707393847999 -1 0 0
764 1 56.056708349124506 28.318811198341997 0.846707393847999 -1 0 0
768 1 60.728100711551505 28.318811198341997 0.846707393847999 -1 0 0
772 1 65.3994930739785 28.318811198341997 0.846707393847999 -1 0 0
776 1 70.0708854364055 28.318811198341997 0.846707393847999 -1 0 0
780 1 74.7422777988325 28.318811198341997 0.846707393847999 -1 0 0
784 1 79.4136701612595 28.318811198341997 0.846707393847999 -1 0 0
788 1 84.0850625236865 28.318811198341997 0.846707393847999 -1 0 0
792 1 88.7564548861135 28.318811198341997 0.846707393847999 -1 0 0
796 1 93.4278472485405 28.318811198341997 0.846707393847999 -1 0 0
802 1 2.3356961812134998 29.667326017311005 0 0 0 0
806 1 7.007088543640499 29.667326017311005 0 0 0 0
810 1 11.678480906067499 29.667326017311005 0 0 0 0
814 1 16.34987326849449 29.667326017311005 0 0 0 0
818 1 21.021265630921505 29.667326017311005 0 0 0 0
822 1 25.692657993348504 29.667326017311005 0 0 0 0
826 1 30.364050355775504 29.667326017311005 0 0 0 0
830 1 35.0354427182025 29.667326017311005 0 0 0 0
834 1 39.7068350806295 29.667326017311005 0 0 0 0
838 1 44.3782274430565 29.667326017311005 0 0 0 0
758 1 49.0496198054835 29.667326017311005 0 -1 0 0
762 1 53.7210121679105 29.667326017311005 0 -1 0 0
766 1 58.3924045303375 29.667326017311005 0 -1 0 0
770 1 63.0637968927645 29.667326017311005 0 -1 0 0
774 1 67.7351892551915 29.667326017311005 0 -1 0 0
778 1 72.4065816176185 29.667326017311005 0 -1 0 0
782 1 77.0779739800455 29.667326017311005 0 -1 0 0
786 1 81.7493663424725 29.667326017311005 0 -1 0 0
790 1 86.4207587048995 29.667326017311005 0 -1 0 0
794 1 91.09215106732651 29.667326017311005 0 -1 0 0
798 1 95.7635434297535 29.667326017311005 0 -1 0 0
887 1 2.3356961812134998 32.364355655248 0.846707393847999 0 0 0
891 1 7.007088543640499 32.364355655248 0.846707393847999 0 0 0
895 1 11.678480906067499 32.364355655248 0.846707393847999 0 0 0
899 1 16.34987326849449 32.364355655248 0.846707393847999 0 0 0
903 1 21.021265630921505 32.364355655248 0.846707393847999 0 0 0
907 1 25.692657993348504 32.364355655248 0.846707393847999 0 0 0
911 1 30.364050355775504 32.364355655248 0.846707393847999 0 0 0
915 1 35.0354427182025 32.364355655248 0.846707393847999 0 0 0
919 1 39.7068350806295 32.364355655248 0.846707393847999 0 0 0
923 1 44.3782274430565 32.364355655248 0.846707393847999 0 0 0
843 1 49.0496198054835 32.364355655248 0.846707393847999 -1 0 0
847 1 53.7210121679105 32.364355655248 0.846707393847999 -1 0 0
851 1 58.3924045303375 32.364355655248 0.846707393847999 -1 0 0
855 1 63.0637968927645 32.364355655248 0.846707393847999 -1 0 0
859 1 67.7351892551915 32.364355655248 0.846707393847999 -1 0 0
863 1 72.4065816176185 32.364355655248 0.846707393847999 -1 0 0
867 1 77.0779739800455 32.364355655248 0.846707393847999 -1 0 0
871 1 81.7493663424725 32.364355655248 0.846707393847999 -1 0 0
875 1 86.4207587048995 32.364355655248 0.846707393847999 -1 0 0
879 1 91.09215106732651 32.364355655248 0.846707393847999 -1 0 0
883 1 95.7635434297535 32.364355655248 0.846707393847999 -1 0 0
885 1 4.671392362426495 33.712870474217006 0 0 0 0
889 1 9.342784724853495 33.712870474217006 0 0 0 0
893 1 14.014177087280501 33.712870474217006 0 0 0 0
897 1 18.6855694497075 33.712870474217006 0 0 0 0
901 1 23.3569618121345 33.712870474217006 0 0 0 0
905 1 28.0283541745615 33.712870474217006 0 0 0 0
909 1 32.6997465369885 33.712870474217006 0 0 0 0
913 1 37.3711388994155 33.712870474217006 0 0 0 0
917 1 42.0425312618425 33.712870474217006 0 0 0 0
921 1 46.7139236242695 33.712870474217006 0 0 0 0
841 1 51.385315986696504 33.712870474217006 0 -1 0 0
845 1 56.056708349123504 33.712870474217006 0 -1 0 0
849 1 60.7281007115505 33.712870474217006 0 -1 0 0
853 1 65.39949307397751 33.712870474217006 0 -1 0 0
857 1 70.0708854364045 33.712870474217006 0 -1 0 0
861 1 74.74227779883151 33.712870474217006 0 -1 0 0
865 1 79.4136701612585 33.712870474217006 0 -1 0 0
869 1 84.08506252368551 33.712870474217006 0 -1 0 0
873 1 88.7564548861125 33.712870474217006 0 -1 0 0
877 1 93.4278472485395 33.712870474217006 0 -1 0 0
881 1 98.09923961096649 33.712870474217006 0 -1 0 0
884 1 4.973799150320701e-13 36.409900112154 0.846707393847999 0 0 0
888 1 4.671392362427497 36.409900112154 0.846707393847999 0 0 0
892 1 9.342784724854496 36.409900112154 0.846707393847999 0 0 0
896 1 14.014177087281496 36.409900112154 0.846707393847999 0 0 0
900 1 18.685569449708495 36.409900112154 0.846707393847999 0 0 0
904 1 23.356961812135495 36.409900112154 0.846707393847999 0 0 0
908 1 28.028354174562494 36.409900112154 0.846707393847999 0 0 0
912 1 32.699746536989494 36.409900112154 0.846707393847999 0 0 0
916 1 37.37113889941649 36.409900112154 0.846707393847999 0 0 0
920 1 42.04253126184349 36.409900112154 0.846707393847999 0 0 0
924 1 46.71392362427049 36.409900112154 0.846707393847999 0 0 0
844 1 51.3853159866975 36.409900112154 0.846707393847999 -1 0 0
848 1 56.056708349124506 36.409900112154 0.846707393847999 -1 0 0
852 1 60.728100711551505 36.409900112154 0.846707393847999 -1 0 0
856 1 65.3994930739785 36.409900112154 0.846707393847999 -1 0 0
860 1 70.0708854364055 36.409900112154 0.846707393847999 -1 0 0
864 1 74.7422777988325 36.409900112154 0.846707393847999 -1 0 0
868 1 79.4136701612595 36.409900112154 0.846707393847999 -1 0 0
872 1 84.0850625236865 36.409900112154 0.846707393847999 -1 0 0
876 1 88.7564548861135 36.409900112154 0.846707393847999 -1 0 0
880 1 93.4278472485405 36.409900112154 0.846707393847999 -1 0 0
886 1 2.3356961812134998 37.758414931123006 0 0 0 0
890 1 7.007088543640499 37.758414931123006 0 0 0 0
894 1 11.678480906067499 37.758414931123006 0 0 0 0
898 1 16.34987326849449 37.758414931123006 0 0 0 0
902 1 21.021265630921505 37.758414931123006 0 0 0 0
906 1 25.692657993348504 37.758414931123006 0 0 0 0
910 1 30.364050355775504 37.758414931123006 0 0 0 0
914 1 35.0354427182025 37.758414931123006 0 0 0 0
918 1 39.7068350806295 37.758414931123006 0 0 0 0
922 1 44.3782274430565 37.758414931123006 0 0 0 0
842 1 49.0496198054835 37.758414931123006 0 -1 0 0
846 1 53.7210121679105 37.758414931123006 0 -1 0 0
850 1 58.3924045303375 37.758414931123006 0 -1 0 0
854 1 63.0637968927645 37.758414931123006 0 -1 0 0
858 1 67.7351892551915 37.758414931123006 0 -1 0 0
862 1 72.4065816176185 37.758414931123006 0 -1 0 0
866 1 77.0779739800455 37.758414931123006 0 -1 0 0
870 1 81.7493663424725 37.758414931123006 0 -1 0 0
874 1 86.4207587048995 37.758414931123006 0 -1 0 0
878 1 91.09215106732651 37.758414931123006 0 -1 0 0
882 1 95.7635434297535 37.758414931123006 0 -1 0 0
971 1 2.3356961812134998 40.45544456906 0.846707393847999 0 0 0
975 1 7.007088543640499 40.45544456906 0.846707393847999 0 0 0
979 1 11.678480906067499 40.45544456906 0.846707393847999 0 0 0
983 1 16.34987326849449 40.45544456906 0.846707393847999 0 0 0
987 1 21.021265630921505 40.45544456906 0.846707393847999 0 0 0
991 1 25.692657993348504 40.45544456906 0.846707393847999 0 0 0
995 1 30.364050355775504 40.45544456906 0.846707393847999 0 0 0
999 1 35.0354427182025 40.45544456906 0.846707393847999 0 0 0
1003 1 39.7068350806295 40.45544456906 0.846707393847999 0 0 0
1007 1 44.3782274430565 40.45544456906 0.846707393847999 0 0 0
927 1 49.0496198054835 40.45544456906 0.846707393847999 -1 0 0
931 1 53.7210121679105 40.45544456906 0.846707393847999 -1 0 0
935 1 58.3924045303375 40.45544456906 0.846707393847999 -1 0 0
939 1 63.0637968927645 40.45544456906 0.846707393847999 -1 0 0
943 1 67.7351892551915 40.45544456906 0.846707393847999 -1 0 0
947 1 72.4065816176185 40.45544456906 0.846707393847999 -1 0 0
951 1 77.0779739800455 40.45544456906 0.846707393847999 -1 0 0
955 1 81.7493663424725 40.45544456906 0.846707393847999 -1 0 0
959 1 86.4207587048995 40.45544456906 0.846707393847999 -1 0 0
963 1 91.09215106732651 40.45544456906 0.846707393847999 -1 0 0
967 1 95.7635434297535 40.45544456906 0.846707393847999 -1 0 0
969 1 4.671392362426495 41.80395938802899 0 0 0 0
973 1 9.342784724853495 41.80395938802899 0 0 0 0
977 1 14.014177087280501 41.80395938802899 0 0 0 0
981 1 18.6855694497075 41.80395938802899 0 0 0 0
985 1 23.3569618121345 41.80395938802899 0 0 0 0
989 1 28.0283541745615 41.80395938802899 0 0 0 0
993 1 32.6997465369885 41.80395938802899 0 0 0 0
997 1 37.3711388994155 41.80395938802899 0 0 0 0
1001 1 42.0425312618425 41.80395938802899 0 0 0 0
1005 1 46.7139236242695 41.80395938802899 0 0 0 0
925 1 51.385315986696504 41.80395938802899 0 -1 0 0
929 1 56.056708349123504 41.80395938802899 0 -1 0 0
933 1 60.7281007115505 41.80395938802899 0 -1 0 0
937 1 65.39949307397751 41.80395938802899 0 -1 0 0
941 1 70.0708854364045 41.80395938802899 0 -1 0 0
945 1 74.74227779883151 41.80395938802899 0 -1 0 0
949 1 79.4136701612585 41.80395938802899 0 -1 0 0
953 1 84.08506252368551 41.80395938802899 0 -1 0 0
957 1 88.7564548861125 41.80395938802899 0 -1 0 0
961 1 93.4278472485395 41.80395938802899 0 -1 0 0
965 1 98.09923961096649 41.80395938802899 0 -1 0 0
968 1 4.973799150320701e-13 44.500989025966 0.846707393847999 0 0 0
972 1 4.671392362427497 44.500989025966 0.846707393847999 0 0 0
976 1 9.342784724854496 44.500989025966 0.846707393847999 0 0 0
980 1 14.014177087281496 44.500989025966 0.846707393847999 0 0 0
984 1 18.685569449708495 44.500989025966 0.846707393847999 0 0 0
988 1 23.356961812135495 44.500989025966 0.846707393847999 0 0 0
992 1 28.028354174562494 44.500989025966 0.846707393847999 0 0 0
996 1 32.699746536989494 44.500989025966 0.846707393847999 0 0 0
1000 1 37.37113889941649 44.500989025966 0.846707393847999 0 0 0
1004 1 42.04253126184349 44.500989025966 0.846707393847999 0 0 0
1008 1 46.71392362427049 44.500989025966 0.846707393847999 0 0 0
928 1 51.3853159866975 44.500989025966 0.846707393847999 -1 0 0
932 1 56.056708349124506 44.500989025966 0.846707393847999 -1 0 0
936 1 60.728100711551505 44.500989025966 0.846707393847999 -1 0 0
940 1 65.3994930739785 44.500989025966 0.846707393847999 -1 0 0
944 1 70.0708854364055 44.500989025966 0.846707393847999 -1 0 0
948 1 74.7422777988325 44.500989025966 0.846707393847999 -1 0 0
952 1 79.4136701612595 44.500989025966 0.846707393847999 -1 0 0
956 1 84.0850625236865 44.500989025966 0.846707393847999 -1 0 0
960 1 88.7564548861135 44.500989025966 0.846707393847999 -1 0 0
964 1 93.4278472485405 44.500989025966 0.846707393847999 -1 0 0
970 1 2.3356961812134998 45.84950384493499 0 0 0 0
974 1 7.007088543640499 45.84950384493499 0 0 0 0
978 1 11.678480906067499 45.84950384493499 0 0 0 0
982 1 16.34987326849449 45.84950384493499 0 0 0 0
986 1 21.021265630921505 45.84950384493499 0 0 0 0
990 1 25.692657993348504 45.84950384493499 0 0 0 0
994 1 30.364050355775504 45.84950384493499 0 0 0 0
998 1 35.0354427182025 45.84950384493499 0 0 0 0
1002 1 39.7068350806295 45.84950384493499 0 0 0 0
1006 1 44.3782274430565 45.84950384493499 0 0 0 0
926 1 49.0496198054835 45.84950384493499 0 -1 0 0
930 1 53.7210121679105 45.84950384493499 0 -1 0 0
934 1 58.3924045303375 45.84950384493499 0 -1 0 0
938 1 63.0637968927645 45.84950384493499 0 -1 0 0
942 1 67.7351892551915 45.84950384493499 0 -1 0 0
946 1 72.4065816176185 45.84950384493499 0 -1 0 0
950 1 77.0779739800455 45.84950384493499 0 -1 0 0
954 1 81.7493663424725 45.84950384493499 0 -1 0 0
958 1 86.4207587048995 45.84950384493499 0 -1 0 0
962 1 91.09215106732651 45.84950384493499 0 -1 0 0
966 1 95.7635434297535 45.84950384493499 0 -1 0 0
47 1 2.3356961812134998 48.546533482872 0.846707393847999 0 -1 0
51 1 7.007088543640499 48.546533482872 0.846707393847999 0 -1 0
55 1 11.678480906067499 48.546533482872 0.846707393847999 0 -1 0
59 1 16.34987326849449 48.546533482872 0.846707393847999 0 -1 0
63 1 21.021265630921505 48.546533482872 0.846707393847999 0 -1 0
67 1 25.692657993348504 48.546533482872 0.846707393847999 0 -1 0
71 1 30.364050355775504 48.546533482872 0.846707393847999 0 -1 0
75 1 35.0354427182025 48.546533482872 0.846707393847999 0 -1 0
79 1 39.7068350806295 48.546533482872 0.846707393847999 0 -1 0
83 1 44.3782274430565 48.546533482872 0.846707393847999 0 -1 0