LAMMPS data file via write_data, version 29 Aug 2024, timestep = 7, units = metal

3024 atoms
3 atom types

0 98.099239610967 xlo xhi
0 97.093066965744 ylo yhi
-50 50 zlo zhi

Masses

1 118.71
2 118.71
3 118.71

Atoms # atomic

549 1 4.839915077406114 1.1193153474716326 -0.13050963105949656 0 0 0
548 1 0.17001283769732106 3.8148977592404365 0.7410349707380327 0 0 0
552 1 4.841405200124285 3.8148977592404343 0.741034970738046 0 0 0
550 1 2.504218896189574 5.164859804377631 -0.13050963105953434 0 0 0
545 1 0.16852271497909688 1.119315347471615 -0.13050963105948007 0 0 0
553 1 9.511307439833104 1.1193153474716337 -0.13050963105948418 0 0 0
556 1 9.512797562551299 3.81489775924044 0.7410349707380383 0 0 0
554 1 7.1756112586165965 5.16485980437765 -0.13050963105953645 0 0 0
557 1 14.182699802260098 1.1193153474716147 -0.13050963105947957 0 0 0
560 1 14.184189924978307 3.81489775924045 0.7410349707380346 0 0 0
558 1 11.847003621043582 5.164859804377656 -0.13050963105952335 0 0 0
562 1 16.518395983470608 5.164859804377655 -0.13050963105952934 0 0 0
561 1 18.854092164687078 1.1193153474716346 -0.13050963105949384 0 0 0
564 1 18.855582287405305 3.8148977592404436 0.7410349707380554 0 0 0
566 1 21.189788345897583 5.164859804377635 -0.1305096310595386 0 0 0
565 1 23.525484527114063 1.1193153474716298 -0.13050963105949107 0 0 0
569 1 28.19687688954107 1.1193153474716235 -0.1305096310594861 0 0 0
568 1 23.526974649832304 3.8148977592404476 0.7410349707380374 0 0 0
572 1 28.198367012259304 3.8148977592404405 0.7410349707380383 0 0 0
570 1 25.861180708324596 5.164859804377655 -0.13050963105952462 0 0 0
573 1 32.868269251968094 1.119315347471625 -0.1305096310594882 0 0 0
576 1 32.86975937468629 3.814897759240438 0.7410349707380428 0 0 0
574 1 30.532573070751607 5.164859804377659 -0.13050963105952582 0 0 0
577 1 37.539661614395115 1.119315347471633 -0.1305096310594886 0 0 0
580 1 37.54115173711327 3.8148977592404383 0.741034970738039 0 0 0
578 1 35.2039654331786 5.164859804377648 -0.1305096310595284 0 0 0
582 1 39.87535779560561 5.16485980437765 -0.13050963105952815 0 0 0
581 1 42.21105397682211 1.1193153474716313 -0.13050963105949104 0 0 0
584 1 42.212544099540274 3.8148977592404543 0.7410349707380417 0 0 0
586 1 44.546750158032616 5.164859804377642 -0.13050963105952645 0 0 0
585 1 46.88244633924909 1.1193153474716333 -0.13050963105948205 0 0 0
505 1 51.553838701676085 1.1193153474716095 -0.13050963105949015 -1 0 0
588 1 46.883936461967295 3.8148977592404423 0.7410349707380379 0 0 0
508 1 51.5553288243943 3.814897759240436 0.7410349707380519 -1 0 0
506 1 49.21814252045962 5.164859804377661 -0.13050963105953728 -1 0 0
509 1 56.2252310641031 1.1193153474716262 -0.13050963105948835 -1 0 0
512 1 56.22672118682129 3.8148977592404485 0.7410349707380384 -1 0 0
510 1 53.889534882886586 5.164859804377671 -0.1305096310595248 -1 0 0
513 1 60.89662342653015 1.1193153474716266 -0.13050963105948277 -1 0 0
516 1 60.89811354924828 3.8148977592404414 0.741034970738052 -1 0 0
514 1 58.560927245313565 5.164859804377659 -0.13050963105953198 -1 0 0
518 1 63.2323196077406 5.16485980437764 -0.1305096310595383 -1 0 0
517 1 65.56801578895704 1.1193153474716488 -0.13050963105948526 -1 0 0
520 1 65.56950591167534 3.81489775924046 0.7410349707380387 -1 0 0
522 1 67.9037119701676 5.164859804377649 -0.13050963105953275 -1 0 0
521 1 70.2394081513841 1.11931534747161 -0.1305096310594921 -1 0 0
525 1 74.91080051381103 1.1193153474716213 -0.13050963105948837 -1 0 0
524 1 70.24089827410234 3.8148977592404485 0.7410349707380454 -1 0 0
528 1 74.91229063652936 3.8148977592404414 0.7410349707380466 -1 0 0
526 1 72.5751043325946 5.164859804377674 -0.1305096310595309 -1 0 0
529 1 79.5821928762381 1.1193153474716218 -0.13050963105948857 -1 0 0
532 1 79.58368299895635 3.814897759240447 0.7410349707380274 -1 0 0
530 1 77.24649669502159 5.164859804377633 -0.1305096310595331 -1 0 0
533 1 84.25358523866504 1.1193153474715998 -0.13050963105949337 -1 0 0
536 1 84.25507536138336 3.8148977592404467 0.7410349707380481 -1 0 0
534 1 81.91788905744859 5.164859804377673 -0.13050963105951693 -1 0 0
538 1 86.5892814198756 5.164859804377654 -0.13050963105954222 -1 0 0
537 1 88.92497760109211 1.1193153474716524 -0.1305096310594893 -1 0 0
540 1 88.92646772381029 3.814897759240393 0.7410349707380423 -1 0 0
542 1 91.2606737823025 5.164859804377641 -0.130509631059524 -1 0 0
541 1 93.59636996351907 1.1193153474716007 -0.13050963105950047 -1 0 0
544 1 93.59786008623729 3.814897759240495 0.7410349707380419 -1 0 0
546 1 95.93206614472962 5.164859804377662 -0.1305096310595214 -1 0 0
635 1 2.5057090189138034 7.860442216146455 0.741034970738124 0 0 0
633 1 4.839915077406125 9.21040426128362 -0.13050963105949973 0 0 0
629 1 0.16852271497910115 9.210404261283605 -0.13050963105948996 0 0 0
639 1 7.177101381340805 7.860442216146459 0.7410349707381095 0 0 0
637 1 9.511307439833098 9.210404261283617 -0.13050963105949157 0 0 0
643 1 11.848493743767806 7.860442216146444 0.7410349707381054 0 0 0
647 1 16.51988610619482 7.860442216146451 0.7410349707381148 0 0 0
641 1 14.18269980226009 9.210404261283603 -0.13050963105948865 0 0 0
651 1 21.191278468621803 7.860442216146466 0.7410349707381105 0 0 0
645 1 18.854092164687078 9.21040426128363 -0.1305096310594922 0 0 0
655 1 25.86267083104882 7.860442216146455 0.7410349707381091 0 0 0
649 1 23.525484527114074 9.210404261283614 -0.13050963105949 0 0 0
653 1 28.196876889541073 9.210404261283607 -0.13050963105948907 0 0 0
659 1 30.534063193475813 7.86044221614645 0.7410349707381078 0 0 0
657 1 32.868269251968094 9.210404261283603 -0.1305096310594903 0 0 0
663 1 35.20545555590281 7.860442216146461 0.7410349707381145 0 0 0
667 1 39.8768479183298 7.8604422161464536 0.7410349707381036 0 0 0
661 1 37.539661614395115 9.21040426128361 -0.13050963105948996 0 0 0
671 1 44.548240280756815 7.86044221614645 0.7410349707381162 0 0 0
665 1 42.21105397682211 9.210404261283616 -0.13050963105949231 0 0 0
591 1 49.21963264318379 7.860442216146459 0.7410349707381118 -1 0 0
669 1 46.88244633924909 9.210404261283621 -0.13050963105948638 0 0 0
589 1 51.55383870167608 9.210404261283598 -0.13050963105949892 -1 0 0
595 1 53.891025005610814 7.860442216146445 0.7410349707381072 -1 0 0
593 1 56.225231064103106 9.210404261283605 -0.1305096310594901 -1 0 0
599 1 58.56241736803781 7.860442216146454 0.7410349707381041 -1 0 0
603 1 63.233809730464785 7.8604422161464385 0.7410349707381103 -1 0 0
597 1 60.896623426530134 9.210404261283612 -0.13050963105948588 -1 0 0
607 1 67.90520209289178 7.860442216146477 0.7410349707380974 -1 0 0
601 1 65.56801578895706 9.21040426128364 -0.13050963105948815 -1 0 0
611 1 72.5765944553188 7.860442216146419 0.7410349707381123 -1 0 0
605 1 70.23940815138408 9.210404261283601 -0.13050963105949798 -1 0 0
609 1 74.91080051381104 9.210404261283612 -0.13050963105949276 -1 0 0
615 1 77.2479868177458 7.860442216146488 0.7410349707381081 -1 0 0
613 1 79.58219287623811 9.210404261283614 -0.13050963105949445 -1 0 0
619 1 81.9193791801728 7.860442216146406 0.7410349707381073 -1 0 0
617 1 84.25358523866504 9.21040426128359 -0.13050963105949714 -1 0 0
623 1 86.59077154259978 7.8604422161465 0.7410349707381352 -1 0 0
627 1 91.26216390502682 7.860442216146444 0.7410349707381032 -1 0 0
621 1 88.92497760109212 9.21040426128365 -0.13050963105949756 -1 0 0
631 1 95.93355626745382 7.860442216146448 0.7410349707380902 -1 0 0
625 1 93.59636996351907 9.210404261283593 -0.1305096310594895 -1 0 0
632 1 0.17001283769732967 11.905986673052457 0.741034970738024 0 0 0
636 1 4.841405200124277 11.905986673052443 0.7410349707380312 0 0 0
634 1 2.5042188961895735 13.255948718189634 -0.13050963105952296 0 0 0
719 1 2.5057090189138087 15.951531129958456 0.7410349707381224 0 0 0
640 1 9.5127975625513 11.905986673052453 0.7410349707380222 0 0 0
638 1 7.175611258616605 13.255948718189657 -0.13050963105953425 0 0 0
723 1 7.177101381340806 15.951531129958461 0.7410349707381059 0 0 0
644 1 14.184189924978309 11.905986673052452 0.7410349707380185 0 0 0
642 1 11.847003621043584 13.255948718189662 -0.1305096310595203 0 0 0
646 1 16.518395983470604 13.255948718189657 -0.1305096310595268 0 0 0
727 1 11.848493743767811 15.951531129958456 0.7410349707381041 0 0 0
731 1 16.519886106194818 15.95153112995846 0.7410349707381176 0 0 0
648 1 18.85558228740531 11.905986673052443 0.7410349707380355 0 0 0
650 1 21.18978834589758 13.255948718189636 -0.1305096310595325 0 0 0
735 1 21.1912784686218 15.951531129958468 0.7410349707381046 0 0 0
652 1 23.526974649832304 11.905986673052448 0.741034970738022 0 0 0
656 1 28.1983670122593 11.905986673052452 0.7410349707380295 0 0 0
654 1 25.861180708324596 13.25594871818966 -0.13050963105952026 0 0 0
739 1 25.862670831048813 15.951531129958457 0.7410349707381052 0 0 0
660 1 32.869759374686296 11.905986673052443 0.7410349707380293 0 0 0
658 1 30.53257307075161 13.255948718189664 -0.13050963105952376 0 0 0
743 1 30.534063193475806 15.951531129958447 0.7410349707381009 0 0 0
664 1 37.541151737113275 11.905986673052448 0.7410349707380248 0 0 0
662 1 35.2039654331786 13.255948718189654 -0.13050963105952457 0 0 0
666 1 39.875357795605616 13.255948718189652 -0.13050963105952282 0 0 0
747 1 35.205455555902795 15.951531129958457 0.7410349707381088 0 0 0
751 1 39.876847918329794 15.951531129958457 0.7410349707380999 0 0 0
668 1 42.21254409954028 11.90598667305246 0.7410349707380285 0 0 0
670 1 44.54675015803261 13.25594871818965 -0.13050963105952146 0 0 0
755 1 44.54824028075681 15.951531129958461 0.7410349707381133 0 0 0
672 1 46.8839364619673 11.90598667305245 0.7410349707380232 0 0 0
592 1 51.555328824394294 11.905986673052455 0.741034970738036 -1 0 0
590 1 49.21814252045963 13.255948718189659 -0.13050963105952845 -1 0 0
675 1 49.2196326431838 15.95153112995847 0.7410349707381079 -1 0 0
596 1 56.22672118682128 11.905986673052459 0.7410349707380277 -1 0 0
594 1 53.889534882886586 13.255948718189677 -0.13050963105952215 -1 0 0
679 1 53.891025005610814 15.951531129958452 0.7410349707380999 -1 0 0
600 1 60.89811354924827 11.90598667305245 0.7410349707380346 -1 0 0
598 1 58.56092724531357 13.255948718189655 -0.1305096310595239 -1 0 0
602 1 63.232319607740614 13.25594871818964 -0.13050963105953373 -1 0 0
683 1 58.56241736803783 15.951531129958454 0.7410349707381008 -1 0 0
687 1 63.233809730464785 15.951531129958441 0.7410349707381075 -1 0 0
604 1 65.56950591167534 11.905986673052457 0.7410349707380197 -1 0 0
606 1 67.9037119701676 13.255948718189648 -0.13050963105952573 -1 0 0
691 1 67.9052020928918 15.951531129958482 0.7410349707380941 -1 0 0
608 1 70.24089827410232 11.905986673052455 0.7410349707380305 -1 0 0
612 1 74.91229063652936 11.90598667305245 0.7410349707380304 -1 0 0
610 1 72.5751043325946 13.255948718189668 -0.1305096310595262 -1 0 0
695 1 72.57659445531881 15.95153112995842 0.7410349707381095 -1 0 0
616 1 79.58368299895635 11.905986673052453 0.741034970738013 -1 0 0
614 1 77.2464966950216 13.255948718189638 -0.1305096310595296 -1 0 0
699 1 77.2479868177458 15.951531129958488 0.741034970738108 -1 0 0
620 1 84.25507536138338 11.905986673052448 0.7410349707380377 -1 0 0
618 1 81.9178890574486 13.255948718189673 -0.13050963105951485 -1 0 0
703 1 81.9193791801728 15.951531129958413 0.7410349707380985 -1 0 0
622 1 86.5892814198756 13.255948718189662 -0.13050963105953883 -1 0 0
707 1 86.59077154259978 15.951531129958502 0.7410349707381342 -1 0 0
624 1 88.92646772381029 11.905986673052402 0.7410349707380286 -1 0 0
626 1 91.2606737823025 13.255948718189654 -0.13050963105952715 -1 0 0
711 1 91.26216390502682 15.951531129958456 0.7410349707380993 -1 0 0
628 1 93.5978600862373 11.905986673052475 0.7410349707380157 -1 0 0
630 1 95.9320661447296 13.255948718189666 -0.13050963105951813 -1 0 0
715 1 95.93355626745382 15.951531129958454 0.7410349707380858 -1 0 0
717 1 4.839915077406119 17.30149317509563 -0.13050963105949923 0 0 0
716 1 0.17001283769733244 19.997075586864458 0.7410349707380394 0 0 0
720 1 4.8414052001242815 19.997075586864455 0.7410349707380443 0 0 0
718 1 2.5042188961895744 21.347037632001634 -0.13050963105952723 0 0 0
713 1 0.16852271497910368 17.301493175095626 -0.13050963105949157 0 0 0
721 1 9.511307439833097 17.301493175095633 -0.1305096310594905 0 0 0
724 1 9.512797562551293 19.997075586864458 0.7410349707380387 0 0 0
722 1 7.175611258616597 21.347037632001648 -0.13050963105953434 0 0 0
725 1 14.182699802260089 17.301493175095615 -0.13050963105948546 0 0 0
728 1 14.184189924978304 19.997075586864465 0.7410349707380289 0 0 0
726 1 11.84700362104359 21.347037632001655 -0.1305096310595219 0 0 0
730 1 16.518395983470604 21.347037632001648 -0.13050963105952812 0 0 0
729 1 18.854092164687085 17.301493175095644 -0.13050963105949323 0 0 0
732 1 18.85558228740531 19.99707558686445 0.7410349707380526 0 0 0
734 1 21.18978834589758 21.347037632001634 -0.13050963105953423 0 0 0
733 1 23.525484527114074 17.301493175095636 -0.13050963105948885 0 0 0
737 1 28.196876889541073 17.301493175095626 -0.1305096310594881 0 0 0
736 1 23.526974649832304 19.99707558686445 0.7410349707380349 0 0 0
740 1 28.198367012259297 19.997075586864458 0.7410349707380439 0 0 0
738 1 25.86118070832459 21.34703763200166 -0.1305096310595247 0 0 0
741 1 32.86826925196809 17.30149317509562 -0.13050963105948635 0 0 0
744 1 32.86975937468631 19.99707558686447 0.741034970738036 0 0 0
742 1 30.532573070751603 21.34703763200167 -0.13050963105952462 0 0 0
745 1 37.5396616143951 17.301493175095633 -0.13050963105949068 0 0 0
748 1 37.54115173711333 19.997075586864455 0.7410349707380394 0 0 0
746 1 35.203965433178595 21.34703763200165 -0.13050963105952718 0 0 0
750 1 39.875357795605595 21.347037632001655 -0.13050963105952965 0 0 0
749 1 42.2110539768221 17.301493175095626 -0.13050963105949245 0 0 0
752 1 42.21254409954033 19.99707558686446 0.7410349707380404 0 0 0
754 1 44.546750158032594 21.34703763200165 -0.13050963105952634 0 0 0
753 1 46.882446339249086 17.30149317509564 -0.13050963105948582 0 0 0
673 1 51.553838701676085 17.30149317509561 -0.13050963105949412 -1 0 0
756 1 46.88393646196732 19.99707558686444 0.7410349707380429 0 0 0
676 1 51.555328824394294 19.997075586864458 0.7410349707380467 -1 0 0
674 1 49.218142520459615 21.347037632001662 -0.1305096310595238 -1 0 0
677 1 56.225231064103106 17.301493175095615 -0.13050963105949268 -1 0 0
680 1 56.22672118682128 19.99707558686446 0.7410349707380436 -1 0 0
678 1 53.88953488288658 21.347037632001683 -0.13050963105952443 -1 0 0
681 1 60.89662342653014 17.301493175095636 -0.13050963105948277 -1 0 0
684 1 60.89811354924828 19.997075586864455 0.7410349707380389 -1 0 0
682 1 58.560927245313565 21.347037632001655 -0.13050963105952676 -1 0 0
686 1 63.23231960774061 21.347037632001634 -0.13050963105953378 -1 0 0
685 1 65.56801578895706 17.30149317509565 -0.13050963105949118 -1 0 0
688 1 65.56950591167532 19.997075586864465 0.7410349707380288 -1 0 0
690 1 67.9037119701676 21.34703763200165 -0.13050963105953117 -1 0 0
689 1 70.2394081513841 17.30149317509562 -0.1305096310594989 -1 0 0
693 1 74.91080051381103 17.301493175095626 -0.13050963105949429 -1 0 0
692 1 70.24089827410234 19.99707558686446 0.7410349707380438 -1 0 0
696 1 74.91229063652935 19.997075586864458 0.7410349707380449 -1 0 0
694 1 72.5751043325946 21.34703763200167 -0.13050963105952537 -1 0 0
697 1 79.58219287623811 17.30149317509563 -0.13050963105949367 -1 0 0
700 1 79.58368299895635 19.99707558686446 0.7410349707380237 -1 0 0
698 1 77.2464966950216 21.347037632001644 -0.13050963105952967 -1 0 0
701 1 84.25358523866502 17.301493175095608 -0.130509631059497 -1 0 0
704 1 84.25507536138336 19.997075586864458 0.7410349707380481 -1 0 0
702 1 81.9178890574486 21.347037632001673 -0.13050963105951502 -1 0 0
706 1 86.58928141987562 21.347037632001655 -0.13050963105953908 -1 0 0
705 1 88.92497760109212 17.301493175095658 -0.13050963105949343 -1 0 0
708 1 88.92646772381029 19.99707558686442 0.7410349707380325 -1 0 0
710 1 91.2606737823025 21.34703763200164 -0.13050963105952365 -1 0 0
709 1 93.59636996351905 17.3014931750956 -0.13050963105948968 -1 0 0
712 1 93.5978600862373 19.997075586864483 0.7410349707380314 -1 0 0
714 1 95.93206614472962 21.347037632001673 -0.13050963105952312 -1 0 0
803 1 2.5057090189138176 24.042620043770448 0.7410349707381283 0 0 0
801 1 4.839915077406123 25.392582088907623 -0.13050963105949373 0 0 0
800 1 0.1700128376973089 28.088164500676463 0.7410349707380424 0 0 0
804 1 4.841405200124288 28.088164500676445 0.7410349707380449 0 0 0
797 1 0.1685227149791109 25.392582088907616 -0.1305096310594971 0 0 0
807 1 7.1771013813408056 24.042620043770466 0.7410349707381054 0 0 0
805 1 9.51130743983309 25.39258208890763 -0.13050963105948907 0 0 0
808 1 9.512797562551302 28.088164500676452 0.7410349707380357 0 0 0
811 1 11.848493743767815 24.04262004377045 0.7410349707381073 0 0 0
815 1 16.51988610619481 24.04262004377046 0.7410349707381183 0 0 0
809 1 14.182699802260093 25.392582088907613 -0.1305096310594834 0 0 0
812 1 14.184189924978305 28.088164500676466 0.7410349707380263 0 0 0
819 1 21.191278468621796 24.042620043770466 0.7410349707381041 0 0 0
813 1 18.854092164687085 25.392582088907638 -0.13050963105949054 0 0 0
816 1 18.855582287405305 28.088164500676452 0.7410349707380486 0 0 0
823 1 25.862670831048806 24.04262004377046 0.7410349707381106 0 0 0
817 1 23.52548452711407 25.392582088907634 -0.1305096310594865 0 0 0
821 1 28.196876889541077 25.39258208890762 -0.13050963105948368 0 0 0
820 1 23.5269746498323 28.088164500676452 0.7410349707380293 0 0 0
824 1 28.1983670122593 28.088164500676456 0.741034970738037 0 0 0
827 1 30.5340631934758 24.042620043770448 0.741034970738103 0 0 0
825 1 32.868269251968094 25.39258208890762 -0.13050963105948654 0 0 0
828 1 32.86975937468631 28.088164500676474 0.7410349707380374 0 0 0
831 1 35.20545555590279 24.042620043770444 0.741034970738111 0 0 0
835 1 39.87684791832979 24.042620043770455 0.7410349707381022 0 0 0
829 1 37.5396616143951 25.39258208890763 -0.1305096310594888 0 0 0
832 1 37.541151737113324 28.088164500676456 0.7410349707380368 0 0 0
839 1 44.5482402807568 24.042620043770466 0.7410349707381194 0 0 0
833 1 42.21105397682209 25.39258208890763 -0.1305096310594861 0 0 0
836 1 42.21254409954033 28.088164500676456 0.7410349707380376 0 0 0
759 1 49.2196326431838 24.042620043770466 0.7410349707381089 -1 0 0
837 1 46.882446339249086 25.392582088907638 -0.13050963105947955 0 0 0
757 1 51.55383870167609 25.392582088907616 -0.13050963105949226 -1 0 0
840 1 46.883936461967316 28.088164500676427 0.7410349707380389 0 0 0
760 1 51.555328824394294 28.088164500676452 0.7410349707380461 -1 0 0
763 1 53.89102500561082 24.042620043770444 0.7410349707381012 -1 0 0
761 1 56.225231064103106 25.392582088907616 -0.130509631059486 -1 0 0
764 1 56.22672118682128 28.088164500676463 0.741034970738042 -1 0 0
767 1 58.56241736803782 24.042620043770455 0.7410349707381036 -1 0 0
771 1 63.23380973046478 24.04262004377044 0.7410349707381109 -1 0 0
765 1 60.89662342653014 25.392582088907634 -0.13050963105948116 -1 0 0
768 1 60.89811354924827 28.088164500676452 0.7410349707380419 -1 0 0
775 1 67.9052020928918 24.042620043770476 0.7410349707380992 -1 0 0
769 1 65.56801578895707 25.39258208890765 -0.13050963105949104 -1 0 0
772 1 65.56950591167534 28.088164500676466 0.7410349707380322 -1 0 0
779 1 72.5765944553188 24.04262004377042 0.7410349707381112 -1 0 0
773 1 70.2394081513841 25.39258208890761 -0.13050963105949673 -1 0 0
777 1 74.91080051381103 25.39258208890763 -0.13050963105949123 -1 0 0
776 1 70.24089827410232 28.088164500676463 0.7410349707380482 -1 0 0
780 1 74.91229063652938 28.08816450067646 0.741034970738039 -1 0 0
783 1 77.2479868177458 24.042620043770484 0.741034970738106 -1 0 0
781 1 79.58219287623811 25.39258208890763 -0.13050963105948507 -1 0 0
784 1 79.58368299895633 28.088164500676452 0.7410349707380166 -1 0 0
787 1 81.91937918017281 24.04262004377041 0.7410349707381028 -1 0 0
785 1 84.25358523866504 25.392582088907606 -0.1305096310594962 -1 0 0
788 1 84.25507536138339 28.088164500676463 0.7410349707380454 -1 0 0
791 1 86.59077154259977 24.042620043770494 0.7410349707381423 -1 0 0
795 1 91.2621639050268 24.042620043770455 0.7410349707381052 -1 0 0
789 1 88.92497760109212 25.39258208890765 -0.13050963105949814 -1 0 0
792 1 88.92646772381028 28.08816450067643 0.7410349707380408 -1 0 0
799 1 95.93355626745381 24.04262004377045 0.7410349707380843 -1 0 0
793 1 93.59636996351907 25.392582088907606 -0.13050963105947752 -1 0 0
796 1 93.5978600862373 28.088164500676466 0.7410349707380164 -1 0 0
802 1 2.504218896189577 29.438126545813653 -0.13050963105953178 0 0 0
887 1 2.5057090189138065 32.13370895758244 0.7410349707381273 0 0 0
885 1 4.839915077406123 33.483671002719625 -0.130509631059503 0 0 0
881 1 0.168522714979105 33.48367100271961 -0.13050963105948743 0 0 0
806 1 7.175611258616594 29.438126545813642 -0.13050963105953575 0 0 0
891 1 7.177101381340817 32.133708957582456 0.7410349707381083 0 0 0
889 1 9.511307439833086 33.48367100271963 -0.13050963105949037 0 0 0
810 1 11.847003621043593 29.438126545813645 -0.13050963105952326 0 0 0
814 1 16.518395983470604 29.43812654581364 -0.13050963105952842 0 0 0
895 1 11.848493743767811 32.13370895758245 0.7410349707381123 0 0 0
899 1 16.519886106194804 32.133708957582456 0.7410349707381263 0 0 0
893 1 14.182699802260087 33.4836710027196 -0.1305096310594923 0 0 0
818 1 21.189788345897583 29.438126545813624 -0.13050963105953317 0 0 0
903 1 21.19127846862181 32.133708957582456 0.741034970738114 0 0 0
897 1 18.854092164687085 33.483671002719646 -0.13050963105949853 0 0 0
822 1 25.861180708324593 29.438126545813645 -0.13050963105952595 0 0 0
907 1 25.862670831048817 32.133708957582456 0.7410349707381227 0 0 0
901 1 23.525484527114067 33.48367100271961 -0.1305096310594976 0 0 0
905 1 28.19687688954108 33.4836710027196 -0.1305096310594902 0 0 0
826 1 30.532573070751596 29.438126545813653 -0.13050963105952476 0 0 0
911 1 30.5340631934758 32.13370895758244 0.7410349707381142 0 0 0
909 1 32.868269251968094 33.483671002719596 -0.13050963105949814 0 0 0
830 1 35.203965433178595 29.438126545813635 -0.13050963105952645 0 0 0
834 1 39.875357795605595 29.438126545813642 -0.1305096310595335 0 0 0
915 1 35.20545555590279 32.13370895758244 0.7410349707381213 0 0 0
919 1 39.87684791832979 32.13370895758245 0.7410349707381075 0 0 0
913 1 37.539661614395094 33.48367100271961 -0.13050963105950147 0 0 0
838 1 44.546750158032594 29.43812654581363 -0.13050963105952468 0 0 0
923 1 44.5482402807568 32.13370895758246 0.7410349707381221 0 0 0
917 1 42.21105397682209 33.48367100271961 -0.13050963105949412 0 0 0
758 1 49.218142520459615 29.438126545813645 -0.13050963105952568 -1 0 0
843 1 49.21963264318379 32.13370895758246 0.7410349707381119 -1 0 0
921 1 46.882446339249086 33.483671002719625 -0.13050963105948749 0 0 0
841 1 51.553838701676085 33.48367100271959 -0.13050963105950183 -1 0 0
762 1 53.889534882886586 29.43812654581367 -0.1305096310595224 -1 0 0
847 1 53.891025005610814 32.13370895758244 0.7410349707381045 -1 0 0
845 1 56.225231064103106 33.483671002719596 -0.13050963105949856 -1 0 0
766 1 58.560927245313565 29.43812654581364 -0.13050963105952987 -1 0 0
770 1 63.23231960774061 29.438126545813624 -0.13050963105953575 -1 0 0
851 1 58.562417368037835 32.133708957582456 0.7410349707381101 -1 0 0
855 1 63.23380973046479 32.133708957582435 0.7410349707381162 -1 0 0
849 1 60.896623426530134 33.48367100271962 -0.13050963105948848 -1 0 0
774 1 67.9037119701676 29.43812654581363 -0.13050963105953067 -1 0 0
859 1 67.9052020928918 32.133708957582485 0.7410349707380876 -1 0 0
853 1 65.56801578895708 33.48367100271964 -0.13050963105949148 -1 0 0
778 1 72.57510433259459 29.43812654581368 -0.1305096310595297 -1 0 0
863 1 72.57659445531881 32.133708957582414 0.7410349707381237 -1 0 0
857 1 70.23940815138407 33.483671002719596 -0.13050963105950056 -1 0 0
861 1 74.91080051381104 33.48367100271961 -0.13050963105949429 -1 0 0
782 1 77.24649669502159 29.438126545813617 -0.13050963105951724 -1 0 0
867 1 77.24798681774581 32.1337089575825 0.7410349707381007 -1 0 0
865 1 79.58219287623808 33.4836710027196 -0.13050963105949748 -1 0 0
786 1 81.91788905744859 29.438126545813677 -0.13050963105952365 -1 0 0
871 1 81.91937918017281 32.133708957582414 0.74103497073812 -1 0 0
869 1 84.25358523866504 33.48367100271959 -0.130509631059501 -1 0 0
790 1 86.5892814198756 29.43812654581365 -0.1305096310595225 -1 0 0
875 1 86.59077154259977 32.133708957582485 0.7410349707381269 -1 0 0
794 1 91.26067378230252 29.43812654581365 -0.13050963105952404 -1 0 0
879 1 91.26216390502684 32.13370895758244 0.741034970738122 -1 0 0
873 1 88.92497760109211 33.48367100271966 -0.13050963105949742 -1 0 0
798 1 95.93206614472962 29.43812654581365 -0.13050963105951835 -1 0 0
883 1 95.9335562674538 32.133708957582456 0.7410349707380862 -1 0 0
877 1 93.59636996351908 33.483671002719596 -0.13050963105949842 -1 0 0
884 1 0.17001283769732373 36.17925341448843 0.74103497073803 0 0 0
888 1 4.841405200124292 36.17925341448844 0.7410349707380435 0 0 0
886 1 2.5042188961895855 37.52921545962562 -0.13050963105953953 0 0 0
892 1 9.51279756255129 36.179253414488436 0.7410349707380294 0 0 0
890 1 7.175611258616598 37.52921545962566 -0.13050963105953586 0 0 0
896 1 14.18418992497832 36.17925341448845 0.7410349707380308 0 0 0
894 1 11.84700362104359 37.52921545962566 -0.13050963105952892 0 0 0
898 1 16.5183959834706 37.52921545962565 -0.13050963105952604 0 0 0
900 1 18.855582287405312 36.17925341448842 0.7410349707380292 0 0 0
902 1 21.189788345897593 37.52921545962564 -0.13050963105952898 0 0 0
904 1 23.526974649832308 36.17925341448845 0.7410349707380252 0 0 0
908 1 28.198367012259297 36.17925341448844 0.741034970738027 0 0 0
906 1 25.86118070832459 37.52921545962566 -0.13050963105951732 0 0 0
912 1 32.86975937468632 36.179253414488464 0.741034970738033 0 0 0
910 1 30.532573070751596 37.52921545962566 -0.13050963105952196 0 0 0
916 1 37.541151737113324 36.179253414488464 0.7410349707380167 0 0 0
914 1 35.203965433178595 37.529215459625654 -0.13050963105951927 0 0 0
918 1 39.875357795605595 37.529215459625654 -0.1305096310595201 0 0 0
920 1 42.21254409954033 36.17925341448844 0.7410349707380331 0 0 0
922 1 44.546750158032594 37.52921545962566 -0.130509631059525 0 0 0
924 1 46.88393646196732 36.179253414488436 0.7410349707380379 0 0 0
844 1 51.5553288243943 36.17925341448845 0.7410349707380445 -1 0 0
842 1 49.218142520459615 37.529215459625625 -0.13050963105953334 -1 0 0
848 1 56.22672118682129 36.17925341448846 0.7410349707380327 -1 0 0
846 1 53.889534882886586 37.52921545962569 -0.13050963105951965 -1 0 0
852 1 60.89811354924828 36.17925341448844 0.7410349707380312 -1 0 0
850 1 58.56092724531356 37.529215459625654 -0.13050963105952362 -1 0 0
854 1 63.23231960774059 37.52921545962563 -0.13050963105953164 -1 0 0
856 1 65.56950591167534 36.17925341448847 0.7410349707380292 -1 0 0
858 1 67.9037119701676 37.52921545962563 -0.1305096310595318 -1 0 0
860 1 70.24089827410234 36.17925341448846 0.7410349707380495 -1 0 0
864 1 74.91229063652935 36.17925341448846 0.7410349707380397 -1 0 0
862 1 72.5751043325946 37.529215459625654 -0.1305096310595323 -1 0 0
868 1 79.58368299895635 36.179253414488464 0.741034970738024 -1 0 0
866 1 77.24649669502159 37.52921545962562 -0.13050963105952826 -1 0 0
872 1 84.25507536138339 36.179253414488464 0.7410349707380387 -1 0 0
870 1 81.91788905744859 37.52921545962566 -0.1305096310595161 -1 0 0
874 1 86.5892814198756 37.52921545962565 -0.13050963105953653 -1 0 0
876 1 88.92646772381029 36.17925341448839 0.7410349707380318 -1 0 0
878 1 91.26067378230252 37.52921545962562 -0.13050963105952626 -1 0 0
880 1 93.5978600862373 36.17925341448849 0.7410349707380298 -1 0 0
882 1 95.93206614472959 37.52921545962564 -0.1305096310595249 -1 0 0
971 1 2.5057090189138007 40.22479787139444 0.7410349707381053 0 0 0
969 1 4.839915077406111 41.574759916531654 -0.13050963105949226 0 0 0
968 1 0.17001283769732828 44.27034232830048 0.7410349707380305 0 0 0
972 1 4.841405200124278 44.27034232830046 0.7410349707380324 0 0 0
965 1 0.16852271497911978 41.57475991653163 -0.13050963105948357 0 0 0
970 1 2.5042188961895624 45.62030437343764 -0.13050963105951716 0 0 0
975 1 7.177101381340816 40.22479787139445 0.7410349707380921 0 0 0
973 1 9.511307439833102 41.57475991653166 -0.13050963105948907 0 0 0
976 1 9.512797562551295 44.27034232830045 0.7410349707380441 0 0 0
974 1 7.175611258616587 45.62030437343767 -0.13050963105953464 0 0 0
979 1 11.848493743767818 40.22479787139443 0.741034970738087 0 0 0
983 1 16.519886106194818 40.22479787139445 0.741034970738093 0 0 0
977 1 14.18269980226009 41.57475991653164 -0.13050963105948166 0 0 0
980 1 14.184189924978302 44.27034232830047 0.7410349707380361 0 0 0
978 1 11.847003621043589 45.62030437343767 -0.13050963105952235 0 0 0
982 1 16.51839598347061 45.620304373437655 -0.13050963105953378 0 0 0
987 1 21.191278468621793 40.22479787139445 0.7410349707380968 0 0 0
981 1 18.85409216468708 41.57475991653167 -0.13050963105949376 0 0 0
984 1 18.85558228740532 44.270342328300465 0.7410349707380556 0 0 0
986 1 21.18978834589758 45.62030437343764 -0.13050963105953253 0 0 0
991 1 25.862670831048828 40.224797871394436 0.7410349707380963 0 0 0
985 1 23.525484527114074 41.574759916531654 -0.13050963105949412 0 0 0
989 1 28.19687688954108 41.57475991653166 -0.13050963105948815 0 0 0
988 1 23.5269746498323 44.27034232830046 0.7410349707380323 0 0 0
992 1 28.1983670122593 44.27034232830046 0.7410349707380427 0 0 0
990 1 25.861180708324586 45.62030437343767 -0.13050963105952326 0 0 0
995 1 30.534063193475806 40.224797871394415 0.741034970738089 0 0 0
993 1 32.868269251968094 41.57475991653165 -0.13050963105948918 0 0 0
996 1 32.869759374686296 44.270342328300465 0.7410349707380385 0 0 0
994 1 30.532573070751614 45.620304373437676 -0.13050963105952657 0 0 0
999 1 35.20545555590279 40.224797871394436 0.741034970738098 0 0 0
1003 1 39.876847918329794 40.22479787139444 0.7410349707380882 0 0 0