LAMMPS data file via write_data, version 29 Aug 2024, timestep = 2, units = metal

10368 atoms
36 atom types

0 101.958432594112 xlo xhi
0 99.335916851112 ylo yhi
-50 50 zlo zhi

Masses

1 50.9415
2 50.9415
3 50.9415
4 50.9415
5 50.9415
6 50.9415
7 50.9415
8 50.9415
9 50.9415
10 50.9415
11 50.9415
12 50.9415
13 32.06
14 32.06
15 32.06
16 32.06
17 32.06
18 32.06
19 32.06
20 32.06
21 32.06
22 32.06
23 32.06
24 32.06
25 32.06
26 32.06
27 32.06
28 32.06
29 32.06
30 32.06
31 32.06
32 32.06
33 32.06
34 32.06
35 32.06
36 32.06

Atoms # atomic

1827 14 1.5931005092830028 0.91977700788088 0.04225502443864852 0 0 0
1825 1 0 2.2793728784223864e-13 1.4922731216945935 0 0 0
1831 3 3.186201018566002 2.2500838778436335e-13 1.4922731216945937 0 0 0
1833 18 4.779301527849 0.9197770078808803 0.0422550244386479 0 0 0
1828 2 1.5931005092830017 2.7593310236422304 1.4922731216945933 0 0 0
1834 4 4.779301527849 2.75933102364223 1.4922731216945935 0 0 0
1830 16 0 3.6791080315228815 0.042255024438649404 0 0 0
1836 20 3.186201018566002 3.679108031522883 0.04225502443864776 0 0 0
2017 1 0 5.518662047284233 1.4922731216945933 0 0 0
2023 3 3.186201018566002 5.518662047284231 1.4922731216945933 0 0 0
1837 1 6.372402037132001 2.262265756251212e-13 1.4922731216945937 0 0 0
1839 14 7.965502546415001 0.91977700788088 0.04225502443864844 0 0 0
1843 3 9.558603055698 2.250928385886826e-13 1.4922731216945937 0 0 0
1845 18 11.151703564981 0.91977700788088 0.04225502443864843 0 0 0
1840 2 7.965502546415 2.7593310236422304 1.4922731216945933 0 0 0
1846 4 11.151703564981002 2.7593310236422304 1.4922731216945933 0 0 0
1842 16 6.372402037132 3.679108031522882 0.04225502443864827 0 0 0
1848 20 9.558603055698 3.679108031522883 0.042255024438647995 0 0 0
2029 1 6.372402037132001 5.518662047284232 1.4922731216945933 0 0 0
2035 3 9.558603055698 5.518662047284231 1.4922731216945933 0 0 0
1849 1 12.744804074264001 2.262227740727322e-13 1.4922731216945935 0 0 0
1851 14 14.337904583547003 0.9197770078808799 0.04225502443864854 0 0 0
1855 3 15.93100509283 2.2502441068756928e-13 1.492273121694594 0 0 0
1852 2 14.337904583547003 2.7593310236422304 1.492273121694593 0 0 0
1854 16 12.744804074264001 3.6791080315228823 0.0422550244386484 0 0 0
1860 20 15.931005092830002 3.6791080315228823 0.04225502443864812 0 0 0
2041 1 12.744804074264001 5.518662047284232 1.4922731216945933 0 0 0
2047 3 15.93100509283 5.518662047284231 1.492273121694593 0 0 0
1857 18 17.524105602113 0.9197770078808803 0.042255024438647884 0 0 0
1861 1 19.117206111396 2.2724205625350888e-13 1.4922731216945935 0 0 0
1863 14 20.710306620679003 0.9197770078808802 0.04225502443864803 0 0 0
1867 3 22.303407129962004 2.2505160489493122e-13 1.492273121694594 0 0 0
1858 4 17.524105602113003 2.75933102364223 1.4922731216945933 0 0 0
1864 2 20.710306620679 2.75933102364223 1.4922731216945933 0 0 0
1866 16 19.117206111396 3.679108031522882 0.04225502443864873 0 0 0
1872 20 22.303407129962 3.6791080315228823 0.042255024438648064 0 0 0
2053 1 19.117206111396 5.5186620472842325 1.492273121694593 0 0 0
2059 3 22.303407129962004 5.518662047284231 1.4922731216945933 0 0 0
1869 18 23.896507639245 0.9197770078808798 0.042255024438648495 0 0 0
1875 14 27.082708657811 0.9197770078808802 0.04225502443864802 0 0 0
1873 1 25.489608148528 2.250543564006592e-13 1.492273121694594 0 0 0
1870 4 23.896507639245 2.7593310236422313 1.4922731216945933 0 0 0
1876 2 27.082708657811004 2.75933102364223 1.4922731216945933 0 0 0
1878 16 25.489608148528003 3.6791080315228823 0.04225502443864805 0 0 0
2065 1 25.489608148528 5.518662047284231 1.4922731216945933 0 0 0
1879 3 28.675809167094002 2.2721930528789983e-13 1.4922731216945935 0 0 0
1881 18 30.268909676377003 0.9197770078808802 0.04225502443864803 0 0 0
1885 1 31.862010185660004 2.2505160489493122e-13 1.492273121694594 0 0 0
1887 14 33.455110694943 0.9197770078808798 0.042255024438648495 0 0 0
1882 4 30.268909676377 2.75933102364223 1.4922731216945933 0 0 0
1888 2 33.455110694943 2.7593310236422317 1.4922731216945933 0 0 0
1884 20 28.675809167094002 3.679108031522882 0.04225502443864873 0 0 0
1890 16 31.86201018566 3.6791080315228823 0.04225502443864804 0 0 0
2071 3 28.675809167094002 5.5186620472842325 1.492273121694593 0 0 0
2077 1 31.862010185660004 5.518662047284231 1.4922731216945933 0 0 0
1891 3 35.048211204226 2.2474284317924284e-13 1.492273121694594 0 0 0
1893 18 36.641311713509 0.9197770078808802 0.04225502443864809 0 0 0
1897 1 38.234412222792 2.278475819535655e-13 1.4922731216945933 0 0 0
1894 4 36.641311713509005 2.7593310236422295 1.4922731216945933 0 0 0
1896 20 35.04821120422601 3.6791080315228823 0.042255024438648085 0 0 0
1902 16 38.234412222792 3.679108031522882 0.042255024438648724 0 0 0
2083 3 35.048211204226 5.518662047284231 1.4922731216945933 0 0 0
2089 1 38.234412222792 5.5186620472842325 1.492273121694593 0 0 0
1899 14 39.82751273207501 0.9197770078808802 0.04225502443864809 0 0 0
1903 3 41.420613241358005 2.2473834159923722e-13 1.492273121694594 0 0 0
1905 18 43.013713750641 0.9197770078808797 0.042255024438648495 0 0 0
1909 1 44.606814259924 2.2474284317924284e-13 1.492273121694594 0 0 0
1900 2 39.827512732075 2.7593310236422295 1.4922731216945933 0 0 0
1906 4 43.013713750641 2.759331023642232 1.4922731216945933 0 0 0
1908 20 41.420613241358 3.6791080315228823 0.042255024438648064 0 0 0
1914 16 44.60681425992401 3.6791080315228823 0.042255024438648064 0 0 0
2095 3 41.420613241358005 5.518662047284231 1.4922731216945933 0 0 0
2101 1 44.606814259924 5.518662047284231 1.4922731216945933 0 0 0
1911 14 46.199914769207 0.9197770078808802 0.04225502443864809 0 0 0
1915 3 47.79301527849 2.279368357417241e-13 1.4922731216945933 0 0 0
1917 18 49.38611578777301 0.9197770078808806 0.04225502443864777 0 0 0
1912 2 46.199914769207005 2.7593310236422295 1.4922731216945933 0 0 0
1918 4 49.386115787773 2.75933102364223 1.4922731216945933 0 0 0
1920 20 47.79301527849 3.679108031522882 0.04225502443864875 0 0 0
2107 3 47.79301527849 5.518662047284233 1.492273121694593 0 0 0
1731 14 52.572316806338996 0.9197770078808798 0.04225502443864885 -1 0 0
1729 1 50.979216297056 2.234652111512987e-13 1.492273121694594 -1 0 0
1735 3 54.165417315622 2.2645858686121744e-13 1.4922731216945937 -1 0 0
1737 18 55.758517824905 0.9197770078808806 0.04225502443864745 -1 0 0
1732 2 52.572316806338996 2.7593310236422313 1.4922731216945933 -1 0 0
1738 4 55.758517824905 2.7593310236422295 1.4922731216945933 -1 0 0
1734 16 50.979216297056 3.6791080315228832 0.04225502443864732 -1 0 0
1740 20 54.165417315622 3.679108031522882 0.042255024438648536 -1 0 0
1921 1 50.979216297056 5.51866204728423 1.492273121694593 -1 0 0
1927 3 54.165417315622 5.518662047284232 1.4922731216945933 -1 0 0
1741 1 57.351618334188 2.2644533490982373e-13 1.4922731216945937 -1 0 0
1743 14 58.944718843471 0.9197770078808798 0.0422550244386487 -1 0 0
1747 3 60.537819352754 2.2482112983665801e-13 1.4922731216945937 -1 0 0
1749 18 62.130919862037 0.9197770078808806 0.042255024438647676 -1 0 0
1744 2 58.944718843471 2.759331023642231 1.4922731216945933 -1 0 0
1750 4 62.130919862037 2.7593310236422295 1.4922731216945933 -1 0 0
1746 16 57.351618334188 3.679108031522882 0.04225502443864852 -1 0 0
1752 20 60.537819352754 3.679108031522883 0.0422550244386476 -1 0 0
1933 1 57.351618334188 5.518662047284232 1.4922731216945933 -1 0 0
1939 3 60.537819352754 5.518662047284231 1.492273121694593 -1 0 0
1753 1 63.724020371319995 2.2615501703010912e-13 1.4922731216945935 -1 0 0
1755 14 65.317120880603 0.9197770078808793 0.04225502443864964 -1 0 0
1759 3 66.910221389886 2.2452583396881794e-13 1.4922731216945937 -1 0 0
1756 2 65.317120880603 2.759331023642232 1.492273121694593 -1 0 0
1758 16 63.724020371319995 3.6791080315228823 0.04225502443864845 -1 0 0
1764 20 66.910221389886 3.679108031522883 0.042255024438647495 -1 0 0
1945 1 63.724020371319995 5.518662047284232 1.4922731216945933 -1 0 0
1951 3 66.910221389886 5.518662047284231 1.4922731216945933 -1 0 0
1761 18 68.503321899169 0.9197770078808803 0.04225502443864785 -1 0 0
1765 1 70.096422408452 2.2520597117344836e-13 1.4922731216945937 -1 0 0
1767 14 71.68952291773499 0.9197770078808806 0.04225502443864751 -1 0 0
1771 3 73.282623427018 2.277457179033769e-13 1.4922731216945935 -1 0 0
1762 4 68.503321899169 2.75933102364223 1.4922731216945933 -1 0 0
1768 2 71.68952291773499 2.7593310236422295 1.4922731216945933 -1 0 0
1770 16 70.096422408452 3.679108031522883 0.042255024438647835 -1 0 0
1776 20 73.282623427018 3.6791080315228815 0.04225502443864949 -1 0 0
1957 1 70.096422408452 5.518662047284231 1.4922731216945933 -1 0 0
1963 3 73.282623427018 5.518662047284233 1.492273121694593 -1 0 0
1773 18 74.875723936301 0.9197770078808793 0.04225502443864955 -1 0 0
1779 14 78.061924954867 0.9197770078808803 0.04225502443864785 -1 0 0
1777 1 76.468824445584 2.2454683486014938e-13 1.4922731216945937 -1 0 0
1774 4 74.875723936301 2.7593310236422317 1.4922731216945933 -1 0 0
1780 2 78.061924954867 2.75933102364223 1.4922731216945933 -1 0 0
1782 16 76.468824445584 3.679108031522883 0.042255024438647475 -1 0 0
1969 1 76.468824445584 5.518662047284231 1.4922731216945933 -1 0 0
1783 3 79.65502546415 2.2520597117344836e-13 1.4922731216945937 -1 0 0
1785 18 81.24812597343299 0.9197770078808806 0.04225502443864751 -1 0 0
1789 1 82.841226482716 2.277457179033769e-13 1.4922731216945935 -1 0 0
1791 14 84.434326991999 0.9197770078808793 0.04225502443864955 -1 0 0
1786 4 81.24812597343299 2.7593310236422295 1.4922731216945933 -1 0 0
1792 2 84.434326991999 2.7593310236422317 1.4922731216945933 -1 0 0
1788 20 79.65502546415 3.679108031522883 0.042255024438647835 -1 0 0
1794 16 82.841226482716 3.6791080315228815 0.04225502443864948 -1 0 0
1975 3 79.65502546415 5.518662047284231 1.4922731216945933 -1 0 0
1981 1 82.841226482716 5.518662047284233 1.492273121694593 -1 0 0
1795 3 86.027427501282 2.2454683486014938e-13 1.4922731216945937 -1 0 0
1797 18 87.620528010565 0.9197770078808803 0.04225502443864785 -1 0 0
1801 1 89.213628519848 2.2520597117344836e-13 1.4922731216945937 -1 0 0
1798 4 87.620528010565 2.75933102364223 1.4922731216945933 -1 0 0
1800 20 86.027427501282 3.679108031522883 0.042255024438647475 -1 0 0
1806 16 89.213628519848 3.679108031522883 0.04225502443864784 -1 0 0
1987 3 86.027427501282 5.518662047284231 1.4922731216945933 -1 0 0
1993 1 89.213628519848 5.518662047284231 1.4922731216945933 -1 0 0
1803 14 90.80672902913099 0.9197770078808806 0.04225502443864751 -1 0 0
1807 3 92.399829538414 2.277457179033769e-13 1.4922731216945935 -1 0 0
1809 18 93.992930047697 0.9197770078808793 0.04225502443864955 -1 0 0
1813 1 95.58603055698 2.2454683486014938e-13 1.4922731216945937 -1 0 0
1804 2 90.80672902913099 2.7593310236422295 1.4922731216945933 -1 0 0
1810 4 93.992930047697 2.7593310236422317 1.4922731216945933 -1 0 0
1812 20 92.399829538414 3.6791080315228815 0.04225502443864949 -1 0 0
1818 16 95.58603055698 3.679108031522883 0.04225502443864749 -1 0 0
1999 3 92.399829538414 5.518662047284233 1.492273121694593 -1 0 0
2005 1 95.58603055698 5.518662047284231 1.4922731216945933 -1 0 0
1815 14 97.179131066263 0.9197770078808803 0.04225502443864785 -1 0 0
1819 3 98.772231575546 2.2520772124772596e-13 1.4922731216945937 -1 0 0
1821 18 100.36533208482899 0.9197770078808806 0.042255024438647544 -1 0 0
1816 2 97.179131066263 2.75933102364223 1.4922731216945933 -1 0 0
1822 4 100.36533208482899 2.7593310236422295 1.4922731216945933 -1 0 0
1824 20 98.772231575546 3.679108031522883 0.04225502443864783 -1 0 0
2011 3 98.772231575546 5.518662047284231 1.4922731216945933 -1 0 0
2019 14 1.5931005092830028 6.438439055164882 0.04225502443864853 0 0 0
2025 18 4.779301527849 6.438439055164882 0.04225502443864818 0 0 0
2020 2 1.593100509283002 8.27799307092623 1.4922731216945933 0 0 0
2026 4 4.779301527849 8.27799307092623 1.4922731216945933 0 0 0
2022 16 0 9.197770078806881 0.04225502443864938 0 0 0
2028 20 3.186201018566002 9.197770078806883 0.04225502443864786 0 0 0
2209 1 0 11.037324094568234 1.4922731216945933 0 0 0
2215 3 3.186201018566002 11.037324094568232 1.4922731216945933 0 0 0
2031 14 7.965502546415001 6.438439055164882 0.04225502443864863 0 0 0
2037 18 11.151703564981 6.438439055164882 0.04225502443864867 0 0 0
2032 2 7.965502546415001 8.277993070926232 1.4922731216945933 0 0 0
2038 4 11.151703564981002 8.277993070926232 1.4922731216945933 0 0 0
2034 16 6.372402037132 9.197770078806881 0.04225502443864819 0 0 0
2040 20 9.558603055698 9.197770078806883 0.042255024438647856 0 0 0
2221 1 6.372402037132001 11.037324094568232 1.4922731216945935 0 0 0
2227 3 9.558603055698 11.037324094568232 1.4922731216945933 0 0 0
2043 14 14.337904583547003 6.438439055164882 0.04225502443864861 0 0 0
2044 2 14.337904583547003 8.277993070926232 1.492273121694593 0 0 0
2046 16 12.744804074264001 9.197770078806881 0.04225502443864824 0 0 0
2052 20 15.931005092830002 9.197770078806883 0.0422550244386479 0 0 0
2233 1 12.744804074264001 11.037324094568232 1.4922731216945933 0 0 0
2239 3 15.931005092830002 11.037324094568232 1.4922731216945933 0 0 0
2049 18 17.524105602113 6.438439055164882 0.0422550244386482 0 0 0
2055 14 20.710306620679003 6.438439055164882 0.042255024438648356 0 0 0
2050 4 17.524105602113003 8.27799307092623 1.492273121694593 0 0 0
2056 2 20.710306620679 8.27799307092623 1.492273121694593 0 0 0
2058 16 19.117206111396 9.197770078806881 0.04225502443864863 0 0 0
2064 20 22.303407129962 9.197770078806883 0.04225502443864805 0 0 0
2245 1 19.117206111396 11.037324094568232 1.4922731216945933 0 0 0
2251 3 22.303407129962004 11.037324094568232 1.4922731216945933 0 0 0
2061 18 23.896507639245 6.438439055164882 0.042255024438648814 0 0 0
2067 14 27.082708657811 6.438439055164882 0.042255024438648356 0 0 0
2062 4 23.896507639245 8.277993070926232 1.4922731216945933 0 0 0
2068 2 27.082708657811004 8.27799307092623 1.492273121694593 0 0 0
2070 16 25.489608148528003 9.197770078806883 0.04225502443864806 0 0 0
2257 1 25.489608148528 11.037324094568232 1.4922731216945933 0 0 0
2073 18 30.268909676377003 6.438439055164882 0.042255024438648356 0 0 0
2079 14 33.455110694943 6.438439055164882 0.042255024438648814 0 0 0
2074 4 30.268909676377 8.27799307092623 1.492273121694593 0 0 0
2080 2 33.455110694943 8.277993070926232 1.4922731216945933 0 0 0
2076 20 28.675809167094002 9.197770078806881 0.042255024438648627 0 0 0
2082 16 31.86201018566 9.197770078806883 0.04225502443864803 0 0 0
2263 3 28.675809167094002 11.037324094568232 1.4922731216945933 0 0 0
2269 1 31.862010185660004 11.037324094568232 1.4922731216945933 0 0 0
2085 18 36.641311713509 6.438439055164882 0.042255024438648335 0 0 0
2086 4 36.641311713509005 8.27799307092623 1.492273121694593 0 0 0
2088 20 35.04821120422601 9.197770078806883 0.04225502443864804 0 0 0
2094 16 38.234412222792 9.197770078806881 0.04225502443864862 0 0 0
2275 3 35.048211204226 11.037324094568232 1.4922731216945933 0 0 0
2281 1 38.234412222792 11.037324094568234 1.4922731216945933 0 0 0
2091 14 39.82751273207501 6.438439055164882 0.042255024438648335 0 0 0
2097 18 43.013713750641 6.438439055164882 0.042255024438648814 0 0 0
2092 2 39.827512732075 8.27799307092623 1.492273121694593 0 0 0
2098 4 43.013713750641 8.277993070926232 1.4922731216945933 0 0 0
2100 20 41.420613241358 9.197770078806883 0.04225502443864801 0 0 0
2106 16 44.60681425992401 9.197770078806883 0.04225502443864801 0 0 0
2287 3 41.420613241358005 11.037324094568232 1.4922731216945933 0 0 0
2293 1 44.606814259924 11.037324094568232 1.4922731216945933 0 0 0
2103 14 46.199914769207 6.438439055164882 0.042255024438648335 0 0 0
2109 18 49.38611578777301 6.438439055164882 0.04225502443864786 0 0 0
2104 2 46.199914769207005 8.27799307092623 1.492273121694593 0 0 0
2110 4 49.386115787773 8.27799307092623 1.492273121694593 0 0 0
2112 20 47.79301527849 9.197770078806881 0.04225502443864863 0 0 0
2299 3 47.79301527849 11.037324094568234 1.4922731216945933 0 0 0
1923 14 52.572316806338996 6.438439055164882 0.042255024438649154 -1 0 0
1929 18 55.758517824905 6.438439055164882 0.042255024438647794 -1 0 0
1924 2 52.572316806338996 8.277993070926232 1.492273121694593 -1 0 0
1930 4 55.758517824905 8.27799307092623 1.4922731216945933 -1 0 0
1926 16 50.979216297056 9.197770078806883 0.042255024438647176 -1 0 0
1932 20 54.165417315622 9.197770078806881 0.04225502443864837 -1 0 0
2113 1 50.979216297056 11.03732409456823 1.492273121694593 -1 0 0
2119 3 54.165417315622 11.037324094568232 1.4922731216945933 -1 0 0
1935 14 58.944718843471 6.438439055164882 0.042255024438648925 -1 0 0
1941 18 62.130919862037 6.438439055164882 0.04225502443864798 -1 0 0
1936 2 58.944718843471 8.277993070926232 1.4922731216945933 -1 0 0
1942 4 62.130919862037 8.27799307092623 1.4922731216945933 -1 0 0
1938 16 57.351618334188 9.197770078806881 0.04225502443864836 -1 0 0
1944 20 60.537819352754 9.197770078806883 0.042255024438647586 -1 0 0
2125 1 57.351618334188 11.037324094568232 1.4922731216945933 -1 0 0
2131 3 60.537819352754 11.037324094568232 1.4922731216945933 -1 0 0
1947 14 65.317120880603 6.438439055164881 0.042255024438649764 -1 0 0
1948 2 65.317120880603 8.277993070926232 1.4922731216945933 -1 0 0
1950 16 63.724020371319995 9.197770078806881 0.042255024438648384 -1 0 0
1956 20 66.910221389886 9.197770078806883 0.04225502443864742 -1 0 0
2137 1 63.724020371319995 11.037324094568232 1.492273121694593 -1 0 0
2143 3 66.910221389886 11.037324094568232 1.4922731216945933 -1 0 0
1953 18 68.503321899169 6.438439055164882 0.042255024438648134 -1 0 0
1959 14 71.68952291773499 6.438439055164882 0.042255024438647745 -1 0 0
1954 4 68.503321899169 8.27799307092623 1.492273121694593 -1 0 0
1960 2 71.68952291773499 8.27799307092623 1.492273121694593 -1 0 0
1962 16 70.096422408452 9.197770078806883 0.04225502443864778 -1 0 0
1968 20 73.282623427018 9.197770078806881 0.04225502443864935 -1 0 0
2149 1 70.096422408452 11.037324094568232 1.492273121694593 -1 0 0
2155 3 73.282623427018 11.037324094568234 1.492273121694593 -1 0 0
1965 18 74.875723936301 6.438439055164881 0.04225502443864957 -1 0 0
1971 14 78.061924954867 6.438439055164882 0.042255024438648134 -1 0 0
1966 4 74.875723936301 8.277993070926232 1.4922731216945933 -1 0 0
1972 2 78.061924954867 8.27799307092623 1.492273121694593 -1 0 0
1974 16 76.468824445584 9.197770078806883 0.04225502443864741 -1 0 0
2161 1 76.468824445584 11.037324094568232 1.492273121694593 -1 0 0
1977 18 81.24812597343299 6.438439055164882 0.042255024438647745 -1 0 0
1983 14 84.434326991999 6.438439055164881 0.04225502443864957 -1 0 0
1978 4 81.24812597343299 8.27799307092623 1.492273121694593 -1 0 0
1984 2 84.434326991999 8.277993070926232 1.4922731216945933 -1 0 0
1980 20 79.65502546415 9.197770078806883 0.04225502443864778 -1 0 0
1986 16 82.841226482716 9.197770078806881 0.04225502443864934 -1 0 0
2167 3 79.65502546415 11.037324094568232 1.492273121694593 -1 0 0
2173 1 82.841226482716 11.037324094568234 1.492273121694593 -1 0 0
1989 18 87.620528010565 6.438439055164882 0.042255024438648134 -1 0 0
1990 4 87.620528010565 8.27799307092623 1.492273121694593 -1 0 0
1992 20 86.027427501282 9.197770078806883 0.04225502443864741 -1 0 0
1998 16 89.213628519848 9.197770078806883 0.04225502443864778 -1 0 0
2179 3 86.027427501282 11.037324094568232 1.492273121694593 -1 0 0
2185 1 89.213628519848 11.037324094568232 1.492273121694593 -1 0 0
1995 14 90.80672902913099 6.438439055164882 0.042255024438647745 -1 0 0
2001 18 93.992930047697 6.438439055164881 0.04225502443864957 -1 0 0
1996 2 90.80672902913099 8.27799307092623 1.492273121694593 -1 0 0
2002 4 93.992930047697 8.277993070926232 1.4922731216945933 -1 0 0
2004 20 92.399829538414 9.197770078806881 0.04225502443864935 -1 0 0
2010 16 95.58603055698 9.197770078806883 0.04225502443864741 -1 0 0
2191 3 92.399829538414 11.037324094568234 1.492273121694593 -1 0 0
2197 1 95.58603055698 11.037324094568232 1.492273121694593 -1 0 0
2007 14 97.179131066263 6.438439055164882 0.042255024438648134 -1 0 0
2013 18 100.36533208482899 6.438439055164882 0.042255024438647766 -1 0 0
2008 2 97.179131066263 8.27799307092623 1.492273121694593 -1 0 0
2014 4 100.36533208482899 8.27799307092623 1.492273121694593 -1 0 0
2016 20 98.772231575546 9.197770078806883 0.04225502443864778 -1 0 0
2203 3 98.772231575546 11.037324094568232 1.492273121694593 -1 0 0
2211 14 1.5931005092830028 11.957101102448883 0.04225502443864847 0 0 0
2217 18 4.779301527849 11.957101102448885 0.04225502443864778 0 0 0
2214 16 0 14.716432126090883 0.042255024438649404 0 0 0
2212 2 1.593100509283002 13.796655118210232 1.4922731216945933 0 0 0
2220 20 3.186201018566002 14.716432126090883 0.042255024438647815 0 0 0
2218 4 4.779301527849 13.796655118210232 1.4922731216945933 0 0 0
2401 1 0 16.555986141852234 1.492273121694593 0 0 0
2407 3 3.186201018566002 16.555986141852234 1.4922731216945933 0 0 0
2403 14 1.5931005092830028 17.475763149732884 0.04225502443864897 0 0 0
2409 18 4.779301527849 17.475763149732884 0.042255024438648266 0 0 0
2223 14 7.965502546415001 11.957101102448883 0.04225502443864837 0 0 0
2229 18 11.151703564981 11.957101102448883 0.04225502443864848 0 0 0
2226 16 6.372402037132 14.716432126090883 0.0422550244386482 0 0 0
2224 2 7.965502546415 13.796655118210232 1.4922731216945933 0 0 0
2232 20 9.558603055698 14.716432126090883 0.04225502443864784 0 0 0
2230 4 11.151703564981002 13.796655118210232 1.4922731216945933 0 0 0
2413 1 6.372402037132001 16.555986141852234 1.4922731216945933 0 0 0
2419 3 9.558603055698 16.555986141852234 1.4922731216945933 0 0 0
2415 14 7.965502546415001 17.475763149732884 0.042255024438649036 0 0 0
2421 18 11.151703564981 17.475763149732884 0.04225502443864898 0 0 0
2235 14 14.337904583547003 11.957101102448883 0.04225502443864837 0 0 0
2238 16 12.744804074264001 14.716432126090883 0.042255024438648064 0 0 0
2236 2 14.337904583547003 13.796655118210232 1.4922731216945933 0 0 0
2244 20 15.931005092830002 14.716432126090883 0.04225502443864797 0 0 0
2425 1 12.744804074264001 16.555986141852234 1.492273121694593 0 0 0
2431 3 15.93100509283 16.555986141852234 1.4922731216945933 0 0 0
2427 14 14.337904583547003 17.475763149732884 0.04225502443864909 0 0 0
2241 18 17.524105602113 11.957101102448885 0.04225502443864795 0 0 0
2247 14 20.710306620679003 11.957101102448885 0.04225502443864802 0 0 0
2242 4 17.524105602113003 13.796655118210232 1.4922731216945933 0 0 0
2250 16 19.117206111396 14.716432126090883 0.042255024438648696 0 0 0
2248 2 20.710306620679003 13.796655118210232 1.4922731216945933 0 0 0
2256 20 22.303407129962 14.716432126090883 0.042255024438647926 0 0 0
2437 1 19.117206111396 16.555986141852234 1.4922731216945933 0 0 0
2443 3 22.303407129962004 16.555986141852234 1.4922731216945933 0 0 0
2433 18 17.524105602113 17.475763149732884 0.04225502443864824 0 0 0
2439 14 20.710306620679003 17.475763149732884 0.04225502443864833 0 0 0
2253 18 23.896507639245 11.957101102448883 0.0422550244386488 0 0 0
2259 14 27.082708657811 11.957101102448885 0.042255024438648016 0 0 0
2254 4 23.896507639245 13.796655118210234 1.4922731216945933 0 0 0
2262 16 25.489608148528003 14.716432126090883 0.042255024438647926 0 0 0
2260 2 27.082708657811 13.796655118210232 1.4922731216945933 0 0 0
2449 1 25.489608148528 16.555986141852234 1.4922731216945933 0 0 0
2445 18 23.896507639245 17.475763149732884 0.04225502443864903 0 0 0
2451 14 27.082708657811 17.475763149732884 0.04225502443864833 0 0 0
2265 18 30.268909676377003 11.957101102448885 0.04225502443864802 0 0 0
2271 14 33.455110694943 11.957101102448883 0.0422550244386488 0 0 0
2268 20 28.675809167094002 14.716432126090883 0.042255024438648696 0 0 0
2266 4 30.268909676377003 13.796655118210232 1.4922731216945933 0 0 0
2274 16 31.86201018566 14.716432126090883 0.04225502443864789 0 0 0
2272 2 33.455110694943 13.796655118210234 1.4922731216945933 0 0 0
2455 3 28.675809167094002 16.555986141852234 1.4922731216945933 0 0 0
2461 1 31.862010185660004 16.555986141852234 1.4922731216945933 0 0 0
2457 18 30.268909676377003 17.475763149732884 0.04225502443864833 0 0 0
2463 14 33.455110694943 17.475763149732884 0.04225502443864903 0 0 0
2277 18 36.641311713509 11.957101102448885 0.04225502443864804 0 0 0
2280 20 35.04821120422601 14.716432126090883 0.04225502443864797 0 0 0
2278 4 36.641311713509005 13.796655118210232 1.4922731216945933 0 0 0
2286 16 38.234412222792 14.716432126090883 0.042255024438648696 0 0 0
2467 3 35.048211204226 16.555986141852234 1.4922731216945933 0 0 0
2473 1 38.234412222792 16.555986141852234 1.492273121694593 0 0 0
2469 18 36.641311713509 17.475763149732884 0.04225502443864837 0 0 0
2283 14 39.82751273207501 11.957101102448885 0.04225502443864804 0 0 0
2289 18 43.013713750641 11.957101102448883 0.04225502443864881 0 0 0
2284 2 39.827512732075 13.796655118210232 1.4922731216945933 0 0 0
2292 20 41.420613241358 14.716432126090883 0.04225502443864793 0 0 0
2290 4 43.013713750641 13.796655118210234 1.4922731216945933 0 0 0
2298 16 44.60681425992401 14.716432126090883 0.04225502443864793 0 0 0
2479 3 41.420613241358005 16.555986141852234 1.4922731216945933 0 0 0
2485 1 44.606814259924 16.555986141852234 1.4922731216945933 0 0 0
2475 14 39.82751273207501 17.475763149732884 0.04225502443864837 0 0 0
2481 18 43.013713750641 17.475763149732884 0.04225502443864903 0 0 0
2295 14 46.199914769207 11.957101102448885 0.04225502443864804 0 0 0
2301 18 49.38611578777301 11.957101102448885 0.04225502443864769 0 0 0
2296 2 46.199914769207005 13.796655118210232 1.4922731216945933 0 0 0
2304 20 47.79301527849 14.716432126090883 0.042255024438648696 0 0 0
2302 4 49.386115787773 13.796655118210232 1.492273121694593 0 0 0
2491 3 47.79301527849 16.555986141852234 1.492273121694593 0 0 0
2487 14 46.199914769207 17.475763149732884 0.04225502443864837 0 0 0
2493 18 49.38611578777301 17.475763149732884 0.04225502443864786 0 0 0
2115 14 52.572316806338996 11.957101102448883 0.042255024438648786 -1 0 0
2121 18 55.758517824905 11.957101102448885 0.04225502443864757 -1 0 0
2118 16 50.979216297056 14.716432126090883 0.04225502443864722 -1 0 0
2116 2 52.572316806338996 13.796655118210234 1.4922731216945933 -1 0 0
2124 20 54.165417315622 14.716432126090883 0.042255024438648404 -1 0 0
2122 4 55.758517824905 13.796655118210232 1.4922731216945933 -1 0 0
2305 1 50.979216297056 16.55598614185223 1.492273121694593 -1 0 0
2311 3 54.165417315622 16.555986141852234 1.4922731216945933 -1 0 0
2307 14 52.572316806338996 17.475763149732884 0.04225502443864943 -1 0 0
2313 18 55.758517824905 17.475763149732884 0.042255024438647946 -1 0 0
2127 14 58.944718843471 11.957101102448883 0.04225502443864861 -1 0 0
2133 18 62.130919862037 11.957101102448885 0.04225502443864759 -1 0 0
2130 16 57.351618334188 14.716432126090883 0.04225502443864839 -1 0 0
2128 2 58.944718843471 13.796655118210232 1.4922731216945933 -1 0 0
2136 20 60.537819352754 14.716432126090883 0.042255024438647586 -1 0 0
2134 4 62.130919862037 13.796655118210232 1.4922731216945933 -1 0 0
2317 1 57.351618334188 16.555986141852234 1.4922731216945933 -1 0 0
2323 3 60.537819352754 16.555986141852234 1.4922731216945933 -1 0 0
2319 14 58.944718843471 17.475763149732884 0.042255024438649265 -1 0 0
2325 18 62.130919862037 17.475763149732884 0.042255024438648064 -1 0 0
2139 14 65.317120880603 11.957101102448883 0.042255024438649626 -1 0 0
2142 16 63.724020371319995 14.716432126090883 0.04225502443864811 -1 0 0
2140 2 65.317120880603 13.796655118210234 1.4922731216945933 -1 0 0
2148 20 66.910221389886 14.716432126090883 0.04225502443864736 -1 0 0
2329 1 63.724020371319995 16.555986141852234 1.4922731216945933 -1 0 0
2335 3 66.910221389886 16.555986141852234 1.4922731216945933 -1 0 0
2331 14 65.317120880603 17.475763149732884 0.04225502443865016 -1 0 0
2145 18 68.503321899169 11.957101102448885 0.0422550244386478 -1 0 0
2151 14 71.68952291773499 11.957101102448885 0.04225502443864745 -1 0 0
2146 4 68.503321899169 13.796655118210232 1.492273121694593 -1 0 0
2154 16 70.096422408452 14.716432126090883 0.04225502443864778 -1 0 0
2152 2 71.68952291773499 13.796655118210232 1.492273121694593 -1 0 0
2160 20 73.282623427018 14.716432126090883 0.04225502443864938 -1 0 0
2341 1 70.096422408452 16.555986141852234 1.492273121694593 -1 0 0
2347 3 73.282623427018 16.555986141852234 1.4922731216945933 -1 0 0
2337 18 68.503321899169 17.475763149732884 0.042255024438648175 -1 0 0
2343 14 71.68952291773499 17.475763149732884 0.0422550244386478 -1 0 0
2157 18 74.875723936301 11.957101102448883 0.04225502443864954 -1 0 0
2163 14 78.061924954867 11.957101102448885 0.04225502443864781 -1 0 0
2158 4 74.875723936301 13.796655118210234 1.492273121694593 -1 0 0
2166 16 76.468824445584 14.716432126090883 0.04225502443864734 -1 0 0
2164 2 78.061924954867 13.796655118210232 1.492273121694593 -1 0 0
2353 1 76.468824445584 16.555986141852234 1.4922731216945933 -1 0 0
2349 18 74.875723936301 17.475763149732884 0.04225502443864978 -1 0 0
2355 14 78.061924954867 17.475763149732884 0.042255024438648175 -1 0 0
2169 18 81.24812597343299 11.957101102448885 0.04225502443864745 -1 0 0
2175 14 84.434326991999 11.957101102448883 0.04225502443864954 -1 0 0
2172 20 79.65502546415 14.716432126090883 0.04225502443864778 -1 0 0
2170 4 81.24812597343299 13.796655118210232 1.492273121694593 -1 0 0
2178 16 82.841226482716 14.716432126090883 0.04225502443864939 -1 0 0
2176 2 84.434326991999 13.796655118210234 1.492273121694593 -1 0 0
2359 3 79.65502546415 16.555986141852234 1.492273121694593 -1 0 0
2365 1 82.841226482716 16.555986141852234 1.4922731216945933 -1 0 0
2361 18 81.24812597343299 17.475763149732884 0.0422550244386478 -1 0 0
2367 14 84.434326991999 17.475763149732884 0.04225502443864977 -1 0 0
2181 18 87.620528010565 11.957101102448885 0.04225502443864781 -1 0 0
2184 20 86.027427501282 14.716432126090883 0.04225502443864734 -1 0 0
2182 4 87.620528010565 13.796655118210232 1.492273121694593 -1 0 0
2190 16 89.213628519848 14.716432126090883 0.04225502443864778 -1 0 0
2371 3 86.027427501282 16.555986141852234 1.4922731216945933 -1 0 0