LAMMPS data file via write_data, version 29 Aug 2024, timestep = 2, units = metal

6912 atoms
24 atom types

0 101.958432594112 xlo xhi
0 99.335916851112 ylo yhi
-50 50 zlo zhi

Masses

1 50.9415
2 50.9415
3 50.9415
4 50.9415
5 50.9415
6 50.9415
7 50.9415
8 50.9415
9 32.06
10 32.06
11 32.06
12 32.06
13 32.06
14 32.06
15 32.06
16 32.06
17 32.06
18 32.06
19 32.06
20 32.06
21 32.06
22 32.06
23 32.06
24 32.06

Atoms # atomic

1827 10 1.5931005092830028 0.9197770078808776 0.042148911277307674 0 0 0
1825 1 0 2.336902170384188e-13 1.4924392163444007 0 0 0
1831 3 3.186201018566002 2.3081100831590754e-13 1.492439216344401 0 0 0
1833 14 4.779301527849 0.9197770078808779 0.04214891127730713 0 0 0
1828 2 1.593100509283002 2.759331023642236 1.492439216344401 0 0 0
1834 4 4.779301527849 2.759331023642235 1.4924392163444005 0 0 0
1830 12 0 3.679108031522879 0.04214891127730844 0 0 0
1836 16 3.186201018566002 3.67910803152288 0.0421489112773071 0 0 0
2017 1 0 5.518662047284239 1.4924392163444007 0 0 0
2023 3 3.1862010185660026 5.518662047284236 1.4924392163444007 0 0 0
1837 1 6.372402037132001 2.3211376134119197e-13 1.492439216344401 0 0 0
1839 10 7.965502546415001 0.9197770078808775 0.04214891127730763 0 0 0
1843 3 9.558603055698 2.3089566106243277e-13 1.492439216344401 0 0 0
1845 14 11.151703564981 0.9197770078808775 0.042148911277307556 0 0 0
1840 2 7.965502546415 2.7593310236422357 1.4924392163444007 0 0 0
1846 4 11.151703564981002 2.7593310236422357 1.4924392163444007 0 0 0
1842 12 6.372402037132 3.6791080315228797 0.04214891127730762 0 0 0
1848 16 9.558603055698 3.67910803152288 0.042148911277307216 0 0 0
2029 1 6.372402037132001 5.518662047284237 1.4924392163444007 0 0 0
2035 3 9.558603055698 5.518662047284236 1.4924392163444007 0 0 0
1849 1 12.744804074264001 2.3203505906938025e-13 1.492439216344401 0 0 0
1851 10 14.337904583547003 0.9197770078808775 0.042148911277307674 0 0 0
1855 3 15.93100509283 2.3093207849756913e-13 1.492439216344401 0 0 0
1852 2 14.337904583547003 2.7593310236422357 1.4924392163444007 0 0 0
1854 12 12.744804074264001 3.6791080315228797 0.0421489112773076 0 0 0
1860 16 15.931005092830002 3.67910803152288 0.042148911277307174 0 0 0
2041 1 12.744804074264001 5.518662047284237 1.4924392163444005 0 0 0
2047 3 15.93100509283 5.518662047284236 1.4924392163444007 0 0 0
1857 14 17.524105602113 0.9197770078808778 0.04214891127730724 0 0 0
1861 1 19.117206111396 2.3326359349641735e-13 1.4924392163444007 0 0 0
1863 10 20.710306620679003 0.9197770078808778 0.0421489112773073 0 0 0
1867 3 22.303407129962004 2.3105952402514796e-13 1.492439216344401 0 0 0
1858 4 17.524105602113003 2.7593310236422353 1.4924392163444007 0 0 0
1864 2 20.710306620679 2.7593310236422353 1.4924392163444007 0 0 0
1866 12 19.117206111396 3.6791080315228792 0.04214891127730795 0 0 0
1872 16 22.303407129962 3.67910803152288 0.042148911277307334 0 0 0
2053 1 19.117206111396 5.518662047284238 1.4924392163444007 0 0 0
2059 3 22.303407129962004 5.518662047284236 1.4924392163444007 0 0 0
1869 14 23.896507639245 0.9197770078808772 0.04214891127730801 0 0 0
1875 10 27.082708657811 0.9197770078808778 0.0421489112773073 0 0 0
1873 1 25.489608148528 2.310622987085666e-13 1.492439216344401 0 0 0
1870 4 23.896507639245 2.7593310236422366 1.4924392163444007 0 0 0
1876 2 27.082708657811004 2.7593310236422353 1.4924392163444007 0 0 0
1878 12 25.489608148528003 3.67910803152288 0.04214891127730733 0 0 0
2065 1 25.489608148528 5.518662047284236 1.4924392163444007 0 0 0
1879 3 28.675809167094002 2.332476194866332e-13 1.4924392163444007 0 0 0
1881 14 30.268909676377003 0.9197770078808778 0.0421489112773073 0 0 0
1885 1 31.862010185660004 2.3105952402514796e-13 1.492439216344401 0 0 0
1887 10 33.455110694943 0.9197770078808771 0.04214891127730801 0 0 0
1882 4 30.268909676377 2.7593310236422353 1.4924392163444007 0 0 0
1888 2 33.455110694943 2.7593310236422366 1.4924392163444007 0 0 0
1884 16 28.675809167094002 3.6791080315228792 0.04214891127730795 0 0 0
1890 12 31.86201018566 3.67910803152288 0.04214891127730731 0 0 0
2071 3 28.675809167094002 5.518662047284238 1.4924392163444007 0 0 0
2077 1 31.862010185660004 5.518662047284236 1.4924392163444007 0 0 0
1891 3 35.048211204226 2.308051171510412e-13 1.492439216344401 0 0 0
1893 14 36.641311713509 0.9197770078808778 0.042148911277307355 0 0 0
1897 1 38.234412222792 2.3388977467995744e-13 1.4924392163444007 0 0 0
1894 4 36.641311713509005 2.759331023642235 1.4924392163444007 0 0 0
1896 16 35.04821120422601 3.67910803152288 0.042148911277307355 0 0 0
1902 12 38.234412222792 3.6791080315228792 0.04214891127730795 0 0 0
2083 3 35.048211204226 5.518662047284236 1.4924392163444007 0 0 0
2089 1 38.234412222792 5.518662047284239 1.4924392163444007 0 0 0
1899 10 39.82751273207501 0.9197770078808778 0.042148911277307355 0 0 0
1903 3 41.420613241358005 2.3080074506664415e-13 1.492439216344401 0 0 0
1905 14 43.013713750641 0.9197770078808771 0.04214891127730801 0 0 0
1909 1 44.606814259924 2.308051171510412e-13 1.492439216344401 0 0 0
1900 2 39.827512732075 2.759331023642235 1.4924392163444007 0 0 0
1906 4 43.013713750641 2.759331023642237 1.4924392163444007 0 0 0
1908 16 41.420613241358 3.67910803152288 0.042148911277307334 0 0 0
1914 12 44.60681425992401 3.67910803152288 0.042148911277307334 0 0 0
2095 3 41.420613241358005 5.518662047284236 1.4924392163444007 0 0 0
2101 1 44.606814259924 5.518662047284236 1.4924392163444007 0 0 0
1911 10 46.199914769207 0.9197770078808778 0.042148911277307355 0 0 0
1915 3 47.79301527849 2.339281123034395e-13 1.4924392163444007 0 0 0
1917 14 49.38611578777301 0.919777007880878 0.04214891127730701 0 0 0
1912 2 46.199914769207005 2.759331023642235 1.4924392163444007 0 0 0
1918 4 49.386115787773 2.759331023642235 1.492439216344401 0 0 0
1920 16 47.79301527849 3.6791080315228792 0.04214891127730796 0 0 0
2107 3 47.79301527849 5.518662047284239 1.4924392163444007 0 0 0
1731 10 52.572316806338996 0.9197770078808772 0.04214891127730802 -1 0 0
1729 1 50.979216297056 2.292914336287619e-13 1.4924392163444011 -1 0 0
1735 3 54.165417315622 2.3229225013223656e-13 1.492439216344401 -1 0 0
1737 14 55.758517824905 0.9197770078808781 0.04214891127730668 -1 0 0
1732 2 52.572316806338996 2.759331023642236 1.4924392163444007 -1 0 0
1738 4 55.758517824905 2.759331023642235 1.4924392163444007 -1 0 0
1734 12 50.979216297056 3.67910803152288 0.04214891127730643 -1 0 0
1740 16 54.165417315622 3.6791080315228797 0.04214891127730781 -1 0 0
1921 1 50.979216297056 5.518662047284234 1.4924392163444007 -1 0 0
1927 3 54.165417315622 5.518662047284237 1.4924392163444007 -1 0 0
1741 1 57.351618334188 2.32289475448818e-13 1.492439216344401 -1 0 0
1743 10 58.944718843471 0.9197770078808774 0.04214891127730783 -1 0 0
1747 3 60.537819352754 2.3064967081708723e-13 1.492439216344401 -1 0 0
1749 14 62.130919862037 0.919777007880878 0.04214891127730694 -1 0 0
1744 2 58.944718843471 2.759331023642236 1.4924392163444007 -1 0 0
1750 4 62.130919862037 2.759331023642235 1.4924392163444007 -1 0 0
1746 12 57.351618334188 3.6791080315228797 0.042148911277307806 -1 0 0
1752 16 60.537819352754 3.67910803152288 0.04214891127730694 -1 0 0
1933 1 57.351618334188 5.518662047284237 1.4924392163444007 -1 0 0
1939 3 60.537819352754 5.518662047284236 1.4924392163444007 -1 0 0
1753 1 63.724020371319995 2.3217050110718215e-13 1.492439216344401 -1 0 0
1755 10 65.317120880603 0.9197770078808767 0.04214891127730875 -1 0 0
1759 3 66.910221389886 2.3052716938079636e-13 1.492439216344401 -1 0 0
1756 2 65.317120880603 2.7593310236422375 1.4924392163444007 -1 0 0
1758 12 63.724020371319995 3.6791080315228797 0.042148911277307625 -1 0 0
1764 16 66.910221389886 3.67910803152288 0.042148911277306814 -1 0 0
1945 1 63.724020371319995 5.518662047284237 1.4924392163444007 -1 0 0
1951 3 66.910221389886 5.518662047284236 1.4924392163444007 -1 0 0
1761 14 68.503321899169 0.9197770078808778 0.042148911277307105 -1 0 0
1765 1 70.096422408452 2.309784126312742e-13 1.492439216344401 -1 0 0
1767 10 71.68952291773499 0.9197770078808781 0.04214891127730682 -1 0 0
1771 3 73.282623427018 2.338063537730541e-13 1.4924392163444007 -1 0 0
1762 4 68.503321899169 2.759331023642235 1.4924392163444007 -1 0 0
1768 2 71.68952291773499 2.7593310236422344 1.4924392163444007 -1 0 0
1770 12 70.096422408452 3.67910803152288 0.04214891127730708 -1 0 0
1776 16 73.282623427018 3.679108031522879 0.042148911277308486 -1 0 0
1957 1 70.096422408452 5.518662047284236 1.492439216344401 -1 0 0
1963 3 73.282623427018 5.518662047284238 1.4924392163444007 -1 0 0
1773 14 74.875723936301 0.9197770078808767 0.042148911277308534 -1 0 0
1779 10 78.061924954867 0.9197770078808778 0.042148911277307105 -1 0 0
1777 1 76.468824445584 2.305575199993863e-13 1.492439216344401 -1 0 0
1774 4 74.875723936301 2.759331023642237 1.4924392163444007 -1 0 0
1780 2 78.061924954867 2.759331023642235 1.4924392163444007 -1 0 0
1782 12 76.468824445584 3.67910803152288 0.04214891127730678 -1 0 0
1969 1 76.468824445584 5.518662047284236 1.4924392163444007 -1 0 0
1783 3 79.65502546415 2.309784126312742e-13 1.492439216344401 -1 0 0
1785 14 81.24812597343299 0.9197770078808781 0.04214891127730682 -1 0 0
1789 1 82.841226482716 2.338063537730541e-13 1.4924392163444007 -1 0 0
1791 10 84.434326991999 0.9197770078808767 0.04214891127730853 -1 0 0
1786 4 81.24812597343299 2.7593310236422344 1.4924392163444007 -1 0 0
1792 2 84.434326991999 2.759331023642237 1.4924392163444007 -1 0 0
1788 16 79.65502546415 3.67910803152288 0.04214891127730708 -1 0 0
1794 12 82.841226482716 3.679108031522879 0.04214891127730849 -1 0 0
1975 3 79.65502546415 5.518662047284236 1.492439216344401 -1 0 0
1981 1 82.841226482716 5.518662047284238 1.4924392163444007 -1 0 0
1795 3 86.027427501282 2.305575199993863e-13 1.492439216344401 -1 0 0
1797 14 87.620528010565 0.9197770078808778 0.042148911277307105 -1 0 0
1801 1 89.213628519848 2.309784126312742e-13 1.492439216344401 -1 0 0
1798 4 87.620528010565 2.759331023642235 1.4924392163444007 -1 0 0
1800 16 86.027427501282 3.67910803152288 0.04214891127730678 -1 0 0
1806 12 89.213628519848 3.67910803152288 0.042148911277307084 -1 0 0
1987 3 86.027427501282 5.518662047284236 1.4924392163444007 -1 0 0
1993 1 89.213628519848 5.518662047284236 1.492439216344401 -1 0 0
1803 10 90.80672902913099 0.9197770078808781 0.04214891127730682 -1 0 0
1807 3 92.399829538414 2.338063537730541e-13 1.4924392163444007 -1 0 0
1809 14 93.992930047697 0.9197770078808767 0.04214891127730853 -1 0 0
1813 1 95.58603055698 2.3055592259840786e-13 1.492439216344401 -1 0 0
1804 2 90.80672902913099 2.7593310236422344 1.4924392163444007 -1 0 0
1810 4 93.992930047697 2.759331023642237 1.4924392163444007 -1 0 0
1812 16 92.399829538414 3.679108031522879 0.04214891127730849 -1 0 0
1818 12 95.58603055698 3.67910803152288 0.04214891127730679 -1 0 0
1999 3 92.399829538414 5.518662047284238 1.4924392163444007 -1 0 0
2005 1 95.58603055698 5.518662047284236 1.4924392163444007 -1 0 0
1815 10 97.179131066263 0.9197770078808778 0.042148911277307105 -1 0 0
1819 3 98.772231575546 2.309768152302958e-13 1.492439216344401 -1 0 0
1821 14 100.36533208482899 0.9197770078808781 0.042148911277306834 -1 0 0
1816 2 97.179131066263 2.759331023642235 1.4924392163444007 -1 0 0
1822 4 100.36533208482899 2.759331023642235 1.4924392163444007 -1 0 0
1824 16 98.772231575546 3.67910803152288 0.04214891127730708 -1 0 0
2011 3 98.772231575546 5.518662047284236 1.492439216344401 -1 0 0
2019 10 1.5931005092830028 6.43843905516488 0.04214891127730784 0 0 0
2025 14 4.779301527849 6.43843905516488 0.04214891127730738 0 0 0
2020 2 1.593100509283002 8.277993070926236 1.4924392163444007 0 0 0
2026 4 4.779301527849 8.277993070926236 1.4924392163444007 0 0 0
2022 12 0 9.197770078806878 0.042148911277308354 0 0 0
2028 16 3.186201018566002 9.19777007880688 0.04214891127730687 0 0 0
2209 1 0 11.037324094568238 1.492439216344401 0 0 0
2215 3 3.1862010185660026 11.037324094568236 1.4924392163444007 0 0 0
2031 10 7.965502546415001 6.43843905516488 0.04214891127730781 0 0 0
2037 14 11.151703564981 6.43843905516488 0.0421489112773079 0 0 0
2032 2 7.965502546415 8.277993070926238 1.4924392163444007 0 0 0
2038 4 11.151703564981002 8.277993070926238 1.4924392163444007 0 0 0
2034 12 6.372402037132 9.19777007880688 0.04214891127730758 0 0 0
2040 16 9.558603055698 9.19777007880688 0.04214891127730706 0 0 0
2221 1 6.372402037132001 11.037324094568238 1.4924392163444007 0 0 0
2227 3 9.558603055698 11.037324094568236 1.4924392163444007 0 0 0
2043 10 14.337904583547003 6.43843905516488 0.04214891127730786 0 0 0
2044 2 14.337904583547003 8.277993070926238 1.4924392163444007 0 0 0
2046 12 12.744804074264001 9.19777007880688 0.042148911277307445 0 0 0
2052 16 15.931005092830002 9.19777007880688 0.04214891127730718 0 0 0
2233 1 12.744804074264001 11.037324094568238 1.4924392163444007 0 0 0
2239 3 15.93100509283 11.037324094568236 1.4924392163444007 0 0 0
2049 14 17.524105602113 6.43843905516488 0.04214891127730738 0 0 0
2055 10 20.710306620679003 6.43843905516488 0.04214891127730744 0 0 0
2050 4 17.524105602113003 8.277993070926236 1.4924392163444007 0 0 0
2056 2 20.710306620679 8.277993070926236 1.4924392163444007 0 0 0
2058 12 19.117206111396 9.19777007880688 0.042148911277307674 0 0 0
2064 16 22.303407129962 9.19777007880688 0.04214891127730714 0 0 0
2245 1 19.117206111396 11.037324094568238 1.4924392163444007 0 0 0
2251 3 22.303407129962004 11.037324094568236 1.4924392163444007 0 0 0
2061 14 23.896507639245 6.43843905516488 0.04214891127730819 0 0 0
2067 10 27.082708657811 6.43843905516488 0.04214891127730744 0 0 0
2062 4 23.896507639245 8.277993070926238 1.4924392163444007 0 0 0
2068 2 27.082708657811004 8.277993070926236 1.4924392163444007 0 0 0
2070 12 25.489608148528003 9.19777007880688 0.04214891127730715 0 0 0
2257 1 25.489608148528 11.037324094568236 1.4924392163444007 0 0 0
2073 14 30.268909676377003 6.43843905516488 0.04214891127730744 0 0 0
2079 10 33.455110694943 6.43843905516488 0.042148911277308194 0 0 0
2074 4 30.268909676377 8.277993070926236 1.4924392163444007 0 0 0
2080 2 33.455110694943 8.277993070926238 1.4924392163444007 0 0 0
2076 16 28.675809167094002 9.19777007880688 0.04214891127730767 0 0 0
2082 12 31.86201018566 9.19777007880688 0.04214891127730712 0 0 0
2263 3 28.675809167094002 11.037324094568238 1.4924392163444007 0 0 0
2269 1 31.862010185660004 11.037324094568236 1.4924392163444007 0 0 0
2085 14 36.641311713509 6.43843905516488 0.04214891127730749 0 0 0
2086 4 36.641311713509005 8.277993070926236 1.4924392163444007 0 0 0
2088 16 35.04821120422601 9.19777007880688 0.04214891127730719 0 0 0
2094 12 38.234412222792 9.19777007880688 0.04214891127730767 0 0 0
2275 3 35.048211204226 11.037324094568236 1.4924392163444007 0 0 0
2281 1 38.234412222792 11.037324094568238 1.4924392163444007 0 0 0
2091 10 39.82751273207501 6.43843905516488 0.04214891127730749 0 0 0
2097 14 43.013713750641 6.43843905516488 0.042148911277308194 0 0 0
2092 2 39.827512732075 8.277993070926236 1.4924392163444007 0 0 0
2098 4 43.013713750641 8.277993070926238 1.4924392163444007 0 0 0
2100 16 41.420613241358 9.19777007880688 0.042148911277307154 0 0 0
2106 12 44.60681425992401 9.19777007880688 0.042148911277307154 0 0 0
2287 3 41.420613241358005 11.037324094568236 1.4924392163444007 0 0 0
2293 1 44.606814259924 11.037324094568236 1.4924392163444007 0 0 0
2103 10 46.199914769207 6.43843905516488 0.04214891127730749 0 0 0
2109 14 49.38611578777301 6.4384390551648805 0.04214891127730716 0 0 0
2104 2 46.199914769207005 8.277993070926236 1.4924392163444007 0 0 0
2110 4 49.386115787773 8.277993070926236 1.4924392163444007 0 0 0
2112 16 47.79301527849 9.19777007880688 0.04214891127730768 0 0 0
2299 3 47.79301527849 11.037324094568238 1.4924392163444007 0 0 0
1923 10 52.572316806338996 6.438439055164879 0.04214891127730823 -1 0 0
1929 14 55.758517824905 6.4384390551648805 0.04214891127730698 -1 0 0
1924 2 52.572316806338996 8.277993070926238 1.4924392163444007 -1 0 0
1930 4 55.758517824905 8.277993070926236 1.4924392163444007 -1 0 0
1926 12 50.979216297056 9.19777007880688 0.0421489112773063 -1 0 0
1932 16 54.165417315622 9.19777007880688 0.04214891127730775 -1 0 0
2113 1 50.979216297056 11.037324094568236 1.4924392163444007 -1 0 0
2119 3 54.165417315622 11.037324094568238 1.4924392163444007 -1 0 0
1935 10 58.944718843471 6.43843905516488 0.042148911277308014 -1 0 0
1941 14 62.130919862037 6.4384390551648805 0.04214891127730719 -1 0 0
1936 2 58.944718843471 8.277993070926238 1.4924392163444007 -1 0 0
1942 4 62.130919862037 8.277993070926236 1.4924392163444007 -1 0 0
1938 12 57.351618334188 9.19777007880688 0.04214891127730774 -1 0 0
1944 16 60.537819352754 9.19777007880688 0.042148911277306716 -1 0 0
2125 1 57.351618334188 11.037324094568238 1.4924392163444007 -1 0 0
2131 3 60.537819352754 11.037324094568236 1.4924392163444007 -1 0 0
1947 10 65.317120880603 6.43843905516488 0.04214891127730912 -1 0 0
1948 2 65.317120880603 8.27799307092624 1.492439216344401 -1 0 0
1950 12 63.724020371319995 9.19777007880688 0.042148911277307494 -1 0 0
1956 16 66.910221389886 9.19777007880688 0.04214891127730663 -1 0 0
2137 1 63.724020371319995 11.037324094568238 1.4924392163444007 -1 0 0
2143 3 66.910221389886 11.037324094568236 1.4924392163444007 -1 0 0
1953 14 68.503321899169 6.43843905516488 0.042148911277307355 -1 0 0
1959 10 71.68952291773499 6.4384390551648805 0.042148911277306945 -1 0 0
1954 4 68.503321899169 8.277993070926236 1.4924392163444007 -1 0 0
1960 2 71.68952291773499 8.277993070926236 1.4924392163444007 -1 0 0
1962 12 70.096422408452 9.19777007880688 0.042148911277307036 -1 0 0
1968 16 73.282623427018 9.197770078806878 0.042148911277308354 -1 0 0
2149 1 70.096422408452 11.037324094568236 1.4924392163444007 -1 0 0
2155 3 73.282623427018 11.037324094568238 1.4924392163444007 -1 0 0
1965 14 74.875723936301 6.43843905516488 0.04214891127730897 -1 0 0
1971 10 78.061924954867 6.43843905516488 0.042148911277307355 -1 0 0
1966 4 74.875723936301 8.277993070926238 1.4924392163444007 -1 0 0
1972 2 78.061924954867 8.277993070926236 1.4924392163444007 -1 0 0
1974 12 76.468824445584 9.19777007880688 0.042148911277306626 -1 0 0
2161 1 76.468824445584 11.037324094568236 1.4924392163444007 -1 0 0
1977 14 81.24812597343299 6.4384390551648805 0.042148911277306945 -1 0 0
1983 10 84.434326991999 6.43843905516488 0.04214891127730897 -1 0 0
1978 4 81.24812597343299 8.277993070926236 1.4924392163444007 -1 0 0
1984 2 84.434326991999 8.277993070926238 1.4924392163444007 -1 0 0
1980 16 79.65502546415 9.19777007880688 0.042148911277307036 -1 0 0
1986 12 82.841226482716 9.197770078806878 0.042148911277308354 -1 0 0
2167 3 79.65502546415 11.037324094568236 1.4924392163444007 -1 0 0
2173 1 82.841226482716 11.037324094568238 1.4924392163444007 -1 0 0
1989 14 87.620528010565 6.43843905516488 0.042148911277307355 -1 0 0
1990 4 87.620528010565 8.277993070926236 1.4924392163444007 -1 0 0
1992 16 86.027427501282 9.19777007880688 0.042148911277306626 -1 0 0
1998 12 89.213628519848 9.19777007880688 0.042148911277307036 -1 0 0
2179 3 86.027427501282 11.037324094568236 1.4924392163444007 -1 0 0
2185 1 89.213628519848 11.037324094568236 1.4924392163444007 -1 0 0
1995 10 90.80672902913099 6.4384390551648805 0.042148911277306945 -1 0 0
2001 14 93.992930047697 6.43843905516488 0.04214891127730897 -1 0 0
1996 2 90.80672902913099 8.277993070926236 1.4924392163444007 -1 0 0
2002 4 93.992930047697 8.277993070926238 1.4924392163444007 -1 0 0
2004 16 92.399829538414 9.197770078806878 0.042148911277308354 -1 0 0
2010 12 95.58603055698 9.19777007880688 0.042148911277306626 -1 0 0
2191 3 92.399829538414 11.037324094568238 1.4924392163444007 -1 0 0
2197 1 95.58603055698 11.037324094568236 1.4924392163444007 -1 0 0
2007 10 97.179131066263 6.43843905516488 0.042148911277307355 -1 0 0
2013 14 100.36533208482899 6.4384390551648805 0.042148911277306966 -1 0 0
2008 2 97.179131066263 8.277993070926236 1.4924392163444007 -1 0 0
2014 4 100.36533208482899 8.277993070926236 1.4924392163444007 -1 0 0
2016 16 98.772231575546 9.19777007880688 0.042148911277307036 -1 0 0
2203 3 98.772231575546 11.037324094568236 1.4924392163444007 -1 0 0
2211 10 1.5931005092830026 11.957101102448881 0.042148911277307535 0 0 0
2217 14 4.779301527849 11.957101102448881 0.042148911277307105 0 0 0
2214 12 0 14.71643212609088 0.0421489112773083 0 0 0
2212 2 1.5931005092830017 13.796655118210237 1.4924392163444007 0 0 0
2220 16 3.186201018566002 14.716432126090881 0.04214891127730701 0 0 0
2218 4 4.779301527849 13.796655118210237 1.4924392163444007 0 0 0
2401 1 0 16.55598614185224 1.4924392163444007 0 0 0
2407 3 3.1862010185660026 16.555986141852237 1.4924392163444007 0 0 0
2403 10 1.5931005092830026 17.47576314973288 0.04214891127730802 0 0 0
2409 14 4.779301527849 17.475763149732884 0.04214891127730751 0 0 0
2223 10 7.965502546415001 11.957101102448881 0.04214891127730747 0 0 0
2229 14 11.151703564981 11.957101102448881 0.04214891127730757 0 0 0
2226 12 6.372402037132 14.716432126090881 0.042148911277307535 0 0 0
2224 2 7.965502546415 13.796655118210237 1.4924392163444007 0 0 0
2232 16 9.558603055698 14.716432126090881 0.04214891127730729 0 0 0
2230 4 11.151703564981002 13.796655118210237 1.4924392163444007 0 0 0
2413 1 6.372402037132 16.555986141852237 1.4924392163444007 0 0 0
2419 3 9.558603055698 16.555986141852237 1.4924392163444007 0 0 0
2415 10 7.965502546415001 17.47576314973288 0.042148911277307965 0 0 0
2421 14 11.151703564981 17.47576314973288 0.042148911277307806 0 0 0
2235 10 14.337904583547003 11.957101102448881 0.04214891127730753 0 0 0
2238 12 12.744804074264001 14.716432126090881 0.04214891127730753 0 0 0
2236 2 14.337904583547003 13.796655118210237 1.4924392163444007 0 0 0
2244 16 15.931005092830002 14.716432126090881 0.042148911277307265 0 0 0
2425 1 12.744804074264001 16.555986141852237 1.4924392163444007 0 0 0
2431 3 15.931005092830002 16.555986141852237 1.4924392163444007 0 0 0
2427 10 14.337904583547003 17.47576314973288 0.04214891127730807 0 0 0
2241 14 17.524105602113 11.957101102448881 0.04214891127730734 0 0 0
2247 10 20.710306620679003 11.957101102448881 0.042148911277307445 0 0 0
2242 4 17.524105602113003 13.796655118210237 1.4924392163444007 0 0 0
2250 12 19.117206111396 14.71643212609088 0.04214891127730781 0 0 0
2248 2 20.710306620679 13.796655118210237 1.4924392163444007 0 0 0
2256 16 22.303407129962 14.716432126090881 0.04214891127730711 0 0 0
2437 1 19.117206111396 16.55598614185224 1.4924392163444007 0 0 0
2443 3 22.303407129962004 16.555986141852237 1.4924392163444007 0 0 0
2433 14 17.524105602113 17.475763149732884 0.042148911277307397 0 0 0
2439 10 20.710306620679003 17.475763149732884 0.04214891127730753 0 0 0
2253 14 23.896507639245 11.957101102448881 0.04214891127730786 0 0 0
2259 10 27.082708657811 11.957101102448881 0.042148911277307445 0 0 0
2254 4 23.896507639245 13.79665511821024 1.492439216344401 0 0 0
2262 12 25.489608148528003 14.716432126090881 0.04214891127730711 0 0 0
2260 2 27.082708657811004 13.796655118210237 1.4924392163444007 0 0 0
2449 1 25.489608148528 16.555986141852237 1.4924392163444007 0 0 0
2445 14 23.896507639245 17.47576314973288 0.04214891127730841 0 0 0
2451 10 27.082708657811 17.475763149732884 0.04214891127730753 0 0 0
2265 14 30.268909676377003 11.957101102448881 0.042148911277307445 0 0 0
2271 10 33.455110694943 11.957101102448881 0.04214891127730786 0 0 0
2268 16 28.675809167094002 14.71643212609088 0.04214891127730781 0 0 0
2266 4 30.268909676377 13.796655118210237 1.4924392163444007 0 0 0
2274 12 31.86201018566 14.716432126090881 0.042148911277307084 0 0 0
2272 2 33.455110694943 13.79665511821024 1.492439216344401 0 0 0
2455 3 28.675809167094002 16.55598614185224 1.4924392163444007 0 0 0
2461 1 31.862010185660004 16.555986141852237 1.4924392163444007 0 0 0
2457 14 30.268909676377003 17.475763149732884 0.04214891127730753 0 0 0
2463 10 33.455110694943 17.47576314973288 0.04214891127730841 0 0 0
2277 14 36.641311713509 11.957101102448881 0.042148911277307376 0 0 0
2280 16 35.04821120422601 14.716432126090881 0.04214891127730719 0 0 0
2278 4 36.641311713509005 13.796655118210237 1.4924392163444007 0 0 0
2286 12 38.234412222792 14.71643212609088 0.042148911277307806 0 0 0
2467 3 35.048211204226 16.555986141852237 1.4924392163444007 0 0 0
2473 1 38.234412222792 16.55598614185224 1.4924392163444007 0 0 0
2469 14 36.641311713509 17.475763149732884 0.04214891127730758 0 0 0
2283 10 39.82751273207501 11.957101102448881 0.042148911277307376 0 0 0
2289 14 43.013713750641 11.957101102448881 0.04214891127730786 0 0 0
2284 2 39.827512732075 13.796655118210237 1.4924392163444007 0 0 0
2292 16 41.420613241358 14.716432126090881 0.04214891127730716 0 0 0
2290 4 43.013713750641 13.79665511821024 1.4924392163444007 0 0 0
2298 12 44.60681425992401 14.716432126090881 0.04214891127730716 0 0 0
2479 3 41.420613241358005 16.555986141852237 1.4924392163444007 0 0 0
2485 1 44.606814259924 16.555986141852237 1.4924392163444007 0 0 0
2475 10 39.82751273207501 17.475763149732884 0.04214891127730758 0 0 0
2481 14 43.013713750641 17.47576314973288 0.04214891127730841 0 0 0
2295 10 46.199914769207 11.957101102448881 0.042148911277307376 0 0 0
2301 14 49.38611578777301 11.957101102448881 0.0421489112773069 0 0 0
2296 2 46.199914769207005 13.796655118210237 1.4924392163444007 0 0 0
2304 16 47.79301527849 14.71643212609088 0.042148911277307834 0 0 0
2302 4 49.386115787773 13.796655118210237 1.4924392163444007 0 0 0
2491 3 47.79301527849 16.55598614185224 1.4924392163444007 0 0 0
2487 10 46.199914769207 17.475763149732884 0.04214891127730758 0 0 0
2493 14 49.38611578777301 17.475763149732884 0.04214891127730736 0 0 0
2115 10 52.572316806338996 11.957101102448881 0.04214891127730813 -1 0 0
2121 14 55.758517824905 11.957101102448881 0.04214891127730684 -1 0 0
2118 12 50.979216297056 14.716432126090881 0.04214891127730625 -1 0 0
2116 2 52.572316806338996 13.79665511821024 1.4924392163444007 -1 0 0
2124 16 54.165417315622 14.716432126090881 0.0421489112773075 -1 0 0
2122 4 55.758517824905 13.796655118210237 1.4924392163444007 -1 0 0
2305 1 50.979216297056 16.555986141852237 1.492439216344401 -1 0 0
2311 3 54.165417315622 16.555986141852237 1.492439216344401 -1 0 0
2307 10 52.572316806338996 17.47576314973288 0.04214891127730843 -1 0 0
2313 14 55.758517824905 17.475763149732884 0.04214891127730722 -1 0 0
2127 10 58.944718843471 11.957101102448881 0.04214891127730768 -1 0 0
2133 14 62.130919862037 11.957101102448881 0.042148911277306925 -1 0 0
2130 12 57.351618334188 14.716432126090881 0.042148911277307674 -1 0 0
2128 2 58.944718843471 13.796655118210237 1.4924392163444007 -1 0 0
2136 16 60.537819352754 14.716432126090881 0.0421489112773068 -1 0 0
2134 4 62.130919862037 13.796655118210237 1.4924392163444007 -1 0 0
2317 1 57.351618334188 16.555986141852237 1.4924392163444007 -1 0 0
2323 3 60.537819352754 16.555986141852237 1.4924392163444007 -1 0 0
2319 10 58.944718843471 17.47576314973288 0.04214891127730824 -1 0 0
2325 14 62.130919862037 17.475763149732884 0.04214891127730733 -1 0 0
2139 10 65.317120880603 11.95710110244888 0.042148911277308736 -1 0 0
2142 12 63.724020371319995 14.716432126090881 0.04214891127730749 -1 0 0
2140 2 65.317120880603 13.79665511821024 1.4924392163444007 -1 0 0
2148 16 66.910221389886 14.716432126090881 0.04214891127730665 -1 0 0
2329 1 63.724020371319995 16.555986141852237 1.4924392163444007 -1 0 0
2335 3 66.910221389886 16.555986141852237 1.4924392163444007 -1 0 0
2331 10 65.317120880603 17.47576314973288 0.04214891127730924 -1 0 0
2145 14 68.503321899169 11.957101102448881 0.04214891127730713 -1 0 0
2151 10 71.68952291773499 11.957101102448881 0.04214891127730683 -1 0 0
2146 4 68.503321899169 13.796655118210237 1.492439216344401 -1 0 0
2154 12 70.096422408452 14.716432126090881 0.042148911277306855 -1 0 0
2152 2 71.68952291773499 13.796655118210237 1.4924392163444007 -1 0 0
2160 16 73.282623427018 14.71643212609088 0.042148911277308285 -1 0 0
2341 1 70.096422408452 16.555986141852237 1.4924392163444007 -1 0 0
2347 3 73.282623427018 16.55598614185224 1.4924392163444007 -1 0 0
2337 14 68.503321899169 17.475763149732884 0.042148911277307445 -1 0 0
2343 10 71.68952291773499 17.475763149732884 0.042148911277307195 -1 0 0
2157 14 74.875723936301 11.95710110244888 0.04214891127730862 -1 0 0
2163 10 78.061924954867 11.957101102448881 0.04214891127730713 -1 0 0
2158 4 74.875723936301 13.79665511821024 1.4924392163444007 -1 0 0
2166 12 76.468824445584 14.716432126090881 0.04214891127730665 -1 0 0
2164 2 78.061924954867 13.796655118210237 1.492439216344401 -1 0 0
2353 1 76.468824445584 16.555986141852237 1.4924392163444007 -1 0 0
2349 14 74.875723936301 17.47576314973288 0.04214891127730926 -1 0 0
2355 10 78.061924954867 17.475763149732884 0.04214891127730745 -1 0 0
2169 14 81.24812597343299 11.957101102448881 0.04214891127730683 -1 0 0
2175 10 84.434326991999 11.95710110244888 0.04214891127730862 -1 0 0
2172 16 79.65502546415 14.716432126090881 0.042148911277306855 -1 0 0
2170 4 81.24812597343299 13.796655118210237 1.4924392163444007 -1 0 0
2178 12 82.841226482716 14.71643212609088 0.04214891127730829 -1 0 0
2176 2 84.434326991999 13.79665511821024 1.4924392163444007 -1 0 0
2359 3 79.65502546415 16.555986141852237 1.4924392163444007 -1 0 0
2365 1 82.841226482716 16.55598614185224 1.4924392163444007 -1 0 0
2361 14 81.24812597343299 17.475763149732884 0.042148911277307195 -1 0 0
2367 10 84.434326991999 17.47576314973288 0.04214891127730923 -1 0 0
2181 14 87.620528010565 11.957101102448881 0.04214891127730713 -1 0 0
2184 16 86.027427501282 14.716432126090881 0.04214891127730665 -1 0 0
2182 4 87.620528010565 13.796655118210237 1.492439216344401 -1 0 0
2190 12 89.213628519848 14.716432126090881 0.042148911277306855 -1 0 0
2371 3 86.027427501282 16.555986141852237 1.4924392163444007 -1 0 0
2377 1 89.213628519848 16.555986141852237 1.4924392163444007 -1 0 0
2373 14 87.620528010565 17.475763149732884 0.04214891127730745 -1 0 0