LAMMPS data file via write_data, version 29 Aug 2024, timestep = 5, units = metal

4860 atoms
6 atom types

0 101.305119936321 xlo xhi
0 97.48089710919 ylo yhi
-50 50 zlo zhi

Masses

1 118.71
2 118.71
3 118.71
4 32.06
5 32.06
6 32.06

Atoms # atomic

814 4 3.5902616794546556 0.9099569378949641 0.16343164162987983 0 0 0
923 1 3.5880045629999056 3.0742500241227875 1.6239329602082826 0 0 0
921 4 1.7142409399008907 4.159320174868031 0.163431641629853 0 0 0
925 4 5.466282419023877 4.1593201748680055 0.16343164162988194 0 0 0
818 4 7.342303158577677 0.909956937894964 0.16343164162987375 0 0 0
822 4 11.094344637700681 0.9099569378949727 0.16343164162987495 0 0 0
927 1 7.34004604212293 3.0742500241227826 1.6239329602082855 0 0 0
931 1 11.09208752124593 3.0742500241227844 1.623932960208288 0 0 0
929 4 9.218323898146885 4.159320174868019 0.16343164162988333 0 0 0
826 4 14.846386116823673 0.9099569378949716 0.163431641629877 0 0 0
935 1 14.844129000368977 3.07425002412278 1.6239329602082924 0 0 0
933 4 12.970365377269903 4.159320174868001 0.1634316416299032 0 0 0
937 4 16.722406856392876 4.159320174868036 0.16343164162985727 0 0 0
830 4 18.598427595946724 0.909956937894958 0.16343164162988302 0 0 0
834 4 22.350469075069686 0.9099569378949756 0.16343164162985382 0 0 0
939 1 18.59617047949191 3.074250024122795 1.6239329602082655 0 0 0
943 1 22.348211958614954 3.074250024122761 1.6239329602083012 0 0 0
941 4 20.474448335515923 4.159320174867996 0.1634316416298969 0 0 0
838 4 26.102510554192676 0.9099569378949626 0.1634316416298823 0 0 0
947 1 26.100253437737855 3.0742500241227946 1.6239329602082735 0 0 0
945 4 24.226489814638835 4.159320174868032 0.16343164162985133 0 0 0
949 4 27.978531293761865 4.159320174867999 0.1634316416298905 0 0 0
842 4 29.854552033315755 0.9099569378949545 0.16343164162988244 0 0 0
846 4 33.60659351243869 0.9099569378949891 0.16343164162984955 0 0 0
951 1 29.852294916860945 3.07425002412279 1.623932960208268 0 0 0
955 1 33.604336395983964 3.0742500241227666 1.623932960208307 0 0 0
953 4 31.730572772884955 4.1593201748680055 0.16343164162989393 0 0 0
957 4 35.482614252007856 4.15932017486803 0.16343164162986162 0 0 0
850 4 37.35863499156171 0.9099569378949461 0.16343164162989998 0 0 0
854 4 41.11067647068467 0.9099569378949905 0.16343164162984783 0 0 0
959 1 37.35637787510693 3.074250024122805 1.6239329602082562 0 0 0
963 1 41.10841935422995 3.0742500241227635 1.6239329602083103 0 0 0
961 4 39.23465573113096 4.159320174868002 0.1634316416299 0 0 0
858 4 44.8627179498077 0.9099569378949433 0.16343164162990204 0 0 0
967 1 44.86046083335294 3.0742500241228066 1.623932960208253 0 0 0
965 4 42.98669721025385 4.159320174868025 0.16343164162986734 0 0 0
969 4 46.73873868937698 4.159320174867999 0.16343164162989565 0 0 0
862 4 48.61475942893071 0.9099569378949841 0.16343164162984955 0 0 0
758 4 52.36680090805364 0.909956937894957 0.16343164162987497 -1 0 0
971 1 48.61250231247599 3.0742500241227635 1.6239329602083061 0 0 0
867 1 52.36454379159889 3.074250024122789 1.6239329602082753 -1 0 0
865 4 50.49078016849988 4.159320174868025 0.163431641629862 -1 0 0
762 4 56.11884238717664 0.9099569378949689 0.16343164162986157 -1 0 0
871 1 56.1165852707219 3.0742500241227715 1.6239329602082808 -1 0 0
869 4 54.24282164762288 4.159320174868007 0.16343164162987317 -1 0 0
873 4 57.994863126745884 4.159320174868008 0.16343164162988497 -1 0 0
766 4 59.870883866299735 0.909956937894955 0.16343164162988774 -1 0 0
770 4 63.622925345422715 0.9099569378949833 0.1634316416298569 -1 0 0
875 1 59.86862674984495 3.0742500241227866 1.6239329602082615 -1 0 0
879 1 63.62066822896792 3.0742500241227706 1.6239329602082955 -1 0 0
877 4 61.7469046058689 4.159320174868013 0.16343164162987342 -1 0 0
881 4 65.49894608499184 4.159320174868015 0.16343164162988388 -1 0 0
774 4 67.37496682454575 0.9099569378949641 0.16343164162987833 -1 0 0
778 4 71.12700830366865 0.9099569378949742 0.16343164162985574 -1 0 0
883 1 67.37270970809092 3.0742500241228 1.6239329602082595 -1 0 0
887 1 71.12475118721399 3.074250024122761 1.6239329602082995 -1 0 0
885 4 69.25098756411495 4.159320174867997 0.16343164162990098 -1 0 0
782 4 74.87904978279172 0.9099569378949574 0.16343164162989904 -1 0 0
891 1 74.87679266633685 3.074250024122797 1.6239329602082684 -1 0 0
889 4 73.00302904323782 4.1593201748680375 0.16343164162984702 -1 0 0
893 4 76.75507052236088 4.159320174867997 0.16343164162990503 -1 0 0
786 4 78.6310912619148 0.9099569378949625 0.1634316416298747 -1 0 0
790 4 82.38313274103768 0.9099569378949837 0.16343164162985088 -1 0 0
895 1 78.62883414545996 3.0742500241227986 1.623932960208268 -1 0 0
899 1 82.38087562458306 3.0742500241227706 1.623932960208294 -1 0 0
897 4 80.507112001484 4.159320174868001 0.16343164162990378 -1 0 0
794 4 86.1351742201606 0.9099569378949662 0.16343164162988222 -1 0 0
903 1 86.13291710370594 3.074250024122769 1.6239329602082888 -1 0 0
901 4 84.25915348060693 4.1593201748680295 0.16343164162987042 -1 0 0
905 4 88.01119495972979 4.159320174868028 0.16343164162986512 -1 0 0
798 4 89.8872156992837 0.9099569378949564 0.16343164162989327 -1 0 0
802 4 93.63925717840677 0.9099569378949551 0.16343164162988408 -1 0 0
907 1 89.88495858282882 3.07425002412279 1.6239329602082615 -1 0 0
911 1 93.6370000619519 3.0742500241227857 1.6239329602082766 -1 0 0
909 4 91.76323643885283 4.159320174868005 0.16343164162988702 -1 0 0
810 4 101.14334013665267 0.9099569378949794 0.16343164162985316 -1 0 0
806 4 97.3912986575298 0.909956937894973 0.16343164162986568 -1 0 0
915 1 97.38904154107497 3.074250024122797 1.6239329602082782 -1 0 0
919 1 101.14108302019805 3.0742500241227693 1.6239329602083157 -1 0 0
913 4 95.5152779179759 4.159320174868008 0.16343164162988813 -1 0 0
917 4 99.26731939709899 4.159320174867999 0.16343164162989735 -1 0 0
924 1 1.7119838234306801 6.323613261095826 1.6239329602082757 0 0 0
922 4 3.590261679454658 7.408683411840961 0.16343164162987114 0 0 0
928 1 5.464025302553709 6.323613261095819 1.6239329602082726 0 0 0
1029 4 1.7142409399008836 10.658046648814018 0.16343164162985763 0 0 0
1031 1 3.5880045629999073 9.572976498068789 1.6239329602082848 0 0 0
1033 4 5.466282419023878 10.658046648813999 0.163431641629881 0 0 0
926 4 7.3423031585776775 7.40868341184096 0.16343164162986829 0 0 0
932 1 9.216066781676718 6.32361326109582 1.623932960208275 0 0 0
930 4 11.094344637700685 7.408683411840964 0.16343164162986804 0 0 0
1035 1 7.340046042122931 9.572976498068783 1.6239329602082841 0 0 0
1037 4 9.218323898146885 10.658046648814013 0.16343164162988225 0 0 0
1039 1 11.092087521245931 9.572976498068769 1.6239329602082884 0 0 0
936 1 12.96810826079971 6.323613261095828 1.6239329602082797 0 0 0
934 4 14.846386116823675 7.408683411840965 0.1634316416298681 0 0 0
940 1 16.720149739922736 6.323613261095833 1.6239329602082655 0 0 0
1041 4 12.970365377269905 10.658046648814002 0.16343164162990376 0 0 0
1043 1 14.844129000368977 9.572976498068767 1.6239329602082926 0 0 0
1045 4 16.72240685639288 10.658046648814018 0.1634316416298561 0 0 0
938 4 18.598427595946724 7.408683411840953 0.163431641629876 0 0 0
944 1 20.472191219045754 6.3236132610958125 1.6239329602082893 0 0 0
942 4 22.350469075069686 7.408683411840973 0.16343164162984342 0 0 0
1047 1 18.596170479491914 9.57297649806879 1.6239329602082697 0 0 0
1049 4 20.474448335515927 10.658046648813997 0.1634316416298935 0 0 0
1051 1 22.348211958614954 9.572976498068757 1.6239329602083041 0 0 0
948 1 24.224232698168695 6.323613261095826 1.6239329602082662 0 0 0
946 4 26.102510554192676 7.408683411840958 0.16343164162987386 0 0 0
952 1 27.976274177291746 6.323613261095826 1.6239329602082606 0 0 0
1053 4 24.226489814638835 10.658046648814018 0.16343164162985255 0 0 0
1055 1 26.10025343773786 9.572976498068787 1.623932960208276 0 0 0
1057 4 27.978531293761865 10.658046648814004 0.16343164162988935 0 0 0
950 4 29.854552033315755 7.408683411840949 0.16343164162987248 0 0 0
956 1 31.72831565641478 6.323613261095814 1.62393296020829 0 0 0
954 4 33.606593512438685 7.408683411840986 0.16343164162984242 0 0 0
960 1 35.48035713553767 6.323613261095831 1.6239329602082622 0 0 0
1059 1 29.85229491686094 9.572976498068787 1.6239329602082677 0 0 0
1061 4 31.730572772884955 10.65804664881401 0.16343164162988877 0 0 0
1063 1 33.60433639598397 9.57297649806876 1.6239329602083064 0 0 0
1065 4 35.482614252007856 10.658046648814016 0.16343164162986698 0 0 0
958 4 37.35863499156171 7.408683411840939 0.16343164162989357 0 0 0
964 1 39.232398614660774 6.3236132610958125 1.6239329602082855 0 0 0
962 4 41.11067647068468 7.408683411840987 0.16343164162984397 0 0 0
1067 1 37.356377875106936 9.572976498068797 1.6239329602082575 0 0 0
1069 4 39.234655731130964 10.658046648814002 0.16343164162989587 0 0 0
1071 1 41.10841935422995 9.572976498068755 1.6239329602083088 0 0 0
968 1 42.98444009378367 6.323613261095834 1.6239329602082568 0 0 0
966 4 44.86271794980771 7.408683411840939 0.1634316416298945 0 0 0
972 1 46.7364815729068 6.323613261095819 1.6239329602082833 0 0 0
1073 4 42.986697210253844 10.658046648814011 0.1634316416298666 0 0 0
1075 1 44.86046083335294 9.572976498068801 1.6239329602082555 0 0 0
1077 4 46.73873868937698 10.658046648813999 0.16343164162989673 0 0 0
970 4 48.61475942893072 7.408683411840977 0.16343164162984355 0 0 0
868 1 50.4885230520297 6.323613261095815 1.6239329602082744 -1 0 0
866 4 52.36680090805364 7.408683411840957 0.16343164162986862 -1 0 0
1079 1 48.61250231247599 9.572976498068757 1.6239329602083077 0 0 0
973 4 50.49078016849988 10.658046648814015 0.16343164162985738 -1 0 0
975 1 52.3645437915989 9.572976498068785 1.6239329602082762 -1 0 0
872 1 54.24056453115271 6.323613261095824 1.6239329602082662 -1 0 0
870 4 56.11884238717665 7.408683411840966 0.16343164162985635 -1 0 0
876 1 57.99260601027571 6.323613261095828 1.6239329602082453 -1 0 0
977 4 54.24282164762288 10.658046648813999 0.16343164162987536 -1 0 0
979 1 56.1165852707219 9.572976498068774 1.6239329602082806 -1 0 0
981 4 57.99486312674589 10.658046648813999 0.16343164162988152 -1 0 0
874 4 59.870883866299735 7.408683411840944 0.16343164162988255 -1 0 0
880 1 61.7446474893988 6.323613261095808 1.6239329602082673 -1 0 0
878 4 63.622925345422715 7.4086834118409755 0.16343164162985135 -1 0 0
983 1 59.86862674984496 9.572976498068778 1.6239329602082655 -1 0 0
985 4 61.7469046058689 10.658046648814006 0.16343164162987184 -1 0 0
987 1 63.62066822896792 9.572976498068757 1.6239329602082986 -1 0 0
884 1 65.49668896852175 6.323613261095825 1.6239329602082637 -1 0 0
989 4 65.49894608499184 10.658046648814013 0.16343164162988413 -1 0 0
882 4 67.37496682454575 7.408683411840958 0.16343164162987403 -1 0 0
888 1 69.24873044764469 6.323613261095806 1.6239329602082886 -1 0 0
886 4 71.12700830366865 7.408683411840969 0.16343164162985271 -1 0 0
991 1 67.37270970809092 9.572976498068794 1.6239329602082553 -1 0 0
993 4 69.25098756411495 10.658046648813995 0.16343164162990026 -1 0 0
995 1 71.12475118721399 9.572976498068751 1.6239329602083028 -1 0 0
892 1 73.0007719267677 6.323613261095834 1.6239329602082533 -1 0 0
890 4 74.87904978279172 7.40868341184095 0.1634316416298915 -1 0 0
896 1 76.7528134058908 6.3236132610958204 1.6239329602082653 -1 0 0
997 4 73.00302904323782 10.658046648814022 0.16343164162984983 -1 0 0
999 1 74.87679266633685 9.572976498068794 1.623932960208269 -1 0 0
1001 4 76.75507052236088 10.658046648814004 0.1634316416299021 -1 0 0
894 4 78.6310912619148 7.408683411840961 0.1634316416298678 -1 0 0
900 1 80.50485488501374 6.323613261095819 1.6239329602082853 -1 0 0
898 4 82.38313274103768 7.408683411840986 0.16343164162984322 -1 0 0
1003 1 78.62883414545996 9.572976498068792 1.6239329602082697 -1 0 0
1005 4 80.507112001484 10.658046648814002 0.1634316416299061 -1 0 0
1007 1 82.38087562458307 9.572976498068767 1.6239329602082964 -1 0 0
904 1 84.25689636413662 6.323613261095819 1.6239329602082802 -1 0 0
902 4 86.1351742201606 7.408683411840964 0.1634316416298719 -1 0 0
908 1 88.00893784325967 6.323613261095831 1.6239329602082466 -1 0 0
1009 4 84.25915348060693 10.658046648814015 0.16343164162986626 -1 0 0
1011 1 86.13291710370595 9.572976498068758 1.6239329602082935 -1 0 0
1013 4 88.01119495972978 10.658046648814013 0.16343164162986004 -1 0 0
906 4 89.8872156992837 7.4086834118409515 0.16343164162988452 -1 0 0
912 1 91.76097932238277 6.323613261095817 1.6239329602082666 -1 0 0
910 4 93.63925717840677 7.408683411840951 0.16343164162987664 -1 0 0
1015 1 89.88495858282883 9.572976498068785 1.6239329602082617 -1 0 0
1017 4 91.76323643885283 10.658046648814008 0.16343164162988738 -1 0 0
1019 1 93.6370000619519 9.572976498068783 1.6239329602082786 -1 0 0
918 4 101.14334013665268 7.408683411840971 0.16343164162985171 -1 0 0
916 1 95.51302080150583 6.323613261095828 1.6239329602082695 -1 0 0
914 4 97.3912986575298 7.408683411840972 0.1634316416298585 -1 0 0
920 1 99.26506228062874 6.3236132610958125 1.623932960208309 -1 0 0
1021 4 95.51527791797588 10.658046648814015 0.16343164162988438 -1 0 0
1023 1 97.38904154107497 9.572976498068796 1.6239329602082808 -1 0 0
1025 4 99.26731939709899 10.658046648814 0.16343164162989585 -1 0 0
1027 1 101.14108302019805 9.572976498068764 1.6239329602083126 -1 0 0
1032 1 1.7119838234306783 12.822339735041822 1.6239329602082764 0 0 0
1036 1 5.4640253025537096 12.822339735041815 1.6239329602082773 0 0 0
1030 4 3.5902616794546587 13.907409885786942 0.16343164162987053 0 0 0
1139 1 3.5880045629999064 16.071702972014762 1.6239329602082828 0 0 0
1137 4 1.714240939900894 17.156773122760004 0.163431641629841 0 0 0
1141 4 5.46628241902388 17.156773122759983 0.16343164162987384 0 0 0
1040 1 9.216066781676718 12.822339735041819 1.6239329602082764 0 0 0
1034 4 7.342303158577679 13.90740988578694 0.16343164162986606 0 0 0
1038 4 11.094344637700681 13.907409885786949 0.163431641629869 0 0 0
1143 1 7.340046042122932 16.071702972014755 1.623932960208284 0 0 0
1147 1 11.092087521245926 16.07170297201476 1.6239329602082893 0 0 0
1145 4 9.218323898146885 17.156773122759997 0.16343164162987567 0 0 0
1044 1 12.968108260799708 12.82233973504182 1.6239329602082835 0 0 0
1048 1 16.720149739922736 12.822339735041822 1.6239329602082644 0 0 0
1042 4 14.846386116823675 13.90740988578695 0.1634316416298698 0 0 0
1151 1 14.844129000368982 16.07170297201476 1.6239329602082935 0 0 0
1149 4 12.970365377269902 17.156773122759954 0.1634316416298941 0 0 0
1153 4 16.72240685639288 17.15677312276001 0.163431641629845 0 0 0
1052 1 20.472191219045758 12.822339735041803 1.6239329602082913 0 0 0
1046 4 18.598427595946728 13.907409885786947 0.16343164162987514 0 0 0
1050 4 22.350469075069686 13.90740988578696 0.16343164162984075 0 0 0
1155 1 18.59617047949191 16.07170297201477 1.623932960208269 0 0 0
1159 1 22.348211958614957 16.07170297201472 1.6239329602083037 0 0 0
1157 4 20.47444833551593 17.156773122759958 0.16343164162988782 0 0 0
1056 1 24.2242326981687 12.822339735041817 1.623932960208263 0 0 0
1060 1 27.976274177291746 12.822339735041824 1.623932960208261 0 0 0
1054 4 26.102510554192676 13.907409885786953 0.16343164162987583 0 0 0
1163 1 26.10025343773786 16.071702972014766 1.6239329602082733 0 0 0
1161 4 24.226489814638835 17.156773122760008 0.16343164162984425 0 0 0
1165 4 27.97853129376186 17.156773122759954 0.16343164162988094 0 0 0
1064 1 31.72831565641478 12.822339735041803 1.6239329602082933 0 0 0
1068 1 35.48035713553768 12.822339735041824 1.623932960208257 0 0 0
1058 4 29.854552033315755 13.907409885786945 0.163431641629874 0 0 0
1062 4 33.60659351243869 13.907409885786974 0.16343164162983984 0 0 0
1167 1 29.85229491686094 16.071702972014766 1.623932960208268 0 0 0
1171 1 33.60433639598397 16.071702972014727 1.623932960208306 0 0 0
1169 4 31.730572772884955 17.156773122759965 0.16343164162989013 0 0 0
1173 4 35.48261425200786 17.156773122760008 0.16343164162985777 0 0 0
1072 1 39.232398614660774 12.822339735041803 1.62393296020829 0 0 0
1066 4 37.35863499156171 13.907409885786935 0.16343164162989457 0 0 0
1070 4 41.11067647068467 13.907409885786974 0.16343164162984086 0 0 0
1175 1 37.35637787510693 16.071702972014776 1.6239329602082557 0 0 0
1179 1 41.10841935422995 16.071702972014723 1.6239329602083068 0 0 0
1177 4 39.234655731130964 17.156773122759965 0.163431641629891 0 0 0
1076 1 42.98444009378367 12.822339735041826 1.6239329602082533 0 0 0
1080 1 46.7364815729068 12.822339735041806 1.6239329602082855 0 0 0
1074 4 44.86271794980772 13.907409885786931 0.16343164162989465 0 0 0
1183 1 44.86046083335293 16.07170297201478 1.6239329602082537 0 0 0
1181 4 42.986697210253844 17.15677312276 0.16343164162986032 0 0 0
1185 4 46.73873868937698 17.15677312275996 0.16343164162988993 0 0 0
976 1 50.48852305202969 12.822339735041815 1.6239329602082775 -1 0 0
1078 4 48.61475942893071 13.907409885786965 0.1634316416298389 0 0 0
974 4 52.36680090805364 13.907409885786937 0.1634316416298663 -1 0 0
1187 1 48.61250231247599 16.071702972014723 1.6239329602083075 0 0 0
1083 1 52.36454379159889 16.071702972014762 1.6239329602082775 -1 0 0
1081 4 50.49078016849988 17.15677312276 0.16343164162985346 -1 0 0
980 1 54.2405645311527 12.822339735041812 1.6239329602082697 -1 0 0
984 1 57.99260601027571 12.822339735041819 1.623932960208252 -1 0 0
978 4 56.11884238717665 13.907409885786944 0.16343164162985643 -1 0 0
1087 1 56.1165852707219 16.071702972014748 1.6239329602082806 -1 0 0
1085 4 54.24282164762289 17.156773122759986 0.16343164162986631 -1 0 0
1089 4 57.99486312674589 17.156773122759986 0.16343164162987073 -1 0 0
988 1 61.7446474893988 12.822339735041808 1.623932960208269 -1 0 0
982 4 59.870883866299735 13.907409885786938 0.1634316416298811 -1 0 0
986 4 63.622925345422715 13.90740988578697 0.16343164162985171 -1 0 0
1091 1 59.86862674984496 16.07170297201476 1.6239329602082666 -1 0 0
1095 1 63.62066822896792 16.071702972014755 1.6239329602082975 -1 0 0
992 1 65.49668896852175 12.822339735041826 1.6239329602082628 -1 0 0
1093 4 61.74690460586889 17.156773122759994 0.16343164162986515 -1 0 0
1097 4 65.49894608499184 17.15677312276 0.16343164162987353 -1 0 0
996 1 69.24873044764469 12.822339735041792 1.6239329602082972 -1 0 0
990 4 67.37496682454575 13.907409885786949 0.16343164162987622 -1 0 0
994 4 71.12700830366863 13.907409885786958 0.1634316416298466 -1 0 0
1099 1 67.37270970809092 16.071702972014773 1.6239329602082595 -1 0 0
1103 1 71.12475118721399 16.071702972014716 1.623932960208307 -1 0 0
1101 4 69.25098756411495 17.156773122759958 0.1634316416298978 -1 0 0
1000 1 73.0007719267677 12.822339735041828 1.6239329602082504 -1 0 0
1004 1 76.7528134058908 12.822339735041819 1.6239329602082648 -1 0 0
998 4 74.87904978279174 13.907409885786945 0.16343164162989202 -1 0 0
1107 1 74.87679266633684 16.071702972014773 1.6239329602082686 -1 0 0
1105 4 73.0030290432378 17.15677312276002 0.16343164162984294 -1 0 0
1109 4 76.75507052236088 17.156773122759958 0.16343164162989193 -1 0 0
1008 1 80.50485488501374 12.82233973504181 1.6239329602082944 -1 0 0
1002 4 78.6310912619148 13.90740988578696 0.1634316416298664 -1 0 0
1006 4 82.38313274103768 13.907409885786949 0.16343164162984145 -1 0 0
1111 1 78.62883414545996 16.071702972014776 1.6239329602082642 -1 0 0
1115 1 82.38087562458307 16.071702972014727 1.6239329602082964 -1 0 0
1113 4 80.507112001484 17.156773122759965 0.16343164162989612 -1 0 0
1012 1 84.25689636413662 12.822339735041803 1.6239329602082757 -1 0 0
1016 1 88.00893784325969 12.822339735041824 1.6239329602082444 -1 0 0
1010 4 86.1351742201606 13.907409885786963 0.1634316416298703 -1 0 0
1119 1 86.13291710370595 16.071702972014762 1.6239329602082964 -1 0 0
1117 4 84.25915348060693 17.156773122760008 0.16343164162986085 -1 0 0
1121 4 88.01119495972979 17.156773122760008 0.16343164162985016 -1 0 0
1020 1 91.76097932238278 12.822339735041812 1.6239329602082728 -1 0 0
1014 4 89.8872156992837 13.907409885786945 0.1634316416298852 -1 0 0
1018 4 93.63925717840677 13.907409885786947 0.1634316416298767 -1 0 0
1123 1 89.88495858282883 16.071702972014762 1.6239329602082673 -1 0 0
1127 1 93.6370000619519 16.07170297201476 1.6239329602082828 -1 0 0
1125 4 91.76323643885283 17.156773122759958 0.163431641629875 -1 0 0
1026 4 101.14334013665267 13.90740988578696 0.16343164162984458 -1 0 0
1024 1 95.51302080150583 12.822339735041828 1.6239329602082724 -1 0 0
1028 1 99.26506228062873 12.822339735041801 1.6239329602083132 -1 0 0
1022 4 97.3912986575298 13.907409885786965 0.16343164162985907 -1 0 0
1131 1 97.38904154107497 16.071702972014776 1.6239329602082806 -1 0 0
1135 1 101.14108302019805 16.071702972014723 1.6239329602083215 -1 0 0
1129 4 95.5152779179759 17.156773122759965 0.1634316416298725 -1 0 0
1133 4 99.267319397099 17.15677312275996 0.1634316416298957 -1 0 0
1140 1 1.7119838234306817 19.32106620898783 1.6239329602082608 0 0 0
1138 4 3.5902616794546613 20.406136359733043 0.16343164162990195 0 0 0
1144 1 5.46402530255371 19.321066208987816 1.6239329602082573 0 0 0
1247 1 3.588004562999909 22.570429445960873 1.6239329602083015 0 0 0
1142 4 7.342303158577676 20.40613635973304 0.1634316416298967 0 0 0
1148 1 9.21606678167672 19.321066208987823 1.6239329602082575 0 0 0
1146 4 11.094344637700683 20.406136359733054 0.16343164162990134 0 0 0
1251 1 7.340046042122921 22.570429445960865 1.623932960208298 0 0 0
1255 1 11.092087521245933 22.57042944596087 1.6239329602083037 0 0 0
1152 1 12.968108260799712 19.321066208987816 1.6239329602082564 0 0 0
1150 4 14.846386116823677 20.406136359733054 0.16343164162990514 0 0 0
1156 1 16.720149739922736 19.321066208987826 1.6239329602082475 0 0 0
1259 1 14.84412900036898 22.57042944596087 1.6239329602083106 0 0 0
1154 4 18.598427595946724 20.406136359733015 0.16343164162990592 0 0 0
1160 1 20.47219121904575 19.32106620898781 1.6239329602082755 0 0 0
1158 4 22.350469075069654 20.40613635973305 0.163431641629872 0 0 0
1263 1 18.596170479491917 22.57042944596088 1.6239329602082813 0 0 0
1267 1 22.348211958614957 22.57042944596083 1.6239329602083175 0 0 0
1164 1 24.224232698168688 19.321066208987826 1.6239329602082448 0 0 0
1162 4 26.102510554192676 20.406136359733026 0.16343164162990856 0 0 0
1168 1 27.976274177291746 19.321066208987816 1.6239329602082424 0 0 0
1271 1 26.100253437737862 22.570429445960876 1.623932960208283 0 0 0
1166 4 29.854552033315752 20.40613635973302 0.16343164162990623 0 0 0
1172 1 31.728315656414782 19.321066208987816 1.6239329602082708 0 0 0
1170 4 33.60659351243869 20.406136359733065 0.16343164162987278 0 0 0
1176 1 35.48035713553768 19.321066208987826 1.6239329602082477 0 0 0
1275 1 29.85229491686095 22.57042944596088 1.6239329602082766 0 0 0
1279 1 33.604336395983964 22.570429445960833 1.6239329602083195 0 0 0
1174 4 37.35863499156171 20.406136359733008 0.16343164162992166 0 0 0
1180 1 39.23239861466078 19.321066208987816 1.6239329602082646 0 0 0
1178 4 41.11067647068467 20.406136359733065 0.16343164162987148 0 0 0
1283 1 37.356377875106936 22.570429445960887 1.6239329602082664 0 0 0
1287 1 41.10841935422996 22.57042944596083 1.6239329602083241 0 0 0
1184 1 42.98444009378367 19.32106620898783 1.623932960208244 0 0 0
1182 4 44.86271794980771 20.406136359733 0.1634316416299247 0 0 0
1188 1 46.7364815729068 19.321066208987816 1.6239329602082655 0 0 0
1291 1 44.86046083335294 22.57042944596089 1.623932960208265 0 0 0
1186 4 48.61475942893071 20.406136359733054 0.16343164162987053 0 0 0
1084 1 50.4885230520297 19.321066208987826 1.6239329602082615 -1 0 0
1082 4 52.36680090805365 20.406136359733043 0.16343164162989973 -1 0 0
1295 1 48.61250231247599 22.57042944596083 1.6239329602083237 0 0 0
1191 1 52.36454379159889 22.570429445960873 1.6239329602082926 -1 0 0
1088 1 54.24056453115271 19.321066208987816 1.6239329602082555 -1 0 0
1086 4 56.11884238717665 20.406136359733047 0.1634316416298881 -1 0 0
1092 1 57.9926060102757 19.321066208987823 1.6239329602082346 -1 0 0
1195 1 56.116585270721906 22.570429445960862 1.6239329602082992 -1 0 0
1090 4 59.870883866299735 20.406136359733008 0.16343164162990972 -1 0 0
1096 1 61.7446474893988 19.32106620898781 1.6239329602082546 -1 0 0
1094 4 63.622925345422715 20.406136359733043 0.16343164162987736 -1 0 0
1199 1 59.86862674984496 22.570429445960862 1.6239329602082757 -1 0 0
1203 1 63.62066822896793 22.57042944596083 1.6239329602083135 -1 0 0
1100 1 65.49668896852175 19.32106620898783 1.6239329602082502 -1 0 0
1098 4 67.37496682454577 20.406136359733026 0.1634316416298976 -1 0 0
1104 1 69.2487304476447 19.321066208987805 1.6239329602082755 -1 0 0
1102 4 71.12700830366865 20.406136359733047 0.16343164162988266 -1 0 0
1207 1 67.37270970809092 22.57042944596088 1.6239329602082695 -1 0 0
1211 1 71.12475118721397 22.570429445960826 1.623932960208318 -1 0 0
1108 1 73.0007719267677 19.321066208987833 1.6239329602082324 -1 0 0
1106 4 74.87904978279172 20.40613635973302 0.16343164162992152 -1 0 0
1112 1 76.7528134058908 19.321066208987816 1.6239329602082466 -1 0 0
1215 1 74.87679266633685 22.570429445960883 1.623932960208278 -1 0 0
1110 4 78.6310912619148 20.406136359733022 0.1634316416299009 -1 0 0
1116 1 80.50485488501374 19.321066208987812 1.6239329602082744 -1 0 0
1114 4 82.38313274103768 20.40613635973306 0.16343164162986884 -1 0 0
1219 1 78.62883414545996 22.570429445960883 1.623932960208276 -1 0 0
1223 1 82.38087562458307 22.570429445960837 1.6239329602083148 -1 0 0
1120 1 84.25689636413662 19.32106620898783 1.6239329602082675 -1 0 0
1118 4 86.1351742201606 20.40613635973304 0.16343164162989782 -1 0 0
1124 1 88.00893784325969 19.321066208987826 1.6239329602082384 -1 0 0
1227 1 86.13291710370595 22.570429445960833 1.6239329602083103 -1 0 0
1122 4 89.8872156992837 20.40613635973302 0.16343164162991128 -1 0 0
1128 1 91.76097932238277 19.32106620898781 1.6239329602082462 -1 0 0
1126 4 93.63925717840677 20.406136359733022 0.16343164162990712 -1 0 0
1231 1 89.88495858282883 22.570429445960873 1.623932960208277 -1 0 0
1235 1 93.63700006195188 22.570429445960876 1.6239329602082844 -1 0 0
1134 4 101.14334013665267 20.406136359733047 0.16343164162988186 -1 0 0
1132 1 95.51302080150582 19.321066208987816 1.6239329602082555 -1 0 0
1130 4 97.39129865752979 20.406136359733036 0.16343164162989626 -1 0 0
1136 1 99.26506228062874 19.321066208987816 1.623932960208284 -1 0 0
1239 1 97.38904154107496 22.570429445960887 1.6239329602082866 -1 0 0
1243 1 101.14108302019805 22.570429445960837 1.6239329602083266 -1 0 0
1245 4 1.7142409399008867 23.655499596706022 0.16343164162981766 0 0 0
1249 4 5.4662824190238775 23.655499596706004 0.16343164162983811 0 0 0
1248 1 1.7119838234306877 25.819792682933763 1.6239329602082908 0 0 0
1246 4 3.5902616794546613 26.904862833678926 0.16343164162989646 0 0 0
1252 1 5.46402530255371 25.81979268293376 1.6239329602082857 0 0 0
1253 4 9.218323898146883 23.655499596706015 0.16343164162984086 0 0 0
1250 4 7.342303158577679 26.904862833678923 0.16343164162989118 0 0 0
1256 1 9.216066781676716 25.819792682933763 1.6239329602082861 0 0 0
1254 4 11.094344637700683 26.904862833678933 0.16343164162989074 0 0 0
1257 4 12.970365377269903 23.655499596706 0.16343164162986012 0 0 0
1261 4 16.72240685639288 23.65549959670603 0.1634316416298169 0 0 0
1260 1 12.968108260799713 25.81979268293376 1.623932960208292 0 0 0
1258 4 14.846386116823675 26.904862833678923 0.16343164162988946 0 0 0
1264 1 16.720149739922736 25.819792682933766 1.6239329602082724 0 0 0
1265 4 20.474448335515934 23.65549959670601 0.16343164162985901 0 0 0
1262 4 18.598427595946728 26.904862833678887 0.1634316416298946 0 0 0
1268 1 20.472191219045754 25.819792682933755 1.6239329602083057 0 0 0
1266 4 22.350469075069658 26.904862833678923 0.1634316416298591 0 0 0
1269 4 24.22648981463884 23.655499596706033 0.16343164162981966 0 0 0
1273 4 27.978531293761865 23.655499596706022 0.16343164162985713 0 0 0
1272 1 24.22423269816869 25.819792682933766 1.6239329602082677 0 0 0
1270 4 26.102510554192676 26.904862833678887 0.1634316416298962 0 0 0
1276 1 27.976274177291746 25.819792682933766 1.6239329602082715 0 0 0
1277 4 31.730572772884955 23.655499596706022 0.1634316416298611 0 0 0
1281 4 35.482614252007856 23.655499596706026 0.16343164162983237 0 0 0
1274 4 29.854552033315755 26.904862833678887 0.1634316416298937 0 0 0
1280 1 31.72831565641478 25.819792682933766 1.6239329602083046 0 0 0
1278 4 33.60659351243869 26.904862833678933 0.1634316416298594 0 0 0
1284 1 35.48035713553768 25.81979268293377 1.6239329602082668 0 0 0
1285 4 39.23465573113097 23.65549959670602 0.16343164162986265 0 0 0
1282 4 37.35863499156171 26.90486283367888 0.1634316416299122 0 0 0
1288 1 39.23239861466079 25.819792682933766 1.6239329602083004 0 0 0
1286 4 41.11067647068468 26.904862833678937 0.163431641629861 0 0 0
1289 4 42.98669721025385 23.655499596706026 0.16343164162983037 0 0 0
1293 4 46.73873868937699 23.65549959670602 0.1634316416298594 0 0 0
1292 1 42.98444009378367 25.819792682933773 1.6239329602082666 0 0 0
1290 4 44.86271794980771 26.904862833678877 0.16343164162991092 0 0 0
1296 1 46.7364815729068 25.819792682933773 1.6239329602083006 0 0 0
1189 4 50.49078016849989 23.65549959670602 0.16343164162982 -1 0 0
1294 4 48.61475942893072 26.904862833678933 0.16343164162986185 0 0 0
1192 1 50.48852305202969 25.819792682933763 1.6239329602082904 -1 0 0
1190 4 52.36680090805364 26.90486283367892 0.16343164162988907 -1 0 0
1193 4 54.24282164762289 23.655499596706004 0.16343164162983187 -1 0 0
1197 4 57.99486312674589 23.655499596706004 0.16343164162983753 -1 0 0
1196 1 54.2405645311527 25.819792682933755 1.6239329602082826 -1 0 0
1194 4 56.11884238717665 26.904862833678923 0.1634316416298769 -1 0 0
1200 1 57.9926060102757 25.819792682933766 1.6239329602082615 -1 0 0
1201 4 61.7469046058689 23.655499596706015 0.16343164162983423 -1 0 0
1198 4 59.870883866299735 26.90486283367888 0.16343164162990126 -1 0 0
1204 1 61.7446474893988 25.819792682933752 1.623932960208284 -1 0 0
1202 4 63.62292534542273 26.904862833678926 0.16343164162987409 -1 0 0
1205 4 65.49894608499184 23.65549959670602 0.1634316416298476 -1 0 0