LAMMPS data file via write_data, version 29 Aug 2024, timestep = 0, units = metal

1620 atoms
2 atom types

0 101.305119936321 xlo xhi
0 97.48089710919 ylo yhi
0 16.455672334782 zlo zhi

Masses

1 118.71
2 32.06

Atoms # atomic

810 2 4.973799150320701e-13 1.083121078991006 0 0 0 0
816 1 1.876020739561497 0 1.4598471617339994 0 0 0
814 2 3.7520414791234984 1.083121078991006 0 0 0 0
820 1 5.628062218684498 0 1.4598471617339994 0 0 0
818 2 7.504082958246499 1.083121078991006 0 0 0 0
824 1 9.380103697807499 0 1.4598471617339994 0 0 0
822 2 11.2561244373695 1.083121078991006 0 0 0 0
828 1 13.1321451769305 0 1.4598471617339994 0 0 0
826 2 15.008165916492501 1.083121078991006 0 0 0 0
832 1 16.8841866560535 0 1.4598471617339994 0 0 0
830 2 18.760207395615495 1.083121078991006 0 0 0 0
836 1 20.636228135176495 0 1.4598471617339994 0 0 0
834 2 22.512248874738503 1.083121078991006 0 0 0 0
840 1 24.388269614299503 0 1.4598471617339994 0 0 0
838 2 26.264290353861497 1.083121078991006 0 0 0 0
844 1 28.140311093422497 0 1.4598471617339994 0 0 0
842 2 30.01633183298449 1.083121078991006 0 0 0 0
848 1 31.89235257254549 0 1.4598471617339994 0 0 0
846 2 33.7683733121075 1.083121078991006 0 0 0 0
852 1 35.6443940516685 0 1.4598471617339994 0 0 0
850 2 37.52041479123049 1.083121078991006 0 0 0 0
856 1 39.39643553079149 0 1.4598471617339994 0 0 0
854 2 41.2724562703535 1.083121078991006 0 0 0 0
860 1 43.1484770099145 0 1.4598471617339994 0 0 0
858 2 45.024497749476495 1.083121078991006 0 0 0 0
864 1 46.900518489037495 0 1.4598471617339994 0 0 0
862 2 48.7765392285995 1.083121078991006 0 0 0 0
760 1 50.6525599681605 0 1.4598471617339994 -1 0 0
758 2 52.528580707722504 1.083121078991006 0 -1 0 0
764 1 54.404601447283504 0 1.4598471617339994 -1 0 0
762 2 56.280622186845505 1.083121078991006 0 -1 0 0
768 1 58.156642926406505 0 1.4598471617339994 -1 0 0
766 2 60.0326636659685 1.083121078991006 0 -1 0 0
772 1 61.9086844055295 0 1.4598471617339994 -1 0 0
770 2 63.7847051450915 1.083121078991006 0 -1 0 0
776 1 65.6607258846525 0 1.4598471617339994 -1 0 0
774 2 67.5367466242145 1.083121078991006 0 -1 0 0
780 1 69.4127673637755 0 1.4598471617339994 -1 0 0
778 2 71.28878810333751 1.083121078991006 0 -1 0 0
784 1 73.16480884289851 0 1.4598471617339994 -1 0 0
782 2 75.0408295824605 1.083121078991006 0 -1 0 0
788 1 76.9168503220215 0 1.4598471617339994 -1 0 0
786 2 78.7928710615835 1.083121078991006 0 -1 0 0
792 1 80.6688918011445 0 1.4598471617339994 -1 0 0
790 2 82.5449125407065 1.083121078991006 0 -1 0 0
796 1 84.4209332802675 0 1.4598471617339994 -1 0 0
794 2 86.29695401982951 1.083121078991006 0 -1 0 0
800 1 88.17297475939051 0 1.4598471617339994 -1 0 0
798 2 90.04899549895251 1.083121078991006 0 -1 0 0
804 1 91.9250162385135 0 1.4598471617339994 -1 0 0
802 2 93.8010369780755 1.083121078991006 0 -1 0 0
808 1 95.6770577176365 0 1.4598471617339994 -1 0 0
806 2 97.5530784571985 1.083121078991006 0 -1 0 0
812 1 99.4290991967595 0 1.4598471617339994 -1 0 0
923 1 3.7520414791224965 3.2493632369730037 1.4598471617339994 0 0 0
927 1 7.5040829582454975 3.2493632369730037 1.4598471617339994 0 0 0
931 1 11.256124437368499 3.2493632369730037 1.4598471617339994 0 0 0
935 1 15.008165916491492 3.2493632369730037 1.4598471617339994 0 0 0
939 1 18.7602073956145 3.2493632369730037 1.4598471617339994 0 0 0
943 1 22.512248874737494 3.2493632369730037 1.4598471617339994 0 0 0
947 1 26.264290353860503 3.2493632369730037 1.4598471617339994 0 0 0
951 1 30.016331832983496 3.2493632369730037 1.4598471617339994 0 0 0
955 1 33.76837331210649 3.2493632369730037 1.4598471617339994 0 0 0
959 1 37.5204147912295 3.2493632369730037 1.4598471617339994 0 0 0
963 1 41.27245627035249 3.2493632369730037 1.4598471617339994 0 0 0
967 1 45.0244977494755 3.2493632369730037 1.4598471617339994 0 0 0
971 1 48.776539228598494 3.2493632369730037 1.4598471617339994 0 0 0
867 1 52.5285807077215 3.2493632369730037 1.4598471617339994 -1 0 0
871 1 56.280622186844504 3.2493632369730037 1.4598471617339994 -1 0 0
875 1 60.032663665967505 3.2493632369730037 1.4598471617339994 -1 0 0
879 1 63.784705145090506 3.2493632369730037 1.4598471617339994 -1 0 0
883 1 67.5367466242135 3.2493632369730037 1.4598471617339994 -1 0 0
887 1 71.2887881033365 3.2493632369730037 1.4598471617339994 -1 0 0
891 1 75.04082958245951 3.2493632369730037 1.4598471617339994 -1 0 0
895 1 78.7928710615825 3.2493632369730037 1.4598471617339994 -1 0 0
899 1 82.5449125407055 3.2493632369730037 1.4598471617339994 -1 0 0
903 1 86.2969540198285 3.2493632369730037 1.4598471617339994 -1 0 0
907 1 90.04899549895151 3.2493632369730037 1.4598471617339994 -1 0 0
911 1 93.8010369780745 3.2493632369730037 1.4598471617339994 -1 0 0
915 1 97.5530784571975 3.2493632369730037 1.4598471617339994 -1 0 0
919 1 101.3051199363205 3.2493632369730037 1.4598471617339994 -1 0 0
921 2 1.876020739561497 4.3324843159640025 0 0 0 0
925 2 5.628062218684498 4.3324843159640025 0 0 0 0
929 2 9.380103697807499 4.3324843159640025 0 0 0 0
933 2 13.1321451769305 4.3324843159640025 0 0 0 0
937 2 16.8841866560535 4.3324843159640025 0 0 0 0
941 2 20.636228135176495 4.3324843159640025 0 0 0 0
945 2 24.388269614299503 4.3324843159640025 0 0 0 0
949 2 28.140311093422497 4.3324843159640025 0 0 0 0
953 2 31.89235257254549 4.3324843159640025 0 0 0 0
957 2 35.6443940516685 4.3324843159640025 0 0 0 0
961 2 39.39643553079149 4.3324843159640025 0 0 0 0
965 2 43.1484770099145 4.3324843159640025 0 0 0 0
969 2 46.900518489037495 4.3324843159640025 0 0 0 0
865 2 50.6525599681605 4.3324843159640025 0 -1 0 0
869 2 54.404601447283504 4.3324843159640025 0 -1 0 0
873 2 58.156642926406505 4.3324843159640025 0 -1 0 0
877 2 61.9086844055295 4.3324843159640025 0 -1 0 0
881 2 65.6607258846525 4.3324843159640025 0 -1 0 0
885 2 69.4127673637755 4.3324843159640025 0 -1 0 0
889 2 73.16480884289851 4.3324843159640025 0 -1 0 0
893 2 76.9168503220215 4.3324843159640025 0 -1 0 0
897 2 80.6688918011445 4.3324843159640025 0 -1 0 0
901 2 84.4209332802675 4.3324843159640025 0 -1 0 0
905 2 88.17297475939051 4.3324843159640025 0 -1 0 0
909 2 91.9250162385135 4.3324843159640025 0 -1 0 0
913 2 95.6770577176365 4.3324843159640025 0 -1 0 0
917 2 99.4290991967595 4.3324843159640025 0 -1 0 0
918 2 4.973799150320701e-13 7.581847552937006 0 0 0 0
924 1 1.876020739561497 6.498726473946 1.4598471617339994 0 0 0
922 2 3.7520414791234984 7.581847552937006 0 0 0 0
928 1 5.628062218684498 6.498726473946 1.4598471617339994 0 0 0
926 2 7.504082958246499 7.581847552937006 0 0 0 0
932 1 9.380103697807499 6.498726473946 1.4598471617339994 0 0 0
930 2 11.2561244373695 7.581847552937006 0 0 0 0
936 1 13.1321451769305 6.498726473946 1.4598471617339994 0 0 0
934 2 15.008165916492501 7.581847552937006 0 0 0 0
940 1 16.8841866560535 6.498726473946 1.4598471617339994 0 0 0
938 2 18.760207395615495 7.581847552937006 0 0 0 0
944 1 20.636228135176495 6.498726473946 1.4598471617339994 0 0 0
942 2 22.512248874738503 7.581847552937006 0 0 0 0
948 1 24.388269614299503 6.498726473946 1.4598471617339994 0 0 0
946 2 26.264290353861497 7.581847552937006 0 0 0 0
952 1 28.140311093422497 6.498726473946 1.4598471617339994 0 0 0
950 2 30.01633183298449 7.581847552937006 0 0 0 0
956 1 31.89235257254549 6.498726473946 1.4598471617339994 0 0 0
954 2 33.7683733121075 7.581847552937006 0 0 0 0
960 1 35.6443940516685 6.498726473946 1.4598471617339994 0 0 0
958 2 37.52041479123049 7.581847552937006 0 0 0 0
964 1 39.39643553079149 6.498726473946 1.4598471617339994 0 0 0
962 2 41.2724562703535 7.581847552937006 0 0 0 0
968 1 43.1484770099145 6.498726473946 1.4598471617339994 0 0 0
966 2 45.024497749476495 7.581847552937006 0 0 0 0
972 1 46.900518489037495 6.498726473946 1.4598471617339994 0 0 0
970 2 48.7765392285995 7.581847552937006 0 0 0 0
868 1 50.6525599681605 6.498726473946 1.4598471617339994 -1 0 0
866 2 52.528580707722504 7.581847552937006 0 -1 0 0
872 1 54.404601447283504 6.498726473946 1.4598471617339994 -1 0 0
870 2 56.280622186845505 7.581847552937006 0 -1 0 0
876 1 58.156642926406505 6.498726473946 1.4598471617339994 -1 0 0
874 2 60.0326636659685 7.581847552937006 0 -1 0 0
880 1 61.9086844055295 6.498726473946 1.4598471617339994 -1 0 0
878 2 63.7847051450915 7.581847552937006 0 -1 0 0
884 1 65.6607258846525 6.498726473946 1.4598471617339994 -1 0 0
882 2 67.5367466242145 7.581847552937006 0 -1 0 0
888 1 69.4127673637755 6.498726473946 1.4598471617339994 -1 0 0
886 2 71.28878810333751 7.581847552937006 0 -1 0 0
892 1 73.16480884289851 6.498726473946 1.4598471617339994 -1 0 0
890 2 75.0408295824605 7.581847552937006 0 -1 0 0
896 1 76.9168503220215 6.498726473946 1.4598471617339994 -1 0 0
894 2 78.7928710615835 7.581847552937006 0 -1 0 0
900 1 80.6688918011445 6.498726473946 1.4598471617339994 -1 0 0
898 2 82.5449125407065 7.581847552937006 0 -1 0 0
904 1 84.4209332802675 6.498726473946 1.4598471617339994 -1 0 0
902 2 86.29695401982951 7.581847552937006 0 -1 0 0
908 1 88.17297475939051 6.498726473946 1.4598471617339994 -1 0 0
906 2 90.04899549895251 7.581847552937006 0 -1 0 0
912 1 91.9250162385135 6.498726473946 1.4598471617339994 -1 0 0
910 2 93.8010369780755 7.581847552937006 0 -1 0 0
916 1 95.6770577176365 6.498726473946 1.4598471617339994 -1 0 0
914 2 97.5530784571985 7.581847552937006 0 -1 0 0
920 1 99.4290991967595 6.498726473946 1.4598471617339994 -1 0 0
1029 2 1.876020739561497 10.831210789910003 0 0 0 0
1031 1 3.7520414791224965 9.748089710919004 1.4598471617339994 0 0 0
1033 2 5.628062218684498 10.831210789910003 0 0 0 0
1035 1 7.5040829582454975 9.748089710919004 1.4598471617339994 0 0 0
1037 2 9.380103697807499 10.831210789910003 0 0 0 0
1039 1 11.256124437368499 9.748089710919004 1.4598471617339994 0 0 0
1041 2 13.1321451769305 10.831210789910003 0 0 0 0
1043 1 15.008165916491492 9.748089710919004 1.4598471617339994 0 0 0
1045 2 16.8841866560535 10.831210789910003 0 0 0 0
1047 1 18.7602073956145 9.748089710919004 1.4598471617339994 0 0 0
1049 2 20.636228135176495 10.831210789910003 0 0 0 0
1051 1 22.512248874737494 9.748089710919004 1.4598471617339994 0 0 0
1053 2 24.388269614299503 10.831210789910003 0 0 0 0
1055 1 26.264290353860503 9.748089710919004 1.4598471617339994 0 0 0
1057 2 28.140311093422497 10.831210789910003 0 0 0 0
1059 1 30.016331832983496 9.748089710919004 1.4598471617339994 0 0 0
1061 2 31.89235257254549 10.831210789910003 0 0 0 0
1063 1 33.76837331210649 9.748089710919004 1.4598471617339994 0 0 0
1065 2 35.6443940516685 10.831210789910003 0 0 0 0
1067 1 37.5204147912295 9.748089710919004 1.4598471617339994 0 0 0
1069 2 39.39643553079149 10.831210789910003 0 0 0 0
1071 1 41.27245627035249 9.748089710919004 1.4598471617339994 0 0 0
1073 2 43.1484770099145 10.831210789910003 0 0 0 0
1075 1 45.0244977494755 9.748089710919004 1.4598471617339994 0 0 0
1077 2 46.900518489037495 10.831210789910003 0 0 0 0
1079 1 48.776539228598494 9.748089710919004 1.4598471617339994 0 0 0
973 2 50.6525599681605 10.831210789910003 0 -1 0 0
975 1 52.5285807077215 9.748089710919004 1.4598471617339994 -1 0 0
977 2 54.404601447283504 10.831210789910003 0 -1 0 0
979 1 56.280622186844504 9.748089710919004 1.4598471617339994 -1 0 0
981 2 58.156642926406505 10.831210789910003 0 -1 0 0
983 1 60.032663665967505 9.748089710919004 1.4598471617339994 -1 0 0
985 2 61.9086844055295 10.831210789910003 0 -1 0 0
987 1 63.784705145090506 9.748089710919004 1.4598471617339994 -1 0 0
989 2 65.6607258846525 10.831210789910003 0 -1 0 0
991 1 67.5367466242135 9.748089710919004 1.4598471617339994 -1 0 0
993 2 69.4127673637755 10.831210789910003 0 -1 0 0
995 1 71.2887881033365 9.748089710919004 1.4598471617339994 -1 0 0
997 2 73.16480884289851 10.831210789910003 0 -1 0 0
999 1 75.04082958245951 9.748089710919004 1.4598471617339994 -1 0 0
1001 2 76.9168503220215 10.831210789910003 0 -1 0 0
1003 1 78.7928710615825 9.748089710919004 1.4598471617339994 -1 0 0
1005 2 80.6688918011445 10.831210789910003 0 -1 0 0
1007 1 82.5449125407055 9.748089710919004 1.4598471617339994 -1 0 0
1009 2 84.4209332802675 10.831210789910003 0 -1 0 0
1011 1 86.2969540198285 9.748089710919004 1.4598471617339994 -1 0 0
1013 2 88.17297475939051 10.831210789910003 0 -1 0 0
1015 1 90.04899549895151 9.748089710919004 1.4598471617339994 -1 0 0
1017 2 91.9250162385135 10.831210789910003 0 -1 0 0
1019 1 93.8010369780745 9.748089710919004 1.4598471617339994 -1 0 0
1021 2 95.6770577176365 10.831210789910003 0 -1 0 0
1023 1 97.5530784571975 9.748089710919004 1.4598471617339994 -1 0 0
1025 2 99.4290991967595 10.831210789910003 0 -1 0 0
1027 1 101.3051199363205 9.748089710919004 1.4598471617339994 -1 0 0
1032 1 1.876020739561497 12.997452947892 1.4598471617339994 0 0 0
1036 1 5.628062218684498 12.997452947892 1.4598471617339994 0 0 0
1040 1 9.380103697807499 12.997452947892 1.4598471617339994 0 0 0
1044 1 13.1321451769305 12.997452947892 1.4598471617339994 0 0 0
1048 1 16.8841866560535 12.997452947892 1.4598471617339994 0 0 0
1052 1 20.636228135176495 12.997452947892 1.4598471617339994 0 0 0
1056 1 24.388269614299503 12.997452947892 1.4598471617339994 0 0 0
1060 1 28.140311093422497 12.997452947892 1.4598471617339994 0 0 0
1064 1 31.89235257254549 12.997452947892 1.4598471617339994 0 0 0
1068 1 35.6443940516685 12.997452947892 1.4598471617339994 0 0 0
1072 1 39.39643553079149 12.997452947892 1.4598471617339994 0 0 0
1076 1 43.1484770099145 12.997452947892 1.4598471617339994 0 0 0
1080 1 46.900518489037495 12.997452947892 1.4598471617339994 0 0 0
976 1 50.6525599681605 12.997452947892 1.4598471617339994 -1 0 0
980 1 54.404601447283504 12.997452947892 1.4598471617339994 -1 0 0
984 1 58.156642926406505 12.997452947892 1.4598471617339994 -1 0 0
988 1 61.9086844055295 12.997452947892 1.4598471617339994 -1 0 0
992 1 65.6607258846525 12.997452947892 1.4598471617339994 -1 0 0
996 1 69.4127673637755 12.997452947892 1.4598471617339994 -1 0 0
1000 1 73.16480884289851 12.997452947892 1.4598471617339994 -1 0 0
1004 1 76.9168503220215 12.997452947892 1.4598471617339994 -1 0 0
1008 1 80.6688918011445 12.997452947892 1.4598471617339994 -1 0 0
1012 1 84.4209332802675 12.997452947892 1.4598471617339994 -1 0 0
1016 1 88.17297475939051 12.997452947892 1.4598471617339994 -1 0 0
1020 1 91.9250162385135 12.997452947892 1.4598471617339994 -1 0 0
1024 1 95.6770577176365 12.997452947892 1.4598471617339994 -1 0 0
1028 1 99.4290991967595 12.997452947892 1.4598471617339994 -1 0 0
1026 2 4.973799150320701e-13 14.080574026883006 0 0 0 0
1030 2 3.7520414791234984 14.080574026883006 0 0 0 0
1034 2 7.504082958246499 14.080574026883006 0 0 0 0
1038 2 11.2561244373695 14.080574026883006 0 0 0 0
1042 2 15.008165916492501 14.080574026883006 0 0 0 0
1046 2 18.760207395615495 14.080574026883006 0 0 0 0
1050 2 22.512248874738503 14.080574026883006 0 0 0 0
1054 2 26.264290353861497 14.080574026883006 0 0 0 0
1058 2 30.01633183298449 14.080574026883006 0 0 0 0
1062 2 33.7683733121075 14.080574026883006 0 0 0 0
1066 2 37.52041479123049 14.080574026883006 0 0 0 0
1070 2 41.2724562703535 14.080574026883006 0 0 0 0
1074 2 45.024497749476495 14.080574026883006 0 0 0 0
1078 2 48.7765392285995 14.080574026883006 0 0 0 0
974 2 52.528580707722504 14.080574026883006 0 -1 0 0
978 2 56.280622186845505 14.080574026883006 0 -1 0 0
982 2 60.0326636659685 14.080574026883006 0 -1 0 0
986 2 63.7847051450915 14.080574026883006 0 -1 0 0
990 2 67.5367466242145 14.080574026883006 0 -1 0 0
994 2 71.28878810333751 14.080574026883006 0 -1 0 0
998 2 75.0408295824605 14.080574026883006 0 -1 0 0
1002 2 78.7928710615835 14.080574026883006 0 -1 0 0
1006 2 82.5449125407065 14.080574026883006 0 -1 0 0
1010 2 86.29695401982951 14.080574026883006 0 -1 0 0
1014 2 90.04899549895251 14.080574026883006 0 -1 0 0
1018 2 93.8010369780755 14.080574026883006 0 -1 0 0
1022 2 97.5530784571985 14.080574026883006 0 -1 0 0
1137 2 1.876020739561497 17.329937263856003 0 0 0 0
1139 1 3.7520414791224965 16.246816184865004 1.4598471617339994 0 0 0
1141 2 5.628062218684498 17.329937263856003 0 0 0 0
1143 1 7.5040829582454975 16.246816184865004 1.4598471617339994 0 0 0
1145 2 9.380103697807499 17.329937263856003 0 0 0 0
1147 1 11.256124437368499 16.246816184865004 1.4598471617339994 0 0 0
1149 2 13.1321451769305 17.329937263856003 0 0 0 0
1151 1 15.008165916491492 16.246816184865004 1.4598471617339994 0 0 0
1153 2 16.8841866560535 17.329937263856003 0 0 0 0
1155 1 18.7602073956145 16.246816184865004 1.4598471617339994 0 0 0
1157 2 20.636228135176495 17.329937263856003 0 0 0 0
1159 1 22.512248874737494 16.246816184865004 1.4598471617339994 0 0 0
1161 2 24.388269614299503 17.329937263856003 0 0 0 0
1163 1 26.264290353860503 16.246816184865004 1.4598471617339994 0 0 0
1165 2 28.140311093422497 17.329937263856003 0 0 0 0
1167 1 30.016331832983496 16.246816184865004 1.4598471617339994 0 0 0
1169 2 31.89235257254549 17.329937263856003 0 0 0 0
1171 1 33.76837331210649 16.246816184865004 1.4598471617339994 0 0 0
1173 2 35.6443940516685 17.329937263856003 0 0 0 0
1175 1 37.5204147912295 16.246816184865004 1.4598471617339994 0 0 0
1177 2 39.39643553079149 17.329937263856003 0 0 0 0
1179 1 41.27245627035249 16.246816184865004 1.4598471617339994 0 0 0
1181 2 43.1484770099145 17.329937263856003 0 0 0 0
1183 1 45.0244977494755 16.246816184865004 1.4598471617339994 0 0 0
1185 2 46.900518489037495 17.329937263856003 0 0 0 0
1187 1 48.776539228598494 16.246816184865004 1.4598471617339994 0 0 0
1081 2 50.6525599681605 17.329937263856003 0 -1 0 0
1083 1 52.5285807077215 16.246816184865004 1.4598471617339994 -1 0 0
1085 2 54.404601447283504 17.329937263856003 0 -1 0 0
1087 1 56.280622186844504 16.246816184865004 1.4598471617339994 -1 0 0
1089 2 58.156642926406505 17.329937263856003 0 -1 0 0
1091 1 60.032663665967505 16.246816184865004 1.4598471617339994 -1 0 0
1093 2 61.9086844055295 17.329937263856003 0 -1 0 0
1095 1 63.784705145090506 16.246816184865004 1.4598471617339994 -1 0 0
1097 2 65.6607258846525 17.329937263856003 0 -1 0 0
1099 1 67.5367466242135 16.246816184865004 1.4598471617339994 -1 0 0
1101 2 69.4127673637755 17.329937263856003 0 -1 0 0
1103 1 71.2887881033365 16.246816184865004 1.4598471617339994 -1 0 0
1105 2 73.16480884289851 17.329937263856003 0 -1 0 0
1107 1 75.04082958245951 16.246816184865004 1.4598471617339994 -1 0 0
1109 2 76.9168503220215 17.329937263856003 0 -1 0 0
1111 1 78.7928710615825 16.246816184865004 1.4598471617339994 -1 0 0
1113 2 80.6688918011445 17.329937263856003 0 -1 0 0
1115 1 82.5449125407055 16.246816184865004 1.4598471617339994 -1 0 0
1117 2 84.4209332802675 17.329937263856003 0 -1 0 0
1119 1 86.2969540198285 16.246816184865004 1.4598471617339994 -1 0 0
1121 2 88.17297475939051 17.329937263856003 0 -1 0 0
1123 1 90.04899549895151 16.246816184865004 1.4598471617339994 -1 0 0
1125 2 91.9250162385135 17.329937263856003 0 -1 0 0
1127 1 93.8010369780745 16.246816184865004 1.4598471617339994 -1 0 0
1129 2 95.6770577176365 17.329937263856003 0 -1 0 0
1131 1 97.5530784571975 16.246816184865004 1.4598471617339994 -1 0 0
1133 2 99.4290991967595 17.329937263856003 0 -1 0 0
1135 1 101.3051199363205 16.246816184865004 1.4598471617339994 -1 0 0
1134 2 4.973799150320701e-13 20.579300500829 0 0 0 0
1140 1 1.876020739561497 19.496179421838 1.4598471617339994 0 0 0
1138 2 3.7520414791234984 20.579300500829 0 0 0 0
1144 1 5.628062218684498 19.496179421838 1.4598471617339994 0 0 0
1142 2 7.504082958246499 20.579300500829 0 0 0 0
1148 1 9.380103697807499 19.496179421838 1.4598471617339994 0 0 0
1146 2 11.2561244373695 20.579300500829 0 0 0 0
1152 1 13.1321451769305 19.496179421838 1.4598471617339994 0 0 0
1150 2 15.008165916492501 20.579300500829 0 0 0 0
1156 1 16.8841866560535 19.496179421838 1.4598471617339994 0 0 0
1154 2 18.760207395615495 20.579300500829 0 0 0 0
1160 1 20.636228135176495 19.496179421838 1.4598471617339994 0 0 0
1158 2 22.512248874738503 20.579300500829 0 0 0 0
1164 1 24.388269614299503 19.496179421838 1.4598471617339994 0 0 0
1162 2 26.264290353861497 20.579300500829 0 0 0 0
1168 1 28.140311093422497 19.496179421838 1.4598471617339994 0 0 0
1166 2 30.01633183298449 20.579300500829 0 0 0 0
1172 1 31.89235257254549 19.496179421838 1.4598471617339994 0 0 0
1170 2 33.7683733121075 20.579300500829 0 0 0 0
1176 1 35.6443940516685 19.496179421838 1.4598471617339994 0 0 0
1174 2 37.52041479123049 20.579300500829 0 0 0 0
1180 1 39.39643553079149 19.496179421838 1.4598471617339994 0 0 0
1178 2 41.2724562703535 20.579300500829 0 0 0 0
1184 1 43.1484770099145 19.496179421838 1.4598471617339994 0 0 0
1182 2 45.024497749476495 20.579300500829 0 0 0 0
1188 1 46.900518489037495 19.496179421838 1.4598471617339994 0 0 0
1186 2 48.7765392285995 20.579300500829 0 0 0 0
1084 1 50.6525599681605 19.496179421838 1.4598471617339994 -1 0 0
1082 2 52.528580707722504 20.579300500829 0 -1 0 0
1088 1 54.404601447283504 19.496179421838 1.4598471617339994 -1 0 0
1086 2 56.280622186845505 20.579300500829 0 -1 0 0
1092 1 58.156642926406505 19.496179421838 1.4598471617339994 -1 0 0
1090 2 60.0326636659685 20.579300500829 0 -1 0 0
1096 1 61.9086844055295 19.496179421838 1.4598471617339994 -1 0 0
1094 2 63.7847051450915 20.579300500829 0 -1 0 0
1100 1 65.6607258846525 19.496179421838 1.4598471617339994 -1 0 0
1098 2 67.5367466242145 20.579300500829 0 -1 0 0
1104 1 69.4127673637755 19.496179421838 1.4598471617339994 -1 0 0
1102 2 71.28878810333751 20.579300500829 0 -1 0 0
1108 1 73.16480884289851 19.496179421838 1.4598471617339994 -1 0 0
1106 2 75.0408295824605 20.579300500829 0 -1 0 0
1112 1 76.9168503220215 19.496179421838 1.4598471617339994 -1 0 0
1110 2 78.7928710615835 20.579300500829 0 -1 0 0
1116 1 80.6688918011445 19.496179421838 1.4598471617339994 -1 0 0
1114 2 82.5449125407065 20.579300500829 0 -1 0 0
1120 1 84.4209332802675 19.496179421838 1.4598471617339994 -1 0 0
1118 2 86.29695401982951 20.579300500829 0 -1 0 0
1124 1 88.17297475939051 19.496179421838 1.4598471617339994 -1 0 0
1122 2 90.04899549895251 20.579300500829 0 -1 0 0
1128 1 91.9250162385135 19.496179421838 1.4598471617339994 -1 0 0
1126 2 93.8010369780755 20.579300500829 0 -1 0 0
1132 1 95.6770577176365 19.496179421838 1.4598471617339994 -1 0 0
1130 2 97.5530784571985 20.579300500829 0 -1 0 0
1136 1 99.4290991967595 19.496179421838 1.4598471617339994 -1 0 0
1247 1 3.7520414791224965 22.745542658810997 1.4598471617339994 0 0 0
1251 1 7.5040829582454975 22.745542658810997 1.4598471617339994 0 0 0
1255 1 11.256124437368499 22.745542658810997 1.4598471617339994 0 0 0
1259 1 15.008165916491492 22.745542658810997 1.4598471617339994 0 0 0
1263 1 18.7602073956145 22.745542658810997 1.4598471617339994 0 0 0
1267 1 22.512248874737494 22.745542658810997 1.4598471617339994 0 0 0
1271 1 26.264290353860503 22.745542658810997 1.4598471617339994 0 0 0
1275 1 30.016331832983496 22.745542658810997 1.4598471617339994 0 0 0
1279 1 33.76837331210649 22.745542658810997 1.4598471617339994 0 0 0
1283 1 37.5204147912295 22.745542658810997 1.4598471617339994 0 0 0
1287 1 41.27245627035249 22.745542658810997 1.4598471617339994 0 0 0
1291 1 45.0244977494755 22.745542658810997 1.4598471617339994 0 0 0
1295 1 48.776539228598494 22.745542658810997 1.4598471617339994 0 0 0
1191 1 52.5285807077215 22.745542658810997 1.4598471617339994 -1 0 0
1195 1 56.280622186844504 22.745542658810997 1.4598471617339994 -1 0 0
1199 1 60.032663665967505 22.745542658810997 1.4598471617339994 -1 0 0
1203 1 63.784705145090506 22.745542658810997 1.4598471617339994 -1 0 0
1207 1 67.5367466242135 22.745542658810997 1.4598471617339994 -1 0 0
1211 1 71.2887881033365 22.745542658810997 1.4598471617339994 -1 0 0
1215 1 75.04082958245951 22.745542658810997 1.4598471617339994 -1 0 0
1219 1 78.7928710615825 22.745542658810997 1.4598471617339994 -1 0 0
1223 1 82.5449125407055 22.745542658810997 1.4598471617339994 -1 0 0
1227 1 86.2969540198285 22.745542658810997 1.4598471617339994 -1 0 0
1231 1 90.04899549895151 22.745542658810997 1.4598471617339994 -1 0 0
1235 1 93.8010369780745 22.745542658810997 1.4598471617339994 -1 0 0
1239 1 97.5530784571975 22.745542658810997 1.4598471617339994 -1 0 0
1243 1 101.3051199363205 22.745542658810997 1.4598471617339994 -1 0 0
1245 2 1.876020739561497 23.828663737801996 0 0 0 0
1249 2 5.628062218684498 23.828663737801996 0 0 0 0
1253 2 9.380103697807499 23.828663737801996 0 0 0 0
1257 2 13.1321451769305 23.828663737801996 0 0 0 0
1261 2 16.8841866560535 23.828663737801996 0 0 0 0
1265 2 20.636228135176495 23.828663737801996 0 0 0 0
1269 2 24.388269614299503 23.828663737801996 0 0 0 0
1273 2 28.140311093422497 23.828663737801996 0 0 0 0
1277 2 31.89235257254549 23.828663737801996 0 0 0 0
1281 2 35.6443940516685 23.828663737801996 0 0 0 0
1285 2 39.39643553079149 23.828663737801996 0 0 0 0
1289 2 43.1484770099145 23.828663737801996 0 0 0 0
1293 2 46.900518489037495 23.828663737801996 0 0 0 0
1189 2 50.6525599681605 23.828663737801996 0 -1 0 0
1193 2 54.404601447283504 23.828663737801996 0 -1 0 0
1197 2 58.156642926406505 23.828663737801996 0 -1 0 0
1201 2 61.9086844055295 23.828663737801996 0 -1 0 0
1205 2 65.6607258846525 23.828663737801996 0 -1 0 0
1209 2 69.4127673637755 23.828663737801996 0 -1 0 0
1213 2 73.16480884289851 23.828663737801996 0 -1 0 0
1217 2 76.9168503220215 23.828663737801996 0 -1 0 0
1221 2 80.6688918011445 23.828663737801996 0 -1 0 0
1225 2 84.4209332802675 23.828663737801996 0 -1 0 0
1229 2 88.17297475939051 23.828663737801996 0 -1 0 0
1233 2 91.9250162385135 23.828663737801996 0 -1 0 0
1237 2 95.6770577176365 23.828663737801996 0 -1 0 0
1241 2 99.4290991967595 23.828663737801996 0 -1 0 0
1242 2 4.973799150320701e-13 27.078026974775007 0 0 0 0
1248 1 1.876020739561497 25.994905895784008 1.4598471617339994 0 0 0
1246 2 3.7520414791234984 27.078026974775007 0 0 0 0
1252 1 5.628062218684498 25.994905895784008 1.4598471617339994 0 0 0
1250 2 7.504082958246499 27.078026974775007 0 0 0 0
1256 1 9.380103697807499 25.994905895784008 1.4598471617339994 0 0 0
1254 2 11.2561244373695 27.078026974775007 0 0 0 0
1260 1 13.1321451769305 25.994905895784008 1.4598471617339994 0 0 0
1258 2 15.008165916492501 27.078026974775007 0 0 0 0
1264 1 16.8841866560535 25.994905895784008 1.4598471617339994 0 0 0
1262 2 18.760207395615495 27.078026974775007 0 0 0 0
1268 1 20.636228135176495 25.994905895784008 1.4598471617339994 0 0 0
1266 2 22.512248874738503 27.078026974775007 0 0 0 0
1272 1 24.388269614299503 25.994905895784008 1.4598471617339994 0 0 0
1270 2 26.264290353861497 27.078026974775007 0 0 0 0
1276 1 28.140311093422497 25.994905895784008 1.4598471617339994 0 0 0
1274 2 30.01633183298449 27.078026974775007 0 0 0 0
1280 1 31.89235257254549 25.994905895784008 1.4598471617339994 0 0 0
1278 2 33.7683733121075 27.078026974775007 0 0 0 0
1284 1 35.6443940516685 25.994905895784008 1.4598471617339994 0 0 0
1282 2 37.52041479123049 27.078026974775007 0 0 0 0
1288 1 39.39643553079149 25.994905895784008 1.4598471617339994 0 0 0
1286 2 41.2724562703535 27.078026974775007 0 0 0 0
1292 1 43.1484770099145 25.994905895784008 1.4598471617339994 0 0 0
1290 2 45.024497749476495 27.078026974775007 0 0 0 0
1296 1 46.900518489037495 25.994905895784008 1.4598471617339994 0 0 0
1294 2 48.7765392285995 27.078026974775007 0 0 0 0
1192 1 50.6525599681605 25.994905895784008 1.4598471617339994 -1 0 0
1190 2 52.528580707722504 27.078026974775007 0 -1 0 0
1196 1 54.404601447283504 25.994905895784008 1.4598471617339994 -1 0 0
1194 2 56.280622186845505 27.078026974775007 0 -1 0 0
1200 1 58.156642926406505 25.994905895784008 1.4598471617339994 -1 0 0
1198 2 60.0326636659685 27.078026974775007 0 -1 0 0
1204 1 61.9086844055295 25.994905895784008 1.4598471617339994 -1 0 0
1202 2 63.7847051450915 27.078026974775007 0 -1 0 0
1208 1 65.6607258846525 25.994905895784008 1.4598471617339994 -1 0 0
1206 2 67.5367466242145 27.078026974775007 0 -1 0 0
1212 1 69.4127673637755 25.994905895784008 1.4598471617339994 -1 0 0
1210 2 71.28878810333751 27.078026974775007 0 -1 0 0
1216 1 73.16480884289851 25.994905895784008 1.4598471617339994 -1 0 0
1214 2 75.0408295824605 27.078026974775007 0 -1 0 0
1220 1 76.9168503220215 25.994905895784008 1.4598471617339994 -1 0 0
1218 2 78.7928710615835 27.078026974775007 0 -1 0 0
1224 1 80.6688918011445 25.994905895784008 1.4598471617339994 -1 0 0
1222 2 82.5449125407065 27.078026974775007 0 -1 0 0
1228 1 84.4209332802675 25.994905895784008 1.4598471617339994 -1 0 0
1226 2 86.29695401982951 27.078026974775007 0 -1 0 0
1232 1 88.17297475939051 25.994905895784008 1.4598471617339994 -1 0 0
1230 2 90.04899549895251 27.078026974775007 0 -1 0 0
1236 1 91.9250162385135 25.994905895784008 1.4598471617339994 -1 0 0
1234 2 93.8010369780755 27.078026974775007 0 -1 0 0
1240 1 95.6770577176365 25.994905895784008 1.4598471617339994 -1 0 0
1238 2 97.5530784571985 27.078026974775007 0 -1 0 0
1244 1 99.4290991967595 25.994905895784008 1.4598471617339994 -1 0 0
1353 2 1.876020739561497 30.327390211748003 0 0 0 0
1355 1 3.7520414791224965 29.244269132757005 1.4598471617339994 0 0 0
1357 2 5.628062218684498 30.327390211748003 0 0 0 0
1359 1 7.5040829582454975 29.244269132757005 1.4598471617339994 0 0 0
1361 2 9.380103697807499 30.327390211748003 0 0 0 0
1363 1 11.256124437368499 29.244269132757005 1.4598471617339994 0 0 0
1365 2 13.1321451769305 30.327390211748003 0 0 0 0
1367 1 15.008165916491492 29.244269132757005 1.4598471617339994 0 0 0
1369 2 16.8841866560535 30.327390211748003 0 0 0 0
1371 1 18.7602073956145 29.244269132757005 1.4598471617339994 0 0 0
1373 2 20.636228135176495 30.327390211748003 0 0 0 0
1375 1 22.512248874737494 29.244269132757005 1.4598471617339994 0 0 0
1377 2 24.388269614299503 30.327390211748003 0 0 0 0
1379 1 26.264290353860503 29.244269132757005 1.4598471617339994 0 0 0
1381 2 28.140311093422497 30.327390211748003 0 0 0 0
1383 1 30.016331832983496 29.244269132757005 1.4598471617339994 0 0 0
1385 2 31.89235257254549 30.327390211748003 0 0 0 0
1387 1 33.76837331210649 29.244269132757005 1.4598471617339994 0 0 0
1389 2 35.6443940516685 30.327390211748003 0 0 0 0
1391 1 37.5204147912295 29.244269132757005 1.4598471617339994 0 0 0
1393 2 39.39643553079149 30.327390211748003 0 0 0 0