LAMMPS data file via write_data, version 29 Aug 2024, timestep = 1, units = metal

3240 atoms
4 atom types

0 101.305119936321 xlo xhi
0 97.48089710919 ylo yhi
-50 50 zlo zhi

Masses

1 118.71
2 118.71
3 32.06
4 32.06

Atoms # atomic

810 3 9.594328283308491e-06 1.0831142070358046 -0.001896196552845434 0 0 0
814 3 3.752051073451287 1.0831142070358057 -0.0018961965528467653 0 0 0
923 1 3.750662525803201 3.247895992271808 1.4630382762721645 0 0 0
921 3 1.8760303338893451 4.332477444008804 -0.0018961965528471682 0 0 0
925 3 5.628071813012348 4.332477444008805 -0.0018961965528485746 0 0 0
818 3 7.504092552574288 1.0831142070358057 -0.00189619655284677 0 0 0
822 3 11.25613403169729 1.0831142070358057 -0.0018961965528467722 0 0 0
927 1 7.502704004926202 3.247895992271808 1.4630382762721643 0 0 0
931 1 11.254745484049204 3.247895992271808 1.4630382762721643 0 0 0
929 3 9.380113292135349 4.332477444008805 -0.00189619655284858 0 0 0
826 3 15.008175510820289 1.0831142070358055 -0.0018961965528466807 0 0 0
935 1 15.006786963172202 3.247895992271808 1.4630382762721643 0 0 0
933 3 13.132154771258348 4.332477444008806 -0.0018961965528499533 0 0 0
937 3 16.88419625038135 4.332477444008804 -0.0018961965528469086 0 0 0
830 3 18.760216989943288 1.0831142070358066 -0.001896196552848039 0 0 0
834 3 22.51225846906629 1.0831142070358046 -0.0018961965528453471 0 0 0
939 1 18.758828442295204 3.247895992271807 1.4630382762721656 0 0 0
943 1 22.5108699214182 3.247895992271809 1.463038276272163 0 0 0
941 3 20.636237729504348 4.332477444008805 -0.001896196552849999 0 0 0
838 3 26.264299948189286 1.0831142070358064 -0.0018961965528478699 0 0 0
947 1 26.262911400541206 3.247895992271807 1.4630382762721656 0 0 0
945 3 24.388279208627353 4.332477444008804 -0.0018961965528469962 0 0 0
949 3 28.14032068775035 4.332477444008805 -0.0018961965528496568 0 0 0
842 3 30.016341427312284 1.0831142070358066 -0.001896196552848043 0 0 0
846 3 33.768382906435285 1.0831142070358046 -0.001896196552845351 0 0 0
951 1 30.0149528796642 3.247895992271807 1.4630382762721654 0 0 0
955 1 33.7669943587872 3.247895992271809 1.463038276272163 0 0 0
953 3 31.892362166873344 4.332477444008805 -0.0018961965528500023 0 0 0
957 3 35.64440364599635 4.332477444008804 -0.0018961965528469984 0 0 0
850 3 37.520424385558286 1.0831142070358066 -0.0018961965528480427 0 0 0
854 3 41.27246586468129 1.0831142070358046 -0.001896196552845349 0 0 0
959 1 37.5190358379102 3.247895992271807 1.4630382762721656 0 0 0
963 1 41.2710773170332 3.247895992271809 1.463038276272163 0 0 0
961 3 39.39644512511934 4.332477444008805 -0.001896196552850001 0 0 0
858 3 45.02450734380429 1.0831142070358066 -0.0018961965528480425 0 0 0
967 1 45.023118796156204 3.247895992271807 1.4630382762721656 0 0 0
965 3 43.14848660424235 4.332477444008804 -0.0018961965528469962 0 0 0
969 3 46.900528083365344 4.332477444008805 -0.001896196552850003 0 0 0
862 3 48.77654882292729 1.0831142070358046 -0.0018961965528454358 0 0 0
758 3 52.52859030205029 1.0831142070358057 -0.0018961965528467666 -1 0 0
971 1 48.775160275279205 3.247895992271809 1.463038276272163 0 0 0
867 1 52.527201754402206 3.247895992271808 1.4630382762721645 -1 0 0
865 3 50.65256956248835 4.332477444008804 -0.0018961965528471684 -1 0 0
762 3 56.28063178117329 1.0831142070358055 -0.0018961965528466816 -1 0 0
871 1 56.27924323352521 3.247895992271808 1.4630382762721643 -1 0 0
869 3 54.40461104161135 4.332477444008805 -0.001896196552848572 -1 0 0
873 3 58.156652520734355 4.332477444008805 -0.001896196552848402 -1 0 0
766 3 60.03267326029629 1.0831142070358064 -0.0018961965528479562 -1 0 0
770 3 63.78471473941929 1.0831142070358046 -0.0018961965528453437 -1 0 0
875 1 60.03128471264821 3.247895992271807 1.4630382762721656 -1 0 0
879 1 63.78332619177121 3.247895992271809 1.463038276272163 -1 0 0
877 3 61.908693999857356 4.332477444008805 -0.001896196552848449 -1 0 0
774 3 67.5367562185423 1.0831142070358066 -0.0018961965528481305 -1 0 0
778 3 71.2887976976653 1.0831142070358046 -0.0018961965528453474 -1 0 0
883 1 67.5353676708942 3.247895992271807 1.4630382762721656 -1 0 0
887 1 71.28740915001721 3.247895992271809 1.463038276272163 -1 0 0
881 3 65.66073547898036 4.332477444008805 -0.0018961965528485768 -1 0 0
885 3 69.41277695810335 4.332477444008805 -0.001896196552850002 -1 0 0
782 3 75.0408391767883 1.0831142070358064 -0.0018961965528478703 -1 0 0
891 1 75.0394506291402 3.247895992271807 1.4630382762721656 -1 0 0
889 3 73.16481843722636 4.332477444008804 -0.0018961965528469938 -1 0 0
893 3 76.91685991634935 4.332477444008805 -0.0018961965528496586 -1 0 0
786 3 78.79288065591129 1.0831142070358066 -0.001896196552848045 -1 0 0
790 3 82.5449221350343 1.0831142070358046 -0.001896196552845523 -1 0 0
895 1 78.7914921082632 3.247895992271807 1.4630382762721654 -1 0 0
899 1 82.54353358738621 3.247895992271809 1.463038276272163 -1 0 0
897 3 80.66890139547235 4.332477444008805 -0.0018961965528500042 -1 0 0
794 3 86.2969636141573 1.0831142070358046 -0.0018961965528453465 -1 0 0
903 1 86.29557506650922 3.247895992271809 1.4630382762721632 -1 0 0
901 3 84.42094287459535 4.332477444008804 -0.0018961965528473403 -1 0 0
905 3 88.17298435371836 4.332477444008804 -0.0018961965528469938 -1 0 0
798 3 90.0490050932803 1.0831142070358064 -0.001896196552847867 -1 0 0
802 3 93.8010465724033 1.0831142070358064 -0.0018961965528478722 -1 0 0
907 1 90.04761654563221 3.247895992271807 1.4630382762721656 -1 0 0
911 1 93.7996580247552 3.247895992271807 1.4630382762721654 -1 0 0
909 3 91.92502583284136 4.332477444008805 -0.0018961965528496547 -1 0 0
806 3 97.55308805152629 1.0831142070358066 -0.001896196552848046 -1 0 0
915 1 97.5516995038782 3.247895992271807 1.4630382762721656 -1 0 0
919 1 101.3037409830012 3.247895992271809 1.463038276272163 -1 0 0
913 3 95.67706731196435 4.332477444008805 -0.0018961965528496616 -1 0 0
917 3 99.42910879108734 4.332477444008805 -0.0018961965528500018 -1 0 0
918 3 9.594328283308483e-06 7.581840680981805 -0.0018961965528454332 0 0 0
924 1 1.87464178624214 6.497259229244806 1.463038276272164 0 0 0
922 3 3.752051073451287 7.581840680981806 -0.0018961965528467646 0 0 0
928 1 5.626683265365141 6.497259229244806 1.4630382762721639 0 0 0
1029 3 1.8760303338893451 10.831203917954804 -0.0018961965528471684 0 0 0
1031 1 3.750662525803201 9.746622466217808 1.4630382762721645 0 0 0
1033 3 5.628071813012348 10.831203917954804 -0.0018961965528485744 0 0 0
926 3 7.504092552574288 7.581840680981806 -0.00189619655284677 0 0 0
932 1 9.378724744488142 6.497259229244806 1.463038276272164 0 0 0
930 3 11.25613403169729 7.581840680981806 -0.0018961965528467722 0 0 0
1035 1 7.502704004926202 9.746622466217808 1.4630382762721643 0 0 0
1037 3 9.380113292135349 10.831203917954804 -0.00189619655284858 0 0 0
1039 1 11.254745484049204 9.746622466217808 1.4630382762721643 0 0 0
936 1 13.130766223611143 6.497259229244806 1.4630382762721639 0 0 0
934 3 15.008175510820289 7.581840680981806 -0.0018961965528466796 0 0 0
940 1 16.88280770273414 6.497259229244805 1.4630382762721652 0 0 0
1041 3 13.132154771258348 10.831203917954806 -0.0018961965528499533 0 0 0
1043 1 15.006786963172202 9.746622466217808 1.4630382762721643 0 0 0
1045 3 16.88419625038135 10.831203917954804 -0.0018961965528469084 0 0 0
938 3 18.760216989943288 7.581840680981807 -0.0018961965528480392 0 0 0
944 1 20.634849181857142 6.497259229244807 1.4630382762721623 0 0 0
942 3 22.51225846906629 7.581840680981805 -0.0018961965528453476 0 0 0
1047 1 18.758828442295204 9.746622466217808 1.4630382762721656 0 0 0
1049 3 20.636237729504348 10.831203917954806 -0.0018961965528499984 0 0 0
1051 1 22.5108699214182 9.74662246621781 1.463038276272163 0 0 0
948 1 24.386890660980143 6.497259229244805 1.4630382762721654 0 0 0
946 3 26.264299948189286 7.581840680981807 -0.0018961965528478694 0 0 0
952 1 28.138932140103137 6.497259229244805 1.463038276272165 0 0 0
1053 3 24.388279208627353 10.831203917954804 -0.0018961965528469973 0 0 0
1055 1 26.262911400541206 9.746622466217808 1.4630382762721656 0 0 0
1057 3 28.14032068775035 10.831203917954806 -0.0018961965528496566 0 0 0
950 3 30.016341427312284 7.581840680981807 -0.0018961965528480416 0 0 0
956 1 31.890973619226138 6.497259229244807 1.4630382762721623 0 0 0
954 3 33.768382906435285 7.581840680981805 -0.0018961965528453504 0 0 0
960 1 35.64301509834914 6.497259229244805 1.4630382762721654 0 0 0
1059 1 30.0149528796642 9.746622466217808 1.4630382762721654 0 0 0
1061 3 31.892362166873344 10.831203917954806 -0.0018961965528500023 0 0 0
1063 1 33.7669943587872 9.74662246621781 1.463038276272163 0 0 0
1065 3 35.64440364599635 10.831203917954804 -0.001896196552846998 0 0 0
958 3 37.520424385558286 7.581840680981807 -0.0018961965528480416 0 0 0
964 1 39.39505657747214 6.497259229244807 1.4630382762721623 0 0 0
962 3 41.27246586468129 7.581840680981805 -0.0018961965528453487 0 0 0
1067 1 37.5190358379102 9.746622466217808 1.4630382762721656 0 0 0
1069 3 39.39644512511934 10.831203917954806 -0.0018961965528500008 0 0 0
1071 1 41.2710773170332 9.74662246621781 1.463038276272163 0 0 0
968 1 43.14709805659514 6.497259229244805 1.4630382762721652 0 0 0
966 3 45.02450734380429 7.581840680981807 -0.0018961965528480418 0 0 0
972 1 46.89913953571814 6.497259229244807 1.4630382762721623 0 0 0
1073 3 43.14848660424235 10.831203917954804 -0.0018961965528469973 0 0 0
1075 1 45.023118796156204 9.746622466217808 1.4630382762721656 0 0 0
1077 3 46.900528083365344 10.831203917954806 -0.0018961965528500027 0 0 0
970 3 48.77654882292729 7.581840680981805 -0.0018961965528454358 0 0 0
868 1 50.65118101484114 6.497259229244806 1.463038276272164 -1 0 0
866 3 52.52859030205029 7.581840680981806 -0.001896196552846767 -1 0 0
1079 1 48.775160275279205 9.74662246621781 1.463038276272163 0 0 0
973 3 50.65256956248835 10.831203917954804 -0.001896196552847168 -1 0 0
975 1 52.527201754402206 9.746622466217808 1.4630382762721645 -1 0 0
872 1 54.403222493964144 6.497259229244806 1.4630382762721639 -1 0 0
870 3 56.28063178117329 7.581840680981806 -0.0018961965528466816 -1 0 0
876 1 58.155263973087145 6.497259229244805 1.4630382762721652 -1 0 0
977 3 54.40461104161135 10.831203917954804 -0.001896196552848572 -1 0 0
979 1 56.27924323352521 9.746622466217808 1.4630382762721643 -1 0 0
981 3 58.156652520734355 10.831203917954804 -0.0018961965528484016 -1 0 0
874 3 60.03267326029629 7.581840680981807 -0.001896196552847955 -1 0 0
880 1 61.90730545221014 6.497259229244806 1.4630382762721639 -1 0 0
878 3 63.78471473941929 7.581840680981805 -0.0018961965528453432 -1 0 0
983 1 60.03128471264821 9.746622466217808 1.4630382762721656 -1 0 0
985 3 61.908693999857356 10.831203917954804 -0.001896196552848449 -1 0 0
987 1 63.78332619177121 9.74662246621781 1.463038276272163 -1 0 0
884 1 65.65934693133315 6.497259229244806 1.4630382762721639 -1 0 0
882 3 67.5367562185423 7.581840680981807 -0.0018961965528481307 -1 0 0
888 1 69.41138841045614 6.497259229244807 1.4630382762721623 -1 0 0
886 3 71.2887976976653 7.581840680981805 -0.0018961965528453478 -1 0 0
989 3 65.66073547898036 10.831203917954804 -0.0018961965528485776 -1 0 0
991 1 67.5353676708942 9.746622466217808 1.4630382762721656 -1 0 0
993 3 69.41277695810335 10.831203917954806 -0.0018961965528500018 -1 0 0
995 1 71.28740915001721 9.74662246621781 1.463038276272163 -1 0 0
892 1 73.16342988957915 6.497259229244805 1.4630382762721652 -1 0 0
890 3 75.0408391767883 7.581840680981807 -0.0018961965528478696 -1 0 0
896 1 76.91547136870214 6.497259229244805 1.463038276272165 -1 0 0
997 3 73.16481843722636 10.831203917954804 -0.001896196552846995 -1 0 0
999 1 75.0394506291402 9.746622466217808 1.4630382762721656 -1 0 0
1001 3 76.91685991634935 10.831203917954806 -0.0018961965528496586 -1 0 0
894 3 78.79288065591129 7.581840680981807 -0.0018961965528480453 -1 0 0
900 1 80.66751284782514 6.497259229244807 1.4630382762721623 -1 0 0
898 3 82.5449221350343 7.581840680981805 -0.0018961965528455228 -1 0 0
1003 1 78.7914921082632 9.746622466217808 1.4630382762721654 -1 0 0
1005 3 80.66890139547235 10.831203917954806 -0.001896196552850004 -1 0 0
1007 1 82.54353358738621 9.74662246621781 1.463038276272163 -1 0 0
904 1 84.41955432694814 6.497259229244807 1.4630382762721628 -1 0 0
902 3 86.2969636141573 7.581840680981805 -0.0018961965528453476 -1 0 0
908 1 88.17159580607115 6.497259229244805 1.4630382762721652 -1 0 0
1009 3 84.42094287459535 10.831203917954804 -0.0018961965528473414 -1 0 0
1011 1 86.29557506650922 9.74662246621781 1.4630382762721632 -1 0 0
1013 3 88.17298435371836 10.831203917954804 -0.0018961965528469938 -1 0 0
906 3 90.0490050932803 7.581840680981807 -0.0018961965528478666 -1 0 0
912 1 91.92363728519415 6.497259229244805 1.463038276272165 -1 0 0
910 3 93.8010465724033 7.581840680981807 -0.0018961965528478718 -1 0 0
1015 1 90.04761654563221 9.746622466217808 1.4630382762721656 -1 0 0
1017 3 91.92502583284136 10.831203917954806 -0.0018961965528496547 -1 0 0
1019 1 93.7996580247552 9.746622466217808 1.4630382762721654 -1 0 0
916 1 95.67567876431714 6.497259229244805 1.4630382762721652 -1 0 0
914 3 97.55308805152629 7.581840680981807 -0.0018961965528480449 -1 0 0
920 1 99.42772024344013 6.497259229244807 1.4630382762721623 -1 0 0
1021 3 95.67706731196435 10.831203917954806 -0.0018961965528496616 -1 0 0
1023 1 97.5516995038782 9.746622466217808 1.4630382762721656 -1 0 0
1025 3 99.42910879108734 10.831203917954806 -0.0018961965528500018 -1 0 0
1027 1 101.3037409830012 9.74662246621781 1.463038276272163 -1 0 0
1032 1 1.87464178624214 12.995985703190806 1.463038276272164 0 0 0
1036 1 5.626683265365141 12.995985703190806 1.4630382762721639 0 0 0
1026 3 9.594328283308483e-06 14.080567154927806 -0.001896196552845433 0 0 0
1030 3 3.752051073451287 14.080567154927806 -0.0018961965528467648 0 0 0
1139 1 3.750662525803201 16.245348940163808 1.4630382762721645 0 0 0
1040 1 9.378724744488142 12.995985703190806 1.463038276272164 0 0 0
1034 3 7.504092552574288 14.080567154927806 -0.00189619655284677 0 0 0
1038 3 11.25613403169729 14.080567154927806 -0.0018961965528467718 0 0 0
1143 1 7.502704004926202 16.245348940163808 1.4630382762721643 0 0 0
1147 1 11.254745484049204 16.245348940163808 1.4630382762721643 0 0 0
1044 1 13.130766223611143 12.995985703190806 1.4630382762721639 0 0 0
1048 1 16.88280770273414 12.995985703190806 1.4630382762721652 0 0 0
1042 3 15.008175510820289 14.080567154927806 -0.0018961965528466792 0 0 0
1151 1 15.006786963172202 16.245348940163808 1.4630382762721643 0 0 0
1052 1 20.634849181857142 12.995985703190808 1.4630382762721623 0 0 0
1046 3 18.760216989943288 14.080567154927808 -0.0018961965528480396 0 0 0
1050 3 22.51225846906629 14.080567154927804 -0.0018961965528453467 0 0 0
1155 1 18.758828442295204 16.245348940163808 1.4630382762721656 0 0 0
1159 1 22.5108699214182 16.245348940163808 1.463038276272163 0 0 0
1056 1 24.386890660980143 12.995985703190806 1.4630382762721654 0 0 0
1060 1 28.138932140103137 12.995985703190806 1.463038276272165 0 0 0
1054 3 26.264299948189286 14.080567154927808 -0.001896196552847869 0 0 0
1163 1 26.262911400541206 16.245348940163808 1.4630382762721656 0 0 0
1064 1 31.890973619226138 12.995985703190808 1.4630382762721623 0 0 0
1068 1 35.64301509834914 12.995985703190806 1.4630382762721654 0 0 0
1058 3 30.016341427312284 14.080567154927808 -0.0018961965528480414 0 0 0
1062 3 33.768382906435285 14.080567154927804 -0.001896196552845349 0 0 0
1167 1 30.0149528796642 16.245348940163808 1.4630382762721654 0 0 0
1171 1 33.7669943587872 16.245348940163808 1.463038276272163 0 0 0
1072 1 39.39505657747214 12.995985703190808 1.4630382762721623 0 0 0
1066 3 37.520424385558286 14.080567154927808 -0.0018961965528480423 0 0 0
1070 3 41.27246586468129 14.080567154927804 -0.001896196552845349 0 0 0
1175 1 37.5190358379102 16.245348940163808 1.4630382762721656 0 0 0
1179 1 41.2710773170332 16.245348940163808 1.463038276272163 0 0 0
1076 1 43.14709805659514 12.995985703190806 1.4630382762721652 0 0 0
1080 1 46.89913953571814 12.995985703190808 1.4630382762721623 0 0 0
1074 3 45.02450734380429 14.080567154927808 -0.0018961965528480412 0 0 0
1183 1 45.023118796156204 16.245348940163808 1.4630382762721656 0 0 0
976 1 50.65118101484114 12.995985703190806 1.463038276272164 -1 0 0
1078 3 48.77654882292729 14.080567154927806 -0.0018961965528454363 0 0 0
974 3 52.52859030205029 14.080567154927806 -0.0018961965528467655 -1 0 0
1187 1 48.775160275279205 16.245348940163808 1.463038276272163 0 0 0
1083 1 52.527201754402206 16.245348940163808 1.4630382762721645 -1 0 0
980 1 54.403222493964144 12.995985703190806 1.4630382762721639 -1 0 0
984 1 58.155263973087145 12.995985703190806 1.4630382762721652 -1 0 0
978 3 56.28063178117329 14.080567154927806 -0.0018961965528466816 -1 0 0
1087 1 56.27924323352521 16.245348940163808 1.4630382762721643 -1 0 0
988 1 61.90730545221014 12.995985703190806 1.4630382762721639 -1 0 0
982 3 60.03267326029629 14.080567154927808 -0.0018961965528479549 -1 0 0
986 3 63.78471473941929 14.080567154927804 -0.0018961965528453422 -1 0 0
1091 1 60.03128471264821 16.245348940163808 1.4630382762721656 -1 0 0
1095 1 63.78332619177121 16.245348940163808 1.463038276272163 -1 0 0
992 1 65.65934693133315 12.995985703190806 1.4630382762721639 -1 0 0
996 1 69.41138841045614 12.995985703190808 1.4630382762721623 -1 0 0
990 3 67.5367562185423 14.080567154927808 -0.0018961965528481307 -1 0 0
994 3 71.2887976976653 14.080567154927804 -0.0018961965528453467 -1 0 0
1099 1 67.5353676708942 16.245348940163808 1.4630382762721656 -1 0 0
1103 1 71.28740915001721 16.245348940163808 1.463038276272163 -1 0 0
1000 1 73.16342988957915 12.995985703190806 1.4630382762721652 -1 0 0
1004 1 76.91547136870214 12.995985703190806 1.463038276272165 -1 0 0
998 3 75.0408391767883 14.080567154927808 -0.0018961965528478699 -1 0 0
1107 1 75.0394506291402 16.245348940163808 1.4630382762721656 -1 0 0
1008 1 80.66751284782514 12.995985703190808 1.4630382762721623 -1 0 0
1002 3 78.79288065591129 14.080567154927808 -0.0018961965528480442 -1 0 0
1006 3 82.5449221350343 14.080567154927806 -0.0018961965528455217 -1 0 0
1111 1 78.7914921082632 16.245348940163808 1.4630382762721654 -1 0 0
1115 1 82.54353358738621 16.245348940163808 1.463038276272163 -1 0 0
1012 1 84.41955432694814 12.995985703190808 1.4630382762721628 -1 0 0
1016 1 88.17159580607115 12.995985703190806 1.4630382762721652 -1 0 0
1010 3 86.2969636141573 14.080567154927804 -0.0018961965528453463 -1 0 0
1119 1 86.29557506650922 16.245348940163808 1.4630382762721632 -1 0 0
1020 1 91.92363728519415 12.995985703190806 1.463038276272165 -1 0 0
1014 3 90.0490050932803 14.080567154927808 -0.0018961965528478662 -1 0 0
1018 3 93.8010465724033 14.080567154927808 -0.0018961965528478722 -1 0 0
1123 1 90.04761654563221 16.245348940163808 1.4630382762721656 -1 0 0
1127 1 93.7996580247552 16.245348940163808 1.4630382762721654 -1 0 0
1024 1 95.67567876431714 12.995985703190806 1.4630382762721652 -1 0 0
1028 1 99.42772024344013 12.995985703190808 1.4630382762721623 -1 0 0
1022 3 97.55308805152629 14.080567154927808 -0.001896196552848045 -1 0 0
1131 1 97.5516995038782 16.245348940163808 1.4630382762721656 -1 0 0
1135 1 101.3037409830012 16.245348940163808 1.463038276272163 -1 0 0
1137 3 1.8760303338893451 17.329930391900803 -0.0018961965528469615 0 0 0
1141 3 5.628071813012348 17.329930391900806 -0.0018961965528483677 0 0 0
1134 3 9.594328283341929e-06 20.5792936288738 -0.0018961965528470428 0 0 0
1140 1 1.8746417862421398 19.494712177136805 1.4630382762721656 0 0 0
1138 3 3.752051073451287 20.579293628873803 -0.0018961965528483608 0 0 0
1144 1 5.626683265365141 19.494712177136805 1.4630382762721654 0 0 0
1247 1 3.750662525803201 22.7440754141098 1.4630382762721645 0 0 0
1145 3 9.380113292135349 17.329930391900806 -0.0018961965528483736 0 0 0
1142 3 7.504092552574288 20.579293628873803 -0.0018961965528483645 0 0 0
1148 1 9.378724744488142 19.494712177136805 1.4630382762721656 0 0 0
1146 3 11.25613403169729 20.579293628873803 -0.0018961965528483656 0 0 0
1251 1 7.502704004926202 22.7440754141098 1.4630382762721643 0 0 0
1255 1 11.254745484049204 22.7440754141098 1.4630382762721643 0 0 0
1149 3 13.132154771258348 17.329930391900806 -0.0018961965528497464 0 0 0
1153 3 16.88419625038135 17.329930391900803 -0.0018961965528467024 0 0 0
1152 1 13.130766223611143 19.494712177136805 1.4630382762721654 0 0 0
1150 3 15.008175510820289 20.579293628873803 -0.0018961965528482725 0 0 0
1156 1 16.88280770273414 19.494712177136805 1.4630382762721668 0 0 0
1259 1 15.006786963172202 22.7440754141098 1.4630382762721643 0 0 0
1157 3 20.636237729504348 17.329930391900806 -0.001896196552849793 0 0 0
1154 3 18.760216989943288 20.579293628873803 -0.0018961965528496133 0 0 0
1160 1 20.634849181857142 19.494712177136805 1.4630382762721639 0 0 0
1158 3 22.51225846906629 20.5792936288738 -0.001896196552846955 0 0 0
1263 1 18.758828442295204 22.7440754141098 1.4630382762721656 0 0 0
1267 1 22.5108699214182 22.744075414109805 1.463038276272163 0 0 0
1161 3 24.388279208627353 17.329930391900803 -0.0018961965528467904 0 0 0
1165 3 28.14032068775035 17.329930391900806 -0.001896196552849451 0 0 0
1164 1 24.386890660980143 19.494712177136805 1.4630382762721668 0 0 0
1162 3 26.264299948189286 20.579293628873803 -0.001896196552849445 0 0 0
1168 1 28.138932140103137 19.494712177136805 1.4630382762721665 0 0 0
1271 1 26.262911400541206 22.7440754141098 1.4630382762721656 0 0 0
1169 3 31.892362166873344 17.329930391900806 -0.0018961965528497954 0 0 0
1173 3 35.64440364599635 17.329930391900803 -0.0018961965528467915 0 0 0
1166 3 30.016341427312284 20.579293628873803 -0.0018961965528496172 0 0 0
1172 1 31.890973619226138 19.494712177136805 1.4630382762721639 0 0 0
1170 3 33.768382906435285 20.5792936288738 -0.0018961965528469572 0 0 0
1176 1 35.64301509834914 19.494712177136805 1.463038276272167 0 0 0
1275 1 30.0149528796642 22.7440754141098 1.4630382762721654 0 0 0
1279 1 33.7669943587872 22.744075414109805 1.463038276272163 0 0 0
1177 3 39.39644512511934 17.329930391900806 -0.0018961965528497945 0 0 0
1174 3 37.520424385558286 20.579293628873803 -0.0018961965528496176 0 0 0
1180 1 39.39505657747214 19.494712177136805 1.4630382762721639 0 0 0
1178 3 41.27246586468129 20.5792936288738 -0.0018961965528469572 0 0 0
1283 1 37.5190358379102 22.7440754141098 1.4630382762721656 0 0 0
1287 1 41.2710773170332 22.744075414109805 1.463038276272163 0 0 0
1181 3 43.14848660424235 17.329930391900803 -0.0018961965528467902 0 0 0
1185 3 46.900528083365344 17.329930391900806 -0.0018961965528497967 0 0 0
1184 1 43.14709805659514 19.494712177136805 1.4630382762721668 0 0 0
1182 3 45.02450734380429 20.579293628873803 -0.0018961965528496172 0 0 0
1188 1 46.89913953571814 19.494712177136805 1.4630382762721639 0 0 0
1291 1 45.023118796156204 22.7440754141098 1.4630382762721656 0 0 0
1081 3 50.65256956248835 17.329930391900803 -0.0018961965528469617 -1 0 0
1186 3 48.77654882292729 20.5792936288738 -0.0018961965528470446 0 0 0
1084 1 50.65118101484114 19.494712177136805 1.4630382762721656 -1 0 0
1082 3 52.52859030205029 20.579293628873803 -0.0018961965528483593 -1 0 0
1295 1 48.775160275279205 22.744075414109805 1.463038276272163 0 0 0
1191 1 52.527201754402206 22.7440754141098 1.4630382762721645 -1 0 0
1085 3 54.40461104161135 17.329930391900806 -0.0018961965528483656 -1 0 0
1089 3 58.156652520734355 17.329930391900806 -0.0018961965528481943 -1 0 0
1088 1 54.403222493964144 19.494712177136805 1.4630382762721654 -1 0 0
1086 3 56.28063178117329 20.579293628873803 -0.0018961965528482754 -1 0 0
1092 1 58.155263973087145 19.494712177136805 1.4630382762721668 -1 0 0
1195 1 56.27924323352521 22.7440754141098 1.4630382762721643 -1 0 0
1093 3 61.908693999857356 17.329930391900806 -0.0018961965528482415 -1 0 0
1090 3 60.03267326029629 20.579293628873803 -0.0018961965528495304 -1 0 0
1096 1 61.90730545221014 19.494712177136805 1.4630382762721654 -1 0 0
1094 3 63.78471473941929 20.5792936288738 -0.001896196552846983 -1 0 0
1199 1 60.03128471264821 22.7440754141098 1.4630382762721656 -1 0 0
1203 1 63.78332619177121 22.7440754141098 1.463038276272163 -1 0 0
1097 3 65.66073547898036 17.329930391900806 -0.001896196552848371 -1 0 0
1101 3 69.41277695810335 17.329930391900806 -0.0018961965528497958 -1 0 0
1100 1 65.65934693133315 19.494712177136805 1.4630382762721654 -1 0 0
1098 3 67.5367562185423 20.579293628873803 -0.0018961965528497054 -1 0 0
1104 1 69.41138841045614 19.494712177136805 1.4630382762721639 -1 0 0
1102 3 71.2887976976653 20.5792936288738 -0.0018961965528469552 -1 0 0
1207 1 67.5353676708942 22.7440754141098 1.4630382762721656 -1 0 0
1211 1 71.28740915001721 22.744075414109805 1.463038276272163 -1 0 0
1105 3 73.16481843722636 17.329930391900803 -0.0018961965528467878 -1 0 0
1109 3 76.91685991634935 17.329930391900806 -0.0018961965528494528 -1 0 0
1108 1 73.16342988957915 19.494712177136805 1.4630382762721668 -1 0 0
1106 3 75.0408391767883 20.579293628873803 -0.0018961965528494435 -1 0 0
1112 1 76.91547136870214 19.494712177136805 1.4630382762721665 -1 0 0
1215 1 75.0394506291402 22.7440754141098 1.4630382762721656 -1 0 0
1113 3 80.66890139547235 17.329930391900806 -0.0018961965528497974 -1 0 0
1110 3 78.79288065591129 20.579293628873803 -0.0018961965528496198 -1 0 0
1116 1 80.66751284782514 19.494712177136805 1.4630382762721639 -1 0 0
1114 3 82.5449221350343 20.5792936288738 -0.0018961965528471302 -1 0 0
1219 1 78.7914921082632 22.7440754141098 1.4630382762721654 -1 0 0
1223 1 82.54353358738621 22.744075414109805 1.463038276272163 -1 0 0
1117 3 84.42094287459535 17.329930391900803 -0.0018961965528471341 -1 0 0
1121 3 88.17298435371836 17.329930391900803 -0.0018961965528467865 -1 0 0
1120 1 84.41955432694814 19.494712177136805 1.463038276272164 -1 0 0
1118 3 86.2969636141573 20.5792936288738 -0.001896196552846955 -1 0 0
1124 1 88.17159580607115 19.494712177136805 1.4630382762721668 -1 0 0
1227 1 86.29557506650922 22.7440754141098 1.4630382762721632 -1 0 0
1125 3 91.92502583284136 17.329930391900806 -0.0018961965528494485 -1 0 0
1122 3 90.0490050932803 20.579293628873803 -0.0018961965528494413 -1 0 0
1128 1 91.92363728519415 19.494712177136805 1.4630382762721665 -1 0 0
1126 3 93.8010465724033 20.579293628873803 -0.0018961965528494465 -1 0 0
1231 1 90.04761654563221 22.7440754141098 1.4630382762721656 -1 0 0
1235 1 93.7996580247552 22.7440754141098 1.4630382762721654 -1 0 0
1129 3 95.67706731196435 17.329930391900806 -0.0018961965528494558 -1 0 0
1133 3 99.42910879108734 17.329930391900806 -0.0018961965528497958 -1 0 0
1132 1 95.67567876431714 19.494712177136805 1.4630382762721665 -1 0 0
1130 3 97.55308805152629 20.579293628873803 -0.0018961965528496204 -1 0 0
1136 1 99.42772024344013 19.494712177136805 1.4630382762721639 -1 0 0
1239 1 97.5516995038782 22.7440754141098 1.4630382762721656 -1 0 0
1243 1 101.3037409830012 22.744075414109805 1.463038276272163 -1 0 0
1245 3 1.8760303338893451 23.828656865846803 -0.0018961965528439973 0 0 0
1249 3 5.628071813012348 23.828656865846803 -0.0018961965528454022 0 0 0
1242 3 9.594328283341978e-06 27.078020102819806 -0.0018961965528472406 0 0 0
1248 1 1.8746417862421398 25.993438651082805 1.4630382762721628 0 0 0
1246 3 3.752051073451287 27.07802010281981 -0.001896196552848558 0 0 0
1252 1 5.626683265365141 25.993438651082805 1.4630382762721625 0 0 0
1253 3 9.380113292135349 23.828656865846803 -0.0018961965528454085 0 0 0
1250 3 7.504092552574288 27.07802010281981 -0.0018961965528485629 0 0 0
1256 1 9.378724744488142 25.993438651082805 1.4630382762721625 0 0 0
1254 3 11.25613403169729 27.07802010281981 -0.0018961965528485622 0 0 0
1257 3 13.132154771258348 23.828656865846803 -0.001896196552846784 0 0 0
1261 3 16.88419625038135 23.828656865846803 -0.0018961965528437369 0 0 0
1260 1 13.130766223611143 25.993438651082805 1.4630382762721625 0 0 0
1258 3 15.008175510820289 27.07802010281981 -0.001896196552848472 0 0 0
1264 1 16.88280770273414 25.993438651082805 1.4630382762721639 0 0 0
1265 3 20.636237729504348 23.828656865846803 -0.001896196552846828 0 0 0
1262 3 18.760216989943288 27.07802010281981 -0.0018961965528498112 0 0 0
1268 1 20.634849181857142 25.99343865108281 1.463038276272161 0 0 0
1266 3 22.51225846906629 27.078020102819806 -0.0018961965528471526 0 0 0
1269 3 24.388279208627353 23.828656865846803 -0.0018961965528438254 0 0 0
1273 3 28.14032068775035 23.828656865846803 -0.0018961965528464856 0 0 0
1272 1 24.386890660980143 25.993438651082805 1.4630382762721639 0 0 0
1270 3 26.264299948189286 27.07802010281981 -0.0018961965528496423 0 0 0
1276 1 28.138932140103137 25.993438651082805 1.4630382762721637 0 0 0
1277 3 31.892362166873344 23.828656865846803 -0.001896196552846831 0 0 0
1281 3 35.64440364599635 23.828656865846803 -0.0018961965528438267 0 0 0
1274 3 30.016341427312284 27.07802010281981 -0.001896196552849815 0 0 0
1280 1 31.890973619226138 25.99343865108281 1.463038276272161 0 0 0
1278 3 33.768382906435285 27.078020102819806 -0.0018961965528471556 0 0 0
1284 1 35.64301509834914 25.993438651082805 1.4630382762721639 0 0 0
1285 3 39.39644512511934 23.828656865846803 -0.0018961965528468303 0 0 0
1282 3 37.520424385558286 27.07802010281981 -0.0018961965528498138 0 0 0
1288 1 39.39505657747214 25.99343865108281 1.463038276272161 0 0 0
1286 3 41.27246586468129 27.078020102819806 -0.0018961965528471543 0 0 0
1289 3 43.14848660424235 23.828656865846803 -0.001896196552843826 0 0 0
1293 3 46.900528083365344 23.828656865846803 -0.0018961965528468316 0 0 0
1292 1 43.14709805659514 25.993438651082805 1.4630382762721639 0 0 0
1290 3 45.02450734380429 27.07802010281981 -0.0018961965528498147 0 0 0
1296 1 46.89913953571814 25.99343865108281 1.463038276272161 0 0 0
1189 3 50.65256956248835 23.828656865846803 -0.001896196552843998 -1 0 0
1294 3 48.77654882292729 27.078020102819806 -0.001896196552847241 0 0 0
1192 1 50.65118101484114 25.993438651082805 1.4630382762721625 -1 0 0
1190 3 52.52859030205029 27.07802010281981 -0.0018961965528485577 -1 0 0