LAMMPS data file via write_data, version 29 Aug 2024, timestep = 2, units = metal

7776 atoms
9 atom types

0 99.421338694851 xlo xhi
0 102.046109615392 ylo yhi
-50 50 zlo zhi

Masses

1 91.224
2 91.224
3 91.224
4 32.06
5 32.06
6 32.06
7 32.06
8 32.06
9 32.06

Atoms # atomic

1383 5 1.8411251754015783 2.1259585696396006 -0.012259085159352793 0 0 0
1386 1 3.681696505890664 3.188348702353206 1.444255977638952 0 0 0
1389 5 5.523396978914579 2.1259585696396 -0.012259085159353192 0 0 0
1384 5 3.6822610771579782 5.314899495120599 -0.012259085159354192 0 0 0
1381 4 3.6803737510867975 1.0610175416575787 2.900060417946293 0 0 0
1382 4 1.83923784933046 4.249958467138578 2.90006041794629 0 0 0
1388 4 5.52150965284346 4.249958467138578 2.9000604179462908 0 0 0
1392 1 7.363968309403664 3.188348702353206 1.4442559776389523 0 0 0
1395 5 9.205668782427578 2.1259585696396006 -0.012259085159352371 0 0 0
1398 1 11.046240112916665 3.1883487023532058 1.444255977638952 0 0 0
1390 5 7.3645328806709776 5.3148994951206 -0.01225908515935295 0 0 0
1396 5 11.046804684183979 5.314899495120599 -0.01225908515935384 0 0 0
1387 4 7.362645554599798 1.061017541657578 2.900060417946293 0 0 0
1393 4 11.044917358112798 1.0610175416575784 2.9000604179462925 0 0 0
1394 4 9.203781456356461 4.249958467138577 2.9000604179462903 0 0 0
1401 5 12.88794058594058 2.1259585696396 -0.012259085159353146 0 0 0
1404 1 14.728511916429662 3.188348702353206 1.4442559776389525 0 0 0
1407 5 16.570212389453577 2.1259585696395993 -0.012259085159353299 0 0 0
1402 5 14.729076487696977 5.3148994951206 -0.01225908515935353 0 0 0
1399 4 14.727189161625796 1.0610175416575793 2.900060417946294 0 0 0
1400 4 12.88605325986946 4.249958467138578 2.9000604179462908 0 0 0
1406 4 16.56832506338246 4.249958467138578 2.900060417946292 0 0 0
1410 1 18.41078371994266 3.1883487023532058 1.4442559776389516 0 0 0
1413 5 20.252484192966577 2.125958569639601 -0.012259085159352109 0 0 0
1416 1 22.093055523455664 3.188348702353206 1.4442559776389523 0 0 0
1408 5 18.411348291209976 5.314899495120601 -0.012259085159351875 0 0 0
1414 5 22.09362009472298 5.3148994951206 -0.012259085159353856 0 0 0
1405 4 18.4094609651388 1.0610175416575787 2.9000604179462934 0 0 0
1411 4 22.0917327686518 1.0610175416575778 2.900060417946292 0 0 0
1412 4 20.250596866895457 4.249958467138577 2.90006041794629 0 0 0
1419 5 23.934755996479577 2.1259585696396006 -0.01225908515935321 0 0 0
1422 1 25.77532732696866 3.188348702353206 1.4442559776389527 0 0 0
1425 5 27.617027799992574 2.125958569639599 -0.012259085159353898 0 0 0
1420 5 25.775891898235976 5.314899495120598 -0.012259085159354524 0 0 0
1417 4 25.774004572164795 1.0610175416575796 2.9000604179462943 0 0 0
1418 4 23.93286867040846 4.249958467138578 2.9000604179462903 0 0 0
1424 4 27.615140473921457 4.249958467138578 2.9000604179462925 0 0 0
1428 1 29.457599130481658 3.1883487023532058 1.4442559776389519 0 0 0
1431 5 31.299299603505574 2.125958569639601 -0.01225908515935204 0 0 0
1437 5 34.98157140701858 2.125958569639601 -0.012259085159352139 0 0 0
1434 1 33.13987093399466 3.188348702353206 1.4442559776389525 0 0 0
1426 5 29.458163701748973 5.314899495120601 -0.0122590851593518 0 0 0
1432 5 33.140435505261976 5.3148994951206 -0.012259085159352858 0 0 0
1423 4 29.456276375677795 1.0610175416575787 2.900060417946293 0 0 0
1429 4 33.13854817919079 1.0610175416575782 2.9000604179462925 0 0 0
1430 4 31.297412277434454 4.249958467138577 2.90006041794629 0 0 0
1436 4 34.97968408094746 4.249958467138577 2.90006041794629 0 0 0
1440 1 36.82214273750766 3.188348702353206 1.444255977638952 0 0 0
1443 5 38.663843210531574 2.1259585696396006 -0.012259085159353665 0 0 0
1446 1 40.50441454102066 3.188348702353206 1.4442559776389523 0 0 0
1438 5 36.82270730877498 5.3148994951206 -0.012259085159353143 0 0 0
1444 5 40.50497911228798 5.314899495120598 -0.01225908515935491 0 0 0
1435 4 36.820819982703796 1.0610175416575773 2.9000604179462917 0 0 0
1441 4 40.50309178621679 1.0610175416575798 2.9000604179462948 0 0 0
1442 4 38.66195588446046 4.249958467138578 2.9000604179462908 0 0 0
1449 5 42.34611501404457 2.1259585696395993 -0.012259085159353453 0 0 0
1452 1 44.18668634453366 3.188348702353206 1.444255977638952 0 0 0
1455 5 46.028386817557575 2.125958569639601 -0.012259085159352066 0 0 0
1450 5 44.18725091580097 5.3148994951206 -0.012259085159352149 0 0 0
1447 4 44.18536358972979 1.0610175416575789 2.9000604179462934 0 0 0
1448 4 42.34422768797346 4.249958467138578 2.900060417946292 0 0 0
1454 4 46.026499491486454 4.249958467138577 2.90006041794629 0 0 0
1458 1 47.86895814804666 3.188348702353206 1.444255977638952 0 0 0
1299 5 49.71065862107058 2.1259585696396006 -0.01225908515935288 -1 0 0
1302 1 51.55122995155966 3.1883487023532058 1.444255977638952 -1 0 0
1456 5 47.86952271931398 5.3148994951206 -0.012259085159352826 0 0 0
1300 5 51.55179452282698 5.314899495120599 -0.01225908515935387 -1 0 0
1453 4 47.86763539324279 1.0610175416575776 2.900060417946292 0 0 0
1297 4 51.5499071967558 1.0610175416575784 2.900060417946293 -1 0 0
1298 4 49.70877129499946 4.249958467138577 2.9000604179462903 -1 0 0
1305 5 53.392930424583575 2.125958569639601 -0.012259085159352008 -1 0 0
1308 1 55.233501755072666 3.188348702353206 1.4442559776389523 -1 0 0
1311 5 57.07520222809658 2.1259585696396 -0.01225908515935312 -1 0 0
1306 5 55.23406632633998 5.3148994951206 -0.012259085159353311 -1 0 0
1303 4 55.2321790002688 1.0610175416575784 2.900060417946293 -1 0 0
1304 4 53.39104309851246 4.249958467138577 2.90006041794629 -1 0 0
1310 4 57.073314902025466 4.249958467138578 2.9000604179462908 -1 0 0
1314 1 58.91577355858567 3.188348702353206 1.444255977638952 -1 0 0
1317 5 60.75747403160958 2.125958569639601 -0.012259085159351889 -1 0 0
1320 1 62.59804536209867 3.1883487023532067 1.444255977638953 -1 0 0
1312 5 58.91633812985298 5.3148994951206 -0.012259085159352296 -1 0 0
1318 5 62.59860993336598 5.3148994951206 -0.012259085159352593 -1 0 0
1309 4 58.9144508037818 1.0610175416575778 2.900060417946292 -1 0 0
1315 4 62.5967226072948 1.0610175416575784 2.9000604179462934 -1 0 0
1316 4 60.75558670553846 4.249958467138577 2.90006041794629 -1 0 0
1323 5 64.43974583512258 2.1259585696395993 -0.0122590851593538 -1 0 0
1329 5 68.12201763863558 2.1259585696396 -0.012259085159353422 -1 0 0
1326 1 66.28031716561166 3.1883487023532053 1.4442559776389505 -1 0 0
1332 1 69.96258896912467 3.188348702353206 1.444255977638952 -1 0 0
1324 5 66.28088173687898 5.314899495120598 -0.012259085159354005 -1 0 0
1330 5 69.96315354039199 5.3148994951206 -0.012259085159352472 -1 0 0
1321 4 66.2789944108078 1.06101754165758 2.9000604179462943 -1 0 0
1327 4 69.9612662143208 1.061017541657578 2.900060417946292 -1 0 0
1322 4 64.43785850905147 4.249958467138578 2.9000604179462917 -1 0 0
1328 4 68.12013031256446 4.249958467138578 2.900060417946291 -1 0 0
1335 5 71.80428944214859 2.125958569639601 -0.012259085159352196 -1 0 0
1338 1 73.64486077263767 3.188348702353206 1.444255977638952 -1 0 0
1341 5 75.48656124566158 2.1259585696396 -0.012259085159353481 -1 0 0
1336 5 73.64542534390499 5.314899495120599 -0.012259085159354638 -1 0 0
1333 4 73.6435380178338 1.061017541657578 2.900060417946293 -1 0 0
1334 4 71.80240211607746 4.249958467138577 2.90006041794629 -1 0 0
1340 4 75.48467391959046 4.249958467138578 2.9000604179462908 -1 0 0
1344 1 77.32713257615066 3.188348702353207 1.4442559776389539 -1 0 0
1347 5 79.16883304917458 2.1259585696396015 -0.012259085159351639 -1 0 0
1350 1 81.00940437966366 3.1883487023532053 1.4442559776389505 -1 0 0
1342 5 77.32769714741798 5.314899495120598 -0.012259085159355088 -1 0 0
1348 5 81.00996895093098 5.314899495120601 -0.012259085159351521 -1 0 0
1339 4 77.3258098213468 1.0610175416575789 2.9000604179462934 -1 0 0
1345 4 81.0080816248598 1.0610175416575787 2.9000604179462925 -1 0 0
1346 4 79.16694572310347 4.249958467138577 2.9000604179462894 -1 0 0
1353 5 82.85110485268758 2.1259585696395993 -0.012259085159353922 -1 0 0
1356 1 84.69167618317667 3.188348702353206 1.4442559776389523 -1 0 0
1359 5 86.53337665620059 2.125958569639601 -0.012259085159352208 -1 0 0
1354 5 84.69224075444399 5.314899495120599 -0.012259085159353873 -1 0 0
1351 4 84.6903534283728 1.0610175416575787 2.900060417946294 -1 0 0
1352 4 82.84921752661646 4.249958467138578 2.900060417946292 -1 0 0
1358 4 86.53148933012946 4.249958467138578 2.900060417946289 -1 0 0
1362 1 88.37394798668967 3.188348702353207 1.4442559776389539 -1 0 0
1365 5 90.21564845971358 2.1259585696395993 -0.012259085159353558 -1 0 0
1368 1 92.05621979020266 3.1883487023532053 1.4442559776389505 -1 0 0
1360 5 88.37451255795699 5.3148994951206 -0.012259085159352034 -1 0 0
1366 5 92.05678436146998 5.3148994951206 -0.012259085159352982 -1 0 0
1357 4 88.3726252318858 1.0610175416575778 2.900060417946292 -1 0 0
1363 4 92.0548970353988 1.0610175416575796 2.9000604179462943 -1 0 0
1364 4 90.21376113364246 4.249958467138578 2.900060417946292 -1 0 0
1380 1 99.42076339722867 3.188348702353206 1.4442559776389525 -1 0 0
1378 5 99.42132796849597 5.3148994951206 -0.012259085159352971 -1 0 0
1371 5 93.89792026322658 2.125958569639601 -0.012259085159351889 -1 0 0
1374 1 95.73849159371566 3.188348702353206 1.4442559776389523 -1 0 0
1377 5 97.58019206673958 2.1259585696396 -0.012259085159353294 -1 0 0
1372 5 95.73905616498298 5.314899495120599 -0.012259085159353054 -1 0 0
1369 4 95.7371688389118 1.0610175416575787 2.900060417946293 -1 0 0
1375 4 99.4194406424248 1.0610175416575773 2.900060417946292 -1 0 0
1370 4 93.89603293715545 4.249958467138577 2.9000604179462894 -1 0 0
1376 4 97.57830474066846 4.249958467138578 2.900060417946291 -1 0 0
1547 1 1.8405606041341658 6.377289627834206 1.44425597763895 0 0 0
1553 1 5.522832407647165 6.377289627834206 1.4442559776389507 0 0 0
1545 5 1.8411251754015783 8.503840420601602 -0.012259085159353415 0 0 0
1548 1 3.681696505890664 9.566230553315206 1.4442559776389523 0 0 0
1551 5 5.523396978914579 8.5038404206016 -0.012259085159354076 0 0 0
1543 4 3.6803737510867975 7.43889939261958 2.9000604179462917 0 0 0
1544 4 1.83923784933046 10.627840318100578 2.90006041794629 0 0 0
1550 4 5.52150965284346 10.627840318100578 2.9000604179462903 0 0 0
1559 1 9.205104211160165 6.377289627834206 1.4442559776389505 0 0 0
1554 1 7.363968309403664 9.566230553315206 1.444255977638952 0 0 0
1557 5 9.205668782427578 8.503840420601602 -0.012259085159353266 0 0 0
1560 1 11.046240112916665 9.566230553315206 1.4442559776389516 0 0 0
1549 4 7.362645554599798 7.438899392619579 2.900060417946291 0 0 0
1555 4 11.044917358112798 7.43889939261958 2.900060417946291 0 0 0
1556 4 9.203781456356461 10.627840318100578 2.90006041794629 0 0 0
1565 1 12.887376014673166 6.377289627834205 1.4442559776389503 0 0 0
1571 1 16.569647818186166 6.377289627834207 1.4442559776389519 0 0 0
1563 5 12.88794058594058 8.5038404206016 -0.01225908515935382 0 0 0
1566 1 14.728511916429662 9.566230553315208 1.444255977638952 0 0 0
1569 5 16.570212389453577 8.5038404206016 -0.012259085159354142 0 0 0
1561 4 14.727189161625796 7.4388993926195806 2.9000604179462925 0 0 0
1562 4 12.88605325986946 10.627840318100578 2.90006041794629 0 0 0
1568 4 16.56832506338246 10.62784031810058 2.9000604179462917 0 0 0
1577 1 20.251919621699166 6.377289627834206 1.4442559776389507 0 0 0
1572 1 18.41078371994266 9.566230553315206 1.4442559776389514 0 0 0
1575 5 20.252484192966577 8.5038404206016 -0.012259085159352803 0 0 0
1578 1 22.093055523455664 9.566230553315206 1.444255977638952 0 0 0
1567 4 18.4094609651388 7.43889939261958 2.9000604179462917 0 0 0
1573 4 22.0917327686518 7.438899392619579 2.9000604179462903 0 0 0
1574 4 20.250596866895457 10.627840318100578 2.9000604179462894 0 0 0
1583 1 23.934191425212166 6.377289627834205 1.4442559776389496 0 0 0
1589 1 27.616463228725163 6.377289627834206 1.4442559776389516 0 0 0
1581 5 23.934755996479577 8.503840420601602 -0.012259085159353925 0 0 0
1584 1 25.77532732696866 9.566230553315208 1.4442559776389523 0 0 0
1587 5 27.617027799992574 8.503840420601598 -0.012259085159354711 0 0 0
1579 4 25.774004572164795 7.4388993926195806 2.9000604179462925 0 0 0
1580 4 23.93286867040846 10.627840318100578 2.90006041794629 0 0 0
1586 4 27.615140473921457 10.62784031810058 2.900060417946292 0 0 0
1595 1 31.298735032238163 6.377289627834206 1.4442559776389507 0 0 0
1601 1 34.98100683575116 6.377289627834206 1.4442559776389507 0 0 0
1590 1 29.457599130481658 9.566230553315206 1.4442559776389514 0 0 0
1593 5 31.299299603505574 8.5038404206016 -0.012259085159352725 0 0 0
1599 5 34.98157140701858 8.5038404206016 -0.012259085159352923 0 0 0
1596 1 33.13987093399466 9.566230553315206 1.4442559776389523 0 0 0
1585 4 29.456276375677795 7.43889939261958 2.9000604179462917 0 0 0
1591 4 33.13854817919079 7.438899392619579 2.900060417946291 0 0 0
1592 4 31.297412277434454 10.627840318100578 2.9000604179462894 0 0 0
1598 4 34.97968408094746 10.627840318100578 2.9000604179462894 0 0 0
1607 1 38.66327863926416 6.377289627834205 1.4442559776389488 0 0 0
1602 1 36.82214273750766 9.566230553315206 1.444255977638952 0 0 0
1605 5 38.663843210531574 8.503840420601602 -0.012259085159354406 0 0 0
1608 1 40.50441454102066 9.566230553315206 1.444255977638952 0 0 0
1597 4 36.820819982703796 7.438899392619579 2.90006041794629 0 0 0
1603 4 40.50309178621679 7.438899392619581 2.900060417946293 0 0 0
1604 4 38.66195588446046 10.62784031810058 2.90006041794629 0 0 0
1613 1 42.34555044277716 6.377289627834207 1.4442559776389525 0 0 0
1619 1 46.027822246290164 6.377289627834206 1.4442559776389507 0 0 0
1611 5 42.34611501404457 8.503840420601598 -0.012259085159354205 0 0 0
1614 1 44.18668634453366 9.566230553315206 1.4442559776389519 0 0 0
1617 5 46.028386817557575 8.5038404206016 -0.012259085159352858 0 0 0
1609 4 44.18536358972979 7.43889939261958 2.900060417946292 0 0 0
1610 4 42.34422768797346 10.62784031810058 2.9000604179462917 0 0 0
1616 4 46.026499491486454 10.627840318100578 2.9000604179462894 0 0 0
1463 1 49.71009404980317 6.377289627834206 1.44425597763895 -1 0 0
1620 1 47.86895814804666 9.566230553315206 1.444255977638952 0 0 0
1461 5 49.71065862107058 8.503840420601602 -0.012259085159353615 -1 0 0
1464 1 51.55122995155966 9.566230553315206 1.4442559776389519 -1 0 0
1615 4 47.86763539324279 7.438899392619579 2.9000604179462903 0 0 0
1459 4 51.5499071967558 7.43889939261958 2.900060417946291 -1 0 0
1460 4 49.70877129499946 10.627840318100578 2.90006041794629 -1 0 0
1469 1 53.392365853316164 6.377289627834206 1.4442559776389505 -1 0 0
1475 1 57.07463765682917 6.377289627834206 1.4442559776389505 -1 0 0
1467 5 53.392930424583575 8.5038404206016 -0.012259085159352772 -1 0 0
1470 1 55.233501755072666 9.566230553315206 1.444255977638951 -1 0 0
1473 5 57.07520222809658 8.5038404206016 -0.01225908515935372 -1 0 0
1465 4 55.2321790002688 7.43889939261958 2.900060417946291 -1 0 0
1466 4 53.39104309851246 10.627840318100578 2.9000604179462894 -1 0 0
1472 4 57.07331490202546 10.627840318100578 2.9000604179462903 -1 0 0
1481 1 60.756909460342165 6.377289627834206 1.4442559776389507 -1 0 0
1476 1 58.91577355858566 9.566230553315208 1.4442559776389527 -1 0 0
1479 5 60.75747403160958 8.5038404206016 -0.01225908515935278 -1 0 0
1482 1 62.59804536209867 9.566230553315208 1.4442559776389527 -1 0 0
1471 4 58.9144508037818 7.438899392619579 2.9000604179462908 -1 0 0
1477 4 62.5967226072948 7.43889939261958 2.9000604179462917 -1 0 0
1478 4 60.75558670553846 10.627840318100578 2.9000604179462894 -1 0 0
1487 1 64.43918126385516 6.377289627834206 1.4442559776389512 -1 0 0
1493 1 68.12145306736817 6.377289627834206 1.4442559776389505 -1 0 0
1485 5 64.43974583512258 8.5038404206016 -0.012259085159354546 -1 0 0
1491 5 68.12201763863558 8.503840420601602 -0.012259085159354248 -1 0 0
1488 1 66.28031716561166 9.566230553315206 1.4442559776389503 -1 0 0
1494 1 69.96258896912467 9.566230553315206 1.444255977638952 -1 0 0
1483 4 66.2789944108078 7.438899392619581 2.9000604179462925 -1 0 0
1489 4 69.9612662143208 7.438899392619579 2.9000604179462908 -1 0 0
1484 4 64.43785850905147 10.62784031810058 2.900060417946291 -1 0 0
1490 4 68.12013031256446 10.627840318100578 2.9000604179462903 -1 0 0
1499 1 71.80372487088117 6.377289627834206 1.4442559776389507 -1 0 0
1505 1 75.48599667439417 6.377289627834206 1.4442559776389496 -1 0 0
1497 5 71.80428944214859 8.5038404206016 -0.012259085159352978 -1 0 0
1500 1 73.64486077263767 9.566230553315206 1.444255977638952 -1 0 0
1503 5 75.48656124566158 8.503840420601602 -0.012259085159354303 -1 0 0
1495 4 73.6435380178338 7.43889939261958 2.900060417946291 -1 0 0
1496 4 71.80240211607746 10.627840318100578 2.9000604179462894 -1 0 0
1502 4 75.48467391959046 10.62784031810058 2.90006041794629 -1 0 0
1511 1 79.16826847790716 6.377289627834206 1.4442559776389505 -1 0 0
1506 1 77.32713257615066 9.566230553315208 1.4442559776389539 -1 0 0
1509 5 79.16883304917458 8.503840420601602 -0.012259085159352446 -1 0 0
1512 1 81.00940437966366 9.566230553315206 1.4442559776389503 -1 0 0
1501 4 77.3258098213468 7.4388993926195806 2.9000604179462917 -1 0 0
1507 4 81.0080816248598 7.43889939261958 2.900060417946291 -1 0 0
1508 4 79.16694572310347 10.627840318100578 2.900060417946289 -1 0 0
1517 1 82.85054028142017 6.377289627834206 1.4442559776389516 -1 0 0
1523 1 86.53281208493317 6.377289627834205 1.4442559776389496 -1 0 0
1515 5 82.85110485268758 8.5038404206016 -0.012259085159354616 -1 0 0
1518 1 84.69167618317667 9.566230553315206 1.4442559776389519 -1 0 0
1521 5 86.53337665620059 8.503840420601602 -0.012259085159353068 -1 0 0
1513 4 84.6903534283728 7.43889939261958 2.900060417946292 -1 0 0
1514 4 82.84921752661646 10.62784031810058 2.9000604179462917 -1 0 0
1520 4 86.53148933012946 10.627840318100578 2.9000604179462885 -1 0 0
1529 1 90.21508388844616 6.377289627834206 1.4442559776389516 -1 0 0
1524 1 88.37394798668967 9.566230553315208 1.4442559776389536 -1 0 0
1527 5 90.21564845971358 8.5038404206016 -0.012259085159354432 -1 0 0
1530 1 92.05621979020266 9.566230553315206 1.4442559776389503 -1 0 0
1519 4 88.3726252318858 7.438899392619579 2.9000604179462903 -1 0 0
1525 4 92.0548970353988 7.4388993926195806 2.900060417946293 -1 0 0
1526 4 90.21376113364246 10.62784031810058 2.9000604179462917 -1 0 0
1542 1 99.42076339722867 9.566230553315208 1.4442559776389527 -1 0 0
1535 1 93.89735569195916 6.377289627834206 1.4442559776389503 -1 0 0
1541 1 97.57962749547217 6.377289627834206 1.4442559776389503 -1 0 0
1533 5 93.89792026322658 8.503840420601602 -0.012259085159352617 -1 0 0
1536 1 95.73849159371566 9.566230553315206 1.444255977638952 -1 0 0
1539 5 97.58019206673958 8.503840420601602 -0.012259085159354132 -1 0 0
1531 4 95.7371688389118 7.43889939261958 2.900060417946291 -1 0 0
1537 4 99.4194406424248 7.438899392619579 2.9000604179462903 -1 0 0
1532 4 93.89603293715545 10.627840318100578 2.900060417946289 -1 0 0
1538 4 97.57830474066846 10.627840318100578 2.9000604179462908 -1 0 0
1709 1 1.840560604134166 12.755171478796205 1.444255977638951 0 0 0
1546 5 3.6822610771579782 11.6927813460826 -0.012259085159355103 0 0 0
1715 1 5.522832407647165 12.755171478796205 1.444255977638951 0 0 0
1707 5 1.8411251754015783 14.881722271563602 -0.012259085159353556 0 0 0
1713 5 5.523396978914578 14.881722271563602 -0.012259085159353705 0 0 0
1710 1 3.6816965058906646 15.944112404277208 1.4442559776389519 0 0 0
1705 4 3.6803737510867975 13.81678124358158 2.900060417946291 0 0 0
1706 4 1.83923784933046 17.005722169062576 2.90006041794629 0 0 0
1712 4 5.52150965284346 17.00572216906258 2.9000604179462908 0 0 0
1552 5 7.3645328806709776 11.692781346082601 -0.01225908515935372 0 0 0
1721 1 9.205104211160165 12.755171478796205 1.444255977638951 0 0 0
1558 5 11.046804684183979 11.692781346082601 -0.01225908515935466 0 0 0
1719 5 9.205668782427578 14.881722271563602 -0.012259085159353145 0 0 0
1716 1 7.363968309403664 15.944112404277208 1.4442559776389516 0 0 0
1722 1 11.046240112916665 15.944112404277206 1.4442559776389516 0 0 0
1711 4 7.362645554599797 13.816781243581579 2.9000604179462908 0 0 0
1717 4 11.044917358112798 13.81678124358158 2.9000604179462908 0 0 0
1718 4 9.20378145635646 17.005722169062576 2.9000604179462903 0 0 0
1727 1 12.887376014673166 12.755171478796205 1.4442559776389507 0 0 0
1564 5 14.729076487696977 11.692781346082601 -0.012259085159354269 0 0 0
1733 1 16.569647818186166 12.755171478796207 1.4442559776389523 0 0 0
1725 5 12.887940585940578 14.881722271563602 -0.012259085159353844 0 0 0
1731 5 16.570212389453577 14.8817222715636 -0.012259085159353998 0 0 0
1728 1 14.728511916429662 15.944112404277208 1.4442559776389523 0 0 0
1723 4 14.727189161625796 13.81678124358158 2.9000604179462925 0 0 0
1724 4 12.88605325986946 17.005722169062576 2.9000604179462908 0 0 0
1730 4 16.56832506338246 17.00572216906258 2.9000604179462917 0 0 0
1570 5 18.411348291209976 11.692781346082601 -0.012259085159352912 0 0 0
1739 1 20.251919621699166 12.755171478796205 1.444255977638951 0 0 0
1576 5 22.09362009472298 11.692781346082601 -0.012259085159354956 0 0 0
1737 5 20.252484192966577 14.881722271563602 -0.012259085159352694 0 0 0
1734 1 18.41078371994266 15.944112404277208 1.4442559776389512 0 0 0
1740 1 22.093055523455664 15.944112404277206 1.4442559776389514 0 0 0
1729 4 18.4094609651388 13.81678124358158 2.900060417946291 0 0 0
1735 4 22.0917327686518 13.816781243581579 2.9000604179462903 0 0 0
1736 4 20.250596866895457 17.005722169062576 2.90006041794629 0 0 0
1745 1 23.934191425212166 12.755171478796205 1.4442559776389503 0 0 0
1582 5 25.775891898235976 11.6927813460826 -0.012259085159355618 0 0 0
1751 1 27.616463228725163 12.755171478796207 1.4442559776389523 0 0 0
1743 5 23.934755996479577 14.8817222715636 -0.012259085159353726 0 0 0
1749 5 27.617027799992574 14.8817222715636 -0.012259085159354463 0 0 0
1746 1 25.77532732696866 15.944112404277208 1.444255977638952 0 0 0
1741 4 25.774004572164795 13.816781243581582 2.9000604179462925 0 0 0
1742 4 23.93286867040846 17.005722169062576 2.90006041794629 0 0 0
1748 4 27.615140473921457 17.00572216906258 2.900060417946292 0 0 0
1588 5 29.458163701748973 11.692781346082601 -0.01225908515935285 0 0 0
1757 1 31.298735032238163 12.755171478796205 1.4442559776389512 0 0 0
1594 5 33.140435505261976 11.692781346082601 -0.012259085159353901 0 0 0
1763 1 34.98100683575117 12.755171478796205 1.444255977638951 0 0 0
1755 5 31.299299603505574 14.881722271563602 -0.012259085159352626 0 0 0
1761 5 34.98157140701858 14.881722271563602 -0.012259085159352723 0 0 0
1752 1 29.457599130481658 15.944112404277208 1.4442559776389512 0 0 0
1758 1 33.13987093399466 15.944112404277208 1.4442559776389519 0 0 0
1747 4 29.456276375677795 13.81678124358158 2.900060417946291 0 0 0
1753 4 33.13854817919079 13.816781243581579 2.9000604179462908 0 0 0
1754 4 31.297412277434454 17.005722169062576 2.90006041794629 0 0 0
1760 4 34.97968408094746 17.005722169062576 2.90006041794629 0 0 0
1600 5 36.82270730877498 11.692781346082601 -0.012259085159354179 0 0 0
1769 1 38.66327863926416 12.755171478796205 1.4442559776389496 0 0 0
1606 5 40.50497911228798 11.6927813460826 -0.012259085159356012 0 0 0
1767 5 38.663843210531574 14.8817222715636 -0.012259085159354257 0 0 0
1764 1 36.82214273750766 15.944112404277206 1.4442559776389514 0 0 0
1770 1 40.504414541020665 15.944112404277208 1.4442559776389516 0 0 0
1759 4 36.820819982703796 13.816781243581579 2.9000604179462894 0 0 0
1765 4 40.50309178621679 13.816781243581582 2.900060417946293 0 0 0
1766 4 38.66195588446046 17.005722169062576 2.9000604179462903 0 0 0
1775 1 42.34555044277716 12.755171478796207 1.444255977638953 0 0 0
1612 5 44.18725091580097 11.692781346082601 -0.01225908515935312 0 0 0
1781 1 46.027822246290164 12.755171478796205 1.4442559776389512 0 0 0
1773 5 42.34611501404457 14.8817222715636 -0.012259085159353951 0 0 0
1779 5 46.028386817557575 14.881722271563602 -0.01225908515935266 0 0 0
1776 1 44.18668634453366 15.944112404277208 1.4442559776389516 0 0 0
1771 4 44.18536358972979 13.81678124358158 2.9000604179462917 0 0 0
1772 4 42.34422768797346 17.00572216906258 2.9000604179462917 0 0 0
1778 4 46.026499491486454 17.005722169062576 2.90006041794629 0 0 0
1618 5 47.86952271931398 11.692781346082601 -0.012259085159353833 0 0 0
1625 1 49.71009404980317 12.755171478796205 1.4442559776389507 -1 0 0
1462 5 51.55179452282698 11.692781346082601 -0.012259085159354774 -1 0 0
1623 5 49.71065862107057 14.881722271563602 -0.012259085159353752 -1 0 0
1782 1 47.86895814804666 15.944112404277206 1.4442559776389514 0 0 0
1626 1 51.55122995155966 15.944112404277206 1.4442559776389516 -1 0 0
1777 4 47.86763539324279 13.816781243581579 2.9000604179462903 0 0 0
1621 4 51.5499071967558 13.81678124358158 2.900060417946291 -1 0 0
1622 4 49.70877129499946 17.005722169062576 2.9000604179462903 -1 0 0
1631 1 53.392365853316164 12.755171478796205 1.444255977638951 -1 0 0
1468 5 55.23406632633998 11.692781346082601 -0.012259085159354022 -1 0 0
1637 1 57.07463765682917 12.755171478796205 1.444255977638951 -1 0 0
1629 5 53.392930424583575 14.881722271563602 -0.012259085159352694 -1 0 0
1635 5 57.07520222809658 14.881722271563602 -0.012259085159353592 -1 0 0
1632 1 55.233501755072666 15.944112404277206 1.444255977638951 -1 0 0
1627 4 55.2321790002688 13.816781243581579 2.900060417946291 -1 0 0
1628 4 53.39104309851246 17.005722169062576 2.90006041794629 -1 0 0
1634 4 57.07331490202546 17.00572216906258 2.9000604179462908 -1 0 0
1474 5 58.91633812985298 11.692781346082601 -0.012259085159353094 -1 0 0
1643 1 60.756909460342165 12.755171478796205 1.4442559776389512 -1 0 0
1480 5 62.59860993336598 11.692781346082601 -0.012259085159353443 -1 0 0
1641 5 60.75747403160958 14.881722271563602 -0.012259085159352565 -1 0 0
1638 1 58.91577355858566 15.944112404277208 1.4442559776389525 -1 0 0
1644 1 62.59804536209867 15.944112404277208 1.4442559776389523 -1 0 0
1633 4 58.9144508037818 13.816781243581579 2.9000604179462903 -1 0 0
1639 4 62.5967226072948 13.81678124358158 2.9000604179462917 -1 0 0
1640 4 60.75558670553846 17.005722169062576 2.90006041794629 -1 0 0
1649 1 64.43918126385516 12.755171478796207 1.4442559776389519 -1 0 0
1486 5 66.28088173687898 11.692781346082601 -0.012259085159354952 -1 0 0
1655 1 68.12145306736817 12.755171478796205 1.4442559776389512 -1 0 0
1492 5 69.96315354039199 11.692781346082601 -0.012259085159353493 -1 0 0
1647 5 64.43974583512258 14.8817222715636 -0.012259085159354454 -1 0 0
1653 5 68.12201763863558 14.8817222715636 -0.012259085159354102 -1 0 0
1650 1 66.28031716561166 15.944112404277206 1.4442559776389499 -1 0 0
1656 1 69.96258896912467 15.944112404277206 1.4442559776389514 -1 0 0
1645 4 66.2789944108078 13.816781243581582 2.9000604179462925 -1 0 0
1651 4 69.9612662143208 13.816781243581579 2.9000604179462903 -1 0 0
1646 4 64.43785850905147 17.00572216906258 2.9000604179462917 -1 0 0
1652 4 68.12013031256446 17.005722169062576 2.900060417946291 -1 0 0
1661 1 71.80372487088117 12.755171478796205 1.4442559776389512 -1 0 0
1498 5 73.64542534390499 11.692781346082601 -0.012259085159355745 -1 0 0
1667 1 75.48599667439417 12.755171478796205 1.4442559776389505 -1 0 0
1659 5 71.80428944214859 14.881722271563602 -0.012259085159352694 -1 0 0
1665 5 75.48656124566158 14.8817222715636 -0.012259085159354055 -1 0 0
1662 1 73.64486077263767 15.944112404277206 1.4442559776389514 -1 0 0
1657 4 73.6435380178338 13.816781243581579 2.900060417946291 -1 0 0
1658 4 71.80240211607746 17.005722169062576 2.90006041794629 -1 0 0
1664 4 75.48467391959046 17.005722169062576 2.9000604179462903 -1 0 0
1504 5 77.32769714741798 11.6927813460826 -0.012259085159356042 -1 0 0
1673 1 79.16826847790716 12.755171478796205 1.4442559776389514 -1 0 0
1510 5 81.00996895093098 11.692781346082601 -0.012259085159352518 -1 0 0
1671 5 79.16883304917458 14.881722271563602 -0.012259085159352286 -1 0 0
1668 1 77.32713257615066 15.944112404277208 1.444255977638953 -1 0 0
1674 1 81.00940437966366 15.944112404277206 1.4442559776389499 -1 0 0
1663 4 77.3258098213468 13.81678124358158 2.9000604179462917 -1 0 0
1669 4 81.0080816248598 13.81678124358158 2.9000604179462908 -1 0 0
1670 4 79.16694572310347 17.005722169062576 2.9000604179462894 -1 0 0
1679 1 82.85054028142017 12.755171478796207 1.444255977638952 -1 0 0
1516 5 84.69224075444399 11.692781346082601 -0.012259085159354925 -1 0 0
1685 1 86.53281208493317 12.755171478796205 1.4442559776389503 -1 0 0
1677 5 82.85110485268758 14.8817222715636 -0.012259085159354423 -1 0 0
1683 5 86.53337665620059 14.881722271563602 -0.012259085159352786 -1 0 0
1680 1 84.69167618317667 15.944112404277208 1.4442559776389516 -1 0 0
1675 4 84.6903534283728 13.81678124358158 2.900060417946292 -1 0 0
1676 4 82.84921752661646 17.00572216906258 2.900060417946292 -1 0 0
1682 4 86.53148933012946 17.005722169062576 2.9000604179462894 -1 0 0
1522 5 88.37451255795699 11.692781346082601 -0.012259085159353068 -1 0 0
1691 1 90.21508388844616 12.755171478796207 1.444255977638952 -1 0 0
1528 5 92.05678436146998 11.692781346082601 -0.012259085159353983 -1 0 0
1689 5 90.21564845971358 14.8817222715636 -0.012259085159354133 -1 0 0
1686 1 88.37394798668967 15.944112404277208 1.4442559776389532 -1 0 0
1692 1 92.05621979020266 15.944112404277206 1.4442559776389499 -1 0 0
1681 4 88.3726252318858 13.816781243581579 2.90006041794629 -1 0 0
1687 4 92.0548970353988 13.81678124358158 2.900060417946292 -1 0 0
1688 4 90.21376113364246 17.00572216906258 2.9000604179462917 -1 0 0
1540 5 99.42132796849597 11.692781346082601 -0.012259085159353972 -1 0 0
1704 1 99.42076339722867 15.944112404277208 1.444255977638952 -1 0 0
1697 1 93.89735569195916 12.755171478796205 1.4442559776389512 -1 0 0
1534 5 95.73905616498298 11.692781346082601 -0.01225908515935402 -1 0 0
1703 1 97.57962749547217 12.755171478796205 1.4442559776389514 -1 0 0
1695 5 93.89792026322658 14.881722271563602 -0.012259085159352468 -1 0 0
1701 5 97.58019206673958 14.8817222715636 -0.012259085159353967 -1 0 0
1698 1 95.73849159371566 15.944112404277206 1.4442559776389514 -1 0 0