LAMMPS data file via write_data, version 29 Aug 2024, timestep = 2, units = metal

5184 atoms
6 atom types

0 99.421338694851 xlo xhi
0 102.046109615392 ylo yhi
-50 50 zlo zhi

Masses

1 91.224
2 91.224
3 32.06
4 32.06
5 32.06
6 32.06

Atoms # atomic

1383 4 1.8411249648471935 2.1259585366945175 -0.012519022942652624 0 0 0
1386 1 3.681690830350721 3.188343483401974 1.4442377624327516 0 0 0
1389 4 5.523396768360194 2.125958536694517 -0.012519022942652983 0 0 0
1384 4 3.68226086660358 5.314899462175516 -0.012519022942653972 0 0 0
1381 3 3.680334367455482 1.0609783650571305 2.900192936428412 0 0 0
1382 3 1.8391984656991398 4.249919290538129 2.9001929364284087 0 0 0
1388 3 5.52147026921214 4.249919290538129 2.9001929364284096 0 0 0
1392 1 7.363962633863721 3.188343483401974 1.4442377624327518 0 0 0
1395 4 9.205668571873193 2.1259585366945175 -0.012519022942652195 0 0 0
1398 1 11.046234437376722 3.188343483401974 1.4442377624327518 0 0 0
1390 4 7.36453267011658 5.314899462175517 -0.012519022942652697 0 0 0
1396 4 11.04680447362958 5.314899462175516 -0.012519022942653715 0 0 0
1387 3 7.3626061709684825 1.06097836505713 2.9001929364284114 0 0 0
1393 3 11.044877974481482 1.0609783650571305 2.9001929364284114 0 0 0
1394 3 9.20374207272514 4.249919290538129 2.900192936428409 0 0 0
1401 4 12.887940375386194 2.125958536694517 -0.012519022942652917 0 0 0
1404 1 14.72850624088972 3.188343483401974 1.4442377624327516 0 0 0
1407 4 16.570212178899194 2.125958536694516 -0.012519022942653052 0 0 0
1402 4 14.72907627714258 5.314899462175516 -0.012519022942653255 0 0 0
1399 3 14.72714977799448 1.0609783650571314 2.9001929364284127 0 0 0
1400 3 12.886013876238142 4.249919290538129 2.9001929364284096 0 0 0
1406 3 16.56828567975114 4.24991929053813 2.9001929364284105 0 0 0
1410 1 18.41077804440272 3.188343483401974 1.4442377624327518 0 0 0
1413 4 20.252483982412194 2.125958536694518 -0.01251902294265193 0 0 0
1416 1 22.093049847915722 3.188343483401974 1.4442377624327514 0 0 0
1408 4 18.41134808065558 5.314899462175517 -0.012519022942651602 0 0 0
1414 4 22.09361988416858 5.314899462175516 -0.012519022942653649 0 0 0
1405 3 18.40942158150748 1.0609783650571307 2.900192936428412 0 0 0
1411 3 22.091693385020484 1.0609783650571298 2.900192936428411 0 0 0
1412 3 20.25055748326414 4.249919290538129 2.9001929364284087 0 0 0
1419 4 23.934755785925194 2.125958536694517 -0.012519022942653356 0 0 0
1422 1 25.77532165142872 3.188343483401974 1.4442377624327523 0 0 0
1425 4 27.61702758943819 2.125958536694516 -0.012519022942653201 0 0 0
1420 4 25.77589168768158 5.314899462175515 -0.012519022942653989 0 0 0
1417 3 25.77396518853348 1.0609783650571316 2.9001929364284127 0 0 0
1418 3 23.93282928677714 4.24991929053813 2.900192936428409 0 0 0
1424 3 27.615101090290135 4.24991929053813 2.900192936428411 0 0 0
1428 1 29.457593454941716 3.1883434834019746 1.4442377624327518 0 0 0
1431 4 31.29929939295119 2.1259585366945175 -0.012519022942652372 0 0 0
1437 4 34.981571196464195 2.125958536694518 -0.01251902294265193 0 0 0
1434 1 33.13986525845472 3.188343483401974 1.4442377624327518 0 0 0
1426 4 29.458163491194576 5.314899462175517 -0.012519022942651973 0 0 0
1432 4 33.14043529470758 5.314899462175517 -0.012519022942652603 0 0 0
1423 3 29.456236992046477 1.060978365057131 2.9001929364284122 0 0 0
1429 3 33.13850879555948 1.0609783650571303 2.9001929364284114 0 0 0
1430 3 31.297372893803136 4.249919290538129 2.900192936428409 0 0 0
1436 3 34.97964469731614 4.249919290538129 2.9001929364284087 0 0 0
1440 1 36.82213706196772 3.188343483401974 1.4442377624327518 0 0 0
1443 4 38.6638429999772 2.1259585366945175 -0.012519022942652497 0 0 0
1446 1 40.50440886548072 3.188343483401974 1.4442377624327518 0 0 0
1438 4 36.82270709822058 5.314899462175517 -0.01251902294265275 0 0 0
1444 4 40.50497890173358 5.314899462175515 -0.012519022942654884 0 0 0
1435 3 36.820780599072485 1.0609783650571292 2.90019293642841 0 0 0
1441 3 40.50305240258548 1.060978365057132 2.9001929364284136 0 0 0
1442 3 38.66191650082914 4.249919290538129 2.9001929364284087 0 0 0
1449 4 42.346114803490195 2.1259585366945157 -0.012519022942654022 0 0 0
1452 1 44.186680668993716 3.188343483401974 1.4442377624327518 0 0 0
1455 4 46.02838660700319 2.125958536694518 -0.012519022942651822 0 0 0
1450 4 44.187250705246576 5.314899462175517 -0.01251902294265198 0 0 0
1447 3 44.18532420609848 1.060978365057131 2.9001929364284122 0 0 0
1448 3 42.34418830434214 4.24991929053813 2.900192936428412 0 0 0
1454 3 46.02646010785514 4.249919290538129 2.9001929364284087 0 0 0
1458 1 47.86895247250672 3.188343483401974 1.4442377624327518 0 0 0
1299 4 49.710658410516196 2.125958536694518 -0.012519022942651994 -1 0 0
1302 1 51.551224276019724 3.1883434834019737 1.444237762432751 -1 0 0
1456 4 47.86952250875958 5.314899462175517 -0.012519022942652513 0 0 0
1300 4 51.551794312272584 5.314899462175516 -0.01251902294265359 -1 0 0
1453 3 47.86759600961148 1.0609783650571296 2.9001929364284105 0 0 0
1297 3 51.549867813124486 1.0609783650571305 2.9001929364284114 -1 0 0
1298 3 49.70873191136814 4.249919290538129 2.9001929364284083 -1 0 0
1305 4 53.3929302140292 2.125958536694517 -0.012519022942652544 -1 0 0
1308 1 55.23349607953272 3.1883434834019746 1.4442377624327527 -1 0 0
1311 4 57.075202017542196 2.1259585366945166 -0.01251902294265296 -1 0 0
1306 4 55.23406611578558 5.314899462175517 -0.012519022942652749 -1 0 0
1303 3 55.23213961663748 1.0609783650571298 2.900192936428411 -1 0 0
1304 3 53.39100371488114 4.249919290538129 2.900192936428409 -1 0 0
1310 3 57.07327551839414 4.24991929053813 2.90019293642841 -1 0 0
1314 1 58.915767883045724 3.1883434834019746 1.4442377624327518 -1 0 0
1317 4 60.7574738210552 2.125958536694518 -0.012519022942651713 -1 0 0
1320 1 62.59803968655873 3.1883434834019746 1.4442377624327525 -1 0 0
1312 4 58.916337919298584 5.314899462175517 -0.01251902294265228 -1 0 0
1318 4 62.59860972281158 5.314899462175517 -0.012519022942653038 -1 0 0
1309 3 58.914411420150486 1.0609783650571303 2.900192936428412 -1 0 0
1315 3 62.59668322366348 1.0609783650571307 2.9001929364284127 -1 0 0
1316 3 60.755547321907144 4.249919290538129 2.9001929364284087 -1 0 0
1323 4 64.43974562456819 2.1259585366945157 -0.012519022942653285 -1 0 0
1329 4 68.1220174280812 2.125958536694517 -0.012519022942653002 -1 0 0
1326 1 66.28031149007172 3.188343483401974 1.4442377624327518 -1 0 0
1332 1 69.96258329358471 3.188343483401974 1.4442377624327518 -1 0 0
1324 4 66.28088152632458 5.314899462175515 -0.012519022942653623 -1 0 0
1330 4 69.96315332983758 5.314899462175517 -0.012519022942652138 -1 0 0
1321 3 66.27895502717648 1.060978365057132 2.900192936428413 -1 0 0
1327 3 69.96122683068948 1.0609783650571298 2.900192936428411 -1 0 0
1322 3 64.43781912542015 4.24991929053813 2.9001929364284105 -1 0 0
1328 3 68.12009092893314 4.249919290538129 2.90019293642841 -1 0 0
1335 4 71.8042892315942 2.1259585366945175 -0.01251902294265202 -1 0 0
1338 1 73.64485509709772 3.188343483401974 1.4442377624327518 -1 0 0
1341 4 75.48656103510719 2.125958536694517 -0.012519022942653541 -1 0 0
1336 4 73.64542513335059 5.314899462175517 -0.012519022942652818 -1 0 0
1333 3 73.64349863420249 1.0609783650571292 2.90019293642841 -1 0 0
1334 3 71.80236273244614 4.249919290538129 2.9001929364284087 -1 0 0
1340 3 75.48463453595915 4.24991929053813 2.900192936428409 -1 0 0
1344 1 77.32712690061072 3.188343483401974 1.4442377624327518 -1 0 0
1347 4 79.16883283862019 2.125958536694518 -0.012519022942651434 -1 0 0
1350 1 81.00939870412373 3.1883434834019733 1.44423776243275 -1 0 0
1342 4 77.32769693686359 5.314899462175515 -0.01251902294265495 -1 0 0
1348 4 81.00996874037658 5.314899462175518 -0.012519022942651127 -1 0 0
1339 3 77.32577043771548 1.060978365057131 2.9001929364284122 -1 0 0
1345 3 81.00804224122848 1.0609783650571305 2.9001929364284114 -1 0 0
1346 3 79.16690633947215 4.249919290538128 2.9001929364284083 -1 0 0
1353 4 82.8511046421332 2.125958536694516 -0.012519022942653635 -1 0 0
1356 1 84.69167050763672 3.188343483401975 1.4442377624327534 -1 0 0
1359 4 86.5333764456462 2.125958536694518 -0.012519022942652055 -1 0 0
1354 4 84.69224054388958 5.314899462175516 -0.012519022942653496 -1 0 0
1351 3 84.69031404474148 1.0609783650571305 2.9001929364284122 -1 0 0
1352 3 82.84917814298514 4.24991929053813 2.900192936428411 -1 0 0
1358 3 86.53144994649814 4.249919290538129 2.900192936428408 -1 0 0
1362 1 88.37394231114972 3.188343483401974 1.4442377624327518 -1 0 0
1365 4 90.2156482491592 2.1259585366945166 -0.012519022942652117 -1 0 0
1368 1 92.05621411466272 3.1883434834019733 1.4442377624327498 -1 0 0
1360 4 88.37451234740259 5.314899462175516 -0.012519022942653637 -1 0 0
1366 4 92.05678415091559 5.314899462175518 -0.012519022942651123 -1 0 0
1357 3 88.37258584825447 1.0609783650571307 2.9001929364284122 -1 0 0
1363 3 92.05485765176748 1.0609783650571305 2.9001929364284114 -1 0 0
1364 3 90.21372175001115 4.249919290538129 2.9001929364284096 -1 0 0
1380 1 99.42075772168873 3.1883434834019737 1.4442377624327505 -1 0 0
1378 4 99.42132775794158 5.314899462175517 -0.012519022942652523 -1 0 0
1371 4 93.8979200526722 2.125958536694517 -0.012519022942652905 -1 0 0
1374 1 95.73848591817573 3.188343483401975 1.4442377624327534 -1 0 0
1377 4 97.5801918561852 2.1259585366945175 -0.01251902294265275 -1 0 0
1372 4 95.73905595442858 5.314899462175515 -0.012519022942654121 -1 0 0
1369 3 95.73712945528048 1.0609783650571316 2.900192936428413 -1 0 0
1375 3 99.41940125879348 1.0609783650571296 2.9001929364284105 -1 0 0
1370 3 93.89599355352414 4.24991929053813 2.90019293642841 -1 0 0
1376 3 97.57826535703714 4.24991929053813 2.90019293642841 -1 0 0
1547 1 1.8405549285942384 6.377284408882974 1.4442377624327487 0 0 0
1553 1 5.522826732107236 6.377284408882974 1.44423776243275 0 0 0
1545 4 1.8411249648471937 8.503840387656519 -0.012519022942653174 0 0 0
1548 1 3.681690830350721 9.566225334363976 1.4442377624327514 0 0 0
1551 4 5.523396768360194 8.503840387656517 -0.012519022942653698 0 0 0
1543 3 3.6803343674554823 7.4388602160191315 2.90019293642841 0 0 0
1544 3 1.83919846569914 10.62780114150013 2.900192936428408 0 0 0
1550 3 5.5214702692121405 10.62780114150013 2.900192936428409 0 0 0
1559 1 9.205098535620237 6.377284408882974 1.44423776243275 0 0 0
1554 1 7.363962633863721 9.566225334363974 1.4442377624327518 0 0 0
1557 4 9.205668571873193 8.503840387656519 -0.012519022942652846 0 0 0
1560 1 11.046234437376722 9.566225334363974 1.4442377624327514 0 0 0
1549 3 7.3626061709684825 7.438860216019131 2.9001929364284096 0 0 0
1555 3 11.044877974481482 7.4388602160191315 2.90019293642841 0 0 0
1556 3 9.20374207272514 10.62780114150013 2.9001929364284083 0 0 0
1565 1 12.887370339133238 6.377284408882974 1.4442377624327496 0 0 0
1571 1 16.569642142646234 6.377284408882975 1.4442377624327516 0 0 0
1563 4 12.887940375386194 8.503840387656519 -0.012519022942653507 0 0 0
1566 1 14.72850624088972 9.566225334363976 1.4442377624327514 0 0 0
1569 4 16.570212178899194 8.503840387656517 -0.012519022942653564 0 0 0
1561 3 14.72714977799448 7.438860216019132 2.9001929364284114 0 0 0
1562 3 12.886013876238142 10.62780114150013 2.9001929364284083 0 0 0
1568 3 16.56828567975114 10.62780114150013 2.90019293642841 0 0 0
1577 1 20.251913946159238 6.377284408882974 1.4442377624327503 0 0 0
1572 1 18.41077804440272 9.566225334363974 1.4442377624327514 0 0 0
1575 4 20.252483982412194 8.503840387656517 -0.012519022942652456 0 0 0
1578 1 22.093049847915722 9.566225334363974 1.4442377624327511 0 0 0
1567 3 18.40942158150748 7.4388602160191315 2.90019293642841 0 0 0
1573 3 22.09169338502048 7.438860216019131 2.900192936428409 0 0 0
1574 3 20.25055748326414 10.627801141500129 2.900192936428408 0 0 0
1583 1 23.93418574967224 6.377284408882973 1.4442377624327487 0 0 0
1589 1 27.616457553185235 6.377284408882975 1.4442377624327516 0 0 0
1581 4 23.934755785925194 8.503840387656517 -0.012519022942654057 0 0 0
1584 1 25.77532165142872 9.566225334363976 1.4442377624327518 0 0 0
1587 4 27.61702758943819 8.503840387656515 -0.012519022942653845 0 0 0
1579 3 25.77396518853348 7.438860216019132 2.900192936428411 0 0 0
1580 3 23.93282928677714 10.62780114150013 2.9001929364284087 0 0 0
1586 3 27.615101090290135 10.62780114150013 2.90019293642841 0 0 0
1595 1 31.298729356698235 6.377284408882974 1.4442377624327503 0 0 0
1601 1 34.981001160211235 6.377284408882974 1.4442377624327503 0 0 0
1590 1 29.457593454941716 9.566225334363974 1.4442377624327516 0 0 0
1593 4 31.29929939295119 8.503840387656517 -0.012519022942652952 0 0 0
1599 4 34.981571196464195 8.503840387656517 -0.012519022942652598 0 0 0
1596 1 33.13986525845472 9.566225334363974 1.4442377624327516 0 0 0
1585 3 29.456236992046477 7.4388602160191315 2.900192936428411 0 0 0
1591 3 33.13850879555948 7.438860216019131 2.9001929364284096 0 0 0
1592 3 31.297372893803136 10.62780114150013 2.9001929364284083 0 0 0
1598 3 34.97964469731614 10.627801141500129 2.900192936428408 0 0 0
1607 1 38.66327296372424 6.377284408882974 1.444237762432749 0 0 0
1602 1 36.82213706196772 9.566225334363974 1.4442377624327516 0 0 0
1605 4 38.6638429999772 8.503840387656519 -0.012519022942653191 0 0 0
1608 1 40.50440886548072 9.566225334363976 1.4442377624327516 0 0 0
1597 3 36.820780599072485 7.43886021601913 2.9001929364284083 0 0 0
1603 3 40.50305240258548 7.438860216019133 2.900192936428412 0 0 0
1604 3 38.66191650082914 10.62780114150013 2.9001929364284083 0 0 0
1613 1 42.345544767237236 6.377284408882975 1.4442377624327514 0 0 0
1619 1 46.02781657075023 6.377284408882974 1.4442377624327505 0 0 0
1611 4 42.346114803490195 8.503840387656515 -0.012519022942654733 0 0 0
1614 1 44.186680668993716 9.566225334363974 1.4442377624327516 0 0 0
1617 4 46.02838660700319 8.503840387656517 -0.012519022942652497 0 0 0
1609 3 44.18532420609848 7.4388602160191315 2.9001929364284105 0 0 0
1610 3 42.34418830434214 10.62780114150013 2.900192936428411 0 0 0
1616 3 46.02646010785514 10.627801141500129 2.900192936428408 0 0 0
1463 1 49.710088374263236 6.377284408882974 1.4442377624327496 -1 0 0
1620 1 47.86895247250672 9.566225334363974 1.4442377624327516 0 0 0
1461 4 49.710658410516196 8.503840387656519 -0.012519022942652456 -1 0 0
1464 1 51.551224276019724 9.566225334363974 1.4442377624327507 -1 0 0
1615 3 47.86759600961148 7.438860216019131 2.9001929364284087 0 0 0
1459 3 51.549867813124486 7.4388602160191315 2.90019293642841 -1 0 0
1460 3 49.70873191136814 10.627801141500129 2.9001929364284074 -1 0 0
1469 1 53.39236017777624 6.377284408882974 1.4442377624327503 -1 0 0
1475 1 57.07463198128924 6.377284408882975 1.44423776243275 -1 0 0
1467 4 53.3929302140292 8.503840387656517 -0.012519022942653118 -1 0 0
1470 1 55.23349607953272 9.566225334363976 1.4442377624327523 -1 0 0
1473 4 57.075202017542196 8.503840387656517 -0.012519022942653495 -1 0 0
1465 3 55.23213961663748 7.4388602160191315 2.90019293642841 -1 0 0
1466 3 53.39100371488114 10.62780114150013 2.9001929364284087 -1 0 0
1472 3 57.07327551839414 10.62780114150013 2.9001929364284087 -1 0 0
1481 1 60.75690378480224 6.377284408882974 1.4442377624327503 -1 0 0
1476 1 58.915767883045724 9.566225334363974 1.4442377624327518 -1 0 0
1479 4 60.7574738210552 8.503840387656517 -0.01251902294265248 -1 0 0
1482 1 62.59803968655873 9.566225334363976 1.4442377624327525 -1 0 0
1471 3 58.914411420150486 7.438860216019131 2.900192936428409 -1 0 0
1477 3 62.59668322366348 7.4388602160191315 2.900192936428411 -1 0 0
1478 3 60.755547321907144 10.627801141500129 2.900192936428408 -1 0 0
1487 1 64.43917558831524 6.377284408882975 1.4442377624327516 -1 0 0
1493 1 68.12144739182824 6.377284408882974 1.4442377624327498 -1 0 0
1485 4 64.43974562456819 8.503840387656515 -0.012519022942653764 -1 0 0
1491 4 68.1220174280812 8.503840387656519 -0.012519022942653646 -1 0 0
1488 1 66.28031149007172 9.566225334363976 1.4442377624327514 -1 0 0
1494 1 69.96258329358471 9.566225334363974 1.4442377624327516 -1 0 0
1483 3 66.27895502717648 7.438860216019133 2.9001929364284114 -1 0 0
1489 3 69.96122683068948 7.438860216019131 2.900192936428409 -1 0 0
1484 3 64.43781912542015 10.62780114150013 2.90019293642841 -1 0 0
1490 3 68.12009092893314 10.62780114150013 2.900192936428409 -1 0 0
1499 1 71.80371919534124 6.377284408882974 1.4442377624327503 -1 0 0
1505 1 75.48599099885425 6.377284408882973 1.4442377624327474 -1 0 0
1497 4 71.8042892315942 8.503840387656517 -0.012519022942652521 -1 0 0
1500 1 73.64485509709772 9.566225334363974 1.4442377624327516 -1 0 0
1503 4 75.48656103510719 8.503840387656517 -0.012519022942654228 -1 0 0
1495 3 73.64349863420249 7.43886021601913 2.9001929364284083 -1 0 0
1496 3 71.80236273244614 10.627801141500129 2.900192936428408 -1 0 0
1502 3 75.48463453595915 10.62780114150013 2.9001929364284087 -1 0 0
1511 1 79.16826280236724 6.377284408882975 1.4442377624327516 -1 0 0
1506 1 77.32712690061072 9.566225334363976 1.4442377624327514 -1 0 0
1509 4 79.16883283862019 8.503840387656519 -0.012519022942652063 -1 0 0
1512 1 81.00939870412373 9.566225334363974 1.44423776243275 -1 0 0
1501 3 77.32577043771548 7.438860216019132 2.9001929364284105 -1 0 0
1507 3 81.00804224122848 7.4388602160191315 2.9001929364284096 -1 0 0
1508 3 79.16690633947215 10.627801141500129 2.9001929364284074 -1 0 0
1517 1 82.85053460588024 6.377284408882975 1.4442377624327514 -1 0 0
1523 1 86.53280640939325 6.377284408882973 1.4442377624327474 -1 0 0
1515 4 82.8511046421332 8.503840387656515 -0.012519022942654126 -1 0 0
1518 1 84.69167050763672 9.566225334363976 1.4442377624327531 -1 0 0
1521 4 86.5333764456462 8.503840387656517 -0.012519022942652617 -1 0 0
1513 3 84.69031404474148 7.4388602160191315 2.9001929364284105 -1 0 0
1514 3 82.84917814298514 10.62780114150013 2.9001929364284105 -1 0 0
1520 3 86.53144994649814 10.627801141500129 2.9001929364284074 -1 0 0
1529 1 90.21507821290623 6.377284408882975 1.4442377624327511 -1 0 0
1524 1 88.37394231114972 9.566225334363974 1.4442377624327516 -1 0 0
1527 4 90.2156482491592 8.503840387656517 -0.012519022942652638 -1 0 0
1530 1 92.05621411466272 9.566225334363974 1.44423776243275 -1 0 0
1519 3 88.37258584825447 7.4388602160191315 2.900192936428411 -1 0 0
1525 3 92.05485765176748 7.4388602160191315 2.9001929364284096 -1 0 0
1526 3 90.21372175001115 10.62780114150013 2.9001929364284087 -1 0 0
1542 1 99.42075772168873 9.566225334363974 1.4442377624327507 -1 0 0
1535 1 93.89735001641924 6.377284408882975 1.4442377624327516 -1 0 0
1541 1 97.57962181993224 6.377284408882974 1.4442377624327498 -1 0 0
1533 4 93.8979200526722 8.503840387656517 -0.012519022942653531 -1 0 0
1536 1 95.73848591817573 9.566225334363976 1.4442377624327531 -1 0 0
1539 4 97.5801918561852 8.503840387656519 -0.012519022942653482 -1 0 0
1531 3 95.73712945528048 7.438860216019132 2.9001929364284114 -1 0 0
1537 3 99.41940125879348 7.438860216019131 2.9001929364284087 -1 0 0
1532 3 93.89599355352414 10.62780114150013 2.900192936428409 -1 0 0
1538 3 97.57826535703714 10.62780114150013 2.900192936428409 -1 0 0
1709 1 1.8405549285942384 12.755166259844973 1.4442377624327494 0 0 0
1546 4 3.68226086660358 11.692781313137518 -0.012519022942654851 0 0 0
1715 1 5.522826732107237 12.755166259844975 1.4442377624327507 0 0 0
1707 4 1.8411249648471935 14.881722238618519 -0.012519022942653328 0 0 0
1713 4 5.523396768360194 14.881722238618519 -0.01251902294265374 0 0 0
1710 1 3.681690830350721 15.944107185325976 1.4442377624327516 0 0 0
1705 3 3.680334367455482 13.816742066981131 2.90019293642841 0 0 0
1706 3 1.83919846569914 17.00568299246213 2.9001929364284087 0 0 0
1712 3 5.52147026921214 17.005682992462127 2.90019293642841 0 0 0
1552 4 7.36453267011658 11.692781313137518 -0.012519022942653177 0 0 0
1721 1 9.205098535620237 12.755166259844975 1.4442377624327505 0 0 0
1558 4 11.04680447362958 11.692781313137518 -0.01251902294265432 0 0 0
1719 4 9.205668571873193 14.881722238618519 -0.012519022942652995 0 0 0
1716 1 7.363962633863721 15.944107185325976 1.4442377624327514 0 0 0
1722 1 11.046234437376722 15.944107185325976 1.4442377624327514 0 0 0
1711 3 7.3626061709684825 13.816742066981131 2.9001929364284096 0 0 0
1717 3 11.044877974481482 13.816742066981131 2.90019293642841 0 0 0
1718 3 9.20374207272514 17.00568299246213 2.9001929364284087 0 0 0
1727 1 12.887370339133238 12.755166259844973 1.4442377624327503 0 0 0
1564 4 14.72907627714258 11.692781313137518 -0.012519022942653904 0 0 0
1733 1 16.569642142646234 12.755166259844975 1.4442377624327518 0 0 0
1725 4 12.887940375386194 14.881722238618517 -0.012519022942653554 0 0 0
1731 4 16.570212178899194 14.881722238618517 -0.012519022942653708 0 0 0
1728 1 14.72850624088972 15.944107185325976 1.4442377624327511 0 0 0
1723 3 14.72714977799448 13.816742066981133 2.900192936428411 0 0 0
1724 3 12.886013876238142 17.00568299246213 2.900192936428409 0 0 0
1730 3 16.56828567975114 17.005682992462127 2.90019293642841 0 0 0
1570 4 18.41134808065558 11.692781313137518 -0.012519022942652306 0 0 0
1739 1 20.251913946159238 12.755166259844975 1.4442377624327507 0 0 0
1576 4 22.09361988416858 11.692781313137518 -0.01251902294265457 0 0 0
1737 4 20.252483982412194 14.881722238618519 -0.012519022942652627 0 0 0
1734 1 18.41077804440272 15.944107185325976 1.4442377624327511 0 0 0
1740 1 22.093049847915722 15.944107185325976 1.444237762432751 0 0 0
1729 3 18.40942158150748 13.816742066981131 2.9001929364284105 0 0 0
1735 3 22.09169338502048 13.816742066981131 2.900192936428409 0 0 0
1736 3 20.25055748326414 17.005682992462127 2.9001929364284083 0 0 0
1745 1 23.93418574967224 12.755166259844973 1.4442377624327494 0 0 0
1582 4 25.77589168768158 11.692781313137516 -0.012519022942654667 0 0 0
1751 1 27.616457553185235 12.755166259844975 1.4442377624327523 0 0 0
1743 4 23.934755785925194 14.881722238618517 -0.012519022942653913 0 0 0
1749 4 27.61702758943819 14.881722238618517 -0.012519022942654064 0 0 0
1746 1 25.77532165142872 15.944107185325976 1.4442377624327514 0 0 0
1741 3 25.773965188533477 13.816742066981133 2.900192936428411 0 0 0
1742 3 23.93282928677714 17.00568299246213 2.9001929364284087 0 0 0
1748 3 27.615101090290135 17.00568299246213 2.9001929364284105 0 0 0
1588 4 29.458163491194576 11.692781313137518 -0.012519022942652593 0 0 0
1757 1 31.298729356698235 12.755166259844975 1.4442377624327507 0 0 0
1594 4 33.14043529470758 11.692781313137518 -0.012519022942653467 0 0 0
1763 1 34.981001160211235 12.755166259844975 1.4442377624327507 0 0 0
1755 4 31.29929939295119 14.881722238618519 -0.012519022942653061 0 0 0
1761 4 34.981571196464195 14.881722238618519 -0.012519022942652712 0 0 0
1752 1 29.457593454941716 15.944107185325976 1.4442377624327511 0 0 0
1758 1 33.13986525845472 15.944107185325976 1.4442377624327514 0 0 0
1747 3 29.456236992046477 13.816742066981131 2.900192936428411 0 0 0
1753 3 33.13850879555948 13.816742066981131 2.90019293642841 0 0 0
1754 3 31.297372893803136 17.005682992462127 2.900192936428409 0 0 0
1760 3 34.97964469731614 17.005682992462127 2.9001929364284087 0 0 0
1600 4 36.822707098220576 11.692781313137518 -0.012519022942653677 0 0 0
1769 1 38.66327296372424 12.755166259844973 1.4442377624327498 0 0 0
1606 4 40.50497890173358 11.692781313137516 -0.01251902294265549 0 0 0
1767 4 38.6638429999772 14.881722238618517 -0.012519022942653118 0 0 0
1764 1 36.82213706196772 15.944107185325976 1.4442377624327514 0 0 0
1770 1 40.50440886548072 15.944107185325976 1.444237762432751 0 0 0
1759 3 36.820780599072485 13.81674206698113 2.9001929364284083 0 0 0
1765 3 40.50305240258548 13.816742066981133 2.900192936428412 0 0 0
1766 3 38.66191650082914 17.00568299246213 2.9001929364284083 0 0 0
1775 1 42.345544767237236 12.755166259844975 1.4442377624327518 0 0 0
1612 4 44.187250705246576 11.692781313137518 -0.012519022942652678 0 0 0
1781 1 46.02781657075023 12.755166259844975 1.4442377624327507 0 0 0
1773 4 42.346114803490195 14.881722238618517 -0.012519022942654943 0 0 0
1779 4 46.02838660700319 14.881722238618519 -0.012519022942652608 0 0 0
1776 1 44.186680668993716 15.944107185325976 1.4442377624327511 0 0 0
1771 3 44.18532420609848 13.816742066981131 2.900192936428411 0 0 0
1772 3 42.34418830434214 17.00568299246213 2.9001929364284114 0 0 0
1778 3 46.02646010785514 17.005682992462127 2.9001929364284087 0 0 0
1618 4 47.86952250875958 11.692781313137518 -0.012519022942653335 0 0 0
1625 1 49.710088374263236 12.755166259844973 1.4442377624327503 -1 0 0
1462 4 51.551794312272584 11.692781313137518 -0.012519022942654301 -1 0 0
1623 4 49.710658410516196 14.881722238618519 -0.012519022942652664 -1 0 0
1782 1 47.86895247250672 15.944107185325976 1.4442377624327514 0 0 0
1626 1 51.551224276019724 15.944107185325974 1.4442377624327507 -1 0 0
1777 3 47.86759600961148 13.816742066981131 2.900192936428409 0 0 0
1621 3 51.549867813124486 13.816742066981131 2.9001929364284096 -1 0 0
1622 3 49.70873191136814 17.005682992462127 2.900192936428408 -1 0 0
1631 1 53.39236017777624 12.755166259844975 1.4442377624327505 -1 0 0
1468 4 55.23406611578558 11.692781313137518 -0.012519022942652645 -1 0 0
1637 1 57.07463198128924 12.755166259844975 1.4442377624327505 -1 0 0
1629 4 53.3929302140292 14.881722238618519 -0.012519022942653295 -1 0 0
1635 4 57.075202017542196 14.881722238618519 -0.012519022942653802 -1 0 0
1632 1 55.23349607953272 15.944107185325976 1.4442377624327523 -1 0 0
1627 3 55.23213961663748 13.816742066981131 2.9001929364284096 -1 0 0
1628 3 53.39100371488114 17.00568299246213 2.900192936428409 -1 0 0
1634 3 57.07327551839414 17.005682992462127 2.90019293642841 -1 0 0
1474 4 58.916337919298584 11.692781313137518 -0.012519022942653696 -1 0 0
1643 1 60.75690378480224 12.755166259844975 1.4442377624327505 -1 0 0
1480 4 62.59860972281158 11.692781313137518 -0.01251902294265374 -1 0 0
1641 4 60.7574738210552 14.881722238618519 -0.01251902294265259 -1 0 0
1638 1 58.915767883045724 15.944107185325976 1.4442377624327511 -1 0 0
1644 1 62.59803968655873 15.944107185325976 1.444237762432752 -1 0 0
1633 3 58.914411420150486 13.816742066981131 2.90019293642841 -1 0 0
1639 3 62.59668322366348 13.816742066981131 2.900192936428411 -1 0 0
1640 3 60.755547321907144 17.005682992462127 2.9001929364284087 -1 0 0
1649 1 64.43917558831524 12.755166259844975 1.4442377624327523 -1 0 0
1486 4 66.28088152632458 11.692781313137518 -0.012519022942654227 -1 0 0
1655 1 68.12144739182824 12.755166259844975 1.4442377624327507 -1 0 0
1492 4 69.96315332983758 11.692781313137518 -0.012519022942652988 -1 0 0
1647 4 64.43974562456819 14.881722238618517 -0.012519022942654041 -1 0 0
1653 4 68.1220174280812 14.881722238618517 -0.012519022942653855 -1 0 0
1650 1 66.28031149007172 15.944107185325976 1.444237762432751 -1 0 0
1656 1 69.96258329358471 15.944107185325976 1.4442377624327514 -1 0 0
1645 3 66.27895502717648 13.816742066981133 2.9001929364284114 -1 0 0
1651 3 69.96122683068948 13.816742066981131 2.900192936428409 -1 0 0
1646 3 64.43781912542015 17.00568299246213 2.90019293642841 -1 0 0
1652 3 68.12009092893314 17.00568299246213 2.9001929364284096 -1 0 0
1661 1 71.80371919534124 12.755166259844975 1.444237762432751 -1 0 0
1498 4 73.64542513335059 11.692781313137518 -0.012519022942653751 -1 0 0
1667 1 75.48599099885425 12.755166259844973 1.4442377624327483 -1 0 0
1659 4 71.8042892315942 14.881722238618519 -0.012519022942652712 -1 0 0
1665 4 75.48656103510719 14.881722238618517 -0.012519022942654098 -1 0 0
1662 1 73.64485509709772 15.944107185325976 1.4442377624327514 -1 0 0
1657 3 73.64349863420249 13.81674206698113 2.9001929364284083 -1 0 0
1658 3 71.80236273244614 17.005682992462127 2.9001929364284087 -1 0 0
1664 3 75.48463453595915 17.00568299246213 2.900192936428409 -1 0 0
1504 4 77.32769693686359 11.692781313137516 -0.012519022942655732 -1 0 0
1673 1 79.16826280236724 12.755166259844975 1.4442377624327523 -1 0 0
1510 4 81.00996874037658 11.69278131313752 -0.012519022942651841 -1 0 0
1671 4 79.16883283862019 14.881722238618519 -0.01251902294265212 -1 0 0
1668 1 77.32712690061072 15.944107185325976 1.4442377624327511 -1 0 0
1674 1 81.00939870412373 15.944107185325974 1.4442377624327494 -1 0 0
1663 3 77.32577043771548 13.816742066981133 2.90019293642841 -1 0 0
1669 3 81.00804224122848 13.816742066981131 2.90019293642841 -1 0 0
1670 3 79.16690633947215 17.005682992462127 2.9001929364284083 -1 0 0
1679 1 82.85053460588024 12.755166259844975 1.4442377624327516 -1 0 0
1516 4 84.69224054388958 11.692781313137518 -0.012519022942654253 -1 0 0
1685 1 86.53280640939323 12.755166259844973 1.444237762432748 -1 0 0
1677 4 82.8511046421332 14.881722238618517 -0.012519022942654343 -1 0 0
1683 4 86.5333764456462 14.881722238618519 -0.01251902294265261 -1 0 0
1680 1 84.69167050763672 15.944107185325976 1.4442377624327527 -1 0 0
1675 3 84.69031404474148 13.816742066981131 2.9001929364284105 -1 0 0
1676 3 82.84917814298514 17.005682992462127 2.900192936428411 -1 0 0
1682 3 86.53144994649814 17.00568299246213 2.9001929364284074 -1 0 0
1522 4 88.37451234740259 11.692781313137518 -0.012519022942654548 -1 0 0
1691 1 90.21507821290623 12.755166259844975 1.4442377624327518 -1 0 0
1528 4 92.05678415091559 11.69278131313752 -0.012519022942651895 -1 0 0
1689 4 90.2156482491592 14.881722238618519 -0.012519022942652938 -1 0 0
1686 1 88.37394231114972 15.944107185325976 1.4442377624327511 -1 0 0
1692 1 92.05621411466272 15.944107185325974 1.4442377624327496 -1 0 0
1681 3 88.37258584825447 13.816742066981131 2.9001929364284105 -1 0 0
1687 3 92.05485765176748 13.816742066981131 2.90019293642841 -1 0 0
1688 3 90.21372175001115 17.005682992462127 2.900192936428409 -1 0 0
1540 4 99.42132775794158 11.692781313137518 -0.012519022942653337 -1 0 0
1704 1 99.42075772168873 15.944107185325974 1.4442377624327503 -1 0 0
1697 1 93.89735001641924 12.755166259844975 1.4442377624327525 -1 0 0
1534 4 95.73905595442858 11.692781313137518 -0.012519022942654702 -1 0 0
1703 1 97.57962181993224 12.755166259844975 1.444237762432751 -1 0 0
1695 4 93.8979200526722 14.881722238618517 -0.012519022942653722 -1 0 0